<event>
 8    1  0.7005395E-009  0.1291437E+03  0.7561462E-02  0.1228732E+00
          1   -1    0    0  501    0  0.00000000000E+00  0.00000000000E+00  0.22544830192E+03  0.22544830192E+03  0.00000000000E+00 0. -1.
         -1   -1    0    0    0  501 -0.00000000000E+00 -0.00000000000E+00 -0.11236701980E+03  0.11236701980E+03  0.00000000000E+00 0.  1.
         25    2    1    2    0    0  0.18715378093E+02  0.11384834497E+03  0.91214802694E+02  0.19307997743E+03  0.12509207179E+03 0.  0.
         23    2    1    2    0    0 -0.18715378093E+02 -0.11384834497E+03  0.21866479428E+02  0.14473534428E+03  0.84607717932E+02 0.  0.
          5    1    3    3  502    0  0.11945698091E+02  0.51550326621E+02 -0.26748529749E+02  0.59439819325E+02  0.41800000000E+01 0.  1.
         -5    1    3    3    0  502  0.67696800026E+01  0.62298018345E+02  0.11796333244E+03  0.13364015810E+03  0.41800000000E+01 0.  1.
        -11    1    4    4    0    0 -0.45678468073E+02 -0.30814671300E+02  0.15308764217E+02  0.57187626937E+02  0.00000000000E+00 0.  1.
         11    1    4    4    0    0  0.26963089980E+02 -0.83033673666E+02  0.65577152111E+01  0.87547717346E+02  0.00000000000E+00 0. -1.
</event>
<event>
 8    1  0.7005395E-009  0.2105304E+03  0.7561462E-02  0.1141147E+00
         -1   -1    0    0    0  501 -0.00000000000E+00  0.00000000000E+00  0.37098702216E+03  0.37098702216E+03  0.00000000000E+00 0.  1.
          1   -1    0    0  501    0  0.00000000000E+00 -0.00000000000E+00 -0.16441302239E+03  0.16441302239E+03  0.00000000000E+00 0. -1.
         25    2    1    2    0    0 -0.21293212091E+02  0.19315355448E+03  0.22094217186E+03  0.31972397877E+03  0.12508510224E+03 0.  0.
         23    2    1    2    0    0  0.21293212091E+02 -0.19315355448E+03 -0.14368172092E+02  0.21567606578E+03  0.92455527108E+02 0.  0.
          5    1    3    3  502    0 -0.57068894483E+02  0.17412386041E+03  0.14561858364E+03  0.23409020010E+03  0.41800000000E+01 0. -1.
         -5    1    3    3    0  502  0.35775682392E+02  0.19029694076E+02  0.75323588214E+02  0.85633778666E+02  0.41800000000E+01 0.  1.
        -11    1    4    4    0    0 -0.86492090734E+01 -0.55152997753E+02 -0.44371074626E+02  0.71312370892E+02  0.00000000000E+00 0.  1.
         11    1    4    4    0    0  0.29942421164E+02 -0.13800055673E+03  0.30002902534E+02  0.14436369489E+03  0.00000000000E+00 0. -1.
</event>
<event>
 8    1  0.7005395E-009  0.8597781E+02  0.7561462E-02  0.1312895E+00
          2   -1    0    0  501    0  0.00000000000E+00  0.00000000000E+00  0.13656449215E+03  0.13656449215E+03  0.00000000000E+00 0. -1.
         -2   -1    0    0    0  501 -0.00000000000E+00 -0.00000000000E+00 -0.10449120778E+03  0.10449120778E+03  0.00000000000E+00 0.  1.
         25    2    1    2    0    0 -0.51785251103E+02 -0.76621393582E+01 -0.66503247226E+01  0.13576648189E+03  0.12509152719E+03 0.  0.
         23    2    1    2    0    0  0.51785251103E+02  0.76621393582E+01  0.38723609102E+02  0.10528921804E+03  0.82739838785E+02 0.  0.
          5    1    3    3  502    0 -0.42640086574E+02 -0.52283488608E+02  0.33010758392E+02  0.75225811618E+02  0.41800000000E+01 0. -1.
         -5    1    3    3    0  502 -0.91451645296E+01  0.44621349250E+02 -0.39661083115E+02  0.60540670272E+02  0.41800000000E+01 0. -1.
        -11    1    4    4    0    0  0.17050579272E+02  0.15464775056E+02 -0.23944745838E+02  0.33214942033E+02  0.00000000000E+00 0.  1.
         11    1    4    4    0    0  0.34734671832E+02 -0.78026356980E+01  0.62668354940E+02  0.72074276007E+02  0.00000000000E+00 0. -1.
</event>
<event>
 8    1  0.7005395E-009  0.1232730E+03  0.7561462E-02  0.1237793E+00
         -2   -1    0    0    0  501 -0.00000000000E+00  0.00000000000E+00  0.14171954043E+03  0.14171954043E+03  0.00000000000E+00 0.  1.
          2   -1    0    0  501    0  0.00000000000E+00 -0.00000000000E+00 -0.11512115616E+03  0.11512115616E+03  0.00000000000E+00 0. -1.
         25    2    1    2    0    0  0.12855866632E+02 -0.63785223661E+02  0.33278747721E+02  0.14487458090E+03  0.12508933238E+03 0.  0.
         23    2    1    2    0    0 -0.12855866632E+02  0.63785223661E+02 -0.66803634568E+01  0.11196611569E+03  0.90873294994E+02 0.  0.
          5    1    3    3  502    0  0.39743902372E+02  0.25540948661E+02  0.14815762015E+02  0.49687996924E+02  0.41800000000E+01 0.  1.
         -5    1    3    3    0  502 -0.26888035740E+02 -0.89326172322E+02  0.18462985706E+02  0.95186583975E+02  0.41800000000E+01 0.  1.
        -11    1    4    4    0    0 -0.26238198165E+02  0.80303016074E+02  0.98278440221E+01  0.85050596422E+02  0.00000000000E+00 0.  1.
         11    1    4    4    0    0  0.13382331533E+02 -0.16517792413E+02 -0.16508207479E+02  0.26915519271E+02  0.00000000000E+00 0. -1.
</event>
<event>
 8    1  0.7005395E-009  0.1823687E+03  0.7561462E-02  0.1165530E+00
          1   -1    0    0  501    0  0.00000000000E+00  0.00000000000E+00  0.33365762195E+03  0.33365762195E+03  0.00000000000E+00 0. -1.
         -1   -1    0    0    0  501 -0.00000000000E+00 -0.00000000000E+00 -0.11552648782E+03  0.11552648782E+03  0.00000000000E+00 0.  1.
         25    2    1    2    0    0 -0.16210411302E+03  0.92696792492E+01  0.13996000386E+03  0.24819144763E+03  0.12508605672E+03 0.  0.
         23    2    1    2    0    0  0.16210411302E+03 -0.92696792492E+01  0.78171130262E+02  0.20099266214E+03  0.89014910091E+02 0.  0.
          5    1    3    3  502    0  0.14540527534E+02 -0.14881700896E+02 -0.42932573438E+00  0.21226132080E+02  0.41800000000E+01 0. -1.
         -5    1    3    3    0  502 -0.17664464055E+03  0.24151380145E+02  0.14038932960E+03  0.22696531555E+03  0.41800000000E+01 0. -1.
        -11    1    4    4    0    0  0.90302926116E+02 -0.20242272185E+02 -0.23212283689E+01  0.92572977426E+02  0.00000000000E+00 0.  1.
         11    1    4    4    0    0  0.71801186899E+02  0.10972592936E+02  0.80492358631E+02  0.10841968472E+03  0.00000000000E+00 0. -1.
</event>
<event>
 8    1  0.7005395E-009  0.8999970E+02  0.7561462E-02  0.1302852E+00
         -2   -1    0    0    0  501 -0.00000000000E+00  0.00000000000E+00  0.37964419743E+02  0.37964419743E+02  0.00000000000E+00 0.  1.
          2   -1    0    0  501    0  0.00000000000E+00 -0.00000000000E+00 -0.36187617715E+03  0.36187617715E+03  0.00000000000E+00 0. -1.
         25    2    1    2    0    0  0.10864229160E+02 -0.10261697473E+02 -0.11060572496E+03  0.16764569838E+03  0.12509244533E+03 0.  0.
         23    2    1    2    0    0 -0.10864229160E+02  0.10261697473E+02 -0.21330603245E+03  0.23219489852E+03  0.90507864357E+02 0.  0.
          5    1    3    3  502    0  0.30393647777E+02 -0.50514393122E+02 -0.10741115139E+03  0.12259733105E+03  0.41800000000E+01 0. -1.
         -5    1    3    3    0  502 -0.19529418618E+02  0.40252695649E+02 -0.31945735747E+01  0.45048367327E+02  0.41800000000E+01 0. -1.
        -11    1    4    4    0    0  0.66780820176E+01  0.40477321550E+02 -0.47571522766E+02  0.62817673608E+02  0.00000000000E+00 0.  1.
         11    1    4    4    0    0 -0.17542311177E+02 -0.30215624077E+02 -0.16573450968E+03  0.16937722491E+03  0.00000000000E+00 0. -1.
</event>
<event>
 8    1  0.7005395E-009  0.9453940E+02  0.7561462E-02  0.1292217E+00
          1   -1    0    0  501    0  0.00000000000E+00  0.00000000000E+00  0.41024246282E+03  0.41024246282E+03  0.00000000000E+00 0. -1.
         -1   -1    0    0    0  501 -0.00000000000E+00 -0.00000000000E+00 -0.43272496058E+02  0.43272496058E+02  0.00000000000E+00 0.  1.
         25    2    1    2    0    0 -0.12497290336E+01  0.62639149245E+01  0.33309380897E+03  0.35586469723E+03  0.12508956276E+03 0.  0.
         23    2    1    2    0    0  0.12497290336E+01 -0.62639149245E+01  0.33876157794E+02  0.97650261645E+02  0.91362908664E+02 0.  0.
          5    1    3    3  502    0  0.39176960761E+02  0.47086520053E+02  0.11584755768E+03  0.13111103556E+03  0.41800000000E+01 0. -1.
         -5    1    3    3    0  502 -0.40426689795E+02 -0.40822605128E+02  0.21724625129E+03  0.22475366167E+03  0.41800000000E+01 0. -1.
        -11    1    4    4    0    0  0.33285805291E+02 -0.15528332806E+02 -0.13997232794E+02  0.39306443231E+02  0.00000000000E+00 0.  1.
         11    1    4    4    0    0 -0.32036076257E+02  0.92644178818E+01  0.47873390588E+02  0.58343818413E+02  0.00000000000E+00 0. -1.
</event>
<event>
 8    1  0.7005395E-009  0.1845603E+03  0.7561462E-02  0.1163461E+00
         -2   -1    0    0    0  501 -0.00000000000E+00  0.00000000000E+00  0.11835006941E+03  0.11835006941E+03  0.00000000000E+00 0.  1.
          2   -1    0    0  501    0  0.00000000000E+00 -0.00000000000E+00 -0.36525335011E+03  0.36525335011E+03  0.00000000000E+00 0. -1.
         25    2    1    2    0    0  0.35460703688E+02 -0.17179275189E+03 -0.15349028206E+03  0.26453221708E+03  0.12509123103E+03 0.  0.
         23    2    1    2    0    0 -0.35460703688E+02  0.17179275189E+03 -0.93412998634E+02  0.21907120244E+03  0.92173707311E+02 0.  0.
          5    1    3    3  502    0  0.62865449303E+01 -0.15411772681E+02  0.21825094966E+02  0.27764195551E+02  0.41800000000E+01 0. -1.
         -5    1    3    3    0  502  0.29174158758E+02 -0.15638097921E+03 -0.17531537703E+03  0.23676802153E+03  0.41800000000E+01 0. -1.
        -11    1    4    4    0    0  0.20277164408E+02  0.99473693852E+02 -0.74253975960E+02  0.12577691406E+03  0.00000000000E+00 0. -1.
         11    1    4    4    0    0 -0.55737868096E+02  0.72319058035E+02 -0.19159022674E+02  0.93294288382E+02  0.00000000000E+00 0.  1.
</event>
<event>
 8    1  0.7005395E-009  0.9795266E+02  0.7561462E-02  0.1284661E+00
         -2   -1    0    0    0  501 -0.00000000000E+00  0.00000000000E+00  0.41041449723E+02  0.41041449723E+02  0.00000000000E+00 0.  1.
          2   -1    0    0  501    0  0.00000000000E+00 -0.00000000000E+00 -0.39182725846E+03  0.39182725846E+03  0.00000000000E+00 0. -1.
         25    2    1    2    0    0 -0.35658215927E+02  0.53495609599E+02 -0.21914261085E+03  0.26039267238E+03  0.12509025272E+03 0.  0.
         23    2    1    2    0    0  0.35658215927E+02 -0.53495609599E+02 -0.13164319788E+03  0.17247603580E+03  0.91020672204E+02 0.  0.
          5    1    3    3  502    0 -0.13298757198E+02 -0.10573667364E+02  0.10832490925E+02  0.20578499561E+02  0.41800000000E+01 0. -1.
         -5    1    3    3    0  502 -0.22359458729E+02  0.64069276964E+02 -0.22997510178E+03  0.23981417282E+03  0.41800000000E+01 0. -1.
        -11    1    4    4    0    0 -0.23639315231E+02 -0.44576491265E+02 -0.71827588793E+02  0.87778603941E+02  0.00000000000E+00 0. -1.
         11    1    4    4    0    0  0.59297531158E+02 -0.89191183344E+01 -0.59815609085E+02  0.84697431859E+02  0.00000000000E+00 0.  1.
</event>
<event>
 8    1  0.7005395E-009  0.1488675E+03  0.7561462E-02  0.1201872E+00
         -1   -1    0    0    0  501 -0.00000000000E+00  0.00000000000E+00  0.40266112825E+02  0.40266112825E+02  0.00000000000E+00 0.  1.
          1   -1    0    0  501    0  0.00000000000E+00 -0.00000000000E+00 -0.72581144676E+03  0.72581144676E+03  0.00000000000E+00 0. -1.
         25    2    1    2    0    0  0.11305796247E+03  0.29619403496E+02 -0.48483375674E+03  0.51417130113E+03  0.12509573649E+03 0.  0.
         23    2    1    2    0    0 -0.11305796247E+03 -0.29619403496E+02 -0.20071157719E+03  0.25190625845E+03  0.97530579257E+02 0.  0.
          5    1    3    3  502    0  0.50023792342E+01 -0.24151661448E+02 -0.23868646537E+03  0.23999380763E+03  0.41800000000E+01 0.  1.
         -5    1    3    3    0  502  0.10805558323E+03  0.53771064944E+02 -0.24614729137E+03  0.27417749350E+03  0.41800000000E+01 0.  1.
        -11    1    4    4    0    0 -0.12314916580E+03 -0.26736879137E+01 -0.16837429692E+03  0.20862111472E+03  0.00000000000E+00 0.  1.
         11    1    4    4    0    0  0.10091203331E+02 -0.26945715582E+02 -0.32337280266E+02  0.43285143732E+02  0.00000000000E+00 0. -1.
</event>
<event>
 8    1  0.7005395E-009  0.1110668E+03  0.7561462E-02  0.1258607E+00
          2   -1    0    0  501    0  0.00000000000E+00  0.00000000000E+00  0.28939698978E+03  0.28939698978E+03  0.00000000000E+00 0. -1.
         -2   -1    0    0    0  501 -0.00000000000E+00 -0.00000000000E+00 -0.86284931006E+02  0.86284931006E+02  0.00000000000E+00 0.  1.
         25    2    1    2    0    0 -0.47843334606E+02 -0.35252551563E+02 -0.77984820501E+01  0.13871001721E+03  0.12509166836E+03 0.  0.
         23    2    1    2    0    0  0.47843334606E+02  0.35252551563E+02  0.21091054082E+03  0.23697190357E+03  0.90225826661E+02 0.  0.
          5    1    3    3  502    0  0.35515229040E+02  0.78843744787E+01  0.18666069420E+02  0.41102182451E+02  0.41800000000E+01 0. -1.
         -5    1    3    3    0  502 -0.83358563646E+02 -0.43136926042E+02 -0.26464551470E+02  0.97607834757E+02  0.41800000000E+01 0. -1.
        -11    1    4    4    0    0  0.49561376976E+02 -0.63129092690E+01  0.17507532227E+03  0.18206469009E+03  0.00000000000E+00 0. -1.
         11    1    4    4    0    0 -0.17180423701E+01  0.41565460832E+02  0.35835218555E+02  0.54907213485E+02  0.00000000000E+00 0.  1.
</event>
<event>
 8    1  0.7005395E-009  0.1999319E+03  0.7561462E-02  0.1149796E+00
          1   -1    0    0  501    0  0.00000000000E+00  0.00000000000E+00  0.40496640224E+02  0.40496640224E+02  0.00000000000E+00 0. -1.
         -1   -1    0    0    0  501 -0.00000000000E+00 -0.00000000000E+00 -0.10164131036E+04  0.10164131036E+04  0.00000000000E+00 0.  1.
         25    2    1    2    0    0 -0.13144629605E+03  0.10917284368E+03 -0.48130584048E+03  0.52583225325E+03  0.12508959961E+03 0.  0.
         23    2    1    2    0    0  0.13144629605E+03 -0.10917284368E+03 -0.49461062291E+03  0.53107749060E+03  0.90591358168E+02 0.  0.
          5    1    3    3  502    0 -0.60114870985E+02  0.12349998505E+03 -0.28402261877E+03  0.31551919814E+03  0.41800000000E+01 0.  1.
         -5    1    3    3    0  502 -0.71331425064E+02 -0.14327141364E+02 -0.19728322171E+03  0.21031305511E+03  0.41800000000E+01 0.  1.
        -11    1    4    4    0    0  0.10581933126E+03 -0.35576074557E+02 -0.23777847556E+03  0.26268230125E+03  0.00000000000E+00 0.  1.
         11    1    4    4    0    0  0.25626964788E+02 -0.73596769127E+02 -0.25683214736E+03  0.26839518935E+03  0.00000000000E+00 0. -1.
</event>
<event>
 8    1  0.7005395E-009  0.1552190E+03  0.7561462E-02  0.1194203E+00
         -2   -1    0    0    0  501 -0.00000000000E+00  0.00000000000E+00  0.10216652110E+03  0.10216652110E+03  0.00000000000E+00 0.  1.
          2   -1    0    0  501    0  0.00000000000E+00 -0.00000000000E+00 -0.26392570410E+03  0.26392570410E+03  0.00000000000E+00 0. -1.
         25    2    1    2    0    0  0.81033393318E+02 -0.88102546968E+02 -0.62775208972E+02  0.18416476345E+03  0.12508982220E+03 0.  0.
         23    2    1    2    0    0 -0.81033393318E+02  0.88102546968E+02 -0.98983974028E+02  0.18192746176E+03  0.94716971095E+02 0.  0.
          5    1    3    3  502    0  0.35444306004E+02 -0.11420675083E+03 -0.51534366537E+02  0.13027948456E+03  0.41800000000E+01 0.  1.
         -5    1    3    3    0  502  0.45589087315E+02  0.26104203864E+02 -0.11240842435E+02  0.53885278882E+02  0.41800000000E+01 0.  1.
        -11    1    4    4    0    0 -0.45527577569E+01  0.54260588148E+02 -0.78986361829E+02  0.95936355905E+02  0.00000000000E+00 0. -1.
         11    1    4    4    0    0 -0.76480635561E+02  0.33841958820E+02 -0.19997612200E+02  0.85991105856E+02  0.00000000000E+00 0.  1.
</event>
<event>
 8    1  0.7005395E-009  0.8802428E+02  0.7561462E-02  0.1307708E+00
          2   -1    0    0  501    0  0.00000000000E+00  0.00000000000E+00  0.23211583962E+03  0.23211583962E+03  0.00000000000E+00 0.  1.
         -2   -1    0    0    0  501 -0.00000000000E+00 -0.00000000000E+00 -0.55397955242E+02  0.55397955242E+02  0.00000000000E+00 0. -1.
         25    2    1    2    0    0 -0.15623566896E+02  0.29258593394E+02  0.10912459442E+03  0.16927944233E+03  0.12508873394E+03 0.  0.
         23    2    1    2    0    0  0.15623566896E+02 -0.29258593394E+02  0.67593289959E+02  0.11823435253E+03  0.91161110902E+02 0.  0.
          5    1    3    3  502    0  0.79895483648E+01 -0.39888280187E+02  0.81254870616E+02  0.90965565893E+02  0.41800000000E+01 0. -1.
         -5    1    3    3    0  502 -0.23613115261E+02  0.69146873580E+02  0.27869723805E+02  0.78313876441E+02  0.41800000000E+01 0. -1.
        -11    1    4    4    0    0  0.25845190753E+02 -0.39689333703E+02  0.83899117270E+02  0.96344584557E+02  0.00000000000E+00 0.  1.
         11    1    4    4    0    0 -0.10221623857E+02  0.10430740309E+02 -0.16305827311E+02  0.21889767974E+02  0.00000000000E+00 0. -1.
</event>
<event>
 8    1  0.7005395E-009  0.9844077E+02  0.7561462E-02  0.1283609E+00
         -2   -1    0    0    0  501 -0.00000000000E+00  0.00000000000E+00  0.31668864324E+02  0.31668864324E+02  0.00000000000E+00 0.  1.
          2   -1    0    0  501    0  0.00000000000E+00 -0.00000000000E+00 -0.50575126573E+03  0.50575126573E+03  0.00000000000E+00 0. -1.
         25    2    1    2    0    0 -0.26060026140E+02  0.42920608038E+02 -0.35418211380E+03  0.37896542421E+03  0.12509404244E+03 0.  0.
         23    2    1    2    0    0  0.26060026140E+02 -0.42920608038E+02 -0.11990028761E+03  0.15845470584E+03  0.90611871622E+02 0.  0.
          5    1    3    3  502    0  0.38178249894E+02  0.55870140174E+02 -0.15327705645E+03  0.16760184892E+03  0.41800000000E+01 0.  1.
         -5    1    3    3    0  502 -0.64238276035E+02 -0.12949532135E+02 -0.20090505735E+03  0.21136357529E+03  0.41800000000E+01 0.  1.
        -11    1    4    4    0    0  0.19176137206E+01 -0.38897649822E+02 -0.30449895961E+01  0.39063747461E+02  0.00000000000E+00 0.  1.
         11    1    4    4    0    0  0.24142412420E+02 -0.40229582160E+01 -0.11685529801E+03  0.11939095838E+03  0.00000000000E+00 0. -1.
</event>
<event>
 8    1  0.7005395E-009  0.1215592E+03  0.7561462E-02  0.1240547E+00
          1   -1    0    0  501    0  0.00000000000E+00  0.00000000000E+00  0.16282691399E+02  0.16282691399E+02  0.00000000000E+00 0. -1.
         -1   -1    0    0    0  501 -0.00000000000E+00 -0.00000000000E+00 -0.10498370211E+04  0.10498370211E+04  0.00000000000E+00 0.  1.
         25    2    1    2    0    0 -0.46003841430E+02  0.41250790963E+02 -0.72257429517E+03  0.73592052310E+03  0.12508966023E+03 0.  0.
         23    2    1    2    0    0  0.46003841430E+02 -0.41250790963E+02 -0.31098003456E+03  0.33019918943E+03  0.92222240393E+02 0.  0.
          5    1    3    3  502    0 -0.76174493892E+02 -0.53649293871E+01 -0.52888044490E+03  0.53438126220E+03  0.41800000000E+01 0.  1.
         -5    1    3    3    0  502  0.30170652462E+02  0.46615720350E+02 -0.19369385027E+03  0.20153926090E+03  0.41800000000E+01 0.  1.
        -11    1    4    4    0    0  0.19548229797E+02 -0.69533472979E+02 -0.19756610059E+03  0.21035541651E+03  0.00000000000E+00 0.  1.
         11    1    4    4    0    0  0.26455611633E+02  0.28282682016E+02 -0.11341393397E+03  0.11984377292E+03  0.00000000000E+00 0. -1.
</event>
<event>
 8    1  0.7005395E-009  0.8126523E+02  0.7561462E-02  0.1325499E+00
          1   -1    0    0  501    0  0.00000000000E+00  0.00000000000E+00  0.55707563220E+03  0.55707563220E+03  0.00000000000E+00 0. -1.
         -1   -1    0    0    0  501 -0.00000000000E+00 -0.00000000000E+00 -0.32834303083E+02  0.32834303083E+02  0.00000000000E+00 0.  1.
         25    2    1    2    0    0 -0.24788162773E+02 -0.29222667004E+02  0.44499772989E+03  0.46383060661E+03  0.12508970676E+03 0.  0.
         23    2    1    2    0    0  0.24788162773E+02  0.29222667004E+02  0.79243599228E+02  0.12607932868E+03  0.90266449028E+02 0.  0.
          5    1    3    3  502    0  0.91220522336E+01 -0.64939184953E+02  0.35613836812E+03  0.36214958128E+03  0.41800000000E+01 0.  1.
         -5    1    3    3    0  502 -0.33910215007E+02  0.35716517948E+02  0.88859361772E+02  0.10168102532E+03  0.41800000000E+01 0.  1.
        -11    1    4    4    0    0  0.27866761624E+02  0.12766698646E+02 -0.12292397592E+02  0.33024960807E+02  0.00000000000E+00 0.  1.
         11    1    4    4    0    0 -0.30785988505E+01  0.16455968358E+02  0.91535996820E+02  0.93054367868E+02  0.00000000000E+00 0. -1.
</event>
<event>
 8    1  0.7005395E-009  0.1132910E+03  0.7561462E-02  0.1254594E+00
          1   -1    0    0  501    0  0.00000000000E+00  0.00000000000E+00  0.34401147107E+03  0.34401147107E+03  0.00000000000E+00 0. -1.
         -1   -1    0    0    0  501 -0.00000000000E+00 -0.00000000000E+00 -0.45102223003E+02  0.45102223003E+02  0.00000000000E+00 0.  1.
         25    2    1    2    0    0 -0.34896028486E+02 -0.10683510861E+02  0.88910012390E+02  0.15774814158E+03  0.12509042994E+03 0.  0.
         23    2    1    2    0    0  0.34896028486E+02  0.10683510861E+02  0.20999923568E+03  0.23136555249E+03  0.89991497847E+02 0.  0.
          5    1    3    3  502    0 -0.67013413473E+02 -0.46129832058E+02  0.64370099055E+02  0.10382553175E+03  0.41800000000E+01 0. -1.
         -5    1    3    3    0  502  0.32117384987E+02  0.35446321197E+02  0.24539913335E+02  0.53922609834E+02  0.41800000000E+01 0. -1.
        -11    1    4    4    0    0  0.64009976677E+02  0.19098315619E+02  0.14326929384E+03  0.15807628959E+03  0.00000000000E+00 0.  1.
         11    1    4    4    0    0 -0.29113948190E+02 -0.84148047580E+01  0.66729941834E+02  0.73289262894E+02  0.00000000000E+00 0. -1.
</event>
<event>
 8    1  0.7005395E-009  0.8707702E+02  0.7561462E-02  0.1310089E+00
          2   -1    0    0  501    0  0.00000000000E+00  0.00000000000E+00  0.88188667544E+03  0.88188667544E+03  0.00000000000E+00 0. -1.
         -2   -1    0    0    0  501 -0.00000000000E+00 -0.00000000000E+00 -0.16859134729E+02  0.16859134729E+02  0.00000000000E+00 0.  1.
         25    2    1    2    0    0  0.30469932816E+02  0.12791087834E+02  0.65230297470E+03  0.66500884818E+03  0.12508224741E+03 0.  0.
         23    2    1    2    0    0 -0.30469932816E+02 -0.12791087834E+02  0.21272456602E+03  0.23373696200E+03  0.91045031073E+02 0.  0.
          5    1    3    3  502    0  0.50873906361E+02 -0.19337758688E+02  0.58527973269E+03  0.58781965019E+03  0.41800000000E+01 0. -1.
         -5    1    3    3    0  502 -0.20403973545E+02  0.32128846522E+02  0.67023242012E+02  0.77189197981E+02  0.41800000000E+01 0. -1.
        -11    1    4    4    0    0  0.83923917372E+01 -0.35357811913E+02  0.35128086224E+02  0.50542947521E+02  0.00000000000E+00 0.  1.
         11    1    4    4    0    0 -0.38862324553E+02  0.22566724080E+02  0.17759647979E+03  0.18319401448E+03  0.00000000000E+00 0. -1.
</event>
<event>
 8    1  0.7005395E-009  0.1100681E+03  0.7561462E-02  0.1260444E+00
          1   -1    0    0  501    0  0.00000000000E+00  0.00000000000E+00  0.66385403143E+03  0.66385403143E+03  0.00000000000E+00 0. -1.
         -1   -1    0    0    0  501 -0.00000000000E+00 -0.00000000000E+00 -0.23241417204E+02  0.23241417204E+02  0.00000000000E+00 0.  1.
         25    2    1    2    0    0  0.38543251433E+02 -0.47307885503E+02  0.31963668146E+03  0.34862452060E+03  0.12509128652E+03 0.  0.
         23    2    1    2    0    0 -0.38543251433E+02  0.47307885503E+02  0.32097593276E+03  0.33847092804E+03  0.88393446876E+02 0.  0.
          5    1    3    3  502    0  0.17921733988E+02 -0.79408618800E+02  0.11831117613E+03  0.14367297619E+03  0.41800000000E+01 0. -1.
         -5    1    3    3    0  502  0.20621517446E+02  0.32100733297E+02  0.20132550533E+03  0.20495154441E+03  0.41800000000E+01 0. -1.
        -11    1    4    4    0    0 -0.56725913085E+02  0.84663163910E+01  0.12042225558E+03  0.13338301004E+03  0.00000000000E+00 0. -1.
         11    1    4    4    0    0  0.18182661652E+02  0.38841569112E+02  0.20055367718E+03  0.20508791799E+03  0.00000000000E+00 0.  1.
</event>
<event>
 8    1  0.7005395E-009  0.1842187E+03  0.7561462E-02  0.1163781E+00
          2   -1    0    0  501    0  0.00000000000E+00  0.00000000000E+00  0.33762055285E+03  0.33762055285E+03  0.00000000000E+00 0. -1.
         -2   -1    0    0    0  501 -0.00000000000E+00 -0.00000000000E+00 -0.31215851693E+03  0.31215851693E+03  0.00000000000E+00 0.  1.
         25    2    1    2    0    0 -0.58036159832E+02 -0.16564713458E+03  0.26336664814E+03  0.34031961518E+03  0.12509308566E+03 0.  0.
         23    2    1    2    0    0  0.58036159832E+02  0.16564713458E+03 -0.23790461221E+03  0.30945945460E+03  0.91429647761E+02 0.  0.
          5    1    3    3  502    0 -0.50938202990E+02 -0.15433273537E+03  0.27674084253E+03  0.32096146195E+03  0.41800000000E+01 0.  1.
         -5    1    3    3    0  502 -0.70979568424E+01 -0.11314399209E+02 -0.13374194391E+02  0.19358153229E+02  0.41800000000E+01 0.  1.
        -11    1    4    4    0    0  0.58170919550E+02  0.51419541119E+02 -0.60354613913E+02  0.98338723353E+02  0.00000000000E+00 0.  1.
         11    1    4    4    0    0 -0.13475971759E+00  0.11422759346E+03 -0.17754999830E+03  0.21112073125E+03  0.00000000000E+00 0. -1.
</event>
<event>
 8    1  0.7005395E-009  0.3551832E+03  0.7561462E-02  0.1060508E+00
          2   -1    0    0  501    0  0.00000000000E+00  0.00000000000E+00  0.32778320010E+04  0.32778320010E+04  0.00000000000E+00 0.  1.
         -2   -1    0    0    0  501 -0.00000000000E+00 -0.00000000000E+00 -0.41515479423E+02  0.41515479423E+02  0.00000000000E+00 0. -1.
         25    2    1    2    0    0  0.25263160638E+03 -0.24106433861E+03  0.18524295975E+04  0.18892002231E+04  0.12508926897E+03 0.  0.
         23    2    1    2    0    0 -0.25263160638E+03  0.24106433861E+03  0.13838869240E+04  0.14301472573E+04  0.90793255381E+02 0.  0.
          5    1    3    3  502    0  0.32462837772E+02 -0.47641846110E+02  0.13370777428E+03  0.14566682065E+03  0.41800000000E+01 0. -1.
         -5    1    3    3    0  502  0.22016876861E+03 -0.19342249250E+03  0.17187218233E+04  0.17435334024E+04  0.41800000000E+01 0. -1.
        -11    1    4    4    0    0 -0.10972305312E+03  0.16340112457E+03  0.69614081841E+03  0.72343010371E+03  0.00000000000E+00 0.  1.
         11    1    4    4    0    0 -0.14290855327E+03  0.77663214044E+02  0.68774610562E+03  0.70671715361E+03  0.00000000000E+00 0. -1.
</event>
<event>
 8    1  0.7005395E-009  0.2988794E+03  0.7561462E-02  0.1085802E+00
          1   -1    0    0  501    0  0.00000000000E+00  0.00000000000E+00  0.68296102475E+03  0.68296102475E+03  0.00000000000E+00 0. -1.
         -1   -1    0    0    0  501 -0.00000000000E+00 -0.00000000000E+00 -0.14567431439E+03  0.14567431439E+03  0.00000000000E+00 0.  1.
         25    2    1    2    0    0  0.28654594767E+03 -0.70601615887E+02  0.24421385375E+03  0.40296543347E+03  0.12509023109E+03 0.  0.
         23    2    1    2    0    0 -0.28654594767E+03  0.70601615887E+02  0.29307285661E+03  0.42566990567E+03  0.90609055937E+02 0.  0.
          5    1    3    3  502    0  0.41859653156E+02 -0.17754735916E+02  0.10954744397E+03  0.11868266971E+03  0.41800000000E+01 0.  1.
         -5    1    3    3    0  502  0.24468629451E+03 -0.52846879972E+02  0.13466640978E+03  0.28428276376E+03  0.41800000000E+01 0.  1.
        -11    1    4    4    0    0 -0.16808104081E+02  0.21947027234E+02  0.59297456345E+02  0.65424557287E+02  0.00000000000E+00 0. -1.
         11    1    4    4    0    0 -0.26973784359E+03  0.48654588653E+02  0.23377540027E+03  0.36024534838E+03  0.00000000000E+00 0.  1.
</event>
<event>
 8    1  0.7005395E-009  0.9835016E+02  0.7561462E-02  0.1283804E+00
          1   -1    0    0  501    0  0.00000000000E+00  0.00000000000E+00  0.33047004761E+02  0.33047004761E+02  0.00000000000E+00 0. -1.
         -1   -1    0    0    0  501 -0.00000000000E+00 -0.00000000000E+00 -0.65490035435E+03  0.65490035435E+03  0.00000000000E+00 0.  1.
         25    2    1    2    0    0 -0.85408327816E+02  0.32753271927E+02 -0.42220575721E+03  0.44974804636E+03  0.12509294343E+03 0.  0.
         23    2    1    2    0    0  0.85408327816E+02 -0.32753271927E+02 -0.19964759238E+03  0.23819931276E+03  0.92262626091E+02 0.  0.
          5    1    3    3  502    0 -0.49831811167E+02  0.15917278912E+02 -0.41273004235E+02  0.66764529885E+02  0.41800000000E+01 0.  1.
         -5    1    3    3    0  502 -0.35576516649E+02  0.16835993015E+02 -0.38093275298E+03  0.38298351647E+03  0.41800000000E+01 0.  1.
        -11    1    4    4    0    0  0.48286934827E+02 -0.44541203163E+02 -0.47293948760E+02  0.80946058851E+02  0.00000000000E+00 0. -1.
         11    1    4    4    0    0  0.37121392989E+02  0.11787931236E+02 -0.15235364362E+03  0.15725325391E+03  0.00000000000E+00 0.  1.
</event>
<event>
 8    1  0.7005395E-009  0.1361291E+03  0.7561462E-02  0.1218635E+00
          2   -1    0    0  501    0  0.00000000000E+00  0.00000000000E+00  0.25128114106E+03  0.25128114106E+03  0.00000000000E+00 0. -1.
         -2   -1    0    0    0  501 -0.00000000000E+00 -0.00000000000E+00 -0.18959029827E+03  0.18959029827E+03  0.00000000000E+00 0.  1.
         25    2    1    2    0    0  0.75838239039E+02 -0.86101307270E+02  0.18373723175E+03  0.25014530086E+03  0.12509367529E+03 0.  0.
         23    2    1    2    0    0 -0.75838239039E+02  0.86101307270E+02 -0.12204638896E+03  0.19072613847E+03  0.91193559109E+02 0.  0.
          5    1    3    3  502    0  0.92925174480E+02 -0.73898536327E+02  0.19314811840E+03  0.22675923303E+03  0.41800000000E+01 0.  1.
         -5    1    3    3    0  502 -0.17086935441E+02 -0.12202770944E+02 -0.94108866422E+01  0.23386067837E+02  0.41800000000E+01 0.  1.
        -11    1    4    4    0    0 -0.35183961578E+02  0.84307760224E+02 -0.41199459859E+02  0.10021529364E+03  0.00000000000E+00 0. -1.
         11    1    4    4    0    0 -0.40654277461E+02  0.17935470464E+01 -0.80846929102E+02  0.90510844831E+02  0.00000000000E+00 0.  1.
</event>
<event>
 8    1  0.7005395E-009  0.1092564E+03  0.7561462E-02  0.1261953E+00
          2   -1    0    0  501    0  0.00000000000E+00  0.00000000000E+00  0.31916641094E+02  0.31916641094E+02  0.00000000000E+00 0. -1.
         -2   -1    0    0    0  501 -0.00000000000E+00 -0.00000000000E+00 -0.58145729178E+03  0.58145729178E+03  0.00000000000E+00 0.  1.
         25    2    1    2    0    0 -0.65254557582E+02 -0.57667313589E+01 -0.19447453922E+03  0.24033096160E+03  0.12508881735E+03 0.  0.
         23    2    1    2    0    0  0.65254557582E+02  0.57667313589E+01 -0.35506611147E+03  0.37304297127E+03  0.93796068288E+02 0.  0.
          5    1    3    3  502    0 -0.78559692946E+02 -0.28515376483E+02 -0.59331843842E+02  0.10257919938E+03  0.41800000000E+01 0.  1.
         -5    1    3    3    0  502  0.13305135364E+02  0.22748645124E+02 -0.13514269538E+03  0.13775176222E+03  0.41800000000E+01 0.  1.
        -11    1    4    4    0    0  0.55941200831E+02 -0.35229008055E+02 -0.15336056129E+03  0.16700288237E+03  0.00000000000E+00 0. -1.
         11    1    4    4    0    0  0.93133567512E+01  0.40995739414E+02 -0.20170555018E+03  0.20604008891E+03  0.00000000000E+00 0.  1.
</event>
<event>
 8    1  0.7005395E-009  0.1026867E+03  0.7561462E-02  0.1274745E+00
         -2   -1    0    0    0  501 -0.00000000000E+00  0.00000000000E+00  0.37962762647E+02  0.37962762647E+02  0.00000000000E+00 0. -1.
          2   -1    0    0  501    0  0.00000000000E+00 -0.00000000000E+00 -0.41953514647E+03  0.41953514647E+03  0.00000000000E+00 0.  1.
         25    2    1    2    0    0 -0.13517626741E+02  0.23518216019E+01 -0.99631924019E+02  0.16049784709E+03  0.12507910033E+03 0.  0.
         23    2    1    2    0    0  0.13517626741E+02 -0.23518216019E+01 -0.28194045981E+03  0.29700006203E+03  0.92359930005E+02 0.  0.
          5    1    3    3  502    0 -0.19400807581E+02  0.56569124980E+02 -0.18664961086E+02  0.62787820540E+02  0.41800000000E+01 0.  1.
         -5    1    3    3    0  502  0.58831808409E+01 -0.54217303378E+02 -0.80966962932E+02  0.97710026553E+02  0.41800000000E+01 0.  1.
        -11    1    4    4    0    0 -0.20668046211E+02 -0.36793701063E+02 -0.16670386570E+03  0.17196256398E+03  0.00000000000E+00 0.  1.
         11    1    4    4    0    0  0.34185672952E+02  0.34441879461E+02 -0.11523659411E+03  0.12503749805E+03  0.00000000000E+00 0. -1.
</event>
<event>
 8    1  0.7005395E-009  0.1313296E+03  0.7561462E-02  0.1225496E+00
          2   -1    0    0  501    0  0.00000000000E+00  0.00000000000E+00  0.43275885039E+03  0.43275885039E+03  0.00000000000E+00 0. -1.
         -2   -1    0    0    0  501 -0.00000000000E+00 -0.00000000000E+00 -0.68198338209E+02  0.68198338209E+02  0.00000000000E+00 0.  1.
         25    2    1    2    0    0 -0.10306037355E+03  0.79447715136E+02  0.14614015517E+03  0.23224712306E+03  0.12509356970E+03 0.  0.
         23    2    1    2    0    0  0.10306037355E+03 -0.79447715136E+02  0.21842035701E+03  0.26871006554E+03  0.86972794196E+02 0.  0.
          5    1    3    3  502    0 -0.50995698041E+02  0.27238728846E+02 -0.10649339715E+02  0.58935476618E+02  0.41800000000E+01 0. -1.
         -5    1    3    3    0  502 -0.52064675508E+02  0.52208986289E+02  0.15678949489E+03  0.17331164644E+03  0.41800000000E+01 0. -1.
        -11    1    4    4    0    0  0.84896454975E+02 -0.58413220520E+02  0.88459605337E+02  0.13581095013E+03  0.00000000000E+00 0.  1.
         11    1    4    4    0    0  0.18163918574E+02 -0.21034494615E+02  0.12996075167E+03  0.13289911541E+03  0.00000000000E+00 0. -1.
</event>
<event>
 8    1  0.7005395E-009  0.1959053E+03  0.7561462E-02  0.1153240E+00
          1   -1    0    0  501    0  0.00000000000E+00  0.00000000000E+00  0.67596132992E+03  0.67596132992E+03  0.00000000000E+00 0. -1.
         -1   -1    0    0    0  501 -0.00000000000E+00 -0.00000000000E+00 -0.96797836945E+02  0.96797836945E+02  0.00000000000E+00 0.  1.
         25    2    1    2    0    0  0.16488917499E+03  0.10314999324E+03  0.48736829426E+03  0.53944662791E+03  0.12508576652E+03 0.  0.
         23    2    1    2    0    0 -0.16488917499E+03 -0.10314999324E+03  0.91795198719E+02  0.23331253895E+03  0.90443469577E+02 0.  0.
          5    1    3    3  502    0  0.19477584462E+02  0.20387484943E+02  0.23438269198E+03  0.23610960281E+03  0.41800000000E+01 0. -1.
         -5    1    3    3    0  502  0.14541159053E+03  0.82762508297E+02  0.25298560227E+03  0.30333702510E+03  0.41800000000E+01 0. -1.
        -11    1    4    4    0    0 -0.45357482175E+02 -0.41350567166E+02 -0.13022596737E+02  0.62743594255E+02  0.00000000000E+00 0.  1.
         11    1    4    4    0    0 -0.11953169282E+03 -0.61799426073E+02  0.10481779546E+03  0.17056894470E+03  0.00000000000E+00 0. -1.
</event>
<event>
 8    1  0.7005395E-009  0.9928146E+02  0.7561462E-02  0.1281814E+00
         -1   -1    0    0    0  501 -0.00000000000E+00  0.00000000000E+00  0.39056717162E+02  0.39056717162E+02  0.00000000000E+00 0.  1.
          1   -1    0    0  501    0  0.00000000000E+00 -0.00000000000E+00 -0.40032524975E+03  0.40032524975E+03  0.00000000000E+00 0. -1.
         25    2    1    2    0    0  0.32122187906E+02 -0.69174720279E+01 -0.29365587838E+03  0.32087778099E+03  0.12509631909E+03 0.  0.
         23    2    1    2    0    0 -0.32122187906E+02  0.69174720279E+01 -0.67612654214E+02  0.11850418593E+03  0.91608322205E+02 0.  0.
          5    1    3    3  502    0  0.61387917338E+02 -0.25343058504E+02 -0.27163300051E+03  0.27966534712E+03  0.41800000000E+01 0.  1.
         -5    1    3    3    0  502 -0.29265729432E+02  0.18425586476E+02 -0.22022877862E+02  0.41212433870E+02  0.41800000000E+01 0.  1.
        -11    1    4    4    0    0  0.30995456746E+02 -0.86390071464E+01 -0.25406396937E+02  0.40997997374E+02  0.00000000000E+00 0. -1.
         11    1    4    4    0    0 -0.63117644652E+02  0.15556479174E+02 -0.42206257277E+02  0.77506188553E+02  0.00000000000E+00 0.  1.
</event>
<event>
 8    1  0.7005395E-009  0.1456422E+03  0.7561462E-02  0.1205932E+00
          1   -1    0    0  501    0  0.00000000000E+00  0.00000000000E+00  0.89162960680E+03  0.89162960680E+03  0.00000000000E+00 0. -1.
         -1   -1    0    0    0  501 -0.00000000000E+00 -0.00000000000E+00 -0.32448601829E+02  0.32448601829E+02  0.00000000000E+00 0.  1.
         25    2    1    2    0    0 -0.63621183541E+02 -0.11030932741E+03  0.37872860538E+03  0.41868680096E+03  0.12508987992E+03 0.  0.
         23    2    1    2    0    0  0.63621183541E+02  0.11030932741E+03  0.48045239959E+03  0.50539140766E+03  0.91488600158E+02 0.  0.
          5    1    3    3  502    0 -0.56063082900E+02 -0.15758101400E+02  0.26096336022E+03  0.26741491133E+03  0.41800000000E+01 0.  1.
         -5    1    3    3    0  502 -0.75581006418E+01 -0.94551226013E+02  0.11776524516E+03  0.15127188963E+03  0.41800000000E+01 0.  1.
        -11    1    4    4    0    0  0.30465366681E+02  0.96228578463E+01  0.34533394353E+02  0.47045651081E+02  0.00000000000E+00 0.  1.
         11    1    4    4    0    0  0.33155816861E+02  0.10068646957E+03  0.44591900524E+03  0.45834575658E+03  0.00000000000E+00 0. -1.
</event>
<event>
 8    1  0.7005395E-009  0.2079460E+03  0.7561462E-02  0.1143203E+00
          1   -1    0    0  501    0  0.00000000000E+00  0.00000000000E+00  0.72906522011E+03  0.72906522011E+03  0.00000000000E+00 0. -1.
         -1   -1    0    0    0  501 -0.00000000000E+00 -0.00000000000E+00 -0.70233469899E+02  0.70233469899E+02  0.00000000000E+00 0.  1.
         25    2    1    2    0    0 -0.90049598552E+02  0.17493922425E+03  0.30802295387E+03  0.38631276559E+03  0.12508697120E+03 0.  0.
         23    2    1    2    0    0  0.90049598552E+02 -0.17493922425E+03  0.35080879635E+03  0.41298592443E+03  0.93690446683E+02 0.  0.
          5    1    3    3  502    0 -0.60850057248E+01  0.58040109365E+02  0.19404027509E+03  0.20266914503E+03  0.41800000000E+01 0. -1.
         -5    1    3    3    0  502 -0.83964592827E+02  0.11689911488E+03  0.11398267877E+03  0.18364362055E+03  0.41800000000E+01 0. -1.
        -11    1    4    4    0    0  0.39947514059E+02 -0.15399372901E+03  0.29471162213E+03  0.33491015612E+03  0.00000000000E+00 0. -1.
         11    1    4    4    0    0  0.50102084493E+02 -0.20945495240E+02  0.56097174212E+02  0.78075768302E+02  0.00000000000E+00 0.  1.
</event>
<event>
 8    1  0.7005395E-009  0.1628505E+03  0.7561462E-02  0.1185516E+00
          1   -1    0    0  501    0  0.00000000000E+00  0.00000000000E+00  0.86180862116E+02  0.86180862116E+02  0.00000000000E+00 0. -1.
         -1   -1    0    0    0  501 -0.00000000000E+00 -0.00000000000E+00 -0.33872353616E+03  0.33872353616E+03  0.00000000000E+00 0.  1.
         25    2    1    2    0    0  0.17268625400E+02 -0.13310924249E+03 -0.14538533122E+03  0.23409529954E+03  0.12508972329E+03 0.  0.
         23    2    1    2    0    0 -0.17268625400E+02  0.13310924249E+03 -0.10715734282E+03  0.19080909874E+03  0.83121237837E+02 0.  0.
          5    1    3    3  502    0  0.38225434803E+02  0.39620342821E+01 -0.59434072746E+02  0.70899668439E+02  0.41800000000E+01 0.  1.
         -5    1    3    3    0  502 -0.20956809403E+02 -0.13707127677E+03 -0.85951258474E+02  0.16319563110E+03  0.41800000000E+01 0.  1.
        -11    1    4    4    0    0 -0.41032945929E+02  0.74101066602E+02 -0.92705146407E+02  0.12557434011E+03  0.00000000000E+00 0.  1.
         11    1    4    4    0    0  0.23764320529E+02  0.59008175890E+02 -0.14452196417E+02  0.65234758629E+02  0.00000000000E+00 0. -1.
</event>
<event>
 8    1  0.7005395E-009  0.8583674E+02  0.7561462E-02  0.1313259E+00
         -1   -1    0    0    0  501 -0.00000000000E+00  0.00000000000E+00  0.58519639793E+02  0.58519639793E+02  0.00000000000E+00 0.  1.
          1   -1    0    0  501    0  0.00000000000E+00 -0.00000000000E+00 -0.24168244709E+03  0.24168244709E+03  0.00000000000E+00 0. -1.
         25    2    1    2    0    0 -0.47063423088E+02 -0.10336134371E+02 -0.91269461313E+02  0.16217180055E+03  0.12509107425E+03 0.  0.
         23    2    1    2    0    0  0.47063423088E+02  0.10336134371E+02 -0.91893345982E+02  0.13803028633E+03  0.91028410088E+02 0.  0.
          5    1    3    3  502    0 -0.65260525806E+02  0.23641081970E+02 -0.10060203812E+03  0.12229505084E+03  0.41800000000E+01 0. -1.
         -5    1    3    3    0  502  0.18197102719E+02 -0.33977216341E+02  0.93325768059E+01  0.39876749711E+02  0.41800000000E+01 0. -1.
        -11    1    4    4    0    0  0.14417728602E+02  0.23984093780E+02 -0.98181905853E+02  0.10209208730E+03  0.00000000000E+00 0. -1.
         11    1    4    4    0    0  0.32645694485E+02 -0.13647959409E+02  0.62885598711E+01  0.35938199033E+02  0.00000000000E+00 0.  1.
</event>
<event>
 8    1  0.7005395E-009  0.1104158E+03  0.7561462E-02  0.1259802E+00
         -2   -1    0    0    0  501 -0.00000000000E+00  0.00000000000E+00  0.12422902501E+04  0.12422902501E+04  0.00000000000E+00 0. -1.
          2   -1    0    0  501    0  0.00000000000E+00 -0.00000000000E+00 -0.10870359894E+02  0.10870359894E+02  0.00000000000E+00 0.  1.
         25    2    1    2    0    0 -0.24341621101E+02 -0.12599952373E+02  0.88286165136E+03  0.89210335287E+03  0.12510964567E+03 0.  0.
         23    2    1    2    0    0  0.24341621101E+02  0.12599952373E+02  0.34855823889E+03  0.36105725717E+03  0.90101186111E+02 0.  0.
          5    1    3    3  502    0 -0.61318356015E+02 -0.46611592102E+02  0.49363723449E+03  0.49962763432E+03  0.41800000000E+01 0.  1.
         -5    1    3    3    0  502  0.36976734914E+02  0.34011639729E+02  0.38922441687E+03  0.39247571855E+03  0.41800000000E+01 0.  1.
        -11    1    4    4    0    0  0.35156307854E+02 -0.31908611578E+02  0.15249762976E+03  0.15971741470E+03  0.00000000000E+00 0. -1.
         11    1    4    4    0    0 -0.10814686753E+02  0.44508563951E+02  0.19606060913E+03  0.20133984248E+03  0.00000000000E+00 0.  1.
</event>
<event>
 8    1  0.7005395E-009  0.1096205E+03  0.7561462E-02  0.1261274E+00
         -1   -1    0    0    0  501 -0.00000000000E+00  0.00000000000E+00  0.10358122645E+02  0.10358122645E+02  0.00000000000E+00 0.  1.
          1   -1    0    0  501    0  0.00000000000E+00 -0.00000000000E+00 -0.11801681717E+04  0.11801681717E+04  0.00000000000E+00 0. -1.
         25    2    1    2    0    0  0.32941588053E+01  0.21094276700E+02 -0.69151005650E+03  0.70305733100E+03  0.12509049704E+03 0.  0.
         23    2    1    2    0    0 -0.32941588053E+01 -0.21094276700E+02 -0.47829999259E+03  0.48746896337E+03  0.91647625986E+02 0.  0.
          5    1    3    3  502    0  0.20980177805E+02 -0.49078420598E+02 -0.33519213916E+03  0.33944086640E+03  0.41800000000E+01 0.  1.
         -5    1    3    3    0  502 -0.17686018999E+02  0.70172697298E+02 -0.35631791733E+03  0.36361646460E+03  0.41800000000E+01 0.  1.
        -11    1    4    4    0    0  0.35046572258E+02 -0.37663636010E+02 -0.23031666772E+03  0.23599275229E+03  0.00000000000E+00 0.  1.
         11    1    4    4    0    0 -0.38340731063E+02  0.16569359310E+02 -0.24798332487E+03  0.25147621108E+03  0.00000000000E+00 0. -1.
</event>
<event>
 8    1  0.7005395E-009  0.1145496E+03  0.7561462E-02  0.1252369E+00
         -1   -1    0    0    0  501 -0.00000000000E+00  0.00000000000E+00  0.20622549283E+03  0.20622549283E+03  0.00000000000E+00 0.  1.
          1   -1    0    0  501    0  0.00000000000E+00 -0.00000000000E+00 -0.21366310348E+03  0.21366310348E+03  0.00000000000E+00 0. -1.
         25    2    1    2    0    0  0.94239416698E+02  0.26451216702E+02  0.14656893002E+03  0.21612858568E+03  0.12509348414E+03 0.  0.
         23    2    1    2    0    0 -0.94239416698E+02 -0.26451216702E+02 -0.15400654068E+03  0.20376001063E+03  0.90660867182E+02 0.  0.
          5    1    3    3  502    0  0.32057679797E+01  0.73657255378E+01 -0.21869315975E+02  0.23670028353E+02  0.41800000000E+01 0.  1.
         -5    1    3    3    0  502  0.91033648719E+02  0.19085491164E+02  0.16843824600E+03  0.19245855732E+03  0.41800000000E+01 0.  1.
        -11    1    4    4    0    0 -0.10891991675E+03 -0.27105437122E+02 -0.10917081415E+03  0.15657751961E+03  0.00000000000E+00 0.  1.
         11    1    4    4    0    0  0.14680500048E+02  0.65422041988E+00 -0.44835726526E+02  0.47182491023E+02  0.00000000000E+00 0. -1.
</event>
<event>
 8    1  0.7005395E-009  0.1213141E+03  0.7561462E-02  0.1240945E+00
          4   -1    0    0  501    0  0.00000000000E+00  0.00000000000E+00  0.14180640840E+03  0.14180640840E+03  0.00000000000E+00 0. -1.
         -4   -1    0    0    0  501 -0.00000000000E+00 -0.00000000000E+00 -0.12826674007E+03  0.12826674007E+03  0.00000000000E+00 0.  1.
         25    2    1    2    0    0  0.39852537644E+02 -0.68374664623E+02  0.11259341942E+02  0.14846275929E+03  0.12510435083E+03 0.  0.
         23    2    1    2    0    0 -0.39852537644E+02  0.68374664623E+02  0.22803263852E+01  0.12161038917E+03  0.92306919284E+02 0.  0.
          5    1    3    3  502    0  0.27875910683E+01  0.26120810834E+02  0.35169981783E+02  0.44096115943E+02  0.41800000000E+01 0. -1.
         -5    1    3    3    0  502  0.37064946576E+02 -0.94495475457E+02 -0.23910639840E+02  0.10436664335E+03  0.41800000000E+01 0. -1.
        -11    1    4    4    0    0 -0.49792748532E+02  0.47248246245E+01 -0.19387829244E+02  0.53642610833E+02  0.00000000000E+00 0.  1.
         11    1    4    4    0    0  0.99402108885E+01  0.63649839999E+02  0.21668155629E+02  0.67967778342E+02  0.00000000000E+00 0. -1.
</event>
<event>
 8    1  0.7005395E-009  0.1375721E+03  0.7561462E-02  0.1216634E+00
         -1   -1    0    0    0  501 -0.00000000000E+00  0.00000000000E+00  0.75281848733E+03  0.75281848733E+03  0.00000000000E+00 0.  1.
          1   -1    0    0  501    0  0.00000000000E+00 -0.00000000000E+00 -0.40579470110E+02  0.40579470110E+02  0.00000000000E+00 0. -1.
         25    2    1    2    0    0  0.54894038372E+02 -0.89386103070E+02  0.17875682993E+03  0.24208433573E+03  0.12509032932E+03 0.  0.
         23    2    1    2    0    0 -0.54894038372E+02  0.89386103070E+02  0.53348218729E+03  0.55131362170E+03  0.91324884078E+02 0.  0.
          5    1    3    3  502    0  0.20343135621E+02 -0.98218023417E+02  0.57646738212E+02  0.11576373403E+03  0.41800000000E+01 0. -1.
         -5    1    3    3    0  502  0.34550902752E+02  0.88319203467E+01  0.12111009172E+03  0.12632060170E+03  0.41800000000E+01 0. -1.
        -11    1    4    4    0    0 -0.47243990011E+02 -0.18615226634E+01  0.19704485304E+03  0.20263793813E+03  0.00000000000E+00 0.  1.
         11    1    4    4    0    0 -0.76500483611E+01  0.91247625734E+02  0.33643733424E+03  0.34867568357E+03  0.00000000000E+00 0. -1.
</event>
<event>
 8    1  0.7005395E-009  0.1327249E+03  0.7561462E-02  0.1223468E+00
          2   -1    0    0  501    0  0.00000000000E+00  0.00000000000E+00  0.14354673295E+03  0.14354673295E+03  0.00000000000E+00 0. -1.
         -2   -1    0    0    0  501 -0.00000000000E+00 -0.00000000000E+00 -0.14215241057E+03  0.14215241057E+03  0.00000000000E+00 0.  1.
         25    2    1    2    0    0 -0.76024065138E+02  0.50284667790E+02  0.14749084783E+02  0.15547843464E+03  0.12509117411E+03 0.  0.
         23    2    1    2    0    0  0.76024065138E+02 -0.50284667790E+02 -0.13354762405E+02  0.13022070889E+03  0.92037367676E+02 0.  0.
          5    1    3    3  502    0  0.10270215049E+02  0.49103608286E+02 -0.29558757648E+02  0.58376658157E+02  0.41800000000E+01 0.  1.
         -5    1    3    3    0  502 -0.86294280187E+02  0.11810595035E+01  0.44307842431E+02  0.97101776480E+02  0.41800000000E+01 0.  1.
        -11    1    4    4    0    0  0.96123935534E+02 -0.31389141642E+02 -0.16494205596E+02  0.10245559045E+03  0.00000000000E+00 0. -1.
         11    1    4    4    0    0 -0.20099870396E+02 -0.18895526148E+02  0.31394431909E+01  0.27765118438E+02  0.00000000000E+00 0.  1.
</event>
<event>
 8    1  0.7005395E-009  0.9462386E+02  0.7561462E-02  0.1292025E+00
          1   -1    0    0  501    0  0.00000000000E+00  0.00000000000E+00  0.20256808005E+03  0.20256808005E+03  0.00000000000E+00 0. -1.
         -1   -1    0    0    0  501 -0.00000000000E+00 -0.00000000000E+00 -0.10272501654E+03  0.10272501654E+03  0.00000000000E+00 0.  1.
         25    2    1    2    0    0  0.26044699316E+02  0.78944449671E+02  0.10190877321E+03  0.18150381919E+03  0.12509071039E+03 0.  0.
         23    2    1    2    0    0 -0.26044699316E+02 -0.78944449671E+02 -0.20657097011E+01  0.12378927740E+03  0.91700411927E+02 0.  0.
          5    1    3    3  502    0 -0.21095606242E+02  0.13793840654E+02 -0.22008122894E+02  0.33721276904E+02  0.41800000000E+01 0. -1.
         -5    1    3    3    0  502  0.47140305558E+02  0.65150609017E+02  0.12391689611E+03  0.14778254228E+03  0.41800000000E+01 0. -1.
        -11    1    4    4    0    0 -0.21748335017E+02 -0.68831524819E+02 -0.41217894153E+02  0.83124507116E+02  0.00000000000E+00 0.  1.
         11    1    4    4    0    0 -0.42963642982E+01 -0.10112924852E+02  0.39152184452E+02  0.40664770288E+02  0.00000000000E+00 0. -1.
</event>
<event>
 8    1  0.7005395E-009  0.1056307E+03  0.7561462E-02  0.1268882E+00
         -1   -1    0    0    0  501 -0.00000000000E+00  0.00000000000E+00  0.31044476344E+02  0.31044476344E+02  0.00000000000E+00 0.  1.
          1   -1    0    0  501    0  0.00000000000E+00 -0.00000000000E+00 -0.44850908782E+03  0.44850908782E+03  0.00000000000E+00 0. -1.
         25    2    1    2    0    0  0.98078522568E-02 -0.45247367207E+02 -0.23588880651E+03  0.27081287306E+03  0.12509499926E+03 0.  0.
         23    2    1    2    0    0 -0.98078522568E-02  0.45247367207E+02 -0.18157580496E+03  0.20874069111E+03  0.92496372037E+02 0.  0.
          5    1    3    3  502    0  0.36001836034E+02  0.26898559725E+02 -0.45858723610E+02  0.64344072332E+02  0.41800000000E+01 0. -1.
         -5    1    3    3    0  502 -0.35992028182E+02 -0.72145926932E+02 -0.19003008290E+03  0.20646880073E+03  0.41800000000E+01 0. -1.
        -11    1    4    4    0    0  0.25415161765E+02  0.53028224452E+02 -0.16973825201E+03  0.17963573484E+03  0.00000000000E+00 0. -1.
         11    1    4    4    0    0 -0.25424969617E+02 -0.77808572448E+01 -0.11837552958E+02  0.29104956271E+02  0.00000000000E+00 0.  1.
</event>
<event>
 8    1  0.7005395E-009  0.2004630E+03  0.7561462E-02  0.1149349E+00
         -1   -1    0    0    0  501 -0.00000000000E+00  0.00000000000E+00  0.33802888619E+03  0.33802888619E+03  0.00000000000E+00 0.  1.
          1   -1    0    0  501    0  0.00000000000E+00 -0.00000000000E+00 -0.14123350550E+03  0.14123350550E+03  0.00000000000E+00 0. -1.
         25    2    1    2    0    0 -0.17695023628E+03 -0.49802579648E+02  0.51555286791E+02  0.22824306530E+03  0.12508103854E+03 0.  0.
         23    2    1    2    0    0  0.17695023628E+03  0.49802579648E+02  0.14524009390E+03  0.25101932639E+03  0.90135089095E+02 0.  0.
          5    1    3    3  502    0 -0.13516351341E+03 -0.57713140071E+01  0.83988102628E+02  0.15929205004E+03  0.41800000000E+01 0. -1.
         -5    1    3    3    0  502 -0.41786722869E+02 -0.44031265641E+02 -0.32432815837E+02  0.68951015258E+02  0.41800000000E+01 0. -1.
        -11    1    4    4    0    0  0.17841398640E+03  0.25320345829E+02  0.12719701149E+03  0.22057141743E+03  0.00000000000E+00 0. -1.
         11    1    4    4    0    0 -0.14637501181E+01  0.24482233819E+02  0.18043082415E+02  0.30447908963E+02  0.00000000000E+00 0.  1.
</event>
<event>
 8    1  0.7005395E-009  0.1442152E+03  0.7561462E-02  0.1207767E+00
         -1   -1    0    0    0  501 -0.00000000000E+00  0.00000000000E+00  0.54094582003E+02  0.54094582003E+02  0.00000000000E+00 0.  1.
          1   -1    0    0  501    0  0.00000000000E+00 -0.00000000000E+00 -0.59000280743E+03  0.59000280743E+03  0.00000000000E+00 0. -1.
         25    2    1    2    0    0  0.11353638875E+03 -0.34383881087E+02 -0.42370392978E+03  0.45743350297E+03  0.12509047395E+03 0.  0.
         23    2    1    2    0    0 -0.11353638875E+03  0.34383881087E+02 -0.11220429565E+03  0.18666388647E+03  0.90447994463E+02 0.  0.
          5    1    3    3  502    0  0.20025447183E+02  0.38485688309E+02 -0.55353526584E+02  0.70453190451E+02  0.41800000000E+01 0.  1.
         -5    1    3    3    0  502  0.93510941564E+02 -0.72869569396E+02 -0.36835040320E+03  0.38698031251E+03  0.41800000000E+01 0.  1.
        -11    1    4    4    0    0 -0.85979993295E+02  0.52808028467E+01 -0.11807396523E+03  0.14615713254E+03  0.00000000000E+00 0. -1.
         11    1    4    4    0    0 -0.27556395452E+02  0.29103078241E+02  0.58696695831E+01  0.40506753935E+02  0.00000000000E+00 0.  1.
</event>
<event>
 8    1  0.7005395E-009  0.8207991E+02  0.7561462E-02  0.1323250E+00
         -1   -1    0    0    0  501 -0.00000000000E+00  0.00000000000E+00  0.17370393746E+03  0.17370393746E+03  0.00000000000E+00 0.  1.
          1   -1    0    0  501    0  0.00000000000E+00 -0.00000000000E+00 -0.84759733204E+02  0.84759733204E+02  0.00000000000E+00 0. -1.
         25    2    1    2    0    0 -0.85922833069E+01 -0.18925827400E+02  0.10336337012E+03  0.16359460020E+03  0.12508873912E+03 0.  0.
         23    2    1    2    0    0  0.85922833069E+01  0.18925827400E+02 -0.14419165869E+02  0.94869070466E+02  0.91434205370E+02 0.  0.
          5    1    3    3  502    0 -0.40432354387E+02 -0.51402854592E+02  0.97599759119E+02  0.11755940678E+03  0.41800000000E+01 0.  1.
         -5    1    3    3    0  502  0.31840071080E+02  0.32477027192E+02  0.57636110061E+01  0.46035193423E+02  0.41800000000E+01 0.  1.
        -11    1    4    4    0    0  0.14154783188E+02 -0.13794423357E+02  0.32116130408E+02  0.37710606403E+02  0.00000000000E+00 0.  1.
         11    1    4    4    0    0 -0.55624998815E+01  0.32720250757E+02 -0.46535296277E+02  0.57158464064E+02  0.00000000000E+00 0. -1.
</event>
<event>
 8    1  0.7005395E-009  0.9359130E+02  0.7561462E-02  0.1294381E+00
          2   -1    0    0  501    0  0.00000000000E+00  0.00000000000E+00  0.62371743500E+02  0.62371743500E+02  0.00000000000E+00 0. -1.
         -2   -1    0    0    0  501 -0.00000000000E+00 -0.00000000000E+00 -0.24793858099E+03  0.24793858099E+03  0.00000000000E+00 0.  1.
         25    2    1    2    0    0  0.10594957166E+02 -0.55553447307E+02 -0.14177509732E+03  0.19734607176E+03  0.12508739023E+03 0.  0.
         23    2    1    2    0    0 -0.10594957166E+02  0.55553447307E+02 -0.43791740175E+02  0.11296425273E+03  0.87434359738E+02 0.  0.
          5    1    3    3  502    0  0.44693870316E+02  0.15549415376E+02 -0.18569967825E+02  0.51006298311E+02  0.41800000000E+01 0.  1.
         -5    1    3    3    0  502 -0.34098913150E+02 -0.71102862683E+02 -0.12320512949E+03  0.14633977345E+03  0.41800000000E+01 0.  1.
        -11    1    4    4    0    0  0.12638315056E+01  0.44437572510E+02 -0.69527771553E+02  0.82525184870E+02  0.00000000000E+00 0.  1.
         11    1    4    4    0    0 -0.11858788672E+02  0.11115874797E+02  0.25736031378E+02  0.30439067863E+02  0.00000000000E+00 0. -1.
</event>
<event>
 8    1  0.7005395E-009  0.2155212E+03  0.7561462E-02  0.1137267E+00
         -4   -1    0    0    0  501 -0.00000000000E+00  0.00000000000E+00  0.17800653989E+03  0.17800653989E+03  0.00000000000E+00 0.  1.
          4   -1    0    0  501    0  0.00000000000E+00 -0.00000000000E+00 -0.27328847677E+03  0.27328847677E+03  0.00000000000E+00 0. -1.
         25    2    1    2    0    0 -0.95372147484E+02 -0.16677942952E+03 -0.55624579784E+02  0.23590742638E+03  0.12508795034E+03 0.  0.
         23    2    1    2    0    0  0.95372147484E+02  0.16677942952E+03 -0.39657357092E+02  0.21538759027E+03  0.88926280961E+02 0.  0.
          5    1    3    3  502    0  0.27421534986E+02 -0.42424013843E+02 -0.30873472447E+02  0.59349652337E+02  0.41800000000E+01 0. -1.
         -5    1    3    3    0  502 -0.12279368247E+03 -0.12435541567E+03 -0.24751107337E+02  0.17655777405E+03  0.41800000000E+01 0. -1.
        -11    1    4    4    0    0 -0.48376970904E+01  0.55815966164E+02 -0.34474261685E+02  0.65782217283E+02  0.00000000000E+00 0. -1.
         11    1    4    4    0    0  0.10020984457E+03  0.11096346335E+03 -0.51830954074E+01  0.14960537299E+03  0.00000000000E+00 0.  1.
</event>
<event>
 8    1  0.7005395E-009  0.1731058E+03  0.7561462E-02  0.1174647E+00
          2   -1    0    0  501    0  0.00000000000E+00  0.00000000000E+00  0.92353051994E+03  0.92353051994E+03  0.00000000000E+00 0. -1.
         -2   -1    0    0    0  501 -0.00000000000E+00 -0.00000000000E+00 -0.41164087977E+02  0.41164087977E+02  0.00000000000E+00 0.  1.
         25    2    1    2    0    0  0.37109964097E+02 -0.15906528048E+03  0.42990471443E+03  0.47660027360E+03  0.12510333495E+03 0.  0.
         23    2    1    2    0    0 -0.37109964097E+02  0.15906528048E+03  0.45246171753E+03  0.48809433431E+03  0.82677448374E+02 0.  0.
          5    1    3    3  502    0  0.15312636618E+02  0.54010191829E+01  0.11017820578E+01  0.16802802508E+02  0.41800000000E+01 0.  1.
         -5    1    3    3    0  502  0.21797327479E+02 -0.16446629967E+03  0.42880293238E+03  0.45979747110E+03  0.41800000000E+01 0.  1.
        -11    1    4    4    0    0 -0.29933018047E+02  0.11447979675E+03  0.20631417423E+03  0.23783849126E+03  0.00000000000E+00 0.  1.
         11    1    4    4    0    0 -0.71769460491E+01  0.44585483734E+02  0.24614754329E+03  0.25025584305E+03  0.00000000000E+00 0. -1.
</event>
<event>
 8    1  0.7005395E-009  0.1652285E+03  0.7561462E-02  0.1182917E+00
         -2   -1    0    0    0  501 -0.00000000000E+00  0.00000000000E+00  0.44793024066E+02  0.44793024066E+02  0.00000000000E+00 0.  1.
          2   -1    0    0  501    0  0.00000000000E+00 -0.00000000000E+00 -0.81193182003E+03  0.81193182003E+03  0.00000000000E+00 0. -1.
         25    2    1    2    0    0 -0.13826605727E+03  0.22220807507E+02 -0.24766346636E+03  0.31079828415E+03  0.12508842466E+03 0.  0.
         23    2    1    2    0    0  0.13826605727E+03 -0.22220807507E+02 -0.51947532960E+03  0.54592655994E+03  0.92573883473E+02 0.  0.
          5    1    3    3  502    0 -0.10404444534E+03  0.53750586508E+02 -0.23467709195E+03  0.26230741896E+03  0.41800000000E+01 0. -1.
         -5    1    3    3    0  502 -0.34221611934E+02 -0.31529779001E+02 -0.12986374412E+02  0.48490865197E+02  0.41800000000E+01 0. -1.
        -11    1    4    4    0    0  0.62096521646E+02  0.35004826943E+02 -0.25670381131E+03  0.26641727168E+03  0.00000000000E+00 0.  1.
         11    1    4    4    0    0  0.76169535624E+02 -0.57225634450E+02 -0.26277151829E+03  0.27950928825E+03  0.00000000000E+00 0. -1.
</event>
<event>
 8    1  0.7005395E-009  0.2085002E+03  0.7561462E-02  0.1142759E+00
          3   -1    0    0  501    0  0.00000000000E+00  0.00000000000E+00  0.94977025743E+02  0.94977025743E+02  0.00000000000E+00 0. -1.
         -3   -1    0    0    0  501 -0.00000000000E+00 -0.00000000000E+00 -0.51557747058E+03  0.51557747058E+03  0.00000000000E+00 0.  1.
         25    2    1    2    0    0 -0.13924597384E+03 -0.13229727446E+03 -0.24368431457E+03  0.33455096427E+03  0.12510112895E+03 0.  0.
         23    2    1    2    0    0  0.13924597384E+03  0.13229727446E+03 -0.17691613027E+03  0.27600353205E+03  0.89367905293E+02 0.  0.
          5    1    3    3  502    0 -0.13023084903E+03 -0.14142569085E+03 -0.16107364074E+03  0.25084555052E+03  0.41800000000E+01 0. -1.
         -5    1    3    3    0  502 -0.90151248139E+01  0.91284163961E+01 -0.82610673825E+02  0.83705413751E+02  0.41800000000E+01 0. -1.
        -11    1    4    4    0    0  0.97997872016E+02  0.32538962459E+02 -0.75810779491E+02  0.12810012211E+03  0.00000000000E+00 0. -1.
         11    1    4    4    0    0  0.41248101828E+02  0.99758311999E+02 -0.10110535077E+03  0.14790340994E+03  0.00000000000E+00 0.  1.
</event>
<event>
 8    1  0.7005395E-009  0.1378623E+03  0.7561462E-02  0.1216235E+00
          2   -1    0    0  501    0  0.00000000000E+00  0.00000000000E+00  0.93525230522E+02  0.93525230522E+02  0.00000000000E+00 0. -1.
         -2   -1    0    0    0  501 -0.00000000000E+00 -0.00000000000E+00 -0.23480590799E+03  0.23480590799E+03  0.00000000000E+00 0.  1.
         25    2    1    2    0    0 -0.53426676806E+02 -0.71901381168E+02 -0.12223328625E+03  0.19650151410E+03  0.12509056866E+03 0.  0.
         23    2    1    2    0    0  0.53426676806E+02  0.71901381168E+02 -0.19047391215E+02  0.13182962441E+03  0.94826306218E+02 0.  0.
          5    1    3    3  502    0  0.12892775814E+02  0.25677914728E+02 -0.50808710036E+02  0.58519880285E+02  0.41800000000E+01 0.  1.
         -5    1    3    3    0  502 -0.66319452620E+02 -0.97579295897E+02 -0.71424576217E+02  0.13798163382E+03  0.41800000000E+01 0.  1.
        -11    1    4    4    0    0 -0.13152676040E+02  0.59464012528E+02  0.19073584975E+01  0.60931106091E+02  0.00000000000E+00 0.  1.
         11    1    4    4    0    0  0.66579352846E+02  0.12437368640E+02 -0.20954749712E+02  0.70898518317E+02  0.00000000000E+00 0. -1.
</event>
<event>
 8    1  0.7005395E-009  0.1780816E+03  0.7561462E-02  0.1169673E+00
         -2   -1    0    0    0  501 -0.00000000000E+00  0.00000000000E+00  0.86165070430E+02  0.86165070430E+02  0.00000000000E+00 0. -1.
          2   -1    0    0  501    0  0.00000000000E+00 -0.00000000000E+00 -0.38152261620E+03  0.38152261620E+03  0.00000000000E+00 0.  1.
         25    2    1    2    0    0 -0.14453350855E+03  0.13137632194E+02 -0.16635978111E+03  0.25374345291E+03  0.12509048985E+03 0.  0.
         23    2    1    2    0    0  0.14453350855E+03 -0.13137632194E+02 -0.12899776466E+03  0.21394423371E+03  0.89828611142E+02 0.  0.
          5    1    3    3  502    0 -0.79482975990E+02 -0.52878285014E+02 -0.61039353097E+02  0.11338841001E+03  0.41800000000E+01 0. -1.
         -5    1    3    3    0  502 -0.65050532560E+02  0.66015917208E+02 -0.10532042801E+03  0.14035504290E+03  0.41800000000E+01 0. -1.
        -11    1    4    4    0    0  0.10100946935E+03  0.31183239284E+02 -0.99514554510E+02  0.14518420668E+03  0.00000000000E+00 0.  1.
         11    1    4    4    0    0  0.43524039204E+02 -0.44320871479E+02 -0.29483210146E+02  0.68760027034E+02  0.00000000000E+00 0. -1.
</event>
<event>
 8    1  0.7005395E-009  0.1438293E+03  0.7561462E-02  0.1208267E+00
          1   -1    0    0  501    0  0.00000000000E+00  0.00000000000E+00  0.30606335464E+03  0.30606335464E+03  0.00000000000E+00 0. -1.
         -1   -1    0    0    0  501 -0.00000000000E+00 -0.00000000000E+00 -0.90732478524E+02  0.90732478524E+02  0.00000000000E+00 0.  1.
         25    2    1    2    0    0  0.95336482987E+02  0.54668446156E+02  0.41377603960E+02  0.17157319004E+03  0.12509024517E+03 0.  0.
         23    2    1    2    0    0 -0.95336482987E+02 -0.54668446156E+02  0.17395327216E+03  0.22522264313E+03  0.91585010186E+02 0.  0.
          5    1    3    3  502    0  0.10972211188E+03  0.64427641824E+02  0.64201382274E+02  0.14258033789E+03  0.41800000000E+01 0.  1.
         -5    1    3    3    0  502 -0.14385628898E+02 -0.97591956675E+01 -0.22823778315E+02  0.28992852143E+02  0.41800000000E+01 0.  1.
        -11    1    4    4    0    0 -0.96646312797E+02 -0.93095659304E+01  0.10879463077E+03  0.14581992141E+03  0.00000000000E+00 0.  1.
         11    1    4    4    0    0  0.13098298099E+01 -0.45358880226E+02  0.65158641387E+02  0.79402721722E+02  0.00000000000E+00 0. -1.
</event>
<event>
 8    1  0.7005395E-009  0.1054389E+03  0.7561462E-02  0.1269257E+00
         -1   -1    0    0    0  501 -0.00000000000E+00  0.00000000000E+00  0.31841688503E+02  0.31841688503E+02  0.00000000000E+00 0.  1.
          1   -1    0    0  501    0  0.00000000000E+00 -0.00000000000E+00 -0.42743188032E+03  0.42743188032E+03  0.00000000000E+00 0. -1.
         25    2    1    2    0    0 -0.29491264293E+02  0.33639281406E+02 -0.27948640162E+03  0.30945540620E+03  0.12509461946E+03 0.  0.
         23    2    1    2    0    0  0.29491264293E+02 -0.33639281406E+02 -0.11610379021E+03  0.14981816262E+03  0.83450918682E+02 0.  0.
          5    1    3    3  502    0  0.14755629345E+01  0.76086796641E+02 -0.12697750420E+03  0.14809502652E+03  0.41800000000E+01 0. -1.
         -5    1    3    3    0  502 -0.30966827227E+02 -0.42447515235E+02 -0.15250889742E+03  0.16136037968E+03  0.41800000000E+01 0. -1.
        -11    1    4    4    0    0 -0.19258706583E+02 -0.26385673038E+02 -0.12295841608E+02  0.34904000369E+02  0.00000000000E+00 0.  1.
         11    1    4    4    0    0  0.48749970876E+02 -0.72536083681E+01 -0.10380794860E+03  0.11491416225E+03  0.00000000000E+00 0. -1.
</event>
<event>
 8    1  0.7005395E-009  0.1459928E+03  0.7561462E-02  0.1205485E+00
         -2   -1    0    0    0  501 -0.00000000000E+00  0.00000000000E+00  0.44689718308E+02  0.44689718308E+02  0.00000000000E+00 0.  1.
          2   -1    0    0  501    0  0.00000000000E+00 -0.00000000000E+00 -0.54877564737E+03  0.54877564737E+03  0.00000000000E+00 0. -1.
         25    2    1    2    0    0 -0.10552120292E+03  0.35982021546E+02 -0.25616097074E+03  0.30609825440E+03  0.12509303847E+03 0.  0.
         23    2    1    2    0    0  0.10552120292E+03 -0.35982021546E+02 -0.24792495832E+03  0.28736711128E+03  0.93186058754E+02 0.  0.
          5    1    3    3  502    0 -0.52931420819E+02 -0.45224498412E+02 -0.12380397689E+03  0.14209816206E+03  0.41800000000E+01 0.  1.
         -5    1    3    3    0  502 -0.52589782106E+02  0.81206519959E+02 -0.13235699385E+03  0.16400009233E+03  0.41800000000E+01 0.  1.
        -11    1    4    4    0    0  0.34778488871E+02 -0.41851403329E+02 -0.18387028686E+03  0.19175339798E+03  0.00000000000E+00 0. -1.
         11    1    4    4    0    0  0.70742714054E+02  0.58693817828E+01 -0.64054671460E+02  0.95613713295E+02  0.00000000000E+00 0.  1.
</event>
<event>
 8    1  0.7005395E-009  0.1182371E+03  0.7561462E-02  0.1246034E+00
          2   -1    0    0  501    0  0.00000000000E+00  0.00000000000E+00  0.22133027339E+03  0.22133027339E+03  0.00000000000E+00 0. -1.
         -2   -1    0    0    0  501 -0.00000000000E+00 -0.00000000000E+00 -0.17469468195E+03  0.17469468195E+03  0.00000000000E+00 0.  1.
         25    2    1    2    0    0 -0.11170575908E+03 -0.78917999524E+01  0.14476437666E+03  0.22168731693E+03  0.12509230439E+03 0.  0.
         23    2    1    2    0    0  0.11170575908E+03  0.78917999524E+01 -0.98128785219E+02  0.17433763842E+03  0.90685702083E+02 0.  0.
          5    1    3    3  502    0 -0.59156789414E+02 -0.26702822854E+02  0.15192430278E+03  0.16526049938E+03  0.41800000000E+01 0. -1.
         -5    1    3    3    0  502 -0.52548969671E+02  0.18811022902E+02 -0.71599261179E+01  0.56426817544E+02  0.41800000000E+01 0. -1.
        -11    1    4    4    0    0  0.16884714664E+02  0.11740941811E+02  0.15892801810E+02  0.25990853262E+02  0.00000000000E+00 0. -1.
         11    1    4    4    0    0  0.94821044421E+02 -0.38491418587E+01 -0.11402158703E+03  0.14834678516E+03  0.00000000000E+00 0.  1.
</event>
<event>
 8    1  0.7005395E-009  0.1030842E+03  0.7561462E-02  0.1273941E+00
         -3   -1    0    0    0  501 -0.00000000000E+00  0.00000000000E+00  0.29966177830E+03  0.29966177830E+03  0.00000000000E+00 0.  1.
          3   -1    0    0  501    0  0.00000000000E+00 -0.00000000000E+00 -0.43553582597E+02  0.43553582597E+02  0.00000000000E+00 0. -1.
         25    2    1    2    0    0  0.17020169143E+02 -0.10827185280E+02  0.95169831411E+02  0.15846012370E+03  0.12508157296E+03 0.  0.
         23    2    1    2    0    0 -0.17020169143E+02  0.10827185280E+02  0.16093836429E+03  0.18475523719E+03  0.88467092590E+02 0.  0.
          5    1    3    3  502    0  0.97049866589E+01 -0.66310948295E+02  0.69856759364E+02  0.96895654488E+02  0.41800000000E+01 0. -1.
         -5    1    3    3    0  502  0.73151824845E+01  0.55483763015E+02  0.25313072048E+02  0.61564469214E+02  0.41800000000E+01 0. -1.
        -11    1    4    4    0    0  0.23685730464E+02 -0.20666442995E+02  0.10086676160E+03  0.10565140458E+03  0.00000000000E+00 0.  1.
         11    1    4    4    0    0 -0.40705899608E+02  0.31493628275E+02  0.60071602693E+02  0.79103832618E+02  0.00000000000E+00 0. -1.
</event>
<event>
 8    1  0.7005395E-009  0.1685853E+03  0.7561462E-02  0.1179331E+00
         -1   -1    0    0    0  501 -0.00000000000E+00  0.00000000000E+00  0.36011871427E+02  0.36011871427E+02  0.00000000000E+00 0.  1.
          1   -1    0    0  501    0  0.00000000000E+00 -0.00000000000E+00 -0.82176840736E+03  0.82176840736E+03  0.00000000000E+00 0. -1.
         25    2    1    2    0    0  0.11906502793E+03  0.54198869294E+02 -0.39927537217E+03  0.43838225664E+03  0.12507670368E+03 0.  0.
         23    2    1    2    0    0 -0.11906502793E+03 -0.54198869294E+02 -0.38648116377E+03  0.41939802215E+03  0.97020681963E+02 0.  0.
          5    1    3    3  502    0 -0.20900580580E+02  0.30530400097E+02 -0.10992422948E+03  0.11605924446E+03  0.41800000000E+01 0. -1.
         -5    1    3    3    0  502  0.13996560852E+03  0.23668469197E+02 -0.28935114269E+03  0.32232301218E+03  0.41800000000E+01 0. -1.
        -11    1    4    4    0    0 -0.11324494009E+03 -0.10381754260E+02 -0.31960918720E+03  0.33923771874E+03  0.00000000000E+00 0.  1.
         11    1    4    4    0    0 -0.58200878498E+01 -0.43817115034E+02 -0.66871976570E+02  0.80160303410E+02  0.00000000000E+00 0. -1.
</event>
<event>
 8    1  0.7005395E-009  0.1003961E+03  0.7561462E-02  0.1279465E+00
         -2   -1    0    0    0  501 -0.00000000000E+00  0.00000000000E+00  0.25744763185E+03  0.25744763185E+03  0.00000000000E+00 0. -1.
          2   -1    0    0  501    0  0.00000000000E+00 -0.00000000000E+00 -0.60654993108E+02  0.60654993108E+02  0.00000000000E+00 0.  1.
         25    2    1    2    0    0  0.45032932302E+02  0.55033076934E+00  0.16283104518E+03  0.21021395295E+03  0.12509072263E+03 0.  0.
         23    2    1    2    0    0 -0.45032932302E+02 -0.55033076934E+00  0.33961593566E+02  0.10788867201E+03  0.91969059222E+02 0.  0.
          5    1    3    3  502    0  0.76338846088E+02 -0.21968059705E+02  0.58027790723E+02  0.98462744049E+02  0.41800000000E+01 0.  1.
         -5    1    3    3    0  502 -0.31305913786E+02  0.22518390475E+02  0.10480325446E+03  0.11175120891E+03  0.41800000000E+01 0.  1.
        -11    1    4    4    0    0 -0.43402488003E+02  0.29424921574E+02 -0.11238987533E+02  0.53627575139E+02  0.00000000000E+00 0.  1.
         11    1    4    4    0    0 -0.16304442990E+01 -0.29975252343E+02  0.45200581099E+02  0.54261096868E+02  0.00000000000E+00 0. -1.
</event>
<event>
 8    1  0.7005395E-009  0.3198396E+03  0.7561462E-02  0.1075723E+00
         -2   -1    0    0    0  501 -0.00000000000E+00  0.00000000000E+00  0.50909175547E+03  0.50909175547E+03  0.00000000000E+00 0.  1.
          2   -1    0    0  501    0  0.00000000000E+00 -0.00000000000E+00 -0.24584327754E+03  0.24584327754E+03  0.00000000000E+00 0. -1.
         25    2    1    2    0    0  0.71121112905E+02 -0.29654821464E+03 -0.17980712243E+02  0.33010637986E+03  0.12509140541E+03 0.  0.
         23    2    1    2    0    0 -0.71121112905E+02  0.29654821464E+03  0.28122919017E+03  0.42482865315E+03  0.91599513271E+02 0.  0.
          5    1    3    3  502    0 -0.14131387351E+02 -0.60680884102E+00  0.14139102130E+02  0.20431616052E+02  0.41800000000E+01 0.  1.
         -5    1    3    3    0  502  0.85252500256E+02 -0.29594140580E+03 -0.32119814373E+02  0.30967476381E+03  0.41800000000E+01 0.  1.
        -11    1    4    4    0    0 -0.60403350674E+02  0.80652734650E+02  0.70753037551E+02  0.12312359929E+03  0.00000000000E+00 0.  1.
         11    1    4    4    0    0 -0.10717762230E+02  0.21589547999E+03  0.21047615262E+03  0.30170505387E+03  0.00000000000E+00 0. -1.
</event>
<event>
 8    1  0.7005395E-009  0.1541335E+03  0.7561462E-02  0.1195484E+00
         -2   -1    0    0    0  501 -0.00000000000E+00  0.00000000000E+00  0.27536323864E+02  0.27536323864E+02  0.00000000000E+00 0.  1.
          2   -1    0    0  501    0  0.00000000000E+00 -0.00000000000E+00 -0.10576138353E+04  0.10576138353E+04  0.00000000000E+00 0. -1.
         25    2    1    2    0    0 -0.83183720695E+02  0.94478429515E+02 -0.66774628022E+03  0.69092528339E+03  0.12508775895E+03 0.  0.
         23    2    1    2    0    0  0.83183720695E+02 -0.94478429515E+02 -0.36233123120E+03  0.39422487576E+03  0.91014430368E+02 0.  0.
          5    1    3    3  502    0 -0.98459792216E+02  0.19057736769E+02 -0.37235743300E+03  0.38564887959E+03  0.41800000000E+01 0.  1.
         -5    1    3    3    0  502  0.15276071521E+02  0.75420692746E+02 -0.29538884722E+03  0.30527640380E+03  0.41800000000E+01 0.  1.
        -11    1    4    4    0    0  0.66225376087E+02 -0.49270948560E+02 -0.11116438953E+03  0.13845919366E+03  0.00000000000E+00 0.  1.
         11    1    4    4    0    0  0.16958344608E+02 -0.45207480955E+02 -0.25116684167E+03  0.25576568210E+03  0.00000000000E+00 0. -1.
</event>
<event>
 8    1  0.7005395E-009  0.2100536E+03  0.7561462E-02  0.1141524E+00
          4   -1    0    0  501    0  0.00000000000E+00  0.00000000000E+00  0.43671732196E+02  0.43671732196E+02  0.00000000000E+00 0. -1.
         -4   -1    0    0    0  501 -0.00000000000E+00 -0.00000000000E+00 -0.10222382261E+04  0.10222382261E+04  0.00000000000E+00 0.  1.
         25    2    1    2    0    0  0.15082150489E+03 -0.97148454493E+02 -0.56435013271E+03  0.60524693551E+03  0.12509129511E+03 0.  0.
         23    2    1    2    0    0 -0.15082150489E+03  0.97148454493E+02 -0.41421636118E+03  0.46066302277E+03  0.91925394368E+02 0.  0.
          5    1    3    3  502    0  0.16311434776E+03 -0.51538800663E+02 -0.45151159298E+03  0.48284855743E+03  0.41800000000E+01 0. -1.
         -5    1    3    3    0  502 -0.12292842876E+02 -0.45609653830E+02 -0.11283853973E+03  0.12239837808E+03  0.41800000000E+01 0. -1.
        -11    1    4    4    0    0 -0.40171193578E+02  0.80108856584E+02 -0.18649284875E+03  0.20690755503E+03  0.00000000000E+00 0. -1.
         11    1    4    4    0    0 -0.11065031131E+03  0.17039597909E+02 -0.22772351244E+03  0.25375546774E+03  0.00000000000E+00 0.  1.
</event>
<event>
 8    1  0.7005395E-009  0.1056767E+03  0.7561462E-02  0.1268792E+00
          2   -1    0    0  501    0  0.00000000000E+00  0.00000000000E+00  0.61319935367E+02  0.61319935367E+02  0.00000000000E+00 0. -1.
         -2   -1    0    0    0  501 -0.00000000000E+00 -0.00000000000E+00 -0.23580662366E+03  0.23580662366E+03  0.00000000000E+00 0.  1.
         25    2    1    2    0    0  0.29785848926E+02  0.43255573532E+02 -0.83352135933E+02  0.15922766276E+03  0.12509048160E+03 0.  0.
         23    2    1    2    0    0 -0.29785848926E+02 -0.43255573532E+02 -0.91134552361E+02  0.13789889626E+03  0.89175991832E+02 0.  0.
          5    1    3    3  502    0  0.65689168899E+02 -0.50881616270E+01 -0.14369881394E+02  0.67564207911E+02  0.41800000000E+01 0. -1.
         -5    1    3    3    0  502 -0.35903319973E+02  0.48343735159E+02 -0.68982254539E+02  0.91663454852E+02  0.41800000000E+01 0. -1.
        -11    1    4    4    0    0  0.21268456784E+02 -0.18697780881E+02  0.25320115144E+01  0.28431766497E+02  0.00000000000E+00 0. -1.
         11    1    4    4    0    0 -0.51054305710E+02 -0.24557792651E+02 -0.93666563875E+02  0.10946712977E+03  0.00000000000E+00 0.  1.
</event>
<event>
 8    1  0.7005395E-009  0.1692802E+03  0.7561462E-02  0.1178601E+00
          1   -1    0    0  501    0  0.00000000000E+00  0.00000000000E+00  0.49561752951E+02  0.49561752951E+02  0.00000000000E+00 0. -1.
         -1   -1    0    0    0  501 -0.00000000000E+00 -0.00000000000E+00 -0.78875978673E+03  0.78875978673E+03  0.00000000000E+00 0.  1.
         25    2    1    2    0    0  0.10392664787E+03  0.11967724941E+03 -0.48293540056E+03  0.52344780918E+03  0.12509042992E+03 0.  0.
         23    2    1    2    0    0 -0.10392664787E+03 -0.11967724941E+03 -0.25626263322E+03  0.31487373050E+03  0.91386743086E+02 0.  0.
          5    1    3    3  502    0  0.34804742745E+02  0.70341786941E+02 -0.81944293446E+02  0.11354151988E+03  0.41800000000E+01 0.  1.
         -5    1    3    3    0  502  0.69121905128E+02  0.49335462464E+02 -0.40099110712E+03  0.40990628930E+03  0.41800000000E+01 0.  1.
        -11    1    4    4    0    0  0.11062436252E+02 -0.38075041328E+01 -0.82409517406E+00  0.11728329652E+02  0.00000000000E+00 0. -1.
         11    1    4    4    0    0 -0.11498908413E+03 -0.11586974527E+03 -0.25543853805E+03  0.30314540085E+03  0.00000000000E+00 0.  1.
</event>
<event>
 8    1  0.7005395E-009  0.1050355E+03  0.7561462E-02  0.1270050E+00
          1   -1    0    0  501    0  0.00000000000E+00  0.00000000000E+00  0.18739925375E+03  0.18739925375E+03  0.00000000000E+00 0. -1.
         -1   -1    0    0    0  501 -0.00000000000E+00 -0.00000000000E+00 -0.11870649018E+03  0.11870649018E+03  0.00000000000E+00 0.  1.
         25    2    1    2    0    0  0.55023036936E+02 -0.26925609209E+02 -0.45421577872E+02  0.14651175811E+03  0.12510016987E+03 0.  0.
         23    2    1    2    0    0 -0.55023036936E+02  0.26925609209E+02  0.11411434145E+03  0.15959398583E+03  0.93250385327E+02 0.  0.
          5    1    3    3  502    0 -0.21580387900E+02 -0.12787720387E+02  0.29087468352E+02  0.38636668461E+02  0.41800000000E+01 0. -1.
         -5    1    3    3    0  502  0.76603424836E+02 -0.14137888822E+02 -0.74509046224E+02  0.10787508965E+03  0.41800000000E+01 0. -1.
        -11    1    4    4    0    0  0.16013391339E+02 -0.16805433001E+02  0.78622095115E+01  0.24508480552E+02  0.00000000000E+00 0.  1.
         11    1    4    4    0    0 -0.71036428275E+02  0.43731042210E+02  0.10625213193E+03  0.13508550527E+03  0.00000000000E+00 0. -1.
</event>
<event>
 8    1  0.7005395E-009  0.1036024E+03  0.7561462E-02  0.1272898E+00
          2   -1    0    0  501    0  0.00000000000E+00  0.00000000000E+00  0.14958933927E+03  0.14958933927E+03  0.00000000000E+00 0. -1.
         -2   -1    0    0    0  501 -0.00000000000E+00 -0.00000000000E+00 -0.81964555318E+02  0.81964555318E+02  0.00000000000E+00 0.  1.
         25    2    1    2    0    0 -0.99540884222E+01 -0.17967005622E+02  0.25556209593E+02  0.12931866205E+03  0.12509316264E+03 0.  0.
         23    2    1    2    0    0  0.99540884222E+01  0.17967005622E+02  0.42068574364E+02  0.10223523254E+03  0.90886636294E+02 0.  0.
          5    1    3    3  502    0 -0.53768122293E+02 -0.40917440305E+02 -0.97657114388E+01  0.68396559972E+02  0.41800000000E+01 0. -1.
         -5    1    3    3    0  502  0.43814033871E+02  0.22950434683E+02  0.35321921031E+02  0.60922102078E+02  0.41800000000E+01 0. -1.
        -11    1    4    4    0    0  0.23471729744E+02  0.49927826508E+02  0.38658742655E+02  0.67366225519E+02  0.00000000000E+00 0. -1.
         11    1    4    4    0    0 -0.13517641322E+02 -0.31960820886E+02  0.34098317086E+01  0.34869007025E+02  0.00000000000E+00 0.  1.
</event>
<event>
 8    1  0.7005395E-009  0.1048595E+03  0.7561462E-02  0.1270397E+00
         -2   -1    0    0    0  501 -0.00000000000E+00  0.00000000000E+00  0.42891782354E+02  0.42891782354E+02  0.00000000000E+00 0.  1.
          2   -1    0    0  501    0  0.00000000000E+00 -0.00000000000E+00 -0.43013195802E+03  0.43013195802E+03  0.00000000000E+00 0. -1.
         25    2    1    2    0    0  0.54500635205E+02 -0.56757694684E+01 -0.31851711566E+03  0.34655723375E+03  0.12508488998E+03 0.  0.
         23    2    1    2    0    0 -0.54500635205E+02  0.56757694684E+01 -0.68723060001E+02  0.12646650662E+03  0.90930658872E+02 0.  0.
          5    1    3    3  502    0 -0.94153551662E+01  0.32290582261E+02 -0.21018304545E+02  0.39881977654E+02  0.41800000000E+01 0.  1.
         -5    1    3    3    0  502  0.63915990371E+02 -0.37966351729E+02 -0.29749881112E+03  0.30667525610E+03  0.41800000000E+01 0.  1.
        -11    1    4    4    0    0  0.23352892757E+02  0.12058179861E+01 -0.33609314041E+02  0.40943834547E+02  0.00000000000E+00 0. -1.
         11    1    4    4    0    0 -0.77853527962E+02  0.44699514823E+01 -0.35113745961E+02  0.85522672069E+02  0.00000000000E+00 0.  1.
</event>
<event>
 8    1  0.7005395E-009  0.1071212E+03  0.7561462E-02  0.1265996E+00
         -2   -1    0    0    0  501 -0.00000000000E+00  0.00000000000E+00  0.30529941152E+02  0.30529941152E+02  0.00000000000E+00 0. -1.
          2   -1    0    0  501    0  0.00000000000E+00 -0.00000000000E+00 -0.41084279604E+03  0.41084279604E+03  0.00000000000E+00 0.  1.
         25    2    1    2    0    0 -0.29616962056E+02  0.31362888500E+01 -0.21741416256E+03  0.25259349995E+03  0.12509019700E+03 0.  0.
         23    2    1    2    0    0  0.29616962056E+02 -0.31362888500E+01 -0.16289869232E+03  0.18877923724E+03  0.90634517169E+02 0.  0.
          5    1    3    3  502    0  0.21899708236E+02  0.49203604720E+02 -0.60638509518E+02  0.81210179009E+02  0.41800000000E+01 0.  1.
         -5    1    3    3    0  502 -0.51516670292E+02 -0.46067315869E+02 -0.15677565304E+03  0.17138332094E+03  0.41800000000E+01 0.  1.
        -11    1    4    4    0    0  0.57912607377E+02  0.11632393022E+02 -0.13076544413E+03  0.14348792297E+03  0.00000000000E+00 0.  1.
         11    1    4    4    0    0 -0.28295645321E+02 -0.14768681872E+02 -0.32133248194E+02  0.45291314265E+02  0.00000000000E+00 0. -1.
</event>
<event>
 8    1  0.7005395E-009  0.1622324E+03  0.7561462E-02  0.1186199E+00
         -1   -1    0    0    0  501 -0.00000000000E+00  0.00000000000E+00  0.40510695756E+03  0.40510695756E+03  0.00000000000E+00 0.  1.
          1   -1    0    0  501    0  0.00000000000E+00 -0.00000000000E+00 -0.79631600559E+02  0.79631600559E+02  0.00000000000E+00 0. -1.
         25    2    1    2    0    0 -0.11787686562E+03  0.74516362387E+02  0.20889727191E+03  0.28059720020E+03  0.12509626228E+03 0.  0.
         23    2    1    2    0    0  0.11787686562E+03 -0.74516362387E+02  0.11657808509E+03  0.20414135791E+03  0.92927931085E+02 0.  0.
          5    1    3    3  502    0 -0.17343068480E+01  0.60597056542E+02  0.11679565939E+03  0.13165754644E+03  0.41800000000E+01 0.  1.
         -5    1    3    3    0  502 -0.11614255878E+03  0.13919305845E+02  0.92101612519E+02  0.14893965376E+03  0.41800000000E+01 0.  1.
        -11    1    4    4    0    0  0.57557530971E+02 -0.62832407065E+02  0.11442000456E+03  0.14266295312E+03  0.00000000000E+00 0.  1.
         11    1    4    4    0    0  0.60319334653E+02 -0.11683955322E+02  0.21580805303E+01  0.61478404798E+02  0.00000000000E+00 0. -1.
</event>
<event>
 8    1  0.7005395E-009  0.9443583E+02  0.7561462E-02  0.1292452E+00
          1   -1    0    0  501    0  0.00000000000E+00  0.00000000000E+00  0.14613116057E+03  0.14613116057E+03  0.00000000000E+00 0. -1.
         -1   -1    0    0    0  501 -0.00000000000E+00 -0.00000000000E+00 -0.12115268298E+03  0.12115268298E+03  0.00000000000E+00 0.  1.
         25    2    1    2    0    0  0.57125581909E+01 -0.64438574085E+02  0.58171211451E+02  0.15237638416E+03  0.12509879878E+03 0.  0.
         23    2    1    2    0    0 -0.57125581909E+01  0.64438574085E+02 -0.33192733860E+02  0.11490745940E+03  0.88977544882E+02 0.  0.
          5    1    3    3  502    0 -0.13731549037E+02 -0.57130704259E+02 -0.26862852355E+02  0.64742243124E+02  0.41800000000E+01 0. -1.
         -5    1    3    3    0  502  0.19444107228E+02 -0.73078698259E+01  0.85034063806E+02  0.87634141033E+02  0.41800000000E+01 0. -1.
        -11    1    4    4    0    0  0.39149702120E+02  0.14759618554E+02 -0.21200623302E+02  0.46904284926E+02  0.00000000000E+00 0.  1.
         11    1    4    4    0    0 -0.44862260311E+02  0.49678955530E+02 -0.11992110558E+02  0.68003174473E+02  0.00000000000E+00 0. -1.
</event>
<event>
 8    1  0.7005395E-009  0.1077064E+03  0.7561462E-02  0.1264877E+00
          1   -1    0    0  501    0  0.00000000000E+00  0.00000000000E+00  0.33433837728E+03  0.33433837728E+03  0.00000000000E+00 0. -1.
         -1   -1    0    0    0  501 -0.00000000000E+00 -0.00000000000E+00 -0.62948248496E+02  0.62948248496E+02  0.00000000000E+00 0.  1.
         25    2    1    2    0    0  0.49463440804E+02 -0.39983613171E+02  0.50454422584E+02  0.14912679884E+03  0.12509129497E+03 0.  0.
         23    2    1    2    0    0 -0.49463440804E+02  0.39983613171E+02  0.22093570620E+03  0.24815982694E+03  0.93409807467E+02 0.  0.
          5    1    3    3  502    0 -0.25617746622E+02  0.79108962010E+01 -0.21450105557E+02  0.34589458641E+02  0.41800000000E+01 0.  1.
         -5    1    3    3    0  502  0.75081187426E+02 -0.47894509372E+02  0.71904528141E+02  0.11453734020E+03  0.41800000000E+01 0.  1.
        -11    1    4    4    0    0  0.18781442338E+02 -0.21739182016E+01  0.78430932478E+01  0.20469064667E+02  0.00000000000E+00 0.  1.
         11    1    4    4    0    0 -0.68244883142E+02  0.42157531373E+02  0.21309261296E+03  0.22769076227E+03  0.00000000000E+00 0. -1.
</event>
<event>
 8    1  0.7005395E-009  0.1421536E+03  0.7561462E-02  0.1210460E+00
          3   -1    0    0  501    0  0.00000000000E+00  0.00000000000E+00  0.56773253108E+03  0.56773253108E+03  0.00000000000E+00 0. -1.
         -3   -1    0    0    0  501 -0.00000000000E+00 -0.00000000000E+00 -0.52401366998E+02  0.52401366998E+02  0.00000000000E+00 0.  1.
         25    2    1    2    0    0  0.10823726921E+03 -0.35495145126E+00  0.13031216937E+03  0.21058167877E+03  0.12509176436E+03 0.  0.
         23    2    1    2    0    0 -0.10823726921E+03  0.35495145126E+00  0.38501899471E+03  0.40955221931E+03  0.88192752624E+02 0.  0.
          5    1    3    3  502    0 -0.26705713918E+02  0.98427415692E+01  0.13563336712E+02  0.31804264183E+02  0.41800000000E+01 0.  1.
         -5    1    3    3    0  502  0.13494298313E+03 -0.10197693020E+02  0.11674883266E+03  0.17877741458E+03  0.41800000000E+01 0.  1.
        -11    1    4    4    0    0 -0.67073401508E+02 -0.25251654041E+02  0.11716635680E+03  0.13734788818E+03  0.00000000000E+00 0.  1.
         11    1    4    4    0    0 -0.41163867703E+02  0.25606605492E+02  0.26785263792E+03  0.27220433113E+03  0.00000000000E+00 0. -1.
</event>
<event>
 8    1  0.7005395E-009  0.1232804E+03  0.7561462E-02  0.1237781E+00
          1   -1    0    0  501    0  0.00000000000E+00  0.00000000000E+00  0.12870453311E+03  0.12870453311E+03  0.00000000000E+00 0. -1.
         -1   -1    0    0    0  501 -0.00000000000E+00 -0.00000000000E+00 -0.12387114402E+03  0.12387114402E+03  0.00000000000E+00 0.  1.
         25    2    1    2    0    0 -0.22085420102E+02  0.59522554193E+02 -0.21656660040E+02  0.14194119390E+03  0.12509033282E+03 0.  0.
         23    2    1    2    0    0  0.22085420102E+02 -0.59522554193E+02  0.26490049130E+02  0.11063448323E+03  0.86646211327E+02 0.  0.
          5    1    3    3  502    0  0.33351484589E+02 -0.22603865320E+02 -0.12272491212E+02  0.42324256547E+02  0.41800000000E+01 0.  1.
         -5    1    3    3    0  502 -0.55436904691E+02  0.82126419512E+02 -0.93841688276E+01  0.99616937356E+02  0.41800000000E+01 0.  1.
        -11    1    4    4    0    0  0.31572212937E+02 -0.79076948575E+02  0.25477634830E+02  0.88876759067E+02  0.00000000000E+00 0. -1.
         11    1    4    4    0    0 -0.94867928342E+01  0.19554394382E+02  0.10124142997E+01  0.21757724161E+02  0.00000000000E+00 0.  1.
</event>
<event>
 8    1  0.7005395E-009  0.7860435E+02  0.7561462E-02  0.1333059E+00
          2   -1    0    0  501    0  0.00000000000E+00  0.00000000000E+00  0.62302214824E+02  0.62302214824E+02  0.00000000000E+00 0. -1.
         -2   -1    0    0    0  501 -0.00000000000E+00 -0.00000000000E+00 -0.20898262000E+03  0.20898262000E+03  0.00000000000E+00 0.  1.
         25    2    1    2    0    0 -0.18251483460E+02  0.20411530472E+02 -0.11224342819E+03  0.17028741312E+03  0.12509783639E+03 0.  0.
         23    2    1    2    0    0  0.18251483460E+02 -0.20411530472E+02 -0.34436976984E+02  0.10099742170E+03  0.90911091633E+02 0.  0.
          5    1    3    3  502    0  0.48066692239E+02  0.91970552948E+00 -0.81068388300E+02  0.94344097550E+02  0.41800000000E+01 0.  1.
         -5    1    3    3    0  502 -0.66318175699E+02  0.19491824942E+02 -0.31175039892E+02  0.75943315571E+02  0.41800000000E+01 0.  1.
        -11    1    4    4    0    0 -0.30187292029E+01 -0.18050746954E+02 -0.62830684979E+02  0.65441860965E+02  0.00000000000E+00 0.  1.
         11    1    4    4    0    0  0.21270212663E+02 -0.23607835175E+01  0.28393707996E+02  0.35555560737E+02  0.00000000000E+00 0. -1.
</event>
<event>
 8    1  0.7005395E-009  0.2108261E+03  0.7561462E-02  0.1140913E+00
         -2   -1    0    0    0  501 -0.00000000000E+00  0.00000000000E+00  0.20274717303E+02  0.20274717303E+02  0.00000000000E+00 0.  1.
          2   -1    0    0  501    0  0.00000000000E+00 -0.00000000000E+00 -0.22804927405E+04  0.22804927405E+04  0.00000000000E+00 0. -1.
         25    2    1    2    0    0  0.16648145023E+03  0.81038121309E+02 -0.13214982337E+04  0.13402563867E+04  0.12508537105E+03 0.  0.
         23    2    1    2    0    0 -0.16648145023E+03 -0.81038121309E+02 -0.93871978946E+03  0.96051107106E+03  0.84281813777E+02 0.  0.
          5    1    3    3  502    0  0.45664704104E+02  0.85790415007E+02 -0.73506456072E+03  0.74147329105E+03  0.41800000000E+01 0.  1.
         -5    1    3    3    0  502  0.12081674613E+03 -0.47522936981E+01 -0.58643367300E+03  0.59878309568E+03  0.41800000000E+01 0.  1.
        -11    1    4    4    0    0 -0.11904233888E+03 -0.96770807617E+02 -0.71653586031E+03  0.73277507242E+03  0.00000000000E+00 0.  1.
         11    1    4    4    0    0 -0.47439111350E+02  0.15732686309E+02 -0.22218392915E+03  0.22773599864E+03  0.00000000000E+00 0. -1.
</event>
<event>
 8    1  0.7005395E-009  0.1087747E+03  0.7561462E-02  0.1262856E+00
          2   -1    0    0  501    0  0.00000000000E+00  0.00000000000E+00  0.46973724021E+03  0.46973724021E+03  0.00000000000E+00 0. -1.
         -2   -1    0    0    0  501 -0.00000000000E+00 -0.00000000000E+00 -0.32218444592E+02  0.32218444592E+02  0.00000000000E+00 0.  1.
         25    2    1    2    0    0 -0.27441809172E+02 -0.48103179709E+02  0.28166773487E+03  0.31313156296E+03  0.12509074333E+03 0.  0.
         23    2    1    2    0    0  0.27441809172E+02  0.48103179709E+02  0.15585106076E+03  0.18882412185E+03  0.91093507261E+02 0.  0.
          5    1    3    3  502    0  0.14543077294E+02  0.26373521448E+02  0.16858608859E+03  0.17130617443E+03  0.41800000000E+01 0.  1.
         -5    1    3    3    0  502 -0.41984886466E+02 -0.74476701157E+02  0.11308164628E+03  0.14182538853E+03  0.41800000000E+01 0.  1.
        -11    1    4    4    0    0 -0.26699496240E+02  0.38043234478E+02  0.10059598976E+03  0.11081382560E+03  0.00000000000E+00 0. -1.
         11    1    4    4    0    0  0.54141305412E+02  0.10059945231E+02  0.55255070994E+02  0.78010296245E+02  0.00000000000E+00 0.  1.
</event>
<event>
 8    1  0.7005395E-009  0.1182356E+03  0.7561462E-02  0.1246036E+00
          2   -1    0    0  501    0  0.00000000000E+00  0.00000000000E+00  0.25552334877E+03  0.25552334877E+03  0.00000000000E+00 0.  1.
         -2   -1    0    0    0  501 -0.00000000000E+00 -0.00000000000E+00 -0.96864275354E+02  0.96864275354E+02  0.00000000000E+00 0. -1.
         25    2    1    2    0    0  0.76322233954E+02 -0.47398474170E+02  0.73312234368E+01  0.15418739079E+03  0.12509318883E+03 0.  0.
         23    2    1    2    0    0 -0.76322233954E+02  0.47398474170E+02  0.15132784997E+03  0.19820023333E+03  0.91167513756E+02 0.  0.
          5    1    3    3  502    0  0.29674327627E+02  0.16541434123E+02  0.52716764578E+02  0.62854708897E+02  0.41800000000E+01 0.  1.
         -5    1    3    3    0  502  0.46647906327E+02 -0.63939908292E+02 -0.45385541141E+02  0.91332681893E+02  0.41800000000E+01 0.  1.
        -11    1    4    4    0    0 -0.27335377827E+02 -0.24013364143E+02  0.72404601488E+02  0.81032653018E+02  0.00000000000E+00 0.  1.
         11    1    4    4    0    0 -0.48986856127E+02  0.71411838312E+02  0.78923248486E+02  0.11716758031E+03  0.00000000000E+00 0. -1.
</event>
<event>
 8    1  0.7005395E-009  0.1311919E+03  0.7561462E-02  0.1225698E+00
         -1   -1    0    0    0  501 -0.00000000000E+00  0.00000000000E+00  0.24795156104E+02  0.24795156104E+02  0.00000000000E+00 0.  1.
          1   -1    0    0  501    0  0.00000000000E+00 -0.00000000000E+00 -0.10642748634E+04  0.10642748634E+04  0.00000000000E+00 0. -1.
         25    2    1    2    0    0 -0.50705153421E+02  0.57826455430E+02 -0.84850354078E+03  0.86111624128E+03  0.12509200912E+03 0.  0.
         23    2    1    2    0    0  0.50705153421E+02 -0.57826455430E+02 -0.19097616653E+03  0.22795377824E+03  0.97857637926E+02 0.  0.
          5    1    3    3  502    0 -0.39083006692E+02 -0.35137031271E+02 -0.33406852057E+03  0.33820310646E+03  0.41800000000E+01 0. -1.
         -5    1    3    3    0  502 -0.11622146729E+02  0.92963486702E+02 -0.51443502021E+03  0.52291313483E+03  0.41800000000E+01 0. -1.
        -11    1    4    4    0    0  0.75033921183E+02 -0.36110966389E+02 -0.93688273254E+02  0.12534585660E+03  0.00000000000E+00 0.  1.
         11    1    4    4    0    0 -0.24328767762E+02 -0.21715489041E+02 -0.97287893275E+02  0.10260792164E+03  0.00000000000E+00 0. -1.
</event>
<event>
 8    1  0.7005395E-009  0.1178525E+03  0.7561462E-02  0.1246682E+00
         -1   -1    0    0    0  501 -0.00000000000E+00  0.00000000000E+00  0.18863343592E+02  0.18863343592E+02  0.00000000000E+00 0.  1.
          1   -1    0    0  501    0  0.00000000000E+00 -0.00000000000E+00 -0.79539820579E+03  0.79539820579E+03  0.00000000000E+00 0. -1.
         25    2    1    2    0    0 -0.39127508853E+02  0.39254487597E+02 -0.46329270099E+03  0.48307368029E+03  0.12509267385E+03 0.  0.
         23    2    1    2    0    0  0.39127508853E+02 -0.39254487597E+02 -0.31324216120E+03  0.33118786909E+03  0.92156802957E+02 0.  0.
          5    1    3    3  502    0  0.20326529154E+02  0.66604000416E+02 -0.20320703475E+03  0.21484839313E+03  0.41800000000E+01 0.  1.
         -5    1    3    3    0  502 -0.59454038007E+02 -0.27349512820E+02 -0.26008566625E+03  0.26822528716E+03  0.41800000000E+01 0.  1.
        -11    1    4    4    0    0  0.18345850185E+02  0.26035062271E+02 -0.50879473085E+02  0.60025956617E+02  0.00000000000E+00 0.  1.
         11    1    4    4    0    0  0.20781658668E+02 -0.65289549867E+02 -0.26236268812E+03  0.27116191247E+03  0.00000000000E+00 0. -1.
</event>
<event>
 8    1  0.7005395E-009  0.8449985E+02  0.7561462E-02  0.1316746E+00
          1   -1    0    0  501    0  0.00000000000E+00  0.00000000000E+00  0.84551689359E+02  0.84551689359E+02  0.00000000000E+00 0. -1.
         -1   -1    0    0    0  501 -0.00000000000E+00 -0.00000000000E+00 -0.27963095011E+03  0.27963095011E+03  0.00000000000E+00 0.  1.
         25    2    1    2    0    0 -0.12699945426E+02  0.35785138375E+01 -0.23257019698E+03  0.26440578519E+03  0.12508968120E+03 0.  0.
         23    2    1    2    0    0  0.12699945426E+02 -0.35785138375E+01  0.37490936223E+02  0.99776854284E+02  0.91519156337E+02 0.  0.
          5    1    3    3  502    0 -0.12060087200E+02 -0.49331670409E+02 -0.40366415047E+02  0.65007532428E+02  0.41800000000E+01 0. -1.
         -5    1    3    3    0  502 -0.63985822621E+00  0.52910184246E+02 -0.19220378193E+03  0.19939825276E+03  0.41800000000E+01 0. -1.
        -11    1    4    4    0    0 -0.25793179524E+02  0.28069593998E+01 -0.18260724669E+02  0.31727294188E+02  0.00000000000E+00 0.  1.
         11    1    4    4    0    0  0.38493124951E+02 -0.63854732373E+01  0.55751660893E+02  0.68049560096E+02  0.00000000000E+00 0. -1.
</event>
<event>
 8    1  0.7005395E-009  0.1260006E+03  0.7561462E-02  0.1233514E+00
          1   -1    0    0  501    0  0.00000000000E+00  0.00000000000E+00  0.14752021026E+04  0.14752021026E+04  0.00000000000E+00 0. -1.
         -1   -1    0    0    0  501 -0.00000000000E+00 -0.00000000000E+00 -0.12086043301E+02  0.12086043301E+02  0.00000000000E+00 0.  1.
         25    2    1    2    0    0 -0.66236360343E+02 -0.85951357198E+01  0.10458548809E+04  0.10554236918E+04  0.12508239448E+03 0.  0.
         23    2    1    2    0    0  0.66236360343E+02  0.85951357198E+01  0.41726117842E+03  0.43186445418E+03  0.89100415120E+02 0.  0.
          5    1    3    3  502    0 -0.89258659336E+02  0.31273463199E+02  0.64467245349E+03  0.65158666534E+03  0.41800000000E+01 0. -1.
         -5    1    3    3    0  502  0.23022298993E+02 -0.39868598918E+02  0.40118242744E+03  0.40383702643E+03  0.41800000000E+01 0. -1.
        -11    1    4    4    0    0  0.18904337480E+02  0.46672226641E+02  0.17472121216E+03  0.18183281523E+03  0.00000000000E+00 0. -1.
         11    1    4    4    0    0  0.47332022863E+02 -0.38077090921E+02  0.24253996626E+03  0.25003163894E+03  0.00000000000E+00 0.  1.
</event>
<event>
 8    1  0.7005395E-009  0.1202178E+03  0.7561462E-02  0.1242738E+00
          2   -1    0    0  501    0  0.00000000000E+00  0.00000000000E+00  0.10452722898E+04  0.10452722898E+04  0.00000000000E+00 0.  1.
         -2   -1    0    0    0  501 -0.00000000000E+00 -0.00000000000E+00 -0.17422772574E+02  0.17422772574E+02  0.00000000000E+00 0. -1.
         25    2    1    2    0    0 -0.31077286614E+02 -0.72448588750E+02  0.52054857158E+03  0.54114033261E+03  0.12508976153E+03 0.  0.
         23    2    1    2    0    0  0.31077286614E+02  0.72448588750E+02  0.50730094566E+03  0.52155472978E+03  0.91926551864E+02 0.  0.
          5    1    3    3  502    0 -0.27814113918E+02 -0.94432822752E+02  0.23666109993E+03  0.25635352849E+03  0.41800000000E+01 0.  1.
         -5    1    3    3    0  502 -0.32631726959E+01  0.21984234002E+02  0.28388747165E+03  0.28478680412E+03  0.41800000000E+01 0.  1.
        -11    1    4    4    0    0  0.35515624537E+01  0.87732315864E+02  0.33007517539E+03  0.34155408686E+03  0.00000000000E+00 0. -1.
         11    1    4    4    0    0  0.27525724160E+02 -0.15283727114E+02  0.17722577026E+03  0.18000064292E+03  0.00000000000E+00 0.  1.
</event>
<event>
 8    1  0.7005395E-009  0.2070313E+03  0.7561462E-02  0.1143939E+00
         -2   -1    0    0    0  501 -0.00000000000E+00  0.00000000000E+00  0.70225960883E+02  0.70225960883E+02  0.00000000000E+00 0.  1.
          2   -1    0    0  501    0  0.00000000000E+00 -0.00000000000E+00 -0.63794635849E+03  0.63794635849E+03  0.00000000000E+00 0. -1.
         25    2    1    2    0    0 -0.10290380791E+03  0.14612898080E+03 -0.25406539628E+03  0.33487206629E+03  0.12508877842E+03 0.  0.
         23    2    1    2    0    0  0.10290380791E+03 -0.14612898080E+03 -0.31365500133E+03  0.37330025308E+03  0.95030239287E+02 0.  0.
          5    1    3    3  502    0  0.27201323896E+02  0.15552490519E+02 -0.22166896286E+02  0.38608751261E+02  0.41800000000E+01 0.  1.
         -5    1    3    3    0  502 -0.13010513180E+03  0.13057649028E+03 -0.23189849999E+03  0.29626331503E+03  0.41800000000E+01 0.  1.
        -11    1    4    4    0    0  0.24455972490E+02 -0.10821611649E+03 -0.21308305739E+03  0.24023574215E+03  0.00000000000E+00 0. -1.
         11    1    4    4    0    0  0.78447835416E+02 -0.37912864311E+02 -0.10057194393E+03  0.13306451093E+03  0.00000000000E+00 0.  1.
</event>
<event>
 8    1  0.7005395E-009  0.7058725E+02  0.7561462E-02  0.1358107E+00
          1   -1    0    0  501    0  0.00000000000E+00  0.00000000000E+00  0.83149980622E+02  0.83149980622E+02  0.00000000000E+00 0. -1.
         -1   -1    0    0    0  501 -0.00000000000E+00 -0.00000000000E+00 -0.23696101097E+03  0.23696101097E+03  0.00000000000E+00 0.  1.
         25    2    1    2    0    0 -0.10186727986E+02 -0.14065202949E+02 -0.18098659244E+03  0.22069199368E+03  0.12508880874E+03 0.  0.
         23    2    1    2    0    0  0.10186727986E+02  0.14065202949E+02  0.27175562083E+02  0.99418997917E+02  0.94042685049E+02 0.  0.
          5    1    3    3  502    0  0.13400885416E+02 -0.30959158901E+02  0.32407746211E+01  0.34147156104E+02  0.41800000000E+01 0.  1.
         -5    1    3    3    0  502 -0.23587613402E+02  0.16893955952E+02 -0.18422736706E+03  0.18654483758E+03  0.41800000000E+01 0.  1.
        -11    1    4    4    0    0 -0.30909984249E+02 -0.69922685473E+01 -0.16612625353E+02  0.35781255803E+02  0.00000000000E+00 0.  1.
         11    1    4    4    0    0  0.41096712235E+02  0.21057471497E+02  0.43788187436E+02  0.63637742114E+02  0.00000000000E+00 0. -1.
</event>
<event>
 8    1  0.7005395E-009  0.1740400E+03  0.7561462E-02  0.1173699E+00
         -2   -1    0    0    0  501 -0.00000000000E+00  0.00000000000E+00  0.10402985700E+03  0.10402985700E+03  0.00000000000E+00 0.  1.
          2   -1    0    0  501    0  0.00000000000E+00 -0.00000000000E+00 -0.55148462815E+03  0.55148462815E+03  0.00000000000E+00 0. -1.
         25    2    1    2    0    0 -0.20906804268E+02  0.15774159691E+03 -0.36861227964E+02  0.20573317419E+03  0.12509149842E+03 0.  0.
         23    2    1    2    0    0  0.20906804268E+02 -0.15774159691E+03 -0.41059354318E+03  0.44978131096E+03  0.91633313418E+02 0.  0.
          5    1    3    3  502    0 -0.38787761468E+02  0.93937870181E+02  0.35306896972E+02  0.10767015960E+03  0.41800000000E+01 0. -1.
         -5    1    3    3    0  502  0.17880957200E+02  0.63803726728E+02 -0.72168124935E+02  0.98063014595E+02  0.41800000000E+01 0. -1.
        -11    1    4    4    0    0  0.18850949187E+02  0.31092794918E+01 -0.78312224818E+02  0.80609121445E+02  0.00000000000E+00 0. -1.
         11    1    4    4    0    0  0.20558550803E+01 -0.16085087640E+03 -0.33228131836E+03  0.36917218951E+03  0.00000000000E+00 0.  1.
</event>
<event>
 8    1  0.7005395E-009  0.7270679E+02  0.7561462E-02  0.1351123E+00
          1   -1    0    0  501    0  0.00000000000E+00  0.00000000000E+00  0.27584517821E+02  0.27584517821E+02  0.00000000000E+00 0. -1.
         -1   -1    0    0    0  501 -0.00000000000E+00 -0.00000000000E+00 -0.45540740234E+03  0.45540740234E+03  0.00000000000E+00 0.  1.
         25    2    1    2    0    0  0.71862779976E+01 -0.38322795329E+01 -0.18519386762E+03  0.22362785354E+03  0.12508524820E+03 0.  0.
         23    2    1    2    0    0 -0.71862779976E+01  0.38322795329E+01 -0.24262901689E+03  0.25936406661E+03  0.91293758021E+02 0.  0.
          5    1    3    3  502    0 -0.13915721615E+02 -0.22594202586E+02 -0.19233659359E+03  0.19420345757E+03  0.41800000000E+01 0. -1.
         -5    1    3    3    0  502  0.21101999613E+02  0.18761923053E+02  0.71427259651E+01  0.29424395975E+02  0.41800000000E+01 0. -1.
        -11    1    4    4    0    0 -0.17541782280E+02 -0.40682323740E+02 -0.95002020464E+02  0.10482437447E+03  0.00000000000E+00 0. -1.
         11    1    4    4    0    0  0.10355504283E+02  0.44514603273E+02 -0.14762699643E+03  0.15453969215E+03  0.00000000000E+00 0.  1.
</event>
<event>
 8    1  0.7005395E-009  0.1932797E+03  0.7561462E-02  0.1155536E+00
          1   -1    0    0  501    0  0.00000000000E+00  0.00000000000E+00  0.82712283609E+02  0.82712283609E+02  0.00000000000E+00 0. -1.
         -1   -1    0    0    0  501 -0.00000000000E+00 -0.00000000000E+00 -0.66697226179E+03  0.66697226179E+03  0.00000000000E+00 0.  1.
         25    2    1    2    0    0 -0.12273594370E+03  0.12691104294E+03 -0.12456115740E+03  0.24966565297E+03  0.12508769580E+03 0.  0.
         23    2    1    2    0    0  0.12273594370E+03 -0.12691104294E+03 -0.45969882078E+03  0.50001889243E+03  0.86748845908E+02 0.  0.
          5    1    3    3  502    0 -0.13304437420E+03  0.11823866600E+03 -0.66724097134E+02  0.19013354565E+03  0.41800000000E+01 0.  1.
         -5    1    3    3    0  502  0.10308430496E+02  0.86723769422E+01 -0.57837060267E+02  0.59532107316E+02  0.41800000000E+01 0.  1.
        -11    1    4    4    0    0  0.21196622319E+02  0.10421296959E+02 -0.85183254103E+02  0.88397324663E+02  0.00000000000E+00 0.  1.
         11    1    4    4    0    0  0.10153932138E+03 -0.13733233990E+03 -0.37451556667E+03  0.41162156777E+03  0.00000000000E+00 0. -1.
</event>
<event>
 8    1  0.7005395E-009  0.8143411E+02  0.7561462E-02  0.1325030E+00
          2   -1    0    0  501    0  0.00000000000E+00  0.00000000000E+00  0.65145492404E+03  0.65145492404E+03  0.00000000000E+00 0.  1.
         -2   -1    0    0    0  501 -0.00000000000E+00 -0.00000000000E+00 -0.27269255323E+02  0.27269255323E+02  0.00000000000E+00 0. -1.
         25    2    1    2    0    0  0.41344915492E+02 -0.60482059089E+02  0.27754923752E+03  0.31312626366E+03  0.12508795402E+03 0.  0.
         23    2    1    2    0    0 -0.41344915492E+02  0.60482059089E+02  0.34663643120E+03  0.36559791570E+03  0.90208309044E+02 0.  0.
          5    1    3    3  502    0  0.43317022343E+02 -0.65189101176E+02  0.68857526843E+02  0.10433031554E+03  0.41800000000E+01 0. -1.
         -5    1    3    3    0  502 -0.19721068515E+01  0.47070420870E+01  0.20869171067E+03  0.20879594813E+03  0.41800000000E+01 0. -1.
        -11    1    4    4    0    0 -0.28257525940E+02  0.58074362331E+02  0.34631639439E+03  0.35228704824E+03  0.00000000000E+00 0.  1.
         11    1    4    4    0    0 -0.13087389552E+02  0.24076967579E+01  0.32003680596E+00  0.13310867459E+02  0.00000000000E+00 0. -1.
</event>
<event>
 8    1  0.7005395E-009  0.1331335E+03  0.7561462E-02  0.1222879E+00
         -2   -1    0    0    0  501 -0.00000000000E+00  0.00000000000E+00  0.15812495178E+02  0.15812495178E+02  0.00000000000E+00 0.  1.
          2   -1    0    0  501    0  0.00000000000E+00 -0.00000000000E+00 -0.11908910868E+04  0.11908910868E+04  0.00000000000E+00 0. -1.
         25    2    1    2    0    0 -0.57594620145E+02 -0.58428139018E+02 -0.65076579210E+03  0.66773821251E+03  0.12508883471E+03 0.  0.
         23    2    1    2    0    0  0.57594620145E+02  0.58428139018E+02 -0.52431279947E+03  0.53896536943E+03  0.94067901291E+02 0.  0.
          5    1    3    3  502    0 -0.36576500111E+02 -0.97876641715E+02 -0.46777835655E+03  0.47932425415E+03  0.41800000000E+01 0. -1.
         -5    1    3    3    0  502 -0.21018120034E+02  0.39448502697E+02 -0.18298743555E+03  0.18841395836E+03  0.41800000000E+01 0. -1.
        -11    1    4    4    0    0 -0.12294135849E+02 -0.12284999954E+02 -0.29300351532E+02  0.34067251137E+02  0.00000000000E+00 0.  1.
         11    1    4    4    0    0  0.69888755994E+02  0.70713138972E+02 -0.49501244794E+03  0.50489811829E+03  0.00000000000E+00 0. -1.
</event>
<event>
 8    1  0.7005395E-009  0.8410519E+02  0.7561462E-02  0.1317789E+00
         -2   -1    0    0    0  501 -0.00000000000E+00  0.00000000000E+00  0.12007918402E+03  0.12007918402E+03  0.00000000000E+00 0.  1.
          2   -1    0    0  501    0  0.00000000000E+00 -0.00000000000E+00 -0.10547531589E+03  0.10547531589E+03  0.00000000000E+00 0. -1.
         25    2    1    2    0    0 -0.10322479622E+02 -0.21217659050E+02  0.30699236516E+02  0.13094546711E+03  0.12509008591E+03 0.  0.
         23    2    1    2    0    0  0.10322479622E+02  0.21217659050E+02 -0.16095368383E+02  0.94609032802E+02  0.90194598304E+02 0.  0.
          5    1    3    3  502    0 -0.26026131553E+02 -0.56731674618E+02  0.56371170793E+02  0.84208216494E+02  0.41800000000E+01 0. -1.
         -5    1    3    3    0  502  0.15703651931E+02  0.35514015567E+02 -0.25671934277E+02  0.46737250617E+02  0.41800000000E+01 0. -1.
        -11    1    4    4    0    0 -0.18182382436E+02  0.31437576131E+02 -0.41453690524E+02  0.55111964963E+02  0.00000000000E+00 0. -1.
         11    1    4    4    0    0  0.28504862058E+02 -0.10219917081E+02  0.25358322141E+02  0.39497067839E+02  0.00000000000E+00 0.  1.
</event>
<event>
 8    1  0.7005395E-009  0.5022663E+03  0.7561462E-02  0.1013189E+00
          1   -1    0    0  501    0  0.00000000000E+00  0.00000000000E+00  0.18972507120E+04  0.18972507120E+04  0.00000000000E+00 0. -1.
         -1   -1    0    0    0  501 -0.00000000000E+00 -0.00000000000E+00 -0.13840036822E+03  0.13840036822E+03  0.00000000000E+00 0.  1.
         25    2    1    2    0    0 -0.39683912070E+03 -0.29876492634E+03  0.10084622917E+04  0.11310995308E+04  0.12509270960E+03 0.  0.
         23    2    1    2    0    0  0.39683912070E+03  0.29876492634E+03  0.75038805215E+03  0.90455154942E+03  0.91594256451E+02 0.  0.
          5    1    3    3  502    0 -0.22674074127E+03 -0.13876340413E+03  0.40978232728E+03  0.48847279784E+03  0.41800000000E+01 0.  1.
         -5    1    3    3    0  502 -0.17009837943E+03 -0.16000152222E+03  0.59867996437E+03  0.64262673297E+03  0.41800000000E+01 0.  1.
        -11    1    4    4    0    0  0.65858889096E+02  0.97746214611E+02  0.17507765619E+03  0.21105426184E+03  0.00000000000E+00 0.  1.
         11    1    4    4    0    0  0.33098023161E+03  0.20101871173E+03  0.57531039596E+03  0.69349728758E+03  0.00000000000E+00 0. -1.
</event>
<event>
 8    1  0.7005395E-009  0.9733172E+02  0.7561462E-02  0.1286009E+00
          3   -1    0    0  501    0  0.00000000000E+00  0.00000000000E+00  0.50654687935E+03  0.50654687935E+03  0.00000000000E+00 0.  1.
         -3   -1    0    0    0  501 -0.00000000000E+00 -0.00000000000E+00 -0.26099999130E+02  0.26099999130E+02  0.00000000000E+00 0. -1.
         25    2    1    2    0    0  0.34882945868E+02 -0.62993329206E+01  0.30283400193E+03  0.32956406776E+03  0.12509012962E+03 0.  0.
         23    2    1    2    0    0 -0.34882945868E+02  0.62993329206E+01  0.17761287829E+03  0.20308281072E+03  0.91868340392E+02 0.  0.
          5    1    3    3  502    0  0.48388406795E+02 -0.44506586077E+02  0.82893410741E+02  0.10588231231E+03  0.41800000000E+01 0.  1.
         -5    1    3    3    0  502 -0.13505460926E+02  0.38207253157E+02  0.21994059119E+03  0.22368175545E+03  0.41800000000E+01 0.  1.
        -11    1    4    4    0    0 -0.28408345769E+01 -0.35369601513E+02  0.11980804731E+03  0.12495217987E+03  0.00000000000E+00 0. -1.
         11    1    4    4    0    0 -0.32042111292E+02  0.41668934434E+02  0.57804830979E+02  0.78130630852E+02  0.00000000000E+00 0.  1.
</event>
<event>
 8    1  0.7005395E-009  0.1197921E+03  0.7561462E-02  0.1243440E+00
          1   -1    0    0  501    0  0.00000000000E+00  0.00000000000E+00  0.38597191627E+02  0.38597191627E+02  0.00000000000E+00 0.  1.
         -1   -1    0    0    0  501 -0.00000000000E+00 -0.00000000000E+00 -0.66288054003E+03  0.66288054003E+03  0.00000000000E+00 0. -1.
         25    2    1    2    0    0 -0.10023304348E+03  0.12876808949E+02 -0.45769657028E+03  0.48512426001E+03  0.12508765723E+03 0.  0.
         23    2    1    2    0    0  0.10023304348E+03 -0.12876808949E+02 -0.16658677812E+03  0.21635347164E+03  0.94048895973E+02 0.  0.
          5    1    3    3  502    0 -0.36609800994E+02  0.69755701026E+01 -0.19490518021E+02  0.42264509932E+02  0.41800000000E+01 0.  1.
         -5    1    3    3    0  502 -0.63623242484E+02  0.59012388462E+01 -0.43820605226E+03  0.44285975008E+03  0.41800000000E+01 0.  1.
        -11    1    4    4    0    0 -0.95677014427E+01 -0.25775053522E+02 -0.33008348502E+02  0.42958647160E+02  0.00000000000E+00 0.  1.
         11    1    4    4    0    0  0.10980074492E+03  0.12898244573E+02 -0.13357842962E+03  0.17339482448E+03  0.00000000000E+00 0. -1.
</event>
<event>
 8    1  0.7005395E-009  0.9427871E+02  0.7561462E-02  0.1292809E+00
          2   -1    0    0  501    0  0.00000000000E+00  0.00000000000E+00  0.45249900079E+02  0.45249900079E+02  0.00000000000E+00 0.  1.
         -2   -1    0    0    0  501 -0.00000000000E+00 -0.00000000000E+00 -0.28084292621E+03  0.28084292621E+03  0.00000000000E+00 0. -1.
         25    2    1    2    0    0 -0.17142768347E+01  0.24607380587E+02 -0.12219090077E+03  0.17659726439E+03  0.12509003012E+03 0.  0.
         23    2    1    2    0    0  0.17142768347E+01 -0.24607380587E+02 -0.11340212536E+03  0.14949556190E+03  0.94235975440E+02 0.  0.
          5    1    3    3  502    0  0.41453440345E+02  0.23976736132E+02 -0.12202243553E+01  0.48085683311E+02  0.41800000000E+01 0.  1.
         -5    1    3    3    0  502 -0.43167717180E+02  0.63064445418E+00 -0.12097067642E+03  0.12851158108E+03  0.41800000000E+01 0.  1.
        -11    1    4    4    0    0  0.47215756845E+02 -0.20344376008E+02 -0.54184408982E+02  0.74693851865E+02  0.00000000000E+00 0.  1.
         11    1    4    4    0    0 -0.45501480010E+02 -0.42630045786E+01 -0.59217716381E+02  0.74801710038E+02  0.00000000000E+00 0. -1.
</event>
<event>
 8    1  0.7005395E-009  0.2544634E+03  0.7561462E-02  0.1110516E+00
          2   -1    0    0  501    0  0.00000000000E+00  0.00000000000E+00  0.19599724384E+03  0.19599724384E+03  0.00000000000E+00 0.  1.
         -2   -1    0    0    0  501 -0.00000000000E+00 -0.00000000000E+00 -0.36371948497E+03  0.36371948497E+03  0.00000000000E+00 0. -1.
         25    2    1    2    0    0 -0.54195643165E+02 -0.22582085147E+03 -0.16333386910E+03  0.31025335548E+03  0.12508783751E+03 0.  0.
         23    2    1    2    0    0  0.54195643165E+02  0.22582085147E+03 -0.43883720247E+01  0.24946337332E+03  0.90997209434E+02 0.  0.
          5    1    3    3  502    0  0.35179773587E+02 -0.31306859695E+02 -0.14328990431E+02  0.49401703415E+02  0.41800000000E+01 0. -1.
         -5    1    3    3    0  502 -0.89375416752E+02 -0.19451399177E+03 -0.14900487867E+03  0.26085165206E+03  0.41800000000E+01 0. -1.
        -11    1    4    4    0    0  0.75374696007E+02  0.20233463875E+03 -0.14107091946E+02  0.21637851298E+03  0.00000000000E+00 0.  1.
         11    1    4    4    0    0 -0.21179052842E+02  0.23486212723E+02  0.97187199208E+01  0.33084860348E+02  0.00000000000E+00 0. -1.
</event>
<event>
 8    1  0.7005395E-009  0.9894146E+02  0.7561462E-02  0.1282538E+00
          1   -1    0    0  501    0  0.00000000000E+00  0.00000000000E+00  0.35859436602E+03  0.35859436602E+03  0.00000000000E+00 0. -1.
         -1   -1    0    0    0  501 -0.00000000000E+00 -0.00000000000E+00 -0.35639375140E+02  0.35639375140E+02  0.00000000000E+00 0.  1.
         25    2    1    2    0    0  0.12857141138E+02  0.21456496675E+02  0.22841546267E+03  0.26162477485E+03  0.12509281314E+03 0.  0.
         23    2    1    2    0    0 -0.12857141138E+02 -0.21456496675E+02  0.94539528205E+02  0.13260896631E+03  0.89564101204E+02 0.  0.
          5    1    3    3  502    0  0.66013066441E+02  0.25874158505E+02  0.10140037522E+03  0.12380107235E+03  0.41800000000E+01 0. -1.
         -5    1    3    3    0  502 -0.53155925302E+02 -0.44176618293E+01  0.12701508745E+03  0.13782370250E+03  0.41800000000E+01 0. -1.
        -11    1    4    4    0    0  0.24436811605E+02 -0.26121286432E+02  0.87285909284E+02  0.94330850340E+02  0.00000000000E+00 0.  1.
         11    1    4    4    0    0 -0.37293952744E+02  0.46647897564E+01  0.72536189212E+01  0.38278115970E+02  0.00000000000E+00 0. -1.
</event>
<event>
 8    1  0.7005395E-009  0.1242224E+03  0.7561462E-02  0.1236290E+00
          1   -1    0    0  501    0  0.00000000000E+00  0.00000000000E+00  0.86406486955E+03  0.86406486955E+03  0.00000000000E+00 0. -1.
         -1   -1    0    0    0  501 -0.00000000000E+00 -0.00000000000E+00 -0.26348027783E+02  0.26348027783E+02  0.00000000000E+00 0.  1.
         25    2    1    2    0    0 -0.90385925405E+02  0.52942424141E+02  0.46363875720E+03  0.49150853852E+03  0.12508889031E+03 0.  0.
         23    2    1    2    0    0  0.90385925405E+02 -0.52942424141E+02  0.37407808457E+03  0.39890435881E+03  0.90651852368E+02 0.  0.
          5    1    3    3  502    0 -0.80727315688E+02  0.24244882684E+02  0.12108211654E+03  0.14759087093E+03  0.41800000000E+01 0.  1.
         -5    1    3    3    0  502 -0.96586097170E+01  0.28697541457E+02  0.34255664065E+03  0.34391766760E+03  0.41800000000E+01 0.  1.
        -11    1    4    4    0    0  0.41400516866E+02  0.19716708115E+02  0.81843228707E+02  0.93813993949E+02  0.00000000000E+00 0.  1.
         11    1    4    4    0    0  0.48985408540E+02 -0.72659132256E+02  0.29223485587E+03  0.30509036486E+03  0.00000000000E+00 0. -1.
</event>
<event>
 8    1  0.7005395E-009  0.1110146E+03  0.7561462E-02  0.1258702E+00
          1   -1    0    0  501    0  0.00000000000E+00  0.00000000000E+00  0.72964856284E+03  0.72964856284E+03  0.00000000000E+00 0. -1.
         -1   -1    0    0    0  501 -0.00000000000E+00 -0.00000000000E+00 -0.26763210449E+02  0.26763210449E+02  0.00000000000E+00 0.  1.
         25    2    1    2    0    0 -0.41527887167E+02  0.59882312527E+02  0.51916664935E+03  0.53897245571E+03  0.12508733529E+03 0.  0.
         23    2    1    2    0    0  0.41527887167E+02 -0.59882312527E+02  0.18371870304E+03  0.21743931758E+03  0.90646777197E+02 0.  0.
          5    1    3    3  502    0 -0.73580244073E+02  0.49961946418E+02  0.47540167585E+03  0.48366773121E+03  0.41800000000E+01 0.  1.
         -5    1    3    3    0  502  0.32052356906E+02  0.99203661088E+01  0.43764973493E+02  0.55304724498E+02  0.41800000000E+01 0.  1.
        -11    1    4    4    0    0  0.59698194318E+02 -0.38127888899E+02  0.67613900700E+02  0.97924715392E+02  0.00000000000E+00 0.  1.
         11    1    4    4    0    0 -0.18170307151E+02 -0.21754423628E+02  0.11610480234E+03  0.11951460219E+03  0.00000000000E+00 0. -1.
</event>
<event>
 8    1  0.7005395E-009  0.2050239E+03  0.7561462E-02  0.1145568E+00
         -2   -1    0    0    0  501 -0.00000000000E+00  0.00000000000E+00  0.10663100379E+03  0.10663100379E+03  0.00000000000E+00 0.  1.
          2   -1    0    0  501    0  0.00000000000E+00 -0.00000000000E+00 -0.42408497937E+03  0.42408497937E+03  0.00000000000E+00 0. -1.
         25    2    1    2    0    0 -0.74514876113E+02  0.16537754531E+03 -0.18140684239E+03  0.28541255281E+03  0.12509869536E+03 0.  0.
         23    2    1    2    0    0  0.74514876113E+02 -0.16537754531E+03 -0.13604713319E+03  0.24530343035E+03  0.93609568087E+02 0.  0.
          5    1    3    3  502    0 -0.11170034902E+02  0.15100889100E+03 -0.10145173258E+03  0.18231396349E+03  0.41800000000E+01 0. -1.
         -5    1    3    3    0  502 -0.63344841212E+02  0.14368654307E+02 -0.79955109808E+02  0.10309858932E+03  0.41800000000E+01 0. -1.
        -11    1    4    4    0    0  0.38870407586E+02 -0.19839105373E+02 -0.67852760531E+02  0.80675248990E+02  0.00000000000E+00 0. -1.
         11    1    4    4    0    0  0.35644468527E+02 -0.14553843993E+03 -0.68194372663E+02  0.16462818136E+03  0.00000000000E+00 0.  1.
</event>
<event>
 8    1  0.7005395E-009  0.1105638E+03  0.7561462E-02  0.1259529E+00
         -2   -1    0    0    0  501 -0.00000000000E+00  0.00000000000E+00  0.11500755521E+04  0.11500755521E+04  0.00000000000E+00 0.  1.
          2   -1    0    0  501    0  0.00000000000E+00 -0.00000000000E+00 -0.20809812107E+02  0.20809812107E+02  0.00000000000E+00 0. -1.
         25    2    1    2    0    0 -0.67869662675E+02  0.15298008630E+02  0.92948324907E+03  0.94043915262E+03  0.12508544799E+03 0.  0.
         23    2    1    2    0    0  0.67869662675E+02 -0.15298008630E+02  0.19978249088E+03  0.23044621154E+03  0.91389783747E+02 0.  0.
          5    1    3    3  502    0  0.34870548775E+01 -0.27934641323E+02  0.59506740833E+03  0.59574759470E+03  0.41800000000E+01 0.  1.
         -5    1    3    3    0  502 -0.71356717552E+02  0.43232649953E+02  0.33441584075E+03  0.34469155792E+03  0.41800000000E+01 0.  1.
        -11    1    4    4    0    0  0.51631985057E+02 -0.49339094236E+02  0.16208715189E+03  0.17712270579E+03  0.00000000000E+00 0.  1.
         11    1    4    4    0    0  0.16237677618E+02  0.34041085606E+02  0.37695338990E+02  0.53323505748E+02  0.00000000000E+00 0. -1.
</event>
<event>
 8    1  0.7005395E-009  0.9980823E+02  0.7561462E-02  0.1280700E+00
          2   -1    0    0  501    0  0.00000000000E+00  0.00000000000E+00  0.40364092138E+03  0.40364092138E+03  0.00000000000E+00 0. -1.
         -2   -1    0    0    0  501 -0.00000000000E+00 -0.00000000000E+00 -0.31213809476E+02  0.31213809476E+02  0.00000000000E+00 0.  1.
         25    2    1    2    0    0 -0.23182334013E+02  0.15387431422E+02  0.20572995693E+03  0.24237711377E+03  0.12509059295E+03 0.  0.
         23    2    1    2    0    0  0.23182334013E+02 -0.15387431422E+02  0.16669715498E+03  0.19247761709E+03  0.92116762572E+02 0.  0.
          5    1    3    3  502    0  0.39767106943E+02  0.69360346113E+01  0.15714819263E+03  0.16230390697E+03  0.41800000000E+01 0. -1.
         -5    1    3    3    0  502 -0.62949440956E+02  0.84513968107E+01  0.48581764301E+02  0.80073206801E+02  0.41800000000E+01 0. -1.
        -11    1    4    4    0    0  0.71561198423E+01  0.38501060396E+02  0.56171285767E+02  0.68474484646E+02  0.00000000000E+00 0. -1.
         11    1    4    4    0    0  0.16026214171E+02 -0.53888491818E+02  0.11052586921E+03  0.12400313244E+03  0.00000000000E+00 0.  1.
</event>
<event>
 8    1  0.7005395E-009  0.1087101E+03  0.7561462E-02  0.1262977E+00
          1   -1    0    0  501    0  0.00000000000E+00  0.00000000000E+00  0.23739180896E+03  0.23739180896E+03  0.00000000000E+00 0. -1.
         -1   -1    0    0    0  501 -0.00000000000E+00 -0.00000000000E+00 -0.74911883399E+02  0.74911883399E+02  0.00000000000E+00 0.  1.
         25    2    1    2    0    0  0.26689661855E+02 -0.40100128740E+02  0.15669952947E+03  0.20620807789E+03  0.12508665187E+03 0.  0.
         23    2    1    2    0    0 -0.26689661855E+02  0.40100128740E+02  0.57803960969E+01  0.10609561448E+03  0.94353103059E+02 0.  0.
          5    1    3    3  502    0 -0.22661190582E+02  0.32600364391E+02  0.22731480208E+02  0.45940242811E+02  0.41800000000E+01 0. -1.
         -5    1    3    3    0  502  0.49350852438E+02 -0.72700493132E+02  0.13396804926E+03  0.16026783508E+03  0.41800000000E+01 0. -1.
        -11    1    4    4    0    0 -0.96512561813E+00 -0.22151635853E+02  0.27497806463E+02  0.35323587002E+02  0.00000000000E+00 0. -1.
         11    1    4    4    0    0 -0.25724536237E+02  0.62251764593E+02 -0.21717410366E+02  0.70772027473E+02  0.00000000000E+00 0.  1.
</event>
<event>
 8    1  0.7005395E-009  0.1568647E+03  0.7561462E-02  0.1192283E+00
          2   -1    0    0  501    0  0.00000000000E+00  0.00000000000E+00  0.13599322357E+04  0.13599322357E+04  0.00000000000E+00 0. -1.
         -2   -1    0    0    0  501 -0.00000000000E+00 -0.00000000000E+00 -0.40272499342E+02  0.40272499342E+02  0.00000000000E+00 0.  1.
         25    2    1    2    0    0  0.11473660679E+03  0.76688669956E+02  0.11444116689E+04  0.11594703875E+04  0.12509144856E+03 0.  0.
         23    2    1    2    0    0 -0.11473660679E+03 -0.76688669956E+02  0.17524806746E+03  0.24073434756E+03  0.90529000383E+02 0.  0.
          5    1    3    3  502    0  0.13029021223E+03  0.54523401074E+02  0.10835697269E+04  0.10927438703E+04  0.41800000000E+01 0.  1.
         -5    1    3    3    0  502 -0.15553605441E+02  0.22165268881E+02  0.60841942017E+02  0.66726517182E+02  0.41800000000E+01 0.  1.
        -11    1    4    4    0    0 -0.35119965063E+02 -0.49915712797E+02  0.13380958374E+03  0.14707139433E+03  0.00000000000E+00 0. -1.
         11    1    4    4    0    0 -0.79616641723E+02 -0.26772957159E+02  0.41438483718E+02  0.93662953226E+02  0.00000000000E+00 0.  1.
</event>
<event>
 8    1  0.7005395E-009  0.1747309E+03  0.7561462E-02  0.1173002E+00
          2   -1    0    0  501    0  0.00000000000E+00  0.00000000000E+00  0.15917269046E+03  0.15917269046E+03  0.00000000000E+00 0. -1.
         -2   -1    0    0    0  501 -0.00000000000E+00 -0.00000000000E+00 -0.19273132699E+03  0.19273132699E+03  0.00000000000E+00 0.  1.
         25    2    1    2    0    0  0.10963526975E+03  0.81198868404E+02 -0.29029693349E+02  0.18735586779E+03  0.12508536883E+03 0.  0.
         23    2    1    2    0    0 -0.10963526975E+03 -0.81198868404E+02 -0.45289431759E+01  0.16454814966E+03  0.91882716686E+02 0.  0.
          5    1    3    3  502    0  0.13773373524E+03  0.67564401518E+02 -0.21609888981E+02  0.15498383747E+03  0.41800000000E+01 0.  1.
         -5    1    3    3    0  502 -0.28098465489E+02  0.13634466886E+02 -0.74198043682E+01  0.32372030319E+02  0.41800000000E+01 0.  1.
        -11    1    4    4    0    0 -0.27870418486E+02 -0.77805462523E+02 -0.28519974456E+01  0.82695732142E+02  0.00000000000E+00 0.  1.
         11    1    4    4    0    0 -0.81764851266E+02 -0.33934058804E+01 -0.16769457303E+01  0.81852417515E+02  0.00000000000E+00 0. -1.
</event>
<event>
 8    1  0.7005395E-009  0.9881416E+02  0.7561462E-02  0.1282810E+00
         -1   -1    0    0    0  501 -0.00000000000E+00  0.00000000000E+00  0.12217991821E+03  0.12217991821E+03  0.00000000000E+00 0.  1.
          1   -1    0    0  501    0  0.00000000000E+00 -0.00000000000E+00 -0.12392465198E+03  0.12392465198E+03  0.00000000000E+00 0. -1.
         25    2    1    2    0    0  0.53615045066E+02 -0.76457363224E+01 -0.10891521493E+00  0.13630885751E+03  0.12508821859E+03 0.  0.
         23    2    1    2    0    0 -0.53615045066E+02  0.76457363224E+01 -0.16358185508E+01  0.10979571269E+03  0.95495509219E+02 0.  0.
          5    1    3    3  502    0 -0.19801571715E+02 -0.21938167596E+02  0.41112714514E+02  0.50804656623E+02  0.41800000000E+01 0. -1.
         -5    1    3    3    0  502  0.73416616781E+02  0.14292431273E+02 -0.41221629729E+02  0.85504200884E+02  0.41800000000E+01 0. -1.
        -11    1    4    4    0    0 -0.92603373428E+01 -0.32040544525E+02  0.27779762112E+02  0.43405823620E+02  0.00000000000E+00 0.  1.
         11    1    4    4    0    0 -0.44354707724E+02  0.39686280847E+02 -0.29415580663E+02  0.66389889068E+02  0.00000000000E+00 0. -1.
</event>
<event>
 8    1  0.7005395E-009  0.1271061E+03  0.7561462E-02  0.1231814E+00
         -1   -1    0    0    0  501 -0.00000000000E+00  0.00000000000E+00  0.23063711147E+03  0.23063711147E+03  0.00000000000E+00 0.  1.
          1   -1    0    0  501    0  0.00000000000E+00 -0.00000000000E+00 -0.10448303237E+03  0.10448303237E+03  0.00000000000E+00 0. -1.
         25    2    1    2    0    0  0.98114942445E+02  0.10025231654E+02  0.11566806175E+03  0.19685964748E+03  0.12509025979E+03 0.  0.
         23    2    1    2    0    0 -0.98114942445E+02 -0.10025231654E+02  0.10486017344E+02  0.13826049636E+03  0.96327364194E+02 0.  0.
          5    1    3    3  502    0 -0.14037810496E+02  0.35899105247E+02  0.53217044941E+02  0.65843239238E+02  0.41800000000E+01 0.  1.
         -5    1    3    3    0  502  0.11215275294E+03 -0.25873873593E+02  0.62451016814E+02  0.13101640824E+03  0.41800000000E+01 0.  1.
        -11    1    4    4    0    0 -0.40310302645E+02  0.47860665454E+01  0.51705170849E+02  0.65736227644E+02  0.00000000000E+00 0.  1.
         11    1    4    4    0    0 -0.57804639800E+02 -0.14811298200E+02 -0.41219153505E+02  0.72524268714E+02  0.00000000000E+00 0. -1.
</event>
<event>
 8    1  0.7005395E-009  0.1752643E+03  0.7561462E-02  0.1172467E+00
          2   -1    0    0  501    0  0.00000000000E+00  0.00000000000E+00  0.83926281165E+03  0.83926281165E+03  0.00000000000E+00 0. -1.
         -2   -1    0    0    0  501 -0.00000000000E+00 -0.00000000000E+00 -0.40894786442E+02  0.40894786442E+02  0.00000000000E+00 0.  1.
         25    2    1    2    0    0  0.14421885514E+03  0.38908232182E+02  0.37525398955E+03  0.42281891877E+03  0.12508937880E+03 0.  0.
         23    2    1    2    0    0 -0.14421885514E+03 -0.38908232182E+02  0.42311403566E+03  0.45733867933E+03  0.88432187151E+02 0.  0.
          5    1    3    3  502    0  0.69296635775E+02  0.78786805799E+02  0.15981872930E+03  0.19122992217E+03  0.41800000000E+01 0.  1.
         -5    1    3    3    0  502  0.74922219361E+02 -0.39878573616E+02  0.21543526025E+03  0.23158899660E+03  0.41800000000E+01 0.  1.
        -11    1    4    4    0    0 -0.41825611633E+02 -0.40382344314E+02  0.77565534722E+02  0.96935688461E+02  0.00000000000E+00 0.  1.
         11    1    4    4    0    0 -0.10239324350E+03  0.14741121316E+01  0.34554850094E+03  0.36040299087E+03  0.00000000000E+00 0. -1.
</event>
<event>
 8    1  0.7005395E-009  0.1928348E+03  0.7561462E-02  0.1155929E+00
         -1   -1    0    0    0  501 -0.00000000000E+00  0.00000000000E+00  0.33569960079E+02  0.33569960079E+02  0.00000000000E+00 0.  1.
          1   -1    0    0  501    0  0.00000000000E+00 -0.00000000000E+00 -0.12429589706E+04  0.12429589706E+04  0.00000000000E+00 0. -1.
         25    2    1    2    0    0  0.10867760229E+03  0.13445815455E+03 -0.64398272017E+03  0.67841760851E+03  0.12508753373E+03 0.  0.
         23    2    1    2    0    0 -0.10867760229E+03 -0.13445815455E+03 -0.56540629030E+03  0.59811132211E+03  0.90349676067E+02 0.  0.
          5    1    3    3  502    0  0.11362078524E+03  0.14323287582E+03 -0.64173640266E+03  0.66728436401E+03  0.41800000000E+01 0.  1.
         -5    1    3    3    0  502 -0.49431829435E+01 -0.87747212638E+01 -0.22463175145E+01  0.11133244507E+02  0.41800000000E+01 0.  1.
        -11    1    4    4    0    0 -0.75872472933E+02 -0.28628197138E+02 -0.18720712188E+03  0.20401645106E+03  0.00000000000E+00 0.  1.
         11    1    4    4    0    0 -0.32805129362E+02 -0.10582995742E+03 -0.37819916842E+03  0.39409487105E+03  0.00000000000E+00 0. -1.
</event>
<event>
 8    1  0.7005395E-009  0.3613685E+03  0.7561462E-02  0.1058043E+00
          1   -1    0    0  501    0  0.00000000000E+00  0.00000000000E+00  0.14068691267E+04  0.14068691267E+04  0.00000000000E+00 0. -1.
         -1   -1    0    0    0  501 -0.00000000000E+00 -0.00000000000E+00 -0.98453457810E+02  0.98453457810E+02  0.00000000000E+00 0.  1.
         25    2    1    2    0    0  0.34384382329E+03  0.38087403501E+02  0.49484389850E+03  0.61660073685E+03  0.12508700846E+03 0.  0.
         23    2    1    2    0    0 -0.34384382329E+03 -0.38087403501E+02  0.81357177037E+03  0.88872184763E+03  0.90819996725E+02 0.  0.
          5    1    3    3  502    0  0.14559987403E+03  0.76429757594E+02  0.24916161615E+03  0.29856291553E+03  0.41800000000E+01 0. -1.
         -5    1    3    3    0  502  0.19824394926E+03 -0.38342354094E+02  0.24568228235E+03  0.31803782132E+03  0.41800000000E+01 0. -1.
        -11    1    4    4    0    0 -0.65514912534E+02 -0.42187179550E+02  0.21209672098E+03  0.22595791850E+03  0.00000000000E+00 0. -1.
         11    1    4    4    0    0 -0.27832891075E+03  0.40997760489E+01  0.60147504939E+03  0.66276392913E+03  0.00000000000E+00 0.  1.
</event>
<event>
 8    1  0.7005395E-009  0.1099383E+03  0.7561462E-02  0.1260684E+00
          1   -1    0    0  501    0  0.00000000000E+00  0.00000000000E+00  0.14346998146E+03  0.14346998146E+03  0.00000000000E+00 0. -1.
         -1   -1    0    0    0  501 -0.00000000000E+00 -0.00000000000E+00 -0.11059947852E+03  0.11059947852E+03  0.00000000000E+00 0.  1.
         25    2    1    2    0    0 -0.45535638987E+02  0.36608154912E+02  0.23883410205E+01  0.13807767476E+03  0.12508432624E+03 0.  0.
         23    2    1    2    0    0  0.45535638987E+02 -0.36608154912E+02  0.30482161916E+02  0.11599178521E+03  0.95453028334E+02 0.  0.
          5    1    3    3  502    0 -0.79477799853E+02  0.23688740956E+02 -0.30933236553E+02  0.88612722795E+02  0.41800000000E+01 0. -1.
         -5    1    3    3    0  502  0.33942160866E+02  0.12919413956E+02  0.33321577573E+02  0.49464951968E+02  0.41800000000E+01 0. -1.
        -11    1    4    4    0    0 -0.37744110256E+01 -0.49235262357E+02  0.40800969194E+02  0.64055259933E+02  0.00000000000E+00 0.  1.
         11    1    4    4    0    0  0.49310050013E+02  0.12627107445E+02 -0.10318807278E+02  0.51936525281E+02  0.00000000000E+00 0. -1.
</event>
<event>
 8    1  0.7005395E-009  0.1133325E+03  0.7561462E-02  0.1254520E+00
          2   -1    0    0  501    0  0.00000000000E+00  0.00000000000E+00  0.13391082627E+02  0.13391082627E+02  0.00000000000E+00 0. -1.
         -2   -1    0    0    0  501 -0.00000000000E+00 -0.00000000000E+00 -0.12184535260E+04  0.12184535260E+04  0.00000000000E+00 0.  1.
         25    2    1    2    0    0 -0.26576011908E+02  0.24336600395E+01 -0.91692153981E+03  0.92580026711E+03  0.12509523294E+03 0.  0.
         23    2    1    2    0    0  0.26576011908E+02 -0.24336600395E+01 -0.28814090357E+03  0.30604434152E+03  0.99628066114E+02 0.  0.
          5    1    3    3  502    0 -0.98226308358E+00  0.62266237860E+02 -0.47935149069E+03  0.48339773814E+03  0.41800000000E+01 0. -1.
         -5    1    3    3    0  502 -0.25593748824E+02 -0.59832577821E+02 -0.43757004912E+03  0.44240252896E+03  0.41800000000E+01 0. -1.
        -11    1    4    4    0    0 -0.36212153707E+02 -0.15632318590E+01 -0.67182699138E+02  0.76336615287E+02  0.00000000000E+00 0. -1.
         11    1    4    4    0    0  0.62788165615E+02 -0.87042818053E+00 -0.22095820443E+03  0.22970772624E+03  0.00000000000E+00 0.  1.
</event>
<event>
 8    1  0.7005395E-009  0.1145712E+03  0.7561462E-02  0.1252331E+00
         -2   -1    0    0    0  501 -0.00000000000E+00  0.00000000000E+00  0.27349722647E+03  0.27349722647E+03  0.00000000000E+00 0.  1.
          2   -1    0    0  501    0  0.00000000000E+00 -0.00000000000E+00 -0.17689978151E+03  0.17689978151E+03  0.00000000000E+00 0. -1.
         25    2    1    2    0    0  0.54630787724E+02 -0.30249552808E+02 -0.13483380695E+03  0.19423311923E+03  0.12508713241E+03 0.  0.
         23    2    1    2    0    0 -0.54630787724E+02  0.30249552808E+02  0.23143125191E+03  0.25616388875E+03  0.90332469940E+02 0.  0.
          5    1    3    3  502    0 -0.29633745351E+02  0.21788363989E+02 -0.18464128032E+02  0.41367718004E+02  0.41800000000E+01 0. -1.
         -5    1    3    3    0  502  0.84264533075E+02 -0.52037916797E+02 -0.11636967892E+03  0.15286540122E+03  0.41800000000E+01 0. -1.
        -11    1    4    4    0    0 -0.60683726239E+02 -0.14747219327E+01  0.20686164620E+03  0.21558392821E+03  0.00000000000E+00 0.  1.
         11    1    4    4    0    0  0.60529385146E+01  0.31724274740E+02  0.24569605717E+02  0.40579960541E+02  0.00000000000E+00 0. -1.
</event>
<event>
 8    1  0.7005395E-009  0.2523510E+03  0.7561462E-02  0.1111828E+00
         -1   -1    0    0    0  501 -0.00000000000E+00  0.00000000000E+00  0.89244528329E+02  0.89244528329E+02  0.00000000000E+00 0.  1.
          1   -1    0    0  501    0  0.00000000000E+00 -0.00000000000E+00 -0.83849659463E+03  0.83849659463E+03  0.00000000000E+00 0. -1.
         25    2    1    2    0    0 -0.17657181689E+03 -0.17097094968E+03 -0.30165433455E+03  0.40871672364E+03  0.12508137544E+03 0.  0.
         23    2    1    2    0    0  0.17657181689E+03  0.17097094968E+03 -0.44759773175E+03  0.51902439931E+03  0.92918918763E+02 0.  0.
          5    1    3    3  502    0  0.47230039791E+01 -0.20538727561E+01  0.90878319333E+01  0.11251055468E+02  0.41800000000E+01 0. -1.
         -5    1    3    3    0  502 -0.18129482087E+03 -0.16891707692E+03 -0.31074216648E+03  0.39746566818E+03  0.41800000000E+01 0. -1.
        -11    1    4    4    0    0  0.44048048018E+02  0.17309118532E+02 -0.16137147304E+03  0.16816833361E+03  0.00000000000E+00 0. -1.
         11    1    4    4    0    0  0.13252376887E+03  0.15366183114E+03 -0.28622625871E+03  0.35085606571E+03  0.00000000000E+00 0.  1.
</event>
<event>
 8    1  0.7005395E-009  0.1037246E+03  0.7561462E-02  0.1272653E+00
          2   -1    0    0  501    0  0.00000000000E+00  0.00000000000E+00  0.28845397193E+03  0.28845397193E+03  0.00000000000E+00 0. -1.
         -2   -1    0    0    0  501 -0.00000000000E+00 -0.00000000000E+00 -0.46921014571E+02  0.46921014571E+02  0.00000000000E+00 0.  1.
         25    2    1    2    0    0 -0.33950709842E+02 -0.26073305499E+02  0.12660081924E+03  0.18304967478E+03  0.12508776139E+03 0.  0.
         23    2    1    2    0    0  0.33950709842E+02  0.26073305499E+02  0.11493213812E+03  0.15232531171E+03  0.90339007396E+02 0.  0.
          5    1    3    3  502    0 -0.41837612579E+02 -0.71077515054E+02  0.59591478314E+02  0.10183818370E+03  0.41800000000E+01 0. -1.
         -5    1    3    3    0  502  0.78869027362E+01  0.45004209555E+02  0.67009340923E+02  0.81211491080E+02  0.41800000000E+01 0. -1.
        -11    1    4    4    0    0  0.51003129252E+02  0.32816581751E+02  0.34386278465E+02  0.69718457943E+02  0.00000000000E+00 0.  1.
         11    1    4    4    0    0 -0.17052419409E+02 -0.67432762518E+01  0.80545859654E+02  0.82606853770E+02  0.00000000000E+00 0. -1.
</event>
<event>
 8    1  0.7005395E-009  0.9221204E+02  0.7561462E-02  0.1297582E+00
          1   -1    0    0  501    0  0.00000000000E+00  0.00000000000E+00  0.70110771744E+02  0.70110771744E+02  0.00000000000E+00 0. -1.
         -1   -1    0    0    0  501 -0.00000000000E+00 -0.00000000000E+00 -0.21383438110E+03  0.21383438110E+03  0.00000000000E+00 0.  1.
         25    2    1    2    0    0  0.34882491289E+02  0.52953169264E+01 -0.12946635379E+03  0.18345213997E+03  0.12509325447E+03 0.  0.
         23    2    1    2    0    0 -0.34882491289E+02 -0.52953169264E+01 -0.14257255563E+02  0.10049301288E+03  0.93009395873E+02 0.  0.
          5    1    3    3  502    0  0.17885337742E+02 -0.47043526944E+02 -0.94824960603E+01  0.51384519702E+02  0.41800000000E+01 0.  1.
         -5    1    3    3    0  502  0.16997153547E+02  0.52338843871E+02 -0.11998385773E+03  0.13206762027E+03  0.41800000000E+01 0.  1.
        -11    1    4    4    0    0 -0.54927424260E+02  0.67620544524E+01 -0.38023909157E+02  0.67145848597E+02  0.00000000000E+00 0.  1.
         11    1    4    4    0    0  0.20044932971E+02 -0.12057371379E+02  0.23766653594E+02  0.33347164278E+02  0.00000000000E+00 0. -1.
</event>
<event>
 8    1  0.7005395E-009  0.1110036E+03  0.7561462E-02  0.1258723E+00
          2   -1    0    0  501    0  0.00000000000E+00  0.00000000000E+00  0.16878493360E+03  0.16878493360E+03  0.00000000000E+00 0. -1.
         -2   -1    0    0    0  501 -0.00000000000E+00 -0.00000000000E+00 -0.10684959736E+03  0.10684959736E+03  0.00000000000E+00 0.  1.
         25    2    1    2    0    0  0.45490822608E+02 -0.46930114279E+01 -0.35491710697E+02  0.13783686155E+03  0.12509156477E+03 0.  0.
         23    2    1    2    0    0 -0.45490822608E+02  0.46930114279E+01  0.97427046928E+02  0.13779766940E+03  0.86050734583E+02 0.  0.
          5    1    3    3  502    0  0.19640265296E+02 -0.64680206271E+02 -0.17207515821E+02  0.69877321822E+02  0.41800000000E+01 0. -1.
         -5    1    3    3    0  502  0.25850557312E+02  0.59987194844E+02 -0.18284194875E+02  0.67959539733E+02  0.41800000000E+01 0. -1.
        -11    1    4    4    0    0 -0.12506591456E+02  0.39167539719E+02  0.17440751340E+02  0.44661961497E+02  0.00000000000E+00 0.  1.
         11    1    4    4    0    0 -0.32984231152E+02 -0.34474528291E+02  0.79986295588E+02  0.93135707907E+02  0.00000000000E+00 0. -1.
</event>
<event>
 8    1  0.7005395E-009  0.8110885E+02  0.7561462E-02  0.1325934E+00
         -2   -1    0    0    0  501 -0.00000000000E+00  0.00000000000E+00  0.72324364811E+02  0.72324364811E+02  0.00000000000E+00 0.  1.
          2   -1    0    0  501    0  0.00000000000E+00 -0.00000000000E+00 -0.24568233411E+03  0.24568233411E+03  0.00000000000E+00 0. -1.
         25    2    1    2    0    0 -0.34922667594E+02  0.28407909095E+02 -0.17176893718E+03  0.21720497214E+03  0.12508729005E+03 0.  0.
         23    2    1    2    0    0  0.34922667594E+02 -0.28407909095E+02 -0.15890321155E+01  0.10080172678E+03  0.90176832319E+02 0.  0.
          5    1    3    3  502    0 -0.32422612292E+02 -0.30253115991E+02 -0.14654621018E+03  0.15316573028E+03  0.41800000000E+01 0.  1.
         -5    1    3    3    0  502 -0.25000553025E+01  0.58661025086E+02 -0.25222727003E+02  0.64039241861E+02  0.41800000000E+01 0.  1.
        -11    1    4    4    0    0 -0.58370388055E+01 -0.14689778548E+02 -0.40081043736E+02  0.43085388274E+02  0.00000000000E+00 0. -1.
         11    1    4    4    0    0  0.40759706400E+02 -0.13718130547E+02  0.38492011620E+02  0.57716338502E+02  0.00000000000E+00 0.  1.
</event>
<event>
 8    1  0.7005395E-009  0.9938900E+02  0.7561462E-02  0.1281586E+00
          1   -1    0    0  501    0  0.00000000000E+00  0.00000000000E+00  0.47411746468E+03  0.47411746468E+03  0.00000000000E+00 0. -1.
         -1   -1    0    0    0  501 -0.00000000000E+00 -0.00000000000E+00 -0.50571029713E+02  0.50571029713E+02  0.00000000000E+00 0.  1.
         25    2    1    2    0    0 -0.25338125680E+02 -0.24649488235E+02  0.41304316744E+03  0.43301342072E+03  0.12508535676E+03 0.  0.
         23    2    1    2    0    0  0.25338125680E+02  0.24649488235E+02  0.10503267531E+02  0.91675073673E+02  0.83930820447E+02 0.  0.
          5    1    3    3  502    0 -0.49669287860E-01 -0.72439178819E+02  0.18769543332E+03  0.20123241584E+03  0.41800000000E+01 0.  1.
         -5    1    3    3    0  502 -0.25288456392E+02  0.47789690584E+02  0.22534773412E+03  0.23178100488E+03  0.41800000000E+01 0.  1.
        -11    1    4    4    0    0  0.26307546743E+02 -0.16352342967E+02 -0.23110607158E+02  0.38646944244E+02  0.00000000000E+00 0.  1.
         11    1    4    4    0    0 -0.96942106380E+00  0.41001831202E+02  0.33613874689E+02  0.53028129429E+02  0.00000000000E+00 0. -1.
</event>
<event>
 8    1  0.7005395E-009  0.1466654E+03  0.7561462E-02  0.1204631E+00
          1   -1    0    0  501    0  0.00000000000E+00  0.00000000000E+00  0.83088459793E+03  0.83088459793E+03  0.00000000000E+00 0. -1.
         -1   -1    0    0    0  501 -0.00000000000E+00 -0.00000000000E+00 -0.34169363429E+02  0.34169363429E+02  0.00000000000E+00 0.  1.
         25    2    1    2    0    0 -0.12442530514E+03  0.25858312558E+02  0.47165353634E+03  0.50423571331E+03  0.12508512041E+03 0.  0.
         23    2    1    2    0    0  0.12442530514E+03 -0.25858312558E+02  0.32506169816E+03  0.36081824804E+03  0.91511702128E+02 0.  0.
          5    1    3    3  502    0 -0.39878569146E+02  0.51106415426E+02  0.33692992251E+03  0.34313468355E+03  0.41800000000E+01 0. -1.
         -5    1    3    3    0  502 -0.84546735993E+02 -0.25248102867E+02  0.13472361384E+03  0.16110102976E+03  0.41800000000E+01 0. -1.
        -11    1    4    4    0    0  0.88417029343E+02 -0.45051139786E+02  0.29168370958E+03  0.30810154609E+03  0.00000000000E+00 0. -1.
         11    1    4    4    0    0  0.36008275796E+02  0.19192827228E+02  0.33377988580E+02  0.52716701950E+02  0.00000000000E+00 0.  1.
</event>
<event>
 8    1  0.7005395E-009  0.1851317E+03  0.7561462E-02  0.1162927E+00
          1   -1    0    0  501    0  0.00000000000E+00  0.00000000000E+00  0.20010611740E+03  0.20010611740E+03  0.00000000000E+00 0. -1.
         -1   -1    0    0    0  501 -0.00000000000E+00 -0.00000000000E+00 -0.28324652210E+03  0.28324652210E+03  0.00000000000E+00 0.  1.
         25    2    1    2    0    0  0.11248422296E+03  0.13541092507E+03 -0.16228550843E+03  0.27013447896E+03  0.12508889413E+03 0.  0.
         23    2    1    2    0    0 -0.11248422296E+03 -0.13541092507E+03  0.79145103733E+02  0.21321816054E+03  0.90604732198E+02 0.  0.
          5    1    3    3  502    0  0.66851710888E+01  0.11214457715E+02  0.20772250647E+02  0.24888036710E+02  0.41800000000E+01 0. -1.
         -5    1    3    3    0  502  0.10579905187E+03  0.12419646736E+03 -0.18305775908E+03  0.24524644225E+03  0.41800000000E+01 0. -1.
        -11    1    4    4    0    0 -0.79511020921E+02 -0.33574920931E+02  0.12719736102E+02  0.87241443419E+02  0.00000000000E+00 0.  1.
         11    1    4    4    0    0 -0.32973202035E+02 -0.10183600414E+03  0.66425367631E+02  0.12597671712E+03  0.00000000000E+00 0. -1.
</event>
<event>
 8    1  0.7005395E-009  0.1585730E+03  0.7561462E-02  0.1190317E+00
         -2   -1    0    0    0  501 -0.00000000000E+00  0.00000000000E+00  0.55220854436E+03  0.55220854436E+03  0.00000000000E+00 0.  1.
          2   -1    0    0  501    0  0.00000000000E+00 -0.00000000000E+00 -0.55126913675E+02  0.55126913675E+02  0.00000000000E+00 0. -1.
         25    2    1    2    0    0 -0.52387778376E+02  0.12263401045E+03  0.21025466836E+03  0.27863587255E+03  0.12508934433E+03 0.  0.
         23    2    1    2    0    0  0.52387778376E+02 -0.12263401045E+03  0.28682696233E+03  0.32869958549E+03  0.89387534572E+02 0.  0.
          5    1    3    3  502    0  0.38217369518E+02  0.32750204198E+02  0.90153380384E+02  0.10333560665E+03  0.41800000000E+01 0.  1.
         -5    1    3    3    0  502 -0.90605147894E+02  0.89883806251E+02  0.12010128797E+03  0.17530026590E+03  0.41800000000E+01 0.  1.
        -11    1    4    4    0    0  0.52192566917E+02 -0.75333591708E+02  0.25682290807E+03  0.27268520347E+03  0.00000000000E+00 0.  1.
         11    1    4    4    0    0  0.19521145928E+00 -0.47300418742E+02  0.30004054257E+02  0.56014382015E+02  0.00000000000E+00 0. -1.
</event>
<event>
 8    1  0.7005395E-009  0.1581506E+03  0.7561462E-02  0.1190801E+00
          1   -1    0    0  501    0  0.00000000000E+00  0.00000000000E+00  0.29399253970E+03  0.29399253970E+03  0.00000000000E+00 0.  1.
         -1   -1    0    0    0  501 -0.00000000000E+00 -0.00000000000E+00 -0.10731681250E+03  0.10731681250E+03  0.00000000000E+00 0. -1.
         25    2    1    2    0    0 -0.78400042122E+02 -0.11633561297E+03  0.81189911327E+02  0.20474314428E+03  0.12508961579E+03 0.  0.
         23    2    1    2    0    0  0.78400042122E+02  0.11633561297E+03  0.10548581587E+03  0.19656620792E+03  0.88489972871E+02 0.  0.
          5    1    3    3  502    0 -0.98416257050E+02 -0.94137491238E+02  0.21612382992E+02  0.13795721948E+03  0.41800000000E+01 0.  1.
         -5    1    3    3    0  502  0.20016214927E+02 -0.22198121731E+02  0.59577528335E+02  0.66785924796E+02  0.41800000000E+01 0.  1.
        -11    1    4    4    0    0  0.56327722179E+02  0.36699962295E+02  0.63848372617E+01  0.67531219930E+02  0.00000000000E+00 0. -1.
         11    1    4    4    0    0  0.22072319943E+02  0.79635650674E+02  0.99100978608E+02  0.12903498799E+03  0.00000000000E+00 0.  1.
</event>
<event>
 8    1  0.7005395E-009  0.1599964E+03  0.7561462E-02  0.1188701E+00
          1   -1    0    0  501    0  0.00000000000E+00  0.00000000000E+00  0.14110337811E+04  0.14110337811E+04  0.00000000000E+00 0. -1.
         -1   -1    0    0    0  501 -0.00000000000E+00 -0.00000000000E+00 -0.25978140634E+02  0.25978140634E+02  0.00000000000E+00 0.  1.
         25    2    1    2    0    0  0.76503100951E+02  0.13452053640E+03  0.83069871231E+03  0.85419977469E+03  0.12509358605E+03 0.  0.
         23    2    1    2    0    0 -0.76503100951E+02 -0.13452053640E+03  0.55435692818E+03  0.58281214707E+03  0.91705483946E+02 0.  0.
          5    1    3    3  502    0  0.13988373078E+02  0.48185734112E+01  0.52023055870E+01  0.16230514918E+02  0.41800000000E+01 0.  1.
         -5    1    3    3    0  502  0.62514727873E+02  0.12970196299E+03  0.82549640673E+03  0.83796925977E+03  0.41800000000E+01 0.  1.
        -11    1    4    4    0    0 -0.24064357579E+02 -0.85396550218E+02  0.43114523317E+03  0.44017936819E+03  0.00000000000E+00 0. -1.
         11    1    4    4    0    0 -0.52438743371E+02 -0.49123986178E+02  0.12321169501E+03  0.14263277888E+03  0.00000000000E+00 0.  1.
</event>
<event>
 8    1  0.7005395E-009  0.1715654E+03  0.7561462E-02  0.1176225E+00
         -3   -1    0    0    0  501 -0.00000000000E+00  0.00000000000E+00  0.11322612945E+03  0.11322612945E+03  0.00000000000E+00 0.  1.
          3   -1    0    0  501    0  0.00000000000E+00 -0.00000000000E+00 -0.34290889353E+03  0.34290889353E+03  0.00000000000E+00 0. -1.
         25    2    1    2    0    0  0.14790618282E+03 -0.68586096431E+02 -0.97329916625E+02  0.22737862494E+03  0.12509050672E+03 0.  0.
         23    2    1    2    0    0 -0.14790618282E+03  0.68586096431E+02 -0.13235284745E+03  0.22875639804E+03  0.90729939256E+02 0.  0.
          5    1    3    3  502    0  0.61450082717E+02 -0.63175277758E+02 -0.10859956197E+03  0.13992342779E+03  0.41800000000E+01 0. -1.
         -5    1    3    3    0  502  0.86456100099E+02 -0.54108186723E+01  0.11269645340E+02  0.87455197153E+02  0.41800000000E+01 0. -1.
        -11    1    4    4    0    0 -0.91532943144E+02  0.19863883804E+02 -0.23024629728E+02  0.96451993937E+02  0.00000000000E+00 0.  1.
         11    1    4    4    0    0 -0.56373239672E+02  0.48722212626E+02 -0.10932821773E+03  0.13230440411E+03  0.00000000000E+00 0. -1.
</event>
<event>
 8    1  0.7005395E-009  0.1068051E+03  0.7561462E-02  0.1266603E+00
         -3   -1    0    0    0  501 -0.00000000000E+00  0.00000000000E+00  0.27221365781E+03  0.27221365781E+03  0.00000000000E+00 0.  1.
          3   -1    0    0  501    0  0.00000000000E+00 -0.00000000000E+00 -0.45358328470E+02  0.45358328470E+02  0.00000000000E+00 0. -1.
         25    2    1    2    0    0 -0.14320955492E+02  0.13653896086E+02  0.14458508732E+03  0.19220650932E+03  0.12508787354E+03 0.  0.
         23    2    1    2    0    0  0.14320955492E+02 -0.13653896086E+02  0.82270242019E+02  0.12536547696E+03  0.92501845636E+02 0.  0.
          5    1    3    3  502    0 -0.30985558913E+02 -0.46753035685E+02  0.10151224167E+03  0.11605239685E+03  0.41800000000E+01 0. -1.
         -5    1    3    3    0  502  0.16664603421E+02  0.60406931771E+02  0.43072845651E+02  0.76154112467E+02  0.41800000000E+01 0. -1.
        -11    1    4    4    0    0 -0.39262193187E+02 -0.11603291632E+02  0.37217358172E+02  0.55328906910E+02  0.00000000000E+00 0.  1.
         11    1    4    4    0    0  0.53583148679E+02 -0.20506044545E+01  0.45052883847E+02  0.70036570046E+02  0.00000000000E+00 0. -1.
</event>
<event>
 8    1  0.7005395E-009  0.1060843E+03  0.7561462E-02  0.1267998E+00
          2   -1    0    0  501    0  0.00000000000E+00  0.00000000000E+00  0.97604465574E+02  0.97604465574E+02  0.00000000000E+00 0. -1.
         -2   -1    0    0    0  501 -0.00000000000E+00 -0.00000000000E+00 -0.16998659353E+03  0.16998659353E+03  0.00000000000E+00 0.  1.
         25    2    1    2    0    0 -0.30878461876E+02 -0.19269649514E+02 -0.10104937513E+03  0.16486052808E+03  0.12507285358E+03 0.  0.
         23    2    1    2    0    0  0.30878461876E+02  0.19269649514E+02  0.28667247175E+02  0.10273053103E+03  0.91689433111E+02 0.  0.
          5    1    3    3  502    0  0.35600833906E+02 -0.29386344140E+02 -0.83072834327E+02  0.95129095443E+02  0.41800000000E+01 0. -1.
         -5    1    3    3    0  502 -0.66479295782E+02  0.10116694627E+02 -0.17976540802E+02  0.69731432633E+02  0.41800000000E+01 0. -1.
        -11    1    4    4    0    0  0.20714590654E+01 -0.36030200214E+02  0.13729622652E+02  0.38613065254E+02  0.00000000000E+00 0. -1.
         11    1    4    4    0    0  0.28807002810E+02  0.55299849727E+02  0.14937624523E+02  0.64117465773E+02  0.00000000000E+00 0.  1.
</event>
<event>
 8    1  0.7005395E-009  0.9992660E+02  0.7561462E-02  0.1280450E+00
         -1   -1    0    0    0  501 -0.00000000000E+00  0.00000000000E+00  0.10470453048E+03  0.10470453048E+03  0.00000000000E+00 0.  1.
          1   -1    0    0  501    0  0.00000000000E+00 -0.00000000000E+00 -0.11770807713E+03  0.11770807713E+03  0.00000000000E+00 0. -1.
         25    2    1    2    0    0  0.12247856839E+02 -0.38302130487E+00  0.14569280892E+02  0.12652046486E+03  0.12508000391E+03 0.  0.
         23    2    1    2    0    0 -0.12247856839E+02  0.38302130487E+00 -0.27572827536E+02  0.95892142757E+02  0.91021346517E+02 0.  0.
          5    1    3    3  502    0  0.20082341859E+02  0.60526728119E+02  0.37057965538E+01  0.64015549669E+02  0.41800000000E+01 0. -1.
         -5    1    3    3    0  502 -0.78344850200E+01 -0.60909749424E+02  0.10863484338E+02  0.62504915186E+02  0.41800000000E+01 0. -1.
        -11    1    4    4    0    0 -0.37082092246E+02  0.20554000170E+02  0.12885417436E+02  0.44312328655E+02  0.00000000000E+00 0.  1.
         11    1    4    4    0    0  0.24834235407E+02 -0.20170978865E+02 -0.40458244972E+02  0.51579814102E+02  0.00000000000E+00 0. -1.
</event>
<event>
 8    1  0.7005395E-009  0.1055596E+03  0.7561462E-02  0.1269021E+00
          4   -1    0    0  501    0  0.00000000000E+00  0.00000000000E+00  0.15605605118E+03  0.15605605118E+03  0.00000000000E+00 0. -1.
         -4   -1    0    0    0  501 -0.00000000000E+00 -0.00000000000E+00 -0.79360461884E+02  0.79360461884E+02  0.00000000000E+00 0.  1.
         25    2    1    2    0    0 -0.10952196271E+02  0.23211649937E+02  0.47815210924E+02  0.13634843577E+03  0.12508345313E+03 0.  0.
         23    2    1    2    0    0  0.10952196271E+02 -0.23211649937E+02  0.28880378375E+02  0.99068077295E+02  0.91223222854E+02 0.  0.
          5    1    3    3  502    0 -0.94353241748E+00 -0.51726677513E+02  0.17291321303E+02  0.54708332203E+02  0.41800000000E+01 0. -1.
         -5    1    3    3    0  502 -0.10008663853E+02  0.74938327451E+02  0.30523889621E+02  0.81640103569E+02  0.41800000000E+01 0. -1.
        -11    1    4    4    0    0  0.30691587536E+02  0.19556239584E+02 -0.10275225206E+02  0.37815344838E+02  0.00000000000E+00 0.  1.
         11    1    4    4    0    0 -0.19739391266E+02 -0.42767889521E+02  0.39155603581E+02  0.61252732457E+02  0.00000000000E+00 0. -1.
</event>
<event>
 8    1  0.7005395E-009  0.1315831E+03  0.7561462E-02  0.1225125E+00
         -2   -1    0    0    0  501 -0.00000000000E+00  0.00000000000E+00  0.38947635167E+02  0.38947635167E+02  0.00000000000E+00 0.  1.
          2   -1    0    0  501    0  0.00000000000E+00 -0.00000000000E+00 -0.51589376325E+03  0.51589376325E+03  0.00000000000E+00 0. -1.
         25    2    1    2    0    0  0.11934708656E+02  0.90180498518E+02 -0.26982070530E+03  0.31101019724E+03  0.12509664342E+03 0.  0.
         23    2    1    2    0    0 -0.11934708656E+02 -0.90180498518E+02 -0.20712542279E+03  0.24383120118E+03  0.90982164847E+02 0.  0.
          5    1    3    3  502    0 -0.14889682309E+02  0.11068161148E+03 -0.24375470315E+03  0.26815284721E+03  0.41800000000E+01 0. -1.
         -5    1    3    3    0  502  0.26824390965E+02 -0.20501112966E+02 -0.26066002149E+02  0.42857350029E+02  0.41800000000E+01 0. -1.
        -11    1    4    4    0    0 -0.41538203439E+02 -0.70547276204E+02 -0.91057597700E+02  0.12244928184E+03  0.00000000000E+00 0.  1.
         11    1    4    4    0    0  0.29603494783E+02 -0.19633222315E+02 -0.11606782508E+03  0.12138191934E+03  0.00000000000E+00 0. -1.
</event>
<event>
 8    1  0.7005395E-009  0.2060087E+03  0.7561462E-02  0.1144766E+00
          2   -1    0    0  501    0  0.00000000000E+00  0.00000000000E+00  0.18691214038E+04  0.18691214038E+04  0.00000000000E+00 0. -1.
         -2   -1    0    0    0  501 -0.00000000000E+00 -0.00000000000E+00 -0.55216376031E+02  0.55216376031E+02  0.00000000000E+00 0.  1.
         25    2    1    2    0    0 -0.18589755814E+03  0.17822752366E+02  0.16395192403E+04  0.16548553361E+04  0.12508913423E+03 0.  0.
         23    2    1    2    0    0  0.18589755814E+03 -0.17822752366E+02  0.17438578749E+03  0.26948244374E+03  0.85643633639E+02 0.  0.
          5    1    3    3  502    0 -0.14182816460E+03 -0.43999541628E+02  0.10526085997E+04  0.10630397568E+04  0.41800000000E+01 0.  1.
         -5    1    3    3    0  502 -0.44069393547E+02  0.61822293994E+02  0.58691064059E+03  0.59181557931E+03  0.41800000000E+01 0.  1.
        -11    1    4    4    0    0  0.26291801879E+02  0.30191502908E+01 -0.66002771434E+01  0.27275222692E+02  0.00000000000E+00 0.  1.
         11    1    4    4    0    0  0.15960575626E+03 -0.20841902657E+02  0.18098606463E+03  0.24220722105E+03  0.00000000000E+00 0. -1.
</event>
<event>
 8    1  0.7005395E-009  0.1509436E+03  0.7561462E-02  0.1199318E+00
          1   -1    0    0  501    0  0.00000000000E+00  0.00000000000E+00  0.71707980453E+03  0.71707980453E+03  0.00000000000E+00 0. -1.
         -1   -1    0    0    0  501 -0.00000000000E+00 -0.00000000000E+00 -0.42479212737E+02  0.42479212737E+02  0.00000000000E+00 0.  1.
         25    2    1    2    0    0 -0.66247250146E+02  0.11284443242E+03  0.27787923671E+03  0.33164449596E+03  0.12509451397E+03 0.  0.
         23    2    1    2    0    0  0.66247250146E+02 -0.11284443242E+03  0.39672135509E+03  0.42791452131E+03  0.92738556648E+02 0.  0.
          5    1    3    3  502    0  0.44601098139E+01 -0.94098870192E+01 -0.72975715022E+01  0.13385271872E+02  0.41800000000E+01 0. -1.
         -5    1    3    3    0  502 -0.70707359959E+02  0.12225431944E+03  0.28517680821E+03  0.31825922408E+03  0.41800000000E+01 0. -1.
        -11    1    4    4    0    0  0.15503004931E+02  0.86191897486E+01  0.12315389277E+02  0.21594036373E+02  0.00000000000E+00 0.  1.
         11    1    4    4    0    0  0.50744245214E+02 -0.12146362217E+03  0.38440596581E+03  0.40632048494E+03  0.00000000000E+00 0. -1.
</event>
<event>
 8    1  0.7005395E-009  0.9591540E+02  0.7561462E-02  0.1289128E+00
          1   -1    0    0  501    0  0.00000000000E+00  0.00000000000E+00  0.17053341220E+04  0.17053341220E+04  0.00000000000E+00 0. -1.
         -1   -1    0    0    0  501 -0.00000000000E+00 -0.00000000000E+00 -0.96995088082E+01  0.96995088082E+01  0.00000000000E+00 0.  1.
         25    2    1    2    0    0 -0.39919544868E+01  0.36165965055E+02  0.13319465720E+04  0.13383019525E+04  0.12508610020E+03 0.  0.
         23    2    1    2    0    0  0.39919544868E+01 -0.36165965055E+02  0.36368804112E+03  0.37673167832E+03  0.91289941745E+02 0.  0.
          5    1    3    3  502    0 -0.13977554134E+02 -0.26656646373E+02  0.98985525126E+03  0.99032158396E+03  0.41800000000E+01 0.  1.
         -5    1    3    3    0  502  0.99855996470E+01  0.62822611428E+02  0.34209132077E+03  0.34798036849E+03  0.41800000000E+01 0.  1.
        -11    1    4    4    0    0  0.47199150550E+02 -0.23141056682E+02  0.21589413573E+03  0.22220158901E+03  0.00000000000E+00 0.  1.
         11    1    4    4    0    0 -0.43207196063E+02 -0.13024908373E+02  0.14779390540E+03  0.15453008931E+03  0.00000000000E+00 0. -1.
</event>
<event>
 8    1  0.7005395E-009  0.1538841E+03  0.7561462E-02  0.1195780E+00
         -1   -1    0    0    0  501 -0.00000000000E+00  0.00000000000E+00  0.21151583380E+03  0.21151583380E+03  0.00000000000E+00 0.  1.
          1   -1    0    0  501    0  0.00000000000E+00 -0.00000000000E+00 -0.15171600222E+03  0.15171600222E+03  0.00000000000E+00 0. -1.
         25    2    1    2    0    0  0.14224102100E+02  0.12838722464E+03  0.90610098974E+02  0.20135727098E+03  0.12509578733E+03 0.  0.
         23    2    1    2    0    0 -0.14224102100E+02 -0.12838722464E+03 -0.30810267400E+02  0.16187456504E+03  0.92566180091E+02 0.  0.
          5    1    3    3  502    0  0.68269725333E+02  0.72902789189E+02  0.66747433179E+02  0.12020093304E+03  0.41800000000E+01 0. -1.
         -5    1    3    3    0  502 -0.54045623234E+02  0.55484435455E+02  0.23862665795E+02  0.81156337937E+02  0.41800000000E+01 0. -1.
        -11    1    4    4    0    0 -0.87427223441E+01 -0.21544076399E+02  0.30667563583E+02  0.38484826594E+02  0.00000000000E+00 0.  1.
         11    1    4    4    0    0 -0.54813797558E+01 -0.10684314824E+03 -0.61477830983E+02  0.12338973844E+03  0.00000000000E+00 0. -1.
</event>
<event>
 8    1  0.7005395E-009  0.9670005E+02  0.7561462E-02  0.1287392E+00
         -1   -1    0    0    0  501 -0.00000000000E+00  0.00000000000E+00  0.74547299240E+02  0.74547299240E+02  0.00000000000E+00 0.  1.
          1   -1    0    0  501    0  0.00000000000E+00 -0.00000000000E+00 -0.17176910083E+03  0.17176910083E+03  0.00000000000E+00 0. -1.
         25    2    1    2    0    0  0.42980573760E+00  0.59368587821E+01 -0.94817532978E+02  0.15708083258E+03  0.12509433392E+03 0.  0.
         23    2    1    2    0    0 -0.42980573760E+00 -0.59368587821E+01 -0.24042686150E+01  0.89235567494E+02  0.89004353676E+02 0.  0.
          5    1    3    3  502    0 -0.35170990549E+02 -0.41144854434E+02 -0.12514578018E+02  0.55713415669E+02  0.41800000000E+01 0.  1.
         -5    1    3    3    0  502  0.35600796287E+02  0.47081713216E+02 -0.82302954960E+02  0.10136741691E+03  0.41800000000E+01 0.  1.
        -11    1    4    4    0    0 -0.19327520912E+02  0.32096660245E+02  0.18629470092E+02  0.41842631602E+02  0.00000000000E+00 0.  1.
         11    1    4    4    0    0  0.18897715174E+02 -0.38033519027E+02 -0.21033738707E+02  0.47392935892E+02  0.00000000000E+00 0. -1.
</event>
<event>
 8    1  0.7005395E-009  0.1490558E+03  0.7561462E-02  0.1201638E+00
         -1   -1    0    0    0  501 -0.00000000000E+00  0.00000000000E+00  0.51121009705E+02  0.51121009705E+02  0.00000000000E+00 0.  1.
          1   -1    0    0  501    0  0.00000000000E+00 -0.00000000000E+00 -0.81710412266E+03  0.81710412266E+03  0.00000000000E+00 0. -1.
         25    2    1    2    0    0  0.58092892107E+02 -0.97763662533E+02 -0.12299948656E+03  0.20906536284E+03  0.12508770692E+03 0.  0.
         23    2    1    2    0    0 -0.58092892107E+02  0.97763662533E+02 -0.64298362639E+03  0.65915976952E+03  0.90172834685E+02 0.  0.
          5    1    3    3  502    0  0.86043384098E+02 -0.92982214421E+02 -0.60805449848E+02  0.14058424975E+03  0.41800000000E+01 0. -1.
         -5    1    3    3    0  502 -0.27950491991E+02 -0.47814481117E+01 -0.62194036710E+02  0.68481113096E+02  0.41800000000E+01 0. -1.
        -11    1    4    4    0    0 -0.22326613173E+02 -0.13317818374E+02 -0.76983976262E+02  0.81254997035E+02  0.00000000000E+00 0.  1.
         11    1    4    4    0    0 -0.35766278934E+02  0.11108148091E+03 -0.56599965013E+03  0.57790477248E+03  0.00000000000E+00 0. -1.
</event>
<event>
 8    1  0.7005395E-009  0.1071394E+03  0.7561462E-02  0.1265961E+00
          2   -1    0    0  501    0  0.00000000000E+00  0.00000000000E+00  0.23504205328E+03  0.23504205328E+03  0.00000000000E+00 0. -1.
         -2   -1    0    0    0  501 -0.00000000000E+00 -0.00000000000E+00 -0.84307538880E+02  0.84307538880E+02  0.00000000000E+00 0.  1.
         25    2    1    2    0    0 -0.11175846064E+01  0.59048685778E+02  0.15685571462E+03  0.20914369402E+03  0.12509745501E+03 0.  0.
         23    2    1    2    0    0  0.11175846064E+01 -0.59048685778E+02 -0.61212002227E+01  0.11020589814E+03  0.92843279807E+02 0.  0.
          5    1    3    3  502    0 -0.23110354436E+02 -0.20497506299E+02  0.10960675801E+03  0.11395328011E+03  0.41800000000E+01 0.  1.
         -5    1    3    3    0  502  0.21992769830E+02  0.79546192078E+02  0.47248956610E+02  0.95190413906E+02  0.41800000000E+01 0.  1.
        -11    1    4    4    0    0  0.86224266613E+01  0.19626986484E+02  0.17549259040E+02  0.27704536322E+02  0.00000000000E+00 0. -1.
         11    1    4    4    0    0 -0.75048420549E+01 -0.78675672263E+02 -0.23670459262E+02  0.82501361819E+02  0.00000000000E+00 0.  1.
</event>
<event>
 8    1  0.7005395E-009  0.1896393E+03  0.7561462E-02  0.1158787E+00
          1   -1    0    0  501    0  0.00000000000E+00  0.00000000000E+00  0.92006009316E+03  0.92006009316E+03  0.00000000000E+00 0. -1.
         -1   -1    0    0    0  501 -0.00000000000E+00 -0.00000000000E+00 -0.46440237018E+02  0.46440237018E+02  0.00000000000E+00 0.  1.
         25    2    1    2    0    0 -0.82064468097E+02 -0.13400065761E+03  0.27381123376E+03  0.33957296646E+03  0.12508578916E+03 0.  0.
         23    2    1    2    0    0  0.82064468097E+02  0.13400065761E+03  0.59980862238E+03  0.62692736372E+03  0.92610921249E+02 0.  0.
          5    1    3    3  502    0 -0.23765444990E+02  0.22767324176E+02  0.53157120860E+02  0.62660189306E+02  0.41800000000E+01 0. -1.
         -5    1    3    3    0  502 -0.58299023107E+02 -0.15676798179E+03  0.22065411290E+03  0.27691277715E+03  0.41800000000E+01 0. -1.
        -11    1    4    4    0    0  0.10010599449E+03  0.11729532250E+03  0.46522180673E+03  0.49011297909E+03  0.00000000000E+00 0.  1.
         11    1    4    4    0    0 -0.18041526391E+02  0.16705335117E+02  0.13458681565E+03  0.13681438463E+03  0.00000000000E+00 0. -1.
</event>
<event>
 8    1  0.7005395E-009  0.1209717E+03  0.7561462E-02  0.1241503E+00
          1   -1    0    0  501    0  0.00000000000E+00  0.00000000000E+00  0.39548735063E+03  0.39548735063E+03  0.00000000000E+00 0. -1.
         -1   -1    0    0    0  501 -0.00000000000E+00 -0.00000000000E+00 -0.58653038165E+02  0.58653038165E+02  0.00000000000E+00 0.  1.
         25    2    1    2    0    0 -0.58164766459E+02  0.87519719516E+02  0.15003536856E+03  0.22181999459E+03  0.12510258518E+03 0.  0.
         23    2    1    2    0    0  0.58164766459E+02 -0.87519719516E+02  0.18679894390E+03  0.23232039420E+03  0.89644178617E+02 0.  0.
          5    1    3    3  502    0 -0.38366911056E+02  0.77150394703E+02  0.17059537755E+03  0.19116604957E+03  0.41800000000E+01 0. -1.
         -5    1    3    3    0  502 -0.19797855404E+02  0.10369324812E+02 -0.20560008987E+02  0.30653945019E+02  0.41800000000E+01 0. -1.
        -11    1    4    4    0    0  0.40754420325E+02  0.29034107705E+01  0.89339858511E+02  0.98239314375E+02  0.00000000000E+00 0. -1.
         11    1    4    4    0    0  0.17410346134E+02 -0.90423130286E+02  0.97459085388E+02  0.13408107983E+03  0.00000000000E+00 0.  1.
</event>
<event>
 8    1  0.7005395E-009  0.9756181E+02  0.7561462E-02  0.1285508E+00
          1   -1    0    0  501    0  0.00000000000E+00  0.00000000000E+00  0.49709310424E+03  0.49709310424E+03  0.00000000000E+00 0. -1.
         -1   -1    0    0    0  501 -0.00000000000E+00 -0.00000000000E+00 -0.30468478056E+02  0.30468478056E+02  0.00000000000E+00 0.  1.
         25    2    1    2    0    0  0.30911598976E+02 -0.20615576903E+01  0.36515291961E+03  0.38723128889E+03  0.12510651230E+03 0.  0.
         23    2    1    2    0    0 -0.30911598976E+02  0.20615576903E+01  0.10147170658E+03  0.14033029341E+03  0.91849371489E+02 0.  0.
          5    1    3    3  502    0 -0.25239890976E+02  0.33036088894E+02  0.49957104574E+02  0.65127720391E+02  0.41800000000E+01 0.  1.
         -5    1    3    3    0  502  0.56151489952E+02 -0.35097646585E+02  0.31519581504E+03  0.32210356850E+03  0.41800000000E+01 0.  1.
        -11    1    4    4    0    0  0.27820976944E+02 -0.32850293639E+01  0.65527038982E+02  0.71264233763E+02  0.00000000000E+00 0. -1.
         11    1    4    4    0    0 -0.58732575920E+02  0.53465870542E+01  0.35944667593E+02  0.69066059651E+02  0.00000000000E+00 0.  1.
</event>
<event>
 8    1  0.7005395E-009  0.8592086E+02  0.7561462E-02  0.1313042E+00
          2   -1    0    0  501    0  0.00000000000E+00  0.00000000000E+00  0.54755958518E+03  0.54755958518E+03  0.00000000000E+00 0. -1.
         -2   -1    0    0    0  501 -0.00000000000E+00 -0.00000000000E+00 -0.30109649272E+02  0.30109649272E+02  0.00000000000E+00 0.  1.
         25    2    1    2    0    0 -0.32932579289E+01 -0.22809491705E+02  0.42714906714E+03  0.44568488710E+03  0.12509026569E+03 0.  0.
         23    2    1    2    0    0  0.32932579289E+01  0.22809491705E+02  0.90300868772E+02  0.13198434736E+03  0.93458560797E+02 0.  0.
          5    1    3    3  502    0  0.43984940471E+02 -0.23669237343E+02  0.35987434313E+03  0.36334821181E+03  0.41800000000E+01 0. -1.
         -5    1    3    3    0  502 -0.47278198400E+02  0.85974563784E+00  0.67274724007E+02  0.82336675283E+02  0.41800000000E+01 0. -1.
        -11    1    4    4    0    0  0.23557895498E+02  0.40823954161E+02  0.11312833076E+02  0.48472155572E+02  0.00000000000E+00 0.  1.
         11    1    4    4    0    0 -0.20264637569E+02 -0.18014462455E+02  0.78988035696E+02  0.83512191783E+02  0.00000000000E+00 0. -1.
</event>
<event>
 8    1  0.7005395E-009  0.4233427E+03  0.7561462E-02  0.1035984E+00
          2   -1    0    0  501    0  0.00000000000E+00  0.00000000000E+00  0.53813371622E+03  0.53813371622E+03  0.00000000000E+00 0.  1.
         -2   -1    0    0    0  501 -0.00000000000E+00 -0.00000000000E+00 -0.35853089829E+03  0.35853089829E+03  0.00000000000E+00 0. -1.
         25    2    1    2    0    0 -0.21266138408E+03 -0.35492420040E+03  0.19282883647E+03  0.47331494060E+03  0.12509204817E+03 0.  0.
         23    2    1    2    0    0  0.21266138408E+03  0.35492420040E+03 -0.13226018537E+02  0.42334967391E+03  0.88622607284E+02 0.  0.
          5    1    3    3  502    0 -0.14113206607E+03 -0.12647948694E+03  0.11427078481E+03  0.22133821485E+03  0.41800000000E+01 0. -1.
         -5    1    3    3    0  502 -0.71529318011E+02 -0.22844471345E+03  0.78558051660E+02  0.25197672575E+03  0.41800000000E+01 0. -1.
        -11    1    4    4    0    0  0.13840161908E+03  0.27935021981E+03 -0.39335936161E+02  0.31422741660E+03  0.00000000000E+00 0. -1.
         11    1    4    4    0    0  0.74259765007E+02  0.75573980588E+02  0.26109917624E+02  0.10912225730E+03  0.00000000000E+00 0.  1.
</event>
<event>
 8    1  0.7005395E-009  0.1996344E+03  0.7561462E-02  0.1150048E+00
          2   -1    0    0  501    0  0.00000000000E+00  0.00000000000E+00  0.41851249805E+03  0.41851249805E+03  0.00000000000E+00 0. -1.
         -2   -1    0    0    0  501 -0.00000000000E+00 -0.00000000000E+00 -0.98727995060E+02  0.98727995060E+02  0.00000000000E+00 0.  1.
         25    2    1    2    0    0 -0.16878727320E+03  0.20061965878E+02  0.19816334658E+03  0.28949832775E+03  0.12509573842E+03 0.  0.
         23    2    1    2    0    0  0.16878727320E+03 -0.20061965878E+02  0.12162115641E+03  0.22774216536E+03  0.90460832002E+02 0.  0.
          5    1    3    3  502    0 -0.92148530146E+02 -0.48388414222E+02  0.12787710609E+03  0.16493276479E+03  0.41800000000E+01 0.  1.
         -5    1    3    3    0  502 -0.76638743056E+02  0.68450380100E+02  0.70286240491E+02  0.12456556296E+03  0.41800000000E+01 0.  1.
        -11    1    4    4    0    0  0.43283950734E+02  0.34559415006E+02  0.40731215961E+02  0.68752349126E+02  0.00000000000E+00 0. -1.
         11    1    4    4    0    0  0.12550332247E+03 -0.54621380884E+02  0.80889940445E+02  0.15898981623E+03  0.00000000000E+00 0.  1.
</event>
<event>
 8    1  0.7005395E-009  0.3567310E+03  0.7561462E-02  0.1059886E+00
         -1   -1    0    0    0  501 -0.00000000000E+00  0.00000000000E+00  0.10313888170E+03  0.10313888170E+03  0.00000000000E+00 0.  1.
          1   -1    0    0  501    0  0.00000000000E+00 -0.00000000000E+00 -0.18285948059E+04  0.18285948059E+04  0.00000000000E+00 0. -1.
         25    2    1    2    0    0 -0.80886524071E+02 -0.34458390108E+03 -0.36699180868E+03  0.52498750877E+03  0.12509277383E+03 0.  0.
         23    2    1    2    0    0  0.80886524071E+02  0.34458390108E+03 -0.13584641155E+04  0.14067461788E+04  0.90715841180E+02 0.  0.
          5    1    3    3  502    0 -0.84550602924E+02 -0.32673004398E+03 -0.37510740694E+03  0.50460317601E+03  0.41800000000E+01 0. -1.
         -5    1    3    3    0  502  0.36640788533E+01 -0.17853857095E+02  0.81155982582E+01  0.20384332761E+02  0.41800000000E+01 0. -1.
        -11    1    4    4    0    0 -0.14968638072E+00  0.91563708756E+02 -0.49262530283E+03  0.50106249526E+03  0.00000000000E+00 0. -1.
         11    1    4    4    0    0  0.81036210451E+02  0.25302019232E+03 -0.86583881269E+03  0.90568368357E+03  0.00000000000E+00 0.  1.
</event>
<event>
 8    1  0.7005395E-009  0.2246025E+03  0.7561462E-02  0.1130497E+00
          2   -1    0    0  501    0  0.00000000000E+00  0.00000000000E+00  0.40611032592E+03  0.40611032592E+03  0.00000000000E+00 0.  1.
         -2   -1    0    0    0  501 -0.00000000000E+00 -0.00000000000E+00 -0.18956755400E+03  0.18956755400E+03  0.00000000000E+00 0. -1.
         25    2    1    2    0    0 -0.19023615114E+03 -0.56699604509E+02 -0.60984235818E+02  0.24242845406E+03  0.12509132652E+03 0.  0.
         23    2    1    2    0    0  0.19023615114E+03  0.56699604509E+02  0.27752700773E+03  0.35324942586E+03  0.91429089986E+02 0.  0.
          5    1    3    3  502    0 -0.13727956055E+03  0.19692112342E+02 -0.54798246114E+02  0.14917699961E+03  0.41800000000E+01 0.  1.
         -5    1    3    3    0  502 -0.52956590586E+02 -0.76391716851E+02 -0.61859897047E+01  0.93251454459E+02  0.41800000000E+01 0.  1.
        -11    1    4    4    0    0  0.12961792523E+03 -0.65764242778E+01  0.18305668295E+03  0.22439653534E+03  0.00000000000E+00 0.  1.
         11    1    4    4    0    0  0.60618225905E+02  0.63276028787E+02  0.94470324776E+02  0.12885289052E+03  0.00000000000E+00 0. -1.
</event>
<event>
 8    1  0.7005395E-009  0.9446681E+02  0.7561462E-02  0.1292382E+00
          1   -1    0    0  501    0  0.00000000000E+00  0.00000000000E+00  0.11981912610E+03  0.11981912610E+03  0.00000000000E+00 0. -1.
         -1   -1    0    0    0  501 -0.00000000000E+00 -0.00000000000E+00 -0.16830014558E+03  0.16830014558E+03  0.00000000000E+00 0.  1.
         25    2    1    2    0    0  0.50642882335E+02  0.55974320616E+02 -0.79241295677E+02  0.16620862191E+03  0.12509315312E+03 0.  0.
         23    2    1    2    0    0 -0.50642882335E+02 -0.55974320616E+02  0.30760276196E+02  0.12191064976E+03  0.90654210236E+02 0.  0.
          5    1    3    3  502    0 -0.18836547644E+02  0.20379931338E+02 -0.83324565258E+02  0.87923902915E+02  0.41800000000E+01 0.  1.
         -5    1    3    3    0  502  0.69479429979E+02  0.35594389278E+02  0.40832695811E+01  0.78284718999E+02  0.41800000000E+01 0.  1.
        -11    1    4    4    0    0 -0.32241422255E+02 -0.10948248334E+02 -0.29092330209E+02  0.44785456653E+02  0.00000000000E+00 0.  1.
         11    1    4    4    0    0 -0.18401460080E+02 -0.45026072282E+02  0.59852606406E+02  0.77125193107E+02  0.00000000000E+00 0. -1.
</event>
<event>
 8    1  0.7005395E-009  0.1299312E+03  0.7561462E-02  0.1227558E+00
         -1   -1    0    0    0  501 -0.00000000000E+00  0.00000000000E+00  0.56475997217E+02  0.56475997217E+02  0.00000000000E+00 0.  1.
          1   -1    0    0  501    0  0.00000000000E+00 -0.00000000000E+00 -0.34026463346E+03  0.34026463346E+03  0.00000000000E+00 0. -1.
         25    2    1    2    0    0 -0.67347239843E+02 -0.38075572849E+02 -0.11120112449E+03  0.18438526801E+03  0.12508731755E+03 0.  0.
         23    2    1    2    0    0  0.67347239843E+02  0.38075572849E+02 -0.17258751175E+03  0.21235536266E+03  0.96555429033E+02 0.  0.
          5    1    3    3  502    0 -0.69070310532E+02  0.31632561737E+02 -0.46489958311E+02  0.89163419533E+02  0.41800000000E+01 0. -1.
         -5    1    3    3    0  502  0.17230706891E+01 -0.69708134586E+02 -0.64711166175E+02  0.95221848480E+02  0.41800000000E+01 0. -1.
        -11    1    4    4    0    0  0.84629705559E+02  0.16404357014E+02 -0.87351727744E+02  0.12272576882E+03  0.00000000000E+00 0.  1.
         11    1    4    4    0    0 -0.17282465716E+02  0.21671215835E+02 -0.85235784009E+02  0.89629593843E+02  0.00000000000E+00 0. -1.
</event>
<event>
 8    1  0.7005395E-009  0.1194266E+03  0.7561462E-02  0.1244046E+00
          2   -1    0    0  501    0  0.00000000000E+00  0.00000000000E+00  0.29421050428E+03  0.29421050428E+03  0.00000000000E+00 0. -1.
         -2   -1    0    0    0  501 -0.00000000000E+00 -0.00000000000E+00 -0.49940076356E+02  0.49940076356E+02  0.00000000000E+00 0.  1.
         25    2    1    2    0    0 -0.11694632044E+02  0.52156243649E+02  0.15555820145E+03  0.20664689030E+03  0.12509014774E+03 0.  0.
         23    2    1    2    0    0  0.11694632044E+02 -0.52156243649E+02  0.88712226481E+02  0.13750369034E+03  0.90445384406E+02 0.  0.
          5    1    3    3  502    0 -0.48833701025E+01 -0.41519858452E+02  0.48348088710E+02  0.64052759748E+02  0.41800000000E+01 0. -1.
         -5    1    3    3    0  502 -0.68112619414E+01  0.93676102100E+02  0.10721011273E+03  0.14259413055E+03  0.41800000000E+01 0. -1.
        -11    1    4    4    0    0 -0.50585059096E+01 -0.74624527832E+02  0.76317410301E+02  0.10685857828E+03  0.00000000000E+00 0.  1.
         11    1    4    4    0    0  0.16753137953E+02  0.22468284183E+02  0.12394816180E+02  0.30645112067E+02  0.00000000000E+00 0. -1.
</event>
<event>
 8    1  0.7005395E-009  0.1075680E+03  0.7561462E-02  0.1265141E+00
          2   -1    0    0  501    0  0.00000000000E+00  0.00000000000E+00  0.58367694643E+03  0.58367694643E+03  0.00000000000E+00 0. -1.
         -2   -1    0    0    0  501 -0.00000000000E+00 -0.00000000000E+00 -0.36330887984E+02  0.36330887984E+02  0.00000000000E+00 0.  1.
         25    2    1    2    0    0  0.28602371093E+02 -0.70771545531E+02  0.42673428815E+03  0.45119482502E+03  0.12509160705E+03 0.  0.
         23    2    1    2    0    0 -0.28602371093E+02  0.70771545531E+02  0.12061177029E+03  0.16881300939E+03  0.90132822639E+02 0.  0.
          5    1    3    3  502    0 -0.19011086773E+02 -0.16390836086E+02  0.86334426494E+01  0.26871726031E+02  0.41800000000E+01 0. -1.
         -5    1    3    3    0  502  0.47613457866E+02 -0.54380709445E+02  0.41810084550E+03  0.42432309899E+03  0.41800000000E+01 0. -1.
        -11    1    4    4    0    0  0.68733389076E+01 -0.19297554499E+02  0.14015110535E+02  0.24820590659E+02  0.00000000000E+00 0.  1.
         11    1    4    4    0    0 -0.35475710001E+02  0.90069100029E+02  0.10659665976E+03  0.14399241873E+03  0.00000000000E+00 0. -1.
</event>
<event>
 8    1  0.7005395E-009  0.1110300E+03  0.7561462E-02  0.1258674E+00
         -4   -1    0    0    0  501 -0.00000000000E+00  0.00000000000E+00  0.17804613453E+03  0.17804613453E+03  0.00000000000E+00 0. -1.
          4   -1    0    0  501    0  0.00000000000E+00 -0.00000000000E+00 -0.10211638786E+03  0.10211638786E+03  0.00000000000E+00 0.  1.
         25    2    1    2    0    0 -0.66994917432E+02 -0.42143911437E+02  0.62101218644E+02  0.16052689389E+03  0.12509154277E+03 0.  0.
         23    2    1    2    0    0  0.66994917432E+02  0.42143911437E+02  0.13828528027E+02  0.11963562850E+03  0.88639873562E+02 0.  0.
          5    1    3    3  502    0 -0.81164059011E+02  0.20953154420E+00  0.78282334888E+02  0.11284167995E+03  0.41800000000E+01 0.  1.
         -5    1    3    3    0  502  0.14169141579E+02 -0.42353442981E+02 -0.16181116244E+02  0.47685213938E+02  0.41800000000E+01 0.  1.
        -11    1    4    4    0    0  0.74057081037E+02  0.26304686416E+02 -0.20461150669E+02  0.81209891428E+02  0.00000000000E+00 0.  1.
         11    1    4    4    0    0 -0.70621636045E+01  0.15839225021E+02  0.34289678696E+02  0.38425737067E+02  0.00000000000E+00 0. -1.
</event>
<event>
 8    1  0.7005395E-009  0.1063353E+03  0.7561462E-02  0.1267511E+00
         -3   -1    0    0    0  501 -0.00000000000E+00  0.00000000000E+00  0.50900389502E+02  0.50900389502E+02  0.00000000000E+00 0.  1.
          3   -1    0    0  501    0  0.00000000000E+00 -0.00000000000E+00 -0.57304110091E+03  0.57304110091E+03  0.00000000000E+00 0. -1.
         25    2    1    2    0    0  0.12174665689E+01 -0.24186418180E+02 -0.41889591541E+02  0.13411843052E+03  0.12508617220E+03 0.  0.
         23    2    1    2    0    0 -0.12174665689E+01  0.24186418180E+02 -0.48025111987E+03  0.48982305989E+03  0.93268573586E+02 0.  0.
          5    1    3    3  502    0 -0.55292909662E+02 -0.24245606003E+02  0.47811830708E+01  0.60708215102E+02  0.41800000000E+01 0.  1.
         -5    1    3    3    0  502  0.56510376230E+02  0.59187822537E-01 -0.46670774612E+02  0.73410215418E+02  0.41800000000E+01 0.  1.
        -11    1    4    4    0    0 -0.46166244631E+02  0.20099752475E+02 -0.22012651968E+03  0.22581188378E+03  0.00000000000E+00 0.  1.
         11    1    4    4    0    0  0.44948778062E+02  0.40866657052E+01 -0.26012460019E+03  0.26401117611E+03  0.00000000000E+00 0. -1.
</event>
<event>
 8    1  0.7005395E-009  0.9452941E+02  0.7561462E-02  0.1292239E+00
         -2   -1    0    0    0  501 -0.00000000000E+00  0.00000000000E+00  0.80317366402E+03  0.80317366402E+03  0.00000000000E+00 0.  1.
          2   -1    0    0  501    0  0.00000000000E+00 -0.00000000000E+00 -0.19279362417E+02  0.19279362417E+02  0.00000000000E+00 0. -1.
         25    2    1    2    0    0 -0.25626050758E+01 -0.11200868246E+02  0.60814252156E+03  0.62098209956E+03  0.12509762209E+03 0.  0.
         23    2    1    2    0    0  0.25626050758E+01  0.11200868246E+02  0.17575178005E+03  0.20147092688E+03  0.97825455755E+02 0.  0.
          5    1    3    3  502    0 -0.46479842154E+02  0.10110738651E+02  0.49981116845E+03  0.50208692401E+03  0.41800000000E+01 0.  1.
         -5    1    3    3    0  502  0.43917237078E+02 -0.21311606897E+02  0.10833135311E+03  0.11889517555E+03  0.41800000000E+01 0.  1.
        -11    1    4    4    0    0  0.20435330031E+02 -0.36248072288E+02  0.45295436908E+02  0.61507739860E+02  0.00000000000E+00 0. -1.
         11    1    4    4    0    0 -0.17872724955E+02  0.47448940534E+02  0.13045634314E+03  0.13996318702E+03  0.00000000000E+00 0.  1.
</event>
<event>
 8    1  0.7005395E-009  0.9419461E+02  0.7561462E-02  0.1293000E+00
         -2   -1    0    0    0  501 -0.00000000000E+00  0.00000000000E+00  0.11241251854E+03  0.11241251854E+03  0.00000000000E+00 0. -1.
          2   -1    0    0  501    0  0.00000000000E+00 -0.00000000000E+00 -0.11346244017E+03  0.11346244017E+03  0.00000000000E+00 0.  1.
         25    2    1    2    0    0  0.68835205320E+01 -0.30337194693E+02 -0.94813175917E+01  0.12924681554E+03  0.12508843155E+03 0.  0.
         23    2    1    2    0    0 -0.68835205320E+01  0.30337194693E+02  0.84313959600E+01  0.96628143173E+02  0.91094354262E+02 0.  0.
          5    1    3    3  502    0 -0.14315009727E+02 -0.56546085260E+02  0.38824688297E+02  0.70194074416E+02  0.41800000000E+01 0. -1.
         -5    1    3    3    0  502  0.21198530259E+02  0.26208890567E+02 -0.48306005889E+02  0.59052741129E+02  0.41800000000E+01 0. -1.
        -11    1    4    4    0    0 -0.14185414088E+02  0.61921396501E+02  0.18669096088E+01  0.63552896622E+02  0.00000000000E+00 0.  1.
         11    1    4    4    0    0  0.73018935557E+01 -0.31584201808E+02  0.65644863511E+01  0.33075246551E+02  0.00000000000E+00 0. -1.
</event>
<event>
 8    1  0.7005395E-009  0.1312349E+03  0.7561462E-02  0.1225635E+00
          1   -1    0    0  501    0  0.00000000000E+00  0.00000000000E+00  0.21622971356E+03  0.21622971356E+03  0.00000000000E+00 0. -1.
         -1   -1    0    0    0  501 -0.00000000000E+00 -0.00000000000E+00 -0.10608371125E+03  0.10608371125E+03  0.00000000000E+00 0.  1.
         25    2    1    2    0    0  0.91783583030E+02 -0.24462535422E+02  0.11191612535E+02  0.15746639562E+03  0.12509105406E+03 0.  0.
         23    2    1    2    0    0 -0.91783583030E+02  0.24462535422E+02  0.98954389770E+02  0.16484702919E+03  0.91432652941E+02 0.  0.
          5    1    3    3  502    0  0.28056124226E+02 -0.60403219885E+02 -0.30260062017E+02  0.73272360631E+02  0.41800000000E+01 0.  1.
         -5    1    3    3    0  502  0.63727458804E+02  0.35940684463E+02  0.41451674552E+02  0.84194034993E+02  0.41800000000E+01 0.  1.
        -11    1    4    4    0    0 -0.10141584197E+03  0.59547509204E+01  0.53463665563E+02  0.11479980660E+03  0.00000000000E+00 0.  1.
         11    1    4    4    0    0  0.96322589386E+01  0.18507784502E+02  0.45490724207E+02  0.50047222583E+02  0.00000000000E+00 0. -1.
</event>
<event>
 8    1  0.7005395E-009  0.1467186E+03  0.7561462E-02  0.1204564E+00
         -2   -1    0    0    0  501 -0.00000000000E+00  0.00000000000E+00  0.31958993344E+03  0.31958993344E+03  0.00000000000E+00 0.  1.
          2   -1    0    0  501    0  0.00000000000E+00 -0.00000000000E+00 -0.72944671276E+02  0.72944671276E+02  0.00000000000E+00 0. -1.
         25    2    1    2    0    0 -0.88594784403E+02  0.58881418760E+02  0.14552069021E+03  0.21940875027E+03  0.12509145101E+03 0.  0.
         23    2    1    2    0    0  0.88594784403E+02 -0.58881418760E+02  0.10112457196E+03  0.17312585445E+03  0.91816801984E+02 0.  0.
          5    1    3    3  502    0 -0.51840208064E+02 -0.29692036661E+02  0.91233196070E+02  0.10913291290E+03  0.41800000000E+01 0.  1.
         -5    1    3    3    0  502 -0.36754576339E+02  0.88573455420E+02  0.54287494137E+02  0.11027583737E+03  0.41800000000E+01 0.  1.
        -11    1    4    4    0    0  0.10613055189E+03 -0.45354993626E+02  0.96633867444E+02  0.15052864787E+03  0.00000000000E+00 0.  1.
         11    1    4    4    0    0 -0.17535767487E+02 -0.13526425133E+02  0.44907045119E+01  0.22597206581E+02  0.00000000000E+00 0. -1.
</event>
<event>
 8    1  0.7005395E-009  0.2216481E+03  0.7561462E-02  0.1132660E+00
          2   -1    0    0  501    0  0.00000000000E+00  0.00000000000E+00  0.36946754813E+04  0.36946754813E+04  0.00000000000E+00 0. -1.
         -2   -1    0    0    0  501 -0.00000000000E+00 -0.00000000000E+00 -0.19717006628E+02  0.19717006628E+02  0.00000000000E+00 0.  1.
         25    2    1    2    0    0 -0.20264172134E+03 -0.32660883227E+02  0.28378404701E+04  0.28480021526E+04  0.12508927542E+03 0.  0.
         23    2    1    2    0    0  0.20264172134E+03  0.32660883227E+02  0.83711800452E+03  0.86639033530E+03  0.87950321714E+02 0.  0.
          5    1    3    3  502    0 -0.18909979999E+03 -0.59808964955E+02  0.26722765371E+04  0.26796296777E+04  0.41800000000E+01 0.  1.
         -5    1    3    3    0  502 -0.13541921348E+02  0.27148081728E+02  0.16556393306E+03  0.16837247491E+03  0.41800000000E+01 0.  1.
        -11    1    4    4    0    0  0.54493457615E+02  0.37362495235E+02  0.38406862866E+03  0.38971041107E+03  0.00000000000E+00 0.  1.
         11    1    4    4    0    0  0.14814826372E+03 -0.47016120088E+01  0.45304937585E+03  0.47667992423E+03  0.00000000000E+00 0. -1.
</event>
<event>
 8    1  0.7005395E-009  0.1006350E+03  0.7561462E-02  0.1278966E+00
          2   -1    0    0  501    0  0.00000000000E+00  0.00000000000E+00  0.35580365901E+02  0.35580365901E+02  0.00000000000E+00 0. -1.
         -2   -1    0    0    0  501 -0.00000000000E+00 -0.00000000000E+00 -0.82413857949E+03  0.82413857949E+03  0.00000000000E+00 0.  1.
         25    2    1    2    0    0 -0.27009467176E+02  0.25681352887E+02 -0.73696016724E+03  0.74842979215E+03  0.12509125662E+03 0.  0.
         23    2    1    2    0    0  0.27009467176E+02 -0.25681352887E+02 -0.51598046349E+02  0.11128915324E+03  0.91290054430E+02 0.  0.
          5    1    3    3  502    0  0.29218098475E+02 -0.28885431867E+02 -0.41485896045E+03  0.41690945649E+03  0.41800000000E+01 0. -1.
         -5    1    3    3    0  502 -0.56227565651E+02  0.54566784755E+02 -0.32210120679E+03  0.33152033566E+03  0.41800000000E+01 0. -1.
        -11    1    4    4    0    0 -0.90647705669E+01 -0.41237979334E+02  0.48669819076E+01  0.42502100159E+02  0.00000000000E+00 0. -1.
         11    1    4    4    0    0  0.36074237743E+02  0.15556626447E+02 -0.56465028256E+02  0.68787053078E+02  0.00000000000E+00 0.  1.
</event>
<event>
 8    1  0.7005395E-009  0.1244308E+03  0.7561462E-02  0.1235962E+00
          1   -1    0    0  501    0  0.00000000000E+00  0.00000000000E+00  0.10730407109E+03  0.10730407109E+03  0.00000000000E+00 0. -1.
         -1   -1    0    0    0  501 -0.00000000000E+00 -0.00000000000E+00 -0.17832952052E+03  0.17832952052E+03  0.00000000000E+00 0.  1.
         25    2    1    2    0    0 -0.31968870480E+02  0.67472522045E+02 -0.82690869175E+02  0.16751524365E+03  0.12509607148E+03 0.  0.
         23    2    1    2    0    0  0.31968870480E+02 -0.67472522045E+02  0.11665419741E+02  0.11811834796E+03  0.90781673238E+02 0.  0.
          5    1    3    3  502    0  0.47583970551E+02  0.24257397789E+02 -0.19417889459E+02  0.56984054190E+02  0.41800000000E+01 0.  1.
         -5    1    3    3    0  502 -0.79552841032E+02  0.43215124256E+02 -0.63272979715E+02  0.11053118946E+03  0.41800000000E+01 0.  1.
        -11    1    4    4    0    0  0.73083387564E+01 -0.77640807548E+02 -0.16085999640E+02  0.79625788514E+02  0.00000000000E+00 0.  1.
         11    1    4    4    0    0  0.24660531724E+02  0.10168285503E+02  0.27751419381E+02  0.38492559445E+02  0.00000000000E+00 0. -1.
</event>
<event>
 8    1  0.7005395E-009  0.1257166E+03  0.7561462E-02  0.1233954E+00
         -1   -1    0    0    0  501 -0.00000000000E+00  0.00000000000E+00  0.39405152151E+02  0.39405152151E+02  0.00000000000E+00 0.  1.
          1   -1    0    0  501    0  0.00000000000E+00 -0.00000000000E+00 -0.52562255058E+03  0.52562255058E+03  0.00000000000E+00 0. -1.
         25    2    1    2    0    0 -0.85129401436E+02 -0.20780161546E+02 -0.19401778443E+03  0.24691974816E+03  0.12509049226E+03 0.  0.
         23    2    1    2    0    0  0.85129401436E+02  0.20780161546E+02 -0.29219961399E+03  0.31810795457E+03  0.90184401304E+02 0.  0.
          5    1    3    3  502    0 -0.90160483808E+02  0.33279647432E+02 -0.10363526846E+03  0.14140080991E+03  0.41800000000E+01 0.  1.
         -5    1    3    3    0  502  0.50310823719E+01 -0.54059808978E+02 -0.90382515970E+02  0.10551893825E+03  0.41800000000E+01 0.  1.
        -11    1    4    4    0    0  0.56626501098E+02 -0.11432839741E+02 -0.65378667596E+02  0.87244716905E+02  0.00000000000E+00 0.  1.
         11    1    4    4    0    0  0.28502900338E+02  0.32213001286E+02 -0.22682094640E+03  0.23086323766E+03  0.00000000000E+00 0. -1.
</event>
<event>
 8    1  0.7005395E-009  0.1212811E+03  0.7561462E-02  0.1240998E+00
          3   -1    0    0  501    0  0.00000000000E+00  0.00000000000E+00  0.86357919563E+02  0.86357919563E+02  0.00000000000E+00 0. -1.
         -3   -1    0    0    0  501 -0.00000000000E+00 -0.00000000000E+00 -0.21772527282E+03  0.21772527282E+03  0.00000000000E+00 0.  1.
         25    2    1    2    0    0  0.80176133325E+02 -0.16451494320E+02 -0.55017341927E+02  0.15928768822E+03  0.12508715236E+03 0.  0.
         23    2    1    2    0    0 -0.80176133325E+02  0.16451494320E+02 -0.76350011328E+02  0.14479550416E+03  0.91856136292E+02 0.  0.
          5    1    3    3  502    0  0.86716812919E+02 -0.59714603406E+02 -0.35446563364E+02  0.11117360639E+03  0.41800000000E+01 0. -1.
         -5    1    3    3    0  502 -0.65406795941E+01  0.43263109086E+02 -0.19570778563E+02  0.48114081836E+02  0.41800000000E+01 0. -1.
        -11    1    4    4    0    0 -0.34745695209E+02  0.29919319196E+02  0.94170591455E+01  0.46809293946E+02  0.00000000000E+00 0. -1.
         11    1    4    4    0    0 -0.45430438116E+02 -0.13467824877E+02 -0.85767070474E+02  0.97986210213E+02  0.00000000000E+00 0.  1.
</event>
<event>
 8    1  0.7005395E-009  0.1081455E+03  0.7561462E-02  0.1264043E+00
         -1   -1    0    0    0  501 -0.00000000000E+00  0.00000000000E+00  0.26822640960E+02  0.26822640960E+02  0.00000000000E+00 0.  1.
          1   -1    0    0  501    0  0.00000000000E+00 -0.00000000000E+00 -0.65404629104E+03  0.65404629104E+03  0.00000000000E+00 0. -1.
         25    2    1    2    0    0 -0.58248020720E+02 -0.29549448528E+02 -0.23944934528E+03  0.27793882342E+03  0.12509196129E+03 0.  0.
         23    2    1    2    0    0  0.58248020720E+02  0.29549448528E+02 -0.38777430480E+03  0.40293010858E+03  0.87850777550E+02 0.  0.
          5    1    3    3  502    0 -0.80157203536E+02 -0.64598634194E+01 -0.73868543150E+02  0.10927461362E+03  0.41800000000E+01 0.  1.
         -5    1    3    3    0  502  0.21909182817E+02 -0.23089585108E+02 -0.16558080213E+03  0.16866420980E+03  0.41800000000E+01 0.  1.
        -11    1    4    4    0    0 -0.20466362266E+02  0.86598206677E+01 -0.40111863843E+02  0.45856581854E+02  0.00000000000E+00 0.  1.
         11    1    4    4    0    0  0.78714382985E+02  0.20889627860E+02 -0.34766244095E+03  0.35707352673E+03  0.00000000000E+00 0. -1.
</event>
<event>
 8    1  0.7005395E-009  0.1308760E+03  0.7561462E-02  0.1226162E+00
          1   -1    0    0  501    0  0.00000000000E+00  0.00000000000E+00  0.18560717117E+03  0.18560717117E+03  0.00000000000E+00 0. -1.
         -1   -1    0    0    0  501 -0.00000000000E+00 -0.00000000000E+00 -0.15078942540E+03  0.15078942540E+03  0.00000000000E+00 0.  1.
         25    2    1    2    0    0  0.63649868533E+01  0.12205173361E+03  0.54200787151E+02  0.18309030227E+03  0.12508874738E+03 0.  0.
         23    2    1    2    0    0 -0.63649868533E+01 -0.12205173361E+03 -0.19383041380E+02  0.15330629430E+03  0.90498501879E+02 0.  0.
          5    1    3    3  502    0  0.32125415997E+02  0.45032370901E+02  0.80375571994E+02  0.97660953074E+02  0.41800000000E+01 0.  1.
         -5    1    3    3    0  502 -0.25760429143E+02  0.77019362712E+02 -0.26174784843E+02  0.85429349195E+02  0.41800000000E+01 0.  1.
        -11    1    4    4    0    0 -0.12424695592E+02 -0.27106521444E+02 -0.45724892381E+02  0.54588481831E+02  0.00000000000E+00 0.  1.
         11    1    4    4    0    0  0.60597087391E+01 -0.94945212169E+02  0.26341851001E+02  0.98717812466E+02  0.00000000000E+00 0. -1.
</event>
<event>
 8    1  0.7005395E-009  0.9038772E+02  0.7561462E-02  0.1301915E+00
         -2   -1    0    0    0  501 -0.00000000000E+00  0.00000000000E+00  0.63599565119E+02  0.63599565119E+02  0.00000000000E+00 0.  1.
          2   -1    0    0  501    0  0.00000000000E+00 -0.00000000000E+00 -0.25751094807E+03  0.25751094807E+03  0.00000000000E+00 0. -1.
         25    2    1    2    0    0  0.59776015797E+02 -0.33646656370E+02 -0.11609347521E+03  0.18393232763E+03  0.12509251222E+03 0.  0.
         23    2    1    2    0    0 -0.59776015797E+02  0.33646656370E+02 -0.77817907740E+02  0.13717818556E+03  0.89760560817E+02 0.  0.
          5    1    3    3  502    0  0.48032085324E+02 -0.10925113397E+02  0.13922109472E+02  0.51358902398E+02  0.41800000000E+01 0.  1.
         -5    1    3    3    0  502  0.11743930473E+02 -0.22721542973E+02 -0.13001558468E+03  0.13257342524E+03  0.41800000000E+01 0.  1.
        -11    1    4    4    0    0 -0.56136256023E+02 -0.13823804352E+02 -0.17640341134E+02  0.60444672572E+02  0.00000000000E+00 0.  1.
         11    1    4    4    0    0 -0.36397597744E+01  0.47470460722E+02 -0.60177566606E+02  0.76733512985E+02  0.00000000000E+00 0. -1.
</event>
<event>
 8    1  0.7005395E-009  0.9150833E+02  0.7561462E-02  0.1299240E+00
          2   -1    0    0  501    0  0.00000000000E+00  0.00000000000E+00  0.31587142387E+03  0.31587142387E+03  0.00000000000E+00 0. -1.
         -2   -1    0    0    0  501 -0.00000000000E+00 -0.00000000000E+00 -0.44241378207E+02  0.44241378207E+02  0.00000000000E+00 0.  1.
         25    2    1    2    0    0  0.76897590041E+00 -0.23037741770E+02  0.93119834053E+02  0.15764883845E+03  0.12510205394E+03 0.  0.
         23    2    1    2    0    0 -0.76897590041E+00  0.23037741770E+02  0.17851021161E+03  0.20246396363E+03  0.92706159723E+02 0.  0.
          5    1    3    3  502    0  0.28293299593E+02  0.22454230222E+02 -0.13214484391E+02  0.38688477024E+02  0.41800000000E+01 0. -1.
         -5    1    3    3    0  502 -0.27524323692E+02 -0.45491971992E+02  0.10633431844E+03  0.11896036142E+03  0.41800000000E+01 0. -1.
        -11    1    4    4    0    0 -0.42308701664E+02  0.29086549923E+02  0.76265035091E+02  0.91936984943E+02  0.00000000000E+00 0.  1.
         11    1    4    4    0    0  0.41539725764E+02 -0.60488081528E+01  0.10224517652E+03  0.11052697869E+03  0.00000000000E+00 0. -1.
</event>
<event>
 8    1  0.7005395E-009  0.1105361E+03  0.7561462E-02  0.1259580E+00
          2   -1    0    0  501    0  0.00000000000E+00  0.00000000000E+00  0.64502771803E+03  0.64502771803E+03  0.00000000000E+00 0. -1.
         -2   -1    0    0    0  501 -0.00000000000E+00 -0.00000000000E+00 -0.39408384754E+02  0.39408384754E+02  0.00000000000E+00 0.  1.
         25    2    1    2    0    0 -0.77674322686E+02  0.27668373884E+02  0.50440842570E+03  0.52618844945E+03  0.12509030776E+03 0.  0.
         23    2    1    2    0    0  0.77674322686E+02 -0.27668373884E+02  0.10121090758E+03  0.15824765334E+03  0.89441783617E+02 0.  0.
          5    1    3    3  502    0 -0.91943395983E+02  0.48886661768E+02  0.25552619040E+03  0.27596122943E+03  0.41800000000E+01 0.  1.
         -5    1    3    3    0  502  0.14269073297E+02 -0.21218287884E+02  0.24888223530E+03  0.25022722002E+03  0.41800000000E+01 0.  1.
        -11    1    4    4    0    0  0.15661356459E+02 -0.24214586779E+02  0.90803355857E+02  0.95272628461E+02  0.00000000000E+00 0. -1.
         11    1    4    4    0    0  0.62012966227E+02 -0.34537871058E+01  0.10407551722E+02  0.62975024879E+02  0.00000000000E+00 0.  1.
</event>
<event>
 8    1  0.7005395E-009  0.1067584E+03  0.7561462E-02  0.1266693E+00
          1   -1    0    0  501    0  0.00000000000E+00  0.00000000000E+00  0.14546517482E+04  0.14546517482E+04  0.00000000000E+00 0. -1.
         -1   -1    0    0    0  501 -0.00000000000E+00 -0.00000000000E+00 -0.96121607950E+01  0.96121607950E+01  0.00000000000E+00 0.  1.
         25    2    1    2    0    0  0.31852126670E+02  0.13900875090E+02  0.10244085352E+04  0.10326024238E+04  0.12508847407E+03 0.  0.
         23    2    1    2    0    0 -0.31852126670E+02 -0.13900875090E+02  0.42063105217E+03  0.43166148516E+03  0.90517199575E+02 0.  0.
          5    1    3    3  502    0 -0.17306806714E+02 -0.39826903500E+02  0.18692504442E+03  0.19194830667E+03  0.41800000000E+01 0.  1.
         -5    1    3    3    0  502  0.49158933384E+02  0.53727778590E+02  0.83748349077E+03  0.84065411713E+03  0.41800000000E+01 0.  1.
        -11    1    4    4    0    0 -0.44593095157E+02  0.28333826136E+02  0.22588816469E+03  0.23198450980E+03  0.00000000000E+00 0.  1.
         11    1    4    4    0    0  0.12740968487E+02 -0.42234701226E+02  0.19474288748E+03  0.19967697537E+03  0.00000000000E+00 0. -1.
</event>
<event>
 8    1  0.7005395E-009  0.9692410E+02  0.7561462E-02  0.1286900E+00
         -3   -1    0    0    0  501 -0.00000000000E+00  0.00000000000E+00  0.50449055352E+03  0.50449055352E+03  0.00000000000E+00 0.  1.
          3   -1    0    0  501    0  0.00000000000E+00 -0.00000000000E+00 -0.27959012813E+02  0.27959012813E+02  0.00000000000E+00 0. -1.
         25    2    1    2    0    0  0.40748626666E+02  0.24361475335E+02  0.25186976010E+03  0.28520005838E+03  0.12508703046E+03 0.  0.
         23    2    1    2    0    0 -0.40748626666E+02 -0.24361475335E+02  0.22466178061E+03  0.24724950796E+03  0.91681358324E+02 0.  0.
          5    1    3    3  502    0  0.12752920180E+02 -0.44533348300E+02  0.42606134037E+02  0.63076232778E+02  0.41800000000E+01 0.  1.
         -5    1    3    3    0  502  0.27995706487E+02  0.68894823634E+02  0.20926362606E+03  0.22212382560E+03  0.41800000000E+01 0.  1.
        -11    1    4    4    0    0 -0.42327457188E+02  0.57362890944E+01  0.20892993523E+03  0.21325158025E+03  0.00000000000E+00 0.  1.
         11    1    4    4    0    0  0.15788305221E+01 -0.30097764429E+02  0.15731845380E+02  0.33997927709E+02  0.00000000000E+00 0. -1.
</event>
<event>
 8    1  0.7005395E-009  0.9465500E+02  0.7561462E-02  0.1291955E+00
         -2   -1    0    0    0  501 -0.00000000000E+00  0.00000000000E+00  0.24293962005E+03  0.24293962005E+03  0.00000000000E+00 0.  1.
          2   -1    0    0  501    0  0.00000000000E+00 -0.00000000000E+00 -0.63816103726E+02  0.63816103726E+02  0.00000000000E+00 0. -1.
         25    2    1    2    0    0  0.44320662416E+02 -0.39513127781E+02  0.99975381108E+02  0.17077861656E+03  0.12507857795E+03 0.  0.
         23    2    1    2    0    0 -0.44320662416E+02  0.39513127781E+02  0.79148135215E+02  0.13597710722E+03  0.93272386026E+02 0.  0.
          5    1    3    3  502    0  0.67247671081E+02  0.45492352564E+01  0.10481376730E+02  0.68339421021E+02  0.41800000000E+01 0. -1.
         -5    1    3    3    0  502 -0.22927008666E+02 -0.44062363037E+02  0.89494004378E+02  0.10243919554E+03  0.41800000000E+01 0. -1.
        -11    1    4    4    0    0 -0.38030211450E+02  0.48081602037E+02  0.97264927879E+02  0.11497218634E+03  0.00000000000E+00 0.  1.
         11    1    4    4    0    0 -0.62904509660E+01 -0.85684742557E+01 -0.18116792664E+02  0.21004920873E+02  0.00000000000E+00 0. -1.
</event>
<event>
 8    1  0.7005395E-009  0.1869411E+03  0.7561462E-02  0.1161250E+00
         -2   -1    0    0    0  501 -0.00000000000E+00  0.00000000000E+00  0.54335067456E+02  0.54335067456E+02  0.00000000000E+00 0.  1.
          2   -1    0    0  501    0  0.00000000000E+00 -0.00000000000E+00 -0.11796361585E+04  0.11796361585E+04  0.00000000000E+00 0. -1.
         25    2    1    2    0    0  0.57630268526E+02 -0.16314429959E+03 -0.94267698249E+03  0.96655308178E+03  0.12509059208E+03 0.  0.
         23    2    1    2    0    0 -0.57630268526E+02  0.16314429959E+03 -0.18262410850E+03  0.26741814413E+03  0.90684003365E+02 0.  0.
          5    1    3    3  502    0 -0.57644594118E+01 -0.48659478361E+02 -0.55883081772E+03  0.56099048928E+03  0.41800000000E+01 0. -1.
         -5    1    3    3    0  502  0.63394727937E+02 -0.11448482123E+03 -0.38384616477E+03  0.40556259250E+03  0.41800000000E+01 0. -1.
        -11    1    4    4    0    0 -0.64791579387E+02  0.53861996776E+02 -0.96404773966E+02  0.12803493234E+03  0.00000000000E+00 0. -1.
         11    1    4    4    0    0  0.71613108615E+01  0.10928230281E+03 -0.86219334537E+02  0.13938321179E+03  0.00000000000E+00 0.  1.
</event>
<event>
 8    1  0.7005395E-009  0.9597256E+02  0.7561462E-02  0.1289001E+00
          1   -1    0    0  501    0  0.00000000000E+00  0.00000000000E+00  0.40157821739E+03  0.40157821739E+03  0.00000000000E+00 0. -1.
         -1   -1    0    0    0  501 -0.00000000000E+00 -0.00000000000E+00 -0.34130638074E+02  0.34130638074E+02  0.00000000000E+00 0.  1.
         25    2    1    2    0    0 -0.43337132602E+02 -0.17194334162E+02  0.20473310019E+03  0.24441147880E+03  0.12509027326E+03 0.  0.
         23    2    1    2    0    0  0.43337132602E+02  0.17194334162E+02  0.16271447912E+03  0.19129737666E+03  0.89134350355E+02 0.  0.
          5    1    3    3  502    0 -0.50678256059E+02 -0.43006525437E+02  0.20671652004E+03  0.21717973875E+03  0.41800000000E+01 0. -1.
         -5    1    3    3    0  502  0.73411234572E+01  0.25812191275E+02 -0.19834198406E+01  0.27231740053E+02  0.41800000000E+01 0. -1.
        -11    1    4    4    0    0  0.17395223374E+02  0.51968699480E+02  0.69718931749E+02  0.88679585961E+02  0.00000000000E+00 0.  1.
         11    1    4    4    0    0  0.25941909228E+02 -0.34774365318E+02  0.92995547372E+02  0.10261779070E+03  0.00000000000E+00 0. -1.
</event>
<event>
 8    1  0.7005395E-009  0.8257313E+02  0.7561462E-02  0.1321904E+00
          2   -1    0    0  501    0  0.00000000000E+00  0.00000000000E+00  0.53314599117E+02  0.53314599117E+02  0.00000000000E+00 0. -1.
         -2   -1    0    0    0  501 -0.00000000000E+00 -0.00000000000E+00 -0.25634254594E+03  0.25634254594E+03  0.00000000000E+00 0.  1.
         25    2    1    2    0    0 -0.40962711879E+01 -0.11567687357E+02 -0.58121862828E+02  0.13847259599E+03  0.12508364431E+03 0.  0.
         23    2    1    2    0    0  0.40962711879E+01  0.11567687357E+02 -0.14490608399E+03  0.17118454906E+03  0.90309389498E+02 0.  0.
          5    1    3    3  502    0 -0.15575799422E+02 -0.51254686359E+02  0.13753570567E+02  0.55464236268E+02  0.41800000000E+01 0.  1.
         -5    1    3    3    0  502  0.11479528234E+02  0.39686999002E+02 -0.71875433395E+02  0.83008359723E+02  0.41800000000E+01 0.  1.
        -11    1    4    4    0    0 -0.12601916133E+02  0.37211974347E+02 -0.13243440529E+03  0.13813910029E+03  0.00000000000E+00 0.  1.
         11    1    4    4    0    0  0.16698187321E+02 -0.25644286990E+02 -0.12471678708E+02  0.33045448776E+02  0.00000000000E+00 0. -1.
</event>
<event>
 8    1  0.7005395E-009  0.1076491E+03  0.7561462E-02  0.1264986E+00
          2   -1    0    0  501    0  0.00000000000E+00  0.00000000000E+00  0.86219636370E+02  0.86219636370E+02  0.00000000000E+00 0. -1.
         -2   -1    0    0    0  501 -0.00000000000E+00 -0.00000000000E+00 -0.15267132900E+03  0.15267132900E+03  0.00000000000E+00 0.  1.
         25    2    1    2    0    0 -0.78135837775E+01 -0.21114849319E+02 -0.73404540304E+01  0.12730337891E+03  0.12508148969E+03 0.  0.
         23    2    1    2    0    0  0.78135837775E+01  0.21114849319E+02 -0.59111238600E+02  0.11158758646E+03  0.91928026031E+02 0.  0.
          5    1    3    3  502    0  0.49777127358E+02  0.21487998603E+02  0.45466864142E+01  0.54567767494E+02  0.41800000000E+01 0. -1.
         -5    1    3    3    0  502 -0.57590711135E+02 -0.42602847922E+02 -0.11887140445E+02  0.72735611416E+02  0.41800000000E+01 0. -1.
        -11    1    4    4    0    0  0.44001767542E+02 -0.53555701534E+01 -0.48118924744E+02  0.65423761715E+02  0.00000000000E+00 0.  1.
         11    1    4    4    0    0 -0.36188183764E+02  0.26470419472E+02 -0.10992313856E+02  0.46163824745E+02  0.00000000000E+00 0. -1.
</event>
<event>
 8    1  0.7005395E-009  0.1270072E+03  0.7561462E-02  0.1231965E+00
          2   -1    0    0  501    0  0.00000000000E+00  0.00000000000E+00  0.40572553784E+03  0.40572553784E+03  0.00000000000E+00 0. -1.
         -2   -1    0    0    0  501 -0.00000000000E+00 -0.00000000000E+00 -0.50322330798E+02  0.50322330798E+02  0.00000000000E+00 0.  1.
         25    2    1    2    0    0  0.34658464124E+02 -0.77522063832E+02  0.25381724283E+03  0.29543548499E+03  0.12509218008E+03 0.  0.
         23    2    1    2    0    0 -0.34658464124E+02  0.77522063832E+02  0.10158596421E+03  0.16061238365E+03  0.90916170950E+02 0.  0.
          5    1    3    3  502    0 -0.41644439366E+02 -0.32402738882E+02  0.14885526524E+03  0.15798594623E+03  0.41800000000E+01 0.  1.
         -5    1    3    3    0  502  0.76302903490E+02 -0.45119324950E+02  0.10496197759E+03  0.13744953876E+03  0.41800000000E+01 0.  1.
        -11    1    4    4    0    0  0.95864115935E+01  0.65901232313E+02  0.24468547822E+02  0.70947738091E+02  0.00000000000E+00 0.  1.
         11    1    4    4    0    0 -0.44244875718E+02  0.11620831519E+02  0.77117416390E+02  0.89664645558E+02  0.00000000000E+00 0. -1.
</event>
<event>
 8    1  0.7005395E-009  0.1156773E+03  0.7561462E-02  0.1250403E+00
          1   -1    0    0  501    0  0.00000000000E+00  0.00000000000E+00  0.28068527839E+03  0.28068527839E+03  0.00000000000E+00 0. -1.
         -1   -1    0    0    0  501 -0.00000000000E+00 -0.00000000000E+00 -0.13401612275E+03  0.13401612275E+03  0.00000000000E+00 0.  1.
         25    2    1    2    0    0 -0.49353981329E+02  0.19383704737E+01 -0.85055709916E+02  0.15912780900E+03  0.12509041952E+03 0.  0.
         23    2    1    2    0    0  0.49353981329E+02 -0.19383704737E+01  0.23172486556E+03  0.25557359214E+03  0.95822100409E+02 0.  0.
          5    1    3    3  502    0 -0.88394849910E+02 -0.17123777418E+02 -0.49506726990E+02  0.10283609124E+03  0.41800000000E+01 0.  1.
         -5    1    3    3    0  502  0.39040868581E+02  0.19062147892E+02 -0.35548982926E+02  0.56291717764E+02  0.41800000000E+01 0.  1.
        -11    1    4    4    0    0  0.35034394329E+02  0.40049346453E+02  0.70319586549E+02  0.88182782841E+02  0.00000000000E+00 0.  1.
         11    1    4    4    0    0  0.14319587000E+02 -0.41987716926E+02  0.16140527901E+03  0.16739080930E+03  0.00000000000E+00 0. -1.
</event>
<event>
 8    1  0.7005395E-009  0.2178211E+03  0.7561462E-02  0.1135518E+00
         -2   -1    0    0    0  501 -0.00000000000E+00  0.00000000000E+00  0.44138093626E+02  0.44138093626E+02  0.00000000000E+00 0. -1.
          2   -1    0    0  501    0  0.00000000000E+00 -0.00000000000E+00 -0.12139312841E+04  0.12139312841E+04  0.00000000000E+00 0.  1.
         25    2    1    2    0    0  0.20251235235E+03 -0.36082270063E+01 -0.64965159570E+03  0.69189533621E+03  0.12509072032E+03 0.  0.
         23    2    1    2    0    0 -0.20251235235E+03  0.36082270063E+01 -0.52014159476E+03  0.56617404151E+03  0.94770747191E+02 0.  0.
          5    1    3    3  502    0  0.97247228529E+02 -0.35234524005E+02 -0.46984671085E+03  0.48111526606E+03  0.41800000000E+01 0.  1.
         -5    1    3    3    0  502  0.10526512382E+03  0.31626296999E+02 -0.17980488486E+03  0.21078007015E+03  0.41800000000E+01 0.  1.
        -11    1    4    4    0    0 -0.16400801552E+03 -0.34894497796E+02 -0.41899663364E+03  0.45130304024E+03  0.00000000000E+00 0.  1.
         11    1    4    4    0    0 -0.38504336830E+02  0.38502724802E+02 -0.10114496112E+03  0.11487100127E+03  0.00000000000E+00 0. -1.
</event>
<event>
 8    1  0.7005395E-009  0.1132639E+03  0.7561462E-02  0.1254642E+00
          3   -1    0    0  501    0  0.00000000000E+00  0.00000000000E+00  0.62994967312E+03  0.62994967312E+03  0.00000000000E+00 0. -1.
         -3   -1    0    0    0  501 -0.00000000000E+00 -0.00000000000E+00 -0.21643787268E+02  0.21643787268E+02  0.00000000000E+00 0.  1.
         25    2    1    2    0    0  0.39472990925E+01  0.36228101659E+02  0.28375891929E+03  0.31224106589E+03  0.12508917790E+03 0.  0.
         23    2    1    2    0    0 -0.39472990925E+01 -0.36228101659E+02  0.32454696656E+03  0.33935239450E+03  0.92202264786E+02 0.  0.
          5    1    3    3  502    0 -0.60033274119E+02  0.25062833530E+02  0.14463441279E+03  0.15864654232E+03  0.41800000000E+01 0.  1.
         -5    1    3    3    0  502  0.63980573211E+02  0.11165268129E+02  0.13912450650E+03  0.15359452357E+03  0.41800000000E+01 0.  1.
        -11    1    4    4    0    0  0.24982122672E+02 -0.55930028140E+02  0.16480492471E+03  0.17582075449E+03  0.00000000000E+00 0. -1.
         11    1    4    4    0    0 -0.28929421765E+02  0.19701926481E+02  0.15974204185E+03  0.16353164001E+03  0.00000000000E+00 0.  1.
</event>
<event>
 8    1  0.7005395E-009  0.1422358E+03  0.7561462E-02  0.1210352E+00
          1   -1    0    0  501    0  0.00000000000E+00  0.00000000000E+00  0.47386001930E+03  0.47386001930E+03  0.00000000000E+00 0. -1.
         -1   -1    0    0    0  501 -0.00000000000E+00 -0.00000000000E+00 -0.44657942670E+02  0.44657942670E+02  0.00000000000E+00 0.  1.
         25    2    1    2    0    0 -0.84440775179E+02  0.54314654247E+02  0.25209879394E+03  0.29879892884E+03  0.12508665711E+03 0.  0.
         23    2    1    2    0    0  0.84440775179E+02 -0.54314654247E+02  0.17710328268E+03  0.21971903313E+03  0.82647169368E+02 0.  0.
          5    1    3    3  502    0 -0.11303311504E+03  0.59441004313E+02  0.22552577642E+03  0.25920853828E+03  0.41800000000E+01 0. -1.
         -5    1    3    3    0  502  0.28592339861E+02 -0.51263500664E+01  0.26573017526E+02  0.39590390553E+02  0.41800000000E+01 0. -1.
        -11    1    4    4    0    0  0.22047498752E+02  0.20377895691E+02  0.62713813675E+02  0.69529657411E+02  0.00000000000E+00 0. -1.
         11    1    4    4    0    0  0.62393276426E+02 -0.74692549938E+02  0.11438946901E+03  0.15018937572E+03  0.00000000000E+00 0.  1.
</event>
<event>
 8    1  0.7005395E-009  0.1796320E+03  0.7561462E-02  0.1168160E+00
         -2   -1    0    0    0  501 -0.00000000000E+00  0.00000000000E+00  0.36726859505E+02  0.36726859505E+02  0.00000000000E+00 0.  1.
          2   -1    0    0  501    0  0.00000000000E+00 -0.00000000000E+00 -0.10020793501E+04  0.10020793501E+04  0.00000000000E+00 0. -1.
         25    2    1    2    0    0 -0.77579579554E+02 -0.13099515843E+03 -0.40077131297E+03  0.44659054777E+03  0.12508856608E+03 0.  0.
         23    2    1    2    0    0  0.77579579554E+02  0.13099515843E+03 -0.56458117767E+03  0.59221566188E+03  0.93750526920E+02 0.  0.
          5    1    3    3  502    0 -0.72592006095E+02 -0.15524618699E+03 -0.33814029872E+03  0.37911385090E+03  0.41800000000E+01 0.  1.
         -5    1    3    3    0  502 -0.49875734590E+01  0.24251028558E+02 -0.62631014242E+02  0.67476696868E+02  0.41800000000E+01 0.  1.
        -11    1    4    4    0    0  0.36088238389E+02  0.11089770290E+03 -0.49636800362E+03  0.50988415986E+03  0.00000000000E+00 0. -1.
         11    1    4    4    0    0  0.41491341165E+02  0.20097455535E+02 -0.68213174052E+02  0.82331502021E+02  0.00000000000E+00 0.  1.
</event>
<event>
 8    1  0.7005395E-009  0.1454863E+03  0.7561462E-02  0.1206132E+00
          2   -1    0    0  501    0  0.00000000000E+00  0.00000000000E+00  0.62235186137E+03  0.62235186137E+03  0.00000000000E+00 0. -1.
         -2   -1    0    0    0  501 -0.00000000000E+00 -0.00000000000E+00 -0.53413980067E+02  0.53413980067E+02  0.00000000000E+00 0.  1.
         25    2    1    2    0    0  0.52288102387E+02 -0.11401787003E+03  0.16616306442E+03  0.24288062220E+03  0.12508681915E+03 0.  0.
         23    2    1    2    0    0 -0.52288102387E+02  0.11401787003E+03  0.40277481688E+03  0.43288521923E+03  0.97097577602E+02 0.  0.
          5    1    3    3  502    0 -0.17073409829E+02 -0.82401044964E+02  0.13764712854E+03  0.16138661013E+03  0.41800000000E+01 0. -1.
         -5    1    3    3    0  502  0.69361512217E+02 -0.31616825071E+02  0.28515935880E+02  0.81494012073E+02  0.41800000000E+01 0. -1.
        -11    1    4    4    0    0 -0.44579273443E+02  0.54727670625E+02  0.89649696188E+02  0.11410301302E+03  0.00000000000E+00 0.  1.
         11    1    4    4    0    0 -0.77088289438E+01  0.59290199410E+02  0.31312512069E+03  0.31878220621E+03  0.00000000000E+00 0. -1.
</event>
<event>
 8    1  0.7005395E-009  0.1203751E+03  0.7561462E-02  0.1242480E+00
         -1   -1    0    0    0  501 -0.00000000000E+00  0.00000000000E+00  0.80146346990E+02  0.80146346990E+02  0.00000000000E+00 0.  1.
          1   -1    0    0  501    0  0.00000000000E+00 -0.00000000000E+00 -0.24720184496E+03  0.24720184496E+03  0.00000000000E+00 0. -1.
         25    2    1    2    0    0 -0.65839502514E+02 -0.27048122939E+02 -0.28970954061E+02  0.14680437351E+03  0.12508303985E+03 0.  0.
         23    2    1    2    0    0  0.65839502514E+02  0.27048122939E+02 -0.13808454391E+03  0.18054381844E+03  0.91990695528E+02 0.  0.
          5    1    3    3  502    0 -0.68323546781E+02 -0.71086725781E+02 -0.27617624873E+02  0.10247748646E+03  0.41800000000E+01 0. -1.
         -5    1    3    3    0  502  0.24840442676E+01  0.44038602842E+02 -0.13533291880E+01  0.44326887056E+02  0.41800000000E+01 0. -1.
        -11    1    4    4    0    0  0.42073550996E+01  0.35323246003E+02 -0.81490205228E+01  0.36494384234E+02  0.00000000000E+00 0.  1.
         11    1    4    4    0    0  0.61632147414E+02 -0.82751230637E+01 -0.12993552339E+03  0.14404943421E+03  0.00000000000E+00 0. -1.
</event>
<event>
 8    1  0.7005395E-009  0.1166856E+03  0.7561462E-02  0.1248667E+00
         -2   -1    0    0    0  501 -0.00000000000E+00  0.00000000000E+00  0.16266364332E+02  0.16266364332E+02  0.00000000000E+00 0.  1.
          2   -1    0    0  501    0  0.00000000000E+00 -0.00000000000E+00 -0.96022860307E+03  0.96022860307E+03  0.00000000000E+00 0. -1.
         25    2    1    2    0    0  0.23929249149E+02  0.54768810637E+02 -0.46247798671E+03  0.48281065478E+03  0.12509200053E+03 0.  0.
         23    2    1    2    0    0 -0.23929249149E+02 -0.54768810637E+02 -0.48148425202E+03  0.49368431261E+03  0.91240802226E+02 0.  0.
          5    1    3    3  502    0 -0.44444494311E+02  0.23301124161E+02 -0.29338746696E+03  0.29767756656E+03  0.41800000000E+01 0.  1.
         -5    1    3    3    0  502  0.68373743461E+02  0.31467686476E+02 -0.16909051975E+03  0.18513308823E+03  0.41800000000E+01 0.  1.
        -11    1    4    4    0    0  0.30898761771E+02 -0.40567136918E+02 -0.26840471307E+03  0.27320599568E+03  0.00000000000E+00 0. -1.
         11    1    4    4    0    0 -0.54828010920E+02 -0.14201673719E+02 -0.21307953895E+03  0.22047831693E+03  0.00000000000E+00 0.  1.
</event>
<event>
 8    1  0.7005395E-009  0.1062882E+03  0.7561462E-02  0.1267602E+00
         -1   -1    0    0    0  501 -0.00000000000E+00  0.00000000000E+00  0.30704939272E+03  0.30704939272E+03  0.00000000000E+00 0.  1.
          1   -1    0    0  501    0  0.00000000000E+00 -0.00000000000E+00 -0.49844132838E+02  0.49844132838E+02  0.00000000000E+00 0. -1.
         25    2    1    2    0    0 -0.26189145199E+02 -0.52267857164E+02  0.12169159371E+03  0.18404811354E+03  0.12508822445E+03 0.  0.
         23    2    1    2    0    0  0.26189145199E+02  0.52267857164E+02  0.13551366617E+03  0.17284541203E+03  0.89965451818E+02 0.  0.
          5    1    3    3  502    0  0.48760357555E+02 -0.33180348106E+02  0.39475247830E+02  0.71093428393E+02  0.41800000000E+01 0. -1.
         -5    1    3    3    0  502 -0.74949502755E+02 -0.19087509058E+02  0.82216345884E+02  0.11295468514E+03  0.41800000000E+01 0. -1.
        -11    1    4    4    0    0 -0.62883473503E+01  0.41209280919E+02  0.13191933980E+03  0.13834905261E+03  0.00000000000E+00 0.  1.
         11    1    4    4    0    0  0.32477492549E+02  0.11058576245E+02  0.35943263761E+01  0.34496359416E+02  0.00000000000E+00 0. -1.
</event>
<event>
 8    1  0.7005395E-009  0.6215107E+02  0.7561462E-02  0.1389020E+00
         -1   -1    0    0    0  501 -0.00000000000E+00  0.00000000000E+00  0.85957184043E+02  0.85957184043E+02  0.00000000000E+00 0.  1.
          1   -1    0    0  501    0  0.00000000000E+00 -0.00000000000E+00 -0.22770267956E+03  0.22770267956E+03  0.00000000000E+00 0. -1.
         25    2    1    2    0    0  0.11029547701E+02  0.63586060465E+01 -0.17476068924E+03  0.21529017535E+03  0.12508588372E+03 0.  0.
         23    2    1    2    0    0 -0.11029547701E+02 -0.63586060465E+01  0.33015193731E+02  0.98369688246E+02  0.91785128180E+02 0.  0.
          5    1    3    3  502    0  0.32770175464E+02  0.41236887973E+02 -0.16442417045E+03  0.17270537212E+03  0.41800000000E+01 0.  1.
         -5    1    3    3    0  502 -0.21740627763E+02 -0.34878281926E+02 -0.10336518789E+02  0.42584803232E+02  0.41800000000E+01 0.  1.
        -11    1    4    4    0    0 -0.60588862714E+01 -0.17194856138E+02  0.63273403035E+02  0.65847526242E+02  0.00000000000E+00 0.  1.
         11    1    4    4    0    0 -0.49706614295E+01  0.10836250092E+02 -0.30258209304E+02  0.32522162004E+02  0.00000000000E+00 0. -1.
</event>
<event>
 8    1  0.7005395E-009  0.1064748E+03  0.7561462E-02  0.1267241E+00
          2   -1    0    0  501    0  0.00000000000E+00  0.00000000000E+00  0.17368950578E+03  0.17368950578E+03  0.00000000000E+00 0. -1.
         -2   -1    0    0    0  501 -0.00000000000E+00 -0.00000000000E+00 -0.73938870417E+02  0.73938870417E+02  0.00000000000E+00 0.  1.
         25    2    1    2    0    0 -0.30221629758E+02 -0.10159163895E+01  0.69308898879E+02  0.14617180024E+03  0.12509233682E+03 0.  0.
         23    2    1    2    0    0  0.30221629758E+02  0.10159163895E+01  0.30441736479E+02  0.10145657595E+03  0.91936709163E+02 0.  0.
          5    1    3    3  502    0 -0.65356541492E+02 -0.32097405995E+02  0.15313046057E+02  0.74523035143E+02  0.41800000000E+01 0.  1.
         -5    1    3    3    0  502  0.35134911733E+02  0.31081489606E+02  0.53995852822E+02  0.71648765102E+02  0.41800000000E+01 0.  1.
        -11    1    4    4    0    0  0.57316522617E+02  0.19020033758E+02  0.58428542572E+01  0.60671940755E+02  0.00000000000E+00 0.  1.
         11    1    4    4    0    0 -0.27094892859E+02 -0.18004117368E+02  0.24598882222E+02  0.40784635193E+02  0.00000000000E+00 0. -1.
</event>
<event>
 8    1  0.7005395E-009  0.1208392E+03  0.7561462E-02  0.1241719E+00
         -1   -1    0    0    0  501 -0.00000000000E+00  0.00000000000E+00  0.72434951256E+03  0.72434951256E+03  0.00000000000E+00 0.  1.
          1   -1    0    0  501    0  0.00000000000E+00 -0.00000000000E+00 -0.45675390418E+02  0.45675390418E+02  0.00000000000E+00 0. -1.
         25    2    1    2    0    0  0.22963951486E+02  0.10169323749E+03  0.14298867311E+03  0.21670475983E+03  0.12508530959E+03 0.  0.
         23    2    1    2    0    0 -0.22963951486E+02 -0.10169323749E+03  0.53568544903E+03  0.55332014315E+03  0.91298537197E+02 0.  0.
          5    1    3    3  502    0  0.14274117160E+02  0.13905905070E+02 -0.21745590936E+02  0.29790396803E+02  0.41800000000E+01 0. -1.
         -5    1    3    3    0  502  0.86898343256E+01  0.87787332416E+02  0.16473426405E+03  0.18691436303E+03  0.41800000000E+01 0. -1.
        -11    1    4    4    0    0 -0.45385984847E+02 -0.22426551427E+02  0.28457916139E+03  0.28904694588E+03  0.00000000000E+00 0. -1.
         11    1    4    4    0    0  0.22422033361E+02 -0.79266686060E+02  0.25110628764E+03  0.26427319726E+03  0.00000000000E+00 0.  1.
</event>
<event>
 8    1  0.7005395E-009  0.6083167E+02  0.7561462E-02  0.1394374E+00
          1   -1    0    0  501    0  0.00000000000E+00  0.00000000000E+00  0.21160844037E+03  0.21160844037E+03  0.00000000000E+00 0. -1.
         -1   -1    0    0    0  501 -0.00000000000E+00 -0.00000000000E+00 -0.67210652026E+02  0.67210652026E+02  0.00000000000E+00 0.  1.
         25    2    1    2    0    0 -0.25879518527E+02 -0.21034784521E+02  0.14022824804E+03  0.19085584961E+03  0.12509908930E+03 0.  0.
         23    2    1    2    0    0  0.25879518527E+02  0.21034784521E+02  0.41695403036E+01  0.87963242783E+02  0.81289208235E+02 0.  0.
          5    1    3    3  502    0 -0.76687425613E+01 -0.26857826459E+02  0.16033130864E+03  0.16279973398E+03  0.41800000000E+01 0.  1.
         -5    1    3    3    0  502 -0.18210775966E+02  0.58230419378E+01 -0.20103060601E+02  0.28056115629E+02  0.41800000000E+01 0.  1.
        -11    1    4    4    0    0  0.46061325878E+02  0.19945901030E+01 -0.20852598326E+02  0.50600938611E+02  0.00000000000E+00 0.  1.
         11    1    4    4    0    0 -0.20181807351E+02  0.19040194418E+02  0.25022138629E+02  0.37362304172E+02  0.00000000000E+00 0. -1.
</event>
<event>
 8    1  0.7005395E-009  0.1193314E+03  0.7561462E-02  0.1244204E+00
         -2   -1    0    0    0  501 -0.00000000000E+00  0.00000000000E+00  0.21189293812E+02  0.21189293812E+02  0.00000000000E+00 0.  1.
          2   -1    0    0  501    0  0.00000000000E+00 -0.00000000000E+00 -0.70754566274E+03  0.70754566274E+03  0.00000000000E+00 0. -1.
         25    2    1    2    0    0 -0.50435982461E+02 -0.36192591059E+02 -0.44017936109E+03  0.46180029890E+03  0.12509178292E+03 0.  0.
         23    2    1    2    0    0  0.50435982461E+02  0.36192591059E+02 -0.24617700784E+03  0.26693465766E+03  0.82445741534E+02 0.  0.
          5    1    3    3  502    0  0.19927145954E+02 -0.58588670994E+02 -0.25411994240E+03  0.26158008533E+03  0.41800000000E+01 0.  1.
         -5    1    3    3    0  502 -0.70363128415E+02  0.22396079935E+02 -0.18605941870E+03  0.20022021357E+03  0.41800000000E+01 0. -1.
        -11    1    4    4    0    0  0.54050274852E+02 -0.11157211896E+02 -0.14565208909E+03  0.15575765356E+03  0.00000000000E+00 0.  1.
         11    1    4    4    0    0 -0.36142923909E+01  0.47349802955E+02 -0.10052491875E+03  0.11117700410E+03  0.00000000000E+00 0. -1.
</event>
<event>
 8    1  0.7005395E-009  0.1455191E+03  0.7561462E-02  0.1206090E+00
          1   -1    0    0  501    0  0.00000000000E+00  0.00000000000E+00  0.11605292402E+04  0.11605292402E+04  0.00000000000E+00 0. -1.
         -1   -1    0    0    0  501 -0.00000000000E+00 -0.00000000000E+00 -0.34034766685E+02  0.34034766685E+02  0.00000000000E+00 0.  1.
         25    2    1    2    0    0 -0.44481232875E+02 -0.12650519032E+03  0.88260471190E+03  0.90145576454E+03  0.12509706111E+03 0.  0.
         23    2    1    2    0    0  0.44481232875E+02  0.12650519032E+03  0.24388976157E+03  0.29310824230E+03  0.91913451950E+02 0.  0.
          5    1    3    3  502    0  0.14055355086E+02 -0.75542272695E+02  0.68187187785E+03  0.68620034842E+03  0.41800000000E+01 0.  1.
         -5    1    3    3    0  502 -0.58536587961E+02 -0.50962917626E+02  0.20073283405E+03  0.21525541612E+03  0.41800000000E+01 0.  1.
        -11    1    4    4    0    0  0.45904489445E+00  0.33079526998E+02  0.58049566402E+01  0.33588143001E+02  0.00000000000E+00 0.  1.
         11    1    4    4    0    0  0.44022187980E+02  0.93425663322E+02  0.23808480493E+03  0.25952009930E+03  0.00000000000E+00 0. -1.
</event>
<event>
 8    1  0.7005395E-009  0.9388417E+02  0.7561462E-02  0.1293709E+00
         -1   -1    0    0    0  501 -0.00000000000E+00  0.00000000000E+00  0.21032614066E+03  0.21032614066E+03  0.00000000000E+00 0.  1.
          1   -1    0    0  501    0  0.00000000000E+00 -0.00000000000E+00 -0.10338248957E+03  0.10338248957E+03  0.00000000000E+00 0. -1.
         25    2    1    2    0    0 -0.37296877922E+02  0.40577568499E+02 -0.30004589347E+02  0.13994834241E+03  0.12509063512E+03 0.  0.
         23    2    1    2    0    0  0.37296877922E+02 -0.40577568499E+02  0.13694824043E+03  0.17376028782E+03  0.91652718985E+02 0.  0.
          5    1    3    3  502    0  0.21763070500E+02  0.18988250921E+02 -0.62547764001E+02  0.69020867077E+02  0.41800000000E+01 0. -1.
         -5    1    3    3    0  502 -0.59059948422E+02  0.21589317578E+02  0.32543174654E+02  0.70927475337E+02  0.41800000000E+01 0. -1.
        -11    1    4    4    0    0  0.24473795740E+02 -0.64188439583E+02  0.12830161149E+03  0.14553496475E+03  0.00000000000E+00 0.  1.
         11    1    4    4    0    0  0.12823082182E+02  0.23610871085E+02  0.86466289355E+01  0.28225323062E+02  0.00000000000E+00 0. -1.
</event>
<event>
 8    1  0.7005395E-009  0.1323580E+03  0.7561462E-02  0.1223998E+00
         -1   -1    0    0    0  501 -0.00000000000E+00  0.00000000000E+00  0.14375257290E+03  0.14375257290E+03  0.00000000000E+00 0.  1.
          1   -1    0    0  501    0  0.00000000000E+00 -0.00000000000E+00 -0.18781200935E+03  0.18781200935E+03  0.00000000000E+00 0. -1.
         25    2    1    2    0    0  0.83599491751E+02 -0.18782040826E+02  0.66029228446E+02  0.16537277945E+03  0.12508659839E+03 0.  0.
         23    2    1    2    0    0 -0.83599491751E+02  0.18782040826E+02 -0.11008866490E+03  0.16619180280E+03  0.90324753522E+02 0.  0.
          5    1    3    3  502    0  0.11658353931E+03 -0.11894329417E+02  0.46080213441E+02  0.12599228223E+03  0.41800000000E+01 0.  1.
         -5    1    3    3    0  502 -0.32984047559E+02 -0.68877114085E+01  0.19949015005E+02  0.39380497223E+02  0.41800000000E+01 0.  1.
        -11    1    4    4    0    0 -0.33498955168E+02 -0.28968988953E+02 -0.11538250806E+02  0.45765855722E+02  0.00000000000E+00 0.  1.
         11    1    4    4    0    0 -0.50100536583E+02  0.47751029778E+02 -0.98550414094E+02  0.12042594707E+03  0.00000000000E+00 0. -1.
</event>
<event>
 8    1  0.7005395E-009  0.1177835E+03  0.7561462E-02  0.1246799E+00
         -1   -1    0    0    0  501 -0.00000000000E+00  0.00000000000E+00  0.45034222574E+02  0.45034222574E+02  0.00000000000E+00 0.  1.
          1   -1    0    0  501    0  0.00000000000E+00 -0.00000000000E+00 -0.40611192858E+03  0.40611192858E+03  0.00000000000E+00 0. -1.
         25    2    1    2    0    0  0.63744810336E+02 -0.16502926141E+02 -0.12490731909E+03  0.18863946953E+03  0.12508902305E+03 0.  0.
         23    2    1    2    0    0 -0.63744810336E+02  0.16502926141E+02 -0.23617038691E+03  0.26250668162E+03  0.93795302783E+02 0.  0.
          5    1    3    3  502    0  0.39363859206E+02 -0.70456817860E+02 -0.59776635518E+02  0.10052062051E+03  0.41800000000E+01 0.  1.
         -5    1    3    3    0  502  0.24380951130E+02  0.53953891719E+02 -0.65130683569E+02  0.88118849015E+02  0.41800000000E+01 0.  1.
        -11    1    4    4    0    0 -0.37426034013E+02 -0.25883450833E+02 -0.18699896884E+03  0.19245590507E+03  0.00000000000E+00 0. -1.
         11    1    4    4    0    0 -0.26318776323E+02  0.42386376974E+02 -0.49171418079E+02  0.70050776555E+02  0.00000000000E+00 0.  1.
</event>
<event>
 8    1  0.7005395E-009  0.1032745E+03  0.7561462E-02  0.1273557E+00
         -1   -1    0    0    0  501 -0.00000000000E+00  0.00000000000E+00  0.20795890010E+03  0.20795890010E+03  0.00000000000E+00 0.  1.
          1   -1    0    0  501    0  0.00000000000E+00 -0.00000000000E+00 -0.86680286875E+02  0.86680286875E+02  0.00000000000E+00 0. -1.
         25    2    1    2    0    0  0.58113538858E+02 -0.93313548993E+00  0.12970123468E+03  0.18933615771E+03  0.12509083179E+03 0.  0.
         23    2    1    2    0    0 -0.58113538858E+02  0.93313548993E+00 -0.84226214590E+01  0.10530302926E+03  0.87405567779E+02 0.  0.
          5    1    3    3  502    0 -0.25497920244E+02 -0.26559554744E+02  0.56217567090E+01  0.37478399559E+02  0.41800000000E+01 0.  1.
         -5    1    3    3    0  502  0.83611459102E+02  0.25626419254E+02  0.12407947797E+03  0.15185775815E+03  0.41800000000E+01 0.  1.
        -11    1    4    4    0    0 -0.51230919694E+02 -0.23642500219E+02 -0.36624665692E+02  0.67267682332E+02  0.00000000000E+00 0. -1.
         11    1    4    4    0    0 -0.68826191634E+01  0.24575635709E+02  0.28202044233E+02  0.38035346928E+02  0.00000000000E+00 0.  1.
</event>
<event>
 8    1  0.7005395E-009  0.1406068E+03  0.7561462E-02  0.1212515E+00
         -2   -1    0    0    0  501 -0.00000000000E+00  0.00000000000E+00  0.18379539969E+03  0.18379539969E+03  0.00000000000E+00 0.  1.
          2   -1    0    0  501    0  0.00000000000E+00 -0.00000000000E+00 -0.12079577743E+03  0.12079577743E+03  0.00000000000E+00 0. -1.
         25    2    1    2    0    0  0.60205909456E+02  0.79479308537E+02  0.29663414989E+02  0.16269148927E+03  0.12508753124E+03 0.  0.
         23    2    1    2    0    0 -0.60205909456E+02 -0.79479308537E+02  0.33336207277E+02  0.14189968785E+03  0.95302186116E+02 0.  0.
          5    1    3    3  502    0 -0.36590234574E+02  0.28988382783E+02  0.25505734653E+02  0.53359033937E+02  0.41800000000E+01 0. -1.
         -5    1    3    3    0  502  0.96796144029E+02  0.50490925754E+02  0.41576803357E+01  0.10933245533E+03  0.41800000000E+01 0. -1.
        -11    1    4    4    0    0 -0.62294114394E+02 -0.92711449941E+02  0.48408500486E+02  0.12173476314E+03  0.00000000000E+00 0.  1.
         11    1    4    4    0    0  0.20882049383E+01  0.13232141404E+02 -0.15072293209E+02  0.20164924710E+02  0.00000000000E+00 0. -1.
</event>
<event>
 8    1  0.7005395E-009  0.1024297E+03  0.7561462E-02  0.1275268E+00
          1   -1    0    0  501    0  0.00000000000E+00  0.00000000000E+00  0.69498379037E+02  0.69498379037E+02  0.00000000000E+00 0. -1.
         -1   -1    0    0    0  501 -0.00000000000E+00 -0.00000000000E+00 -0.21051712057E+03  0.21051712057E+03  0.00000000000E+00 0.  1.
         25    2    1    2    0    0  0.29385020869E+02  0.41213454234E+02 -0.57657044482E+02  0.14674442503E+03  0.12509022040E+03 0.  0.
         23    2    1    2    0    0 -0.29385020869E+02 -0.41213454234E+02 -0.83361697056E+02  0.13327107458E+03  0.90829392390E+02 0.  0.
          5    1    3    3  502    0  0.65541030883E+02  0.31822310566E+02  0.55675577170E+01  0.73189864585E+02  0.41800000000E+01 0.  1.
         -5    1    3    3    0  502 -0.36156010014E+02  0.93911436671E+01 -0.63224602199E+02  0.73554560448E+02  0.41800000000E+01 0.  1.
        -11    1    4    4    0    0  0.68544299472E+01 -0.55069760541E+02 -0.20027815129E+02  0.58998094163E+02  0.00000000000E+00 0. -1.
         11    1    4    4    0    0 -0.36239450816E+02  0.13856306308E+02 -0.63333881926E+02  0.74272980415E+02  0.00000000000E+00 0.  1.
</event>
<event>
 8    1  0.7005395E-009  0.1007812E+03  0.7561462E-02  0.1278662E+00
         -1   -1    0    0    0  501 -0.00000000000E+00  0.00000000000E+00  0.24944287534E+03  0.24944287534E+03  0.00000000000E+00 0.  1.
          1   -1    0    0  501    0  0.00000000000E+00 -0.00000000000E+00 -0.68957807298E+02  0.68957807298E+02  0.00000000000E+00 0. -1.
         25    2    1    2    0    0 -0.41501949842E+02 -0.26372958305E+02  0.16507026077E+03  0.21287096946E+03  0.12509162193E+03 0.  0.
         23    2    1    2    0    0  0.41501949842E+02  0.26372958305E+02  0.15414807269E+02  0.10552971318E+03  0.92092124039E+02 0.  0.
          5    1    3    3  502    0 -0.73753697688E+02  0.15933991662E+02  0.12527503981E+03  0.14630382091E+03  0.41800000000E+01 0.  1.
         -5    1    3    3    0  502  0.32251747846E+02 -0.42306949967E+02  0.39795220960E+02  0.66567148549E+02  0.41800000000E+01 0.  1.
        -11    1    4    4    0    0  0.64239452261E+01  0.35747486077E+02  0.45610871891E+02  0.58305243913E+02  0.00000000000E+00 0.  1.
         11    1    4    4    0    0  0.35078004615E+02 -0.93745277719E+01 -0.30196064622E+02  0.47224469266E+02  0.00000000000E+00 0. -1.
</event>
<event>
 8    1  0.7005395E-009  0.1789664E+03  0.7561462E-02  0.1168807E+00
         -2   -1    0    0    0  501 -0.00000000000E+00  0.00000000000E+00  0.57655725259E+03  0.57655725259E+03  0.00000000000E+00 0.  1.
          2   -1    0    0  501    0  0.00000000000E+00 -0.00000000000E+00 -0.81070002488E+02  0.81070002488E+02  0.00000000000E+00 0. -1.
         25    2    1    2    0    0  0.67407826624E+02  0.15555017336E+03  0.13648304396E+03  0.25102314581E+03  0.12508128125E+03 0.  0.
         23    2    1    2    0    0 -0.67407826624E+02 -0.15555017336E+03  0.35900420614E+03  0.40660410927E+03  0.87767933363E+02 0.  0.
          5    1    3    3  502    0  0.12248351325E+02  0.12240772589E+03  0.14003051006E+03  0.18643950658E+03  0.41800000000E+01 0.  1.
         -5    1    3    3    0  502  0.55159475299E+02  0.33142447470E+02 -0.35474660979E+01  0.64583639223E+02  0.41800000000E+01 0.  1.
        -11    1    4    4    0    0 -0.38472447321E+02 -0.10852315534E+03  0.14267811135E+03  0.18334243346E+03  0.00000000000E+00 0. -1.
         11    1    4    4    0    0 -0.28935379304E+02 -0.47027018017E+02  0.21632609479E+03  0.22326167581E+03  0.00000000000E+00 0.  1.
</event>
<event>
 8    1  0.7005395E-009  0.1590119E+03  0.7561462E-02  0.1189817E+00
         -2   -1    0    0    0  501 -0.00000000000E+00  0.00000000000E+00  0.51113584331E+02  0.51113584331E+02  0.00000000000E+00 0.  1.
          2   -1    0    0  501    0  0.00000000000E+00 -0.00000000000E+00 -0.72151361368E+03  0.72151361368E+03  0.00000000000E+00 0. -1.
         25    2    1    2    0    0 -0.14007295812E+03  0.45895036702E+02 -0.23461108059E+03  0.30400153632E+03  0.12509111463E+03 0.  0.
         23    2    1    2    0    0  0.14007295812E+03 -0.45895036702E+02 -0.43578894876E+03  0.46862566169E+03  0.89281660748E+02 0.  0.
          5    1    3    3  502    0 -0.37195320160E+02  0.47903629773E+02 -0.16798374596E+02  0.63070653844E+02  0.41800000000E+01 0. -1.
         -5    1    3    3    0  502 -0.10287763796E+03 -0.20085930711E+01 -0.21781270599E+03  0.24093088248E+03  0.41800000000E+01 0. -1.
        -11    1    4    4    0    0  0.38484998638E+02  0.79142774562E+01 -0.22613092573E+03  0.22951890223E+03  0.00000000000E+00 0. -1.
         11    1    4    4    0    0  0.10158795948E+03 -0.53809314158E+02 -0.20965802303E+03  0.23910675947E+03  0.00000000000E+00 0.  1.
</event>
<event>
 8    1  0.7005395E-009  0.1385714E+03  0.7561462E-02  0.1215264E+00
         -2   -1    0    0    0  501 -0.00000000000E+00  0.00000000000E+00  0.38852034575E+03  0.38852034575E+03  0.00000000000E+00 0.  1.
          2   -1    0    0  501    0  0.00000000000E+00 -0.00000000000E+00 -0.73011948808E+02  0.73011948808E+02  0.00000000000E+00 0. -1.
         25    2    1    2    0    0  0.22653346331E+02 -0.12526204730E+03  0.19231251678E+03  0.26236570924E+03  0.12509159317E+03 0.  0.
         23    2    1    2    0    0 -0.22653346331E+02  0.12526204730E+03  0.12319588016E+03  0.19916658531E+03  0.91029386593E+02 0.  0.
          5    1    3    3  502    0 -0.25055720141E+02 -0.43495412770E+02  0.15065743209E+03  0.15885456962E+03  0.41800000000E+01 0. -1.
         -5    1    3    3    0  502  0.47709066472E+02 -0.81766634530E+02  0.41655084692E+02  0.10351113963E+03  0.41800000000E+01 0. -1.
        -11    1    4    4    0    0 -0.15681309242E+02  0.15563958522E+02  0.76698260763E+02  0.79817062514E+02  0.00000000000E+00 0.  1.
         11    1    4    4    0    0 -0.69720370895E+01  0.10969808878E+03  0.46497619394E+02  0.11934952280E+03  0.00000000000E+00 0. -1.
</event>
<event>
 8    1  0.7005395E-009  0.1145166E+03  0.7561462E-02  0.1252427E+00
          3   -1    0    0  501    0  0.00000000000E+00  0.00000000000E+00  0.14292701376E+03  0.14292701376E+03  0.00000000000E+00 0. -1.
         -3   -1    0    0    0  501 -0.00000000000E+00 -0.00000000000E+00 -0.15096211651E+03  0.15096211651E+03  0.00000000000E+00 0.  1.
         25    2    1    2    0    0 -0.91930826235E+02 -0.25446162745E+02  0.15599377520E+02  0.15808067240E+03  0.12508946557E+03 0.  0.
         23    2    1    2    0    0  0.91930826235E+02  0.25446162745E+02 -0.23634480264E+02  0.13580845788E+03  0.93736676722E+02 0.  0.
          5    1    3    3  502    0 -0.82424939697E+02 -0.48637088053E+02  0.55547688279E+02  0.11073597018E+03  0.41800000000E+01 0.  1.
         -5    1    3    3    0  502 -0.95058865380E+01  0.23190925309E+02 -0.39948310759E+02  0.47344702217E+02  0.41800000000E+01 0.  1.
        -11    1    4    4    0    0  0.73004511098E+02 -0.36741138709E+01 -0.53030873482E+02  0.90307426580E+02  0.00000000000E+00 0.  1.
         11    1    4    4    0    0  0.18926315137E+02  0.29120276616E+02  0.29396393217E+02  0.45501031296E+02  0.00000000000E+00 0. -1.
</event>
<event>
 8    1  0.7005395E-009  0.1261207E+03  0.7561462E-02  0.1233328E+00
         -2   -1    0    0    0  501 -0.00000000000E+00  0.00000000000E+00  0.31287157978E+02  0.31287157978E+02  0.00000000000E+00 0.  1.
          2   -1    0    0  501    0  0.00000000000E+00 -0.00000000000E+00 -0.69618912595E+03  0.69618912595E+03  0.00000000000E+00 0. -1.
         25    2    1    2    0    0  0.33671880381E+02  0.65059562152E+02 -0.52657959380E+03  0.54616879226E+03  0.12509092244E+03 0.  0.
         23    2    1    2    0    0 -0.33671880381E+02 -0.65059562152E+02 -0.13832237418E+03  0.18130749167E+03  0.91502924449E+02 0.  0.
          5    1    3    3  502    0  0.14491681500E+01 -0.33086190354E+02 -0.22261170567E+03  0.22510051085E+03  0.41800000000E+01 0.  1.
         -5    1    3    3    0  502  0.32222712231E+02  0.98145752506E+02 -0.30396788812E+03  0.32106828141E+03  0.41800000000E+01 0.  1.
        -11    1    4    4    0    0  0.26654931286E+02 -0.44255862689E+02 -0.46625962810E+02  0.69592004944E+02  0.00000000000E+00 0. -1.
         11    1    4    4    0    0 -0.60326811667E+02 -0.20803699463E+02 -0.91696411370E+02  0.11171548673E+03  0.00000000000E+00 0.  1.
</event>
<event>
 8    1  0.7005395E-009  0.1138909E+03  0.7561462E-02  0.1253530E+00
         -1   -1    0    0    0  501 -0.00000000000E+00  0.00000000000E+00  0.32305398130E+02  0.32305398130E+02  0.00000000000E+00 0.  1.
          1   -1    0    0  501    0  0.00000000000E+00 -0.00000000000E+00 -0.52254542330E+03  0.52254542330E+03  0.00000000000E+00 0. -1.
         25    2    1    2    0    0 -0.38113378536E+02 -0.45685924349E+02 -0.35428995376E+03  0.38040641903E+03  0.12509132264E+03 0.  0.
         23    2    1    2    0    0  0.38113378536E+02  0.45685924349E+02 -0.13595007141E+03  0.17444440240E+03  0.91698387684E+02 0.  0.
          5    1    3    3  502    0  0.44167983173E+02 -0.74101470995E+01 -0.84401222776E+02  0.95638694176E+02  0.41800000000E+01 0. -1.
         -5    1    3    3    0  502 -0.82281361710E+02 -0.38275777250E+02 -0.26988873098E+03  0.28476772486E+03  0.41800000000E+01 0. -1.
        -11    1    4    4    0    0  0.53396758933E+02  0.11657784331E+02 -0.12360953323E+03  0.13515337401E+03  0.00000000000E+00 0. -1.
         11    1    4    4    0    0 -0.15283380397E+02  0.34028140018E+02 -0.12340538183E+02  0.39291028392E+02  0.00000000000E+00 0.  1.
</event>
<event>
 8    1  0.7005395E-009  0.9430543E+02  0.7561462E-02  0.1292748E+00
          4   -1    0    0  501    0  0.00000000000E+00  0.00000000000E+00  0.41986080688E+03  0.41986080688E+03  0.00000000000E+00 0. -1.
         -4   -1    0    0    0  501 -0.00000000000E+00 -0.00000000000E+00 -0.34905189950E+02  0.34905189950E+02  0.00000000000E+00 0.  1.
         25    2    1    2    0    0 -0.39558332861E+02  0.32672575555E+02  0.24903467550E+03  0.28336933530E+03  0.12509017426E+03 0.  0.
         23    2    1    2    0    0  0.39558332861E+02 -0.32672575555E+02  0.13592094143E+03  0.17139666153E+03  0.90939289485E+02 0.  0.
          5    1    3    3  502    0 -0.81262671784E+01  0.53998335476E+02  0.23708981108E+03  0.24333291469E+03  0.41800000000E+01 0. -1.
         -5    1    3    3    0  502 -0.31432065682E+02 -0.21325759921E+02  0.11944864415E+02  0.40036420609E+02  0.41800000000E+01 0. -1.
        -11    1    4    4    0    0 -0.16622352652E+02 -0.35688959611E+02  0.23941977327E+02  0.46078440991E+02  0.00000000000E+00 0.  1.
         11    1    4    4    0    0  0.56180685513E+02  0.30163840553E+01  0.11197896410E+03  0.12531822054E+03  0.00000000000E+00 0. -1.
</event>
<event>
 8    1  0.7005395E-009  0.8780835E+02  0.7561462E-02  0.1308248E+00
          1   -1    0    0  501    0  0.00000000000E+00  0.00000000000E+00  0.62799821020E+02  0.62799821020E+02  0.00000000000E+00 0. -1.
         -1   -1    0    0    0  501 -0.00000000000E+00 -0.00000000000E+00 -0.19774195689E+03  0.19774195689E+03  0.00000000000E+00 0.  1.
         25    2    1    2    0    0 -0.15164932054E+02 -0.16169411933E+02 -0.56205032129E+02  0.13891858201E+03  0.12509173332E+03 0.  0.
         23    2    1    2    0    0  0.15164932054E+02  0.16169411933E+02 -0.78737103737E+02  0.12162319589E+03  0.90006917669E+02 0.  0.
          5    1    3    3  502    0  0.51990825477E+02  0.12897224356E+02 -0.24856597594E+02  0.59200567344E+02  0.41800000000E+01 0. -1.
         -5    1    3    3    0  502 -0.67155757531E+02 -0.29066636289E+02 -0.31348434535E+02  0.79718014667E+02  0.41800000000E+01 0. -1.
        -11    1    4    4    0    0  0.29505126973E+01 -0.14909525236E+02 -0.86097441472E+02  0.87428650316E+02  0.00000000000E+00 0.  1.
         11    1    4    4    0    0  0.12214419357E+02  0.31078937169E+02  0.73603377356E+01  0.34194545579E+02  0.00000000000E+00 0. -1.
</event>
<event>
 8    1  0.7005395E-009  0.8876479E+02  0.7561462E-02  0.1305871E+00
          1   -1    0    0  501    0  0.00000000000E+00  0.00000000000E+00  0.11695590850E+03  0.11695590850E+03  0.00000000000E+00 0. -1.
         -1   -1    0    0    0  501 -0.00000000000E+00 -0.00000000000E+00 -0.15881353713E+03  0.15881353713E+03  0.00000000000E+00 0.  1.
         25    2    1    2    0    0 -0.35366056758E+02 -0.75856962918E+02 -0.31424704622E+02  0.15375283692E+03  0.12508951198E+03 0.  0.
         23    2    1    2    0    0  0.35366056758E+02  0.75856962918E+02 -0.10432923999E+02  0.12201660871E+03  0.88171254413E+02 0.  0.
          5    1    3    3  502    0 -0.63075674750E+01 -0.21963153520E+02 -0.74980438430E+02  0.78496522643E+02  0.41800000000E+01 0. -1.
         -5    1    3    3    0  502 -0.29058489284E+02 -0.53893809397E+02  0.43555733807E+02  0.75256314275E+02  0.41800000000E+01 0. -1.
        -11    1    4    4    0    0  0.14457880178E+02  0.69626339648E+02  0.29122270029E+02  0.76843764117E+02  0.00000000000E+00 0. -1.
         11    1    4    4    0    0  0.20908176580E+02  0.62306232702E+01 -0.39555194029E+02  0.45172844596E+02  0.00000000000E+00 0.  1.
</event>
<event>
 8    1  0.7005395E-009  0.1015380E+03  0.7561462E-02  0.1277095E+00
          2   -1    0    0  501    0  0.00000000000E+00  0.00000000000E+00  0.18584292497E+03  0.18584292497E+03  0.00000000000E+00 0. -1.
         -2   -1    0    0    0  501 -0.00000000000E+00 -0.00000000000E+00 -0.84568266623E+02  0.84568266623E+02  0.00000000000E+00 0.  1.
         25    2    1    2    0    0  0.51066324297E+02 -0.37184383872E+02  0.53245262659E+02  0.14991558358E+03  0.12509666792E+03 0.  0.
         23    2    1    2    0    0 -0.51066324297E+02  0.37184383872E+02  0.48029395688E+02  0.12049560801E+03  0.90674808071E+02 0.  0.
          5    1    3    3  502    0  0.78785748964E+02 -0.11290794815E+02  0.71989080116E+02  0.10739914498E+03  0.41800000000E+01 0.  1.
         -5    1    3    3    0  502 -0.27719424667E+02 -0.25893589058E+02 -0.18743817457E+02  0.42516438598E+02  0.41800000000E+01 0.  1.
        -11    1    4    4    0    0  0.84284018453E+01  0.22366346439E+02 -0.18349717631E+02  0.30133097217E+02  0.00000000000E+00 0. -1.
         11    1    4    4    0    0 -0.59494726142E+02  0.14818037433E+02  0.66379113320E+02  0.90362510795E+02  0.00000000000E+00 0.  1.
</event>
<event>
 8    1  0.7005395E-009  0.1383488E+03  0.7561462E-02  0.1215568E+00
          1   -1    0    0  501    0  0.00000000000E+00  0.00000000000E+00  0.58597073633E+02  0.58597073633E+02  0.00000000000E+00 0. -1.
         -1   -1    0    0    0  501 -0.00000000000E+00 -0.00000000000E+00 -0.46480728934E+03  0.46480728934E+03  0.00000000000E+00 0.  1.
         25    2    1    2    0    0 -0.59463280328E+02  0.92886982459E+02 -0.30712920013E+03  0.34948444777E+03  0.12508861036E+03 0.  0.
         23    2    1    2    0    0  0.59463280328E+02 -0.92886982459E+02 -0.99081015585E+02  0.17391991521E+03  0.90924232413E+02 0.  0.
          5    1    3    3  502    0 -0.64971424633E+02 -0.75635133525E+01 -0.13497236753E+03  0.15004501041E+03  0.41800000000E+01 0.  1.
         -5    1    3    3    0  502  0.55081443051E+01  0.10045049581E+03 -0.17215683260E+03  0.19943943736E+03  0.41800000000E+01 0.  1.
        -11    1    4    4    0    0  0.17304024063E+02 -0.22005797595E+02 -0.85969602650E+02  0.90412703512E+02  0.00000000000E+00 0.  1.
         11    1    4    4    0    0  0.42159256265E+02 -0.70881184864E+02 -0.13111412935E+02  0.83507211699E+02  0.00000000000E+00 0. -1.
</event>
<event>
 8    1  0.7005395E-009  0.1351508E+03  0.7561462E-02  0.1220007E+00
         -2   -1    0    0    0  501 -0.00000000000E+00  0.00000000000E+00  0.32815239430E+03  0.32815239430E+03  0.00000000000E+00 0.  1.
          2   -1    0    0  501    0  0.00000000000E+00 -0.00000000000E+00 -0.64551404275E+02  0.64551404275E+02  0.00000000000E+00 0. -1.
         25    2    1    2    0    0  0.13161230183E+02  0.88980950062E+02  0.19696238974E+03  0.25006270317E+03  0.12508535123E+03 0.  0.
         23    2    1    2    0    0 -0.13161230183E+02 -0.88980950062E+02  0.66638600283E+02  0.14264109540E+03  0.88402214881E+02 0.  0.
          5    1    3    3  502    0 -0.39147793897E+02  0.82832035066E+02  0.16366843610E+03  0.18761269993E+03  0.41800000000E+01 0. -1.
         -5    1    3    3    0  502  0.52309024080E+02  0.61489149950E+01  0.33293953644E+02  0.62450003243E+02  0.41800000000E+01 0. -1.
        -11    1    4    4    0    0 -0.25111916585E+02 -0.10375571795E+03  0.60322819448E+02  0.12261606708E+03  0.00000000000E+00 0. -1.
         11    1    4    4    0    0  0.11950686402E+02  0.14774767885E+02  0.63157808351E+01  0.20025028317E+02  0.00000000000E+00 0.  1.
</event>
<event>
 8    1  0.7005395E-009  0.1101014E+03  0.7561462E-02  0.1260382E+00
          2   -1    0    0  501    0  0.00000000000E+00  0.00000000000E+00  0.15674471941E+03  0.15674471941E+03  0.00000000000E+00 0. -1.
         -2   -1    0    0    0  501 -0.00000000000E+00 -0.00000000000E+00 -0.12507197598E+03  0.12507197598E+03  0.00000000000E+00 0.  1.
         25    2    1    2    0    0 -0.83347895474E+02 -0.23443267826E+02 -0.92553008044E+01  0.15241349979E+03  0.12509099024E+03 0.  0.
         23    2    1    2    0    0  0.83347895474E+02  0.23443267826E+02  0.40928044239E+02  0.12940319560E+03  0.87026569156E+02 0.  0.
          5    1    3    3  502    0 -0.33779367413E+02  0.26729361151E+02  0.45673249774E+02  0.62920764103E+02  0.41800000000E+01 0. -1.
         -5    1    3    3    0  502 -0.49568528061E+02 -0.50172628977E+02 -0.54928550578E+02  0.89492735690E+02  0.41800000000E+01 0. -1.
        -11    1    4    4    0    0  0.41342756948E+02 -0.19927287392E+02 -0.13788345524E+02  0.47921172848E+02  0.00000000000E+00 0.  1.
         11    1    4    4    0    0  0.42005138526E+02  0.43370555218E+02  0.54716389763E+02  0.81482022749E+02  0.00000000000E+00 0. -1.
</event>
<event>
 8    1  0.7005395E-009  0.6853001E+02  0.7561462E-02  0.1365164E+00
          2   -1    0    0  501    0  0.00000000000E+00  0.00000000000E+00  0.97598617495E+03  0.97598617495E+03  0.00000000000E+00 0.  1.
         -2   -1    0    0    0  501 -0.00000000000E+00 -0.00000000000E+00 -0.18819761133E+02  0.18819761133E+02  0.00000000000E+00 0. -1.
         25    2    1    2    0    0  0.17723316436E+02 -0.37605362397E+02  0.77932838555E+03  0.79039744311E+03  0.12508839404E+03 0.  0.
         23    2    1    2    0    0 -0.17723316436E+02  0.37605362397E+02  0.17783802826E+03  0.20440849297E+03  0.91805165839E+02 0.  0.
          5    1    3    3  502    0 -0.83635766337E+01 -0.22580041387E+02  0.74135903817E+03  0.74176175661E+03  0.41800000000E+01 0.  1.
         -5    1    3    3    0  502  0.26086893069E+02 -0.15025321010E+02  0.37969347378E+02  0.48635686505E+02  0.41800000000E+01 0.  1.
        -11    1    4    4    0    0 -0.39112633818E+02  0.44975678209E+02  0.17051047358E+03  0.18062788089E+03  0.00000000000E+00 0.  1.
         11    1    4    4    0    0  0.21389317382E+02 -0.73703158113E+01  0.73275546844E+01  0.23780612080E+02  0.00000000000E+00 0. -1.
</event>
<event>
 8    1  0.7005395E-009  0.1798947E+03  0.7561462E-02  0.1167905E+00
          2   -1    0    0  501    0  0.00000000000E+00  0.00000000000E+00  0.43401196164E+03  0.43401196164E+03  0.00000000000E+00 0. -1.
         -2   -1    0    0    0  501 -0.00000000000E+00 -0.00000000000E+00 -0.10609356623E+03  0.10609356623E+03  0.00000000000E+00 0.  1.
         25    2    1    2    0    0 -0.11451918082E+03 -0.87005178597E+02  0.31632261875E+03  0.36930827598E+03  0.12507621554E+03 0.  0.
         23    2    1    2    0    0  0.11451918082E+03  0.87005178597E+02  0.11595776667E+02  0.17079725190E+03  0.91393081466E+02 0.  0.
          5    1    3    3  502    0 -0.76769978044E+02 -0.11850256947E+03  0.23394129312E+03  0.27328097176E+03  0.41800000000E+01 0.  1.
         -5    1    3    3    0  502 -0.37749202781E+02  0.31497390877E+02  0.82381325623E+02  0.96027304211E+02  0.41800000000E+01 0.  1.
        -11    1    4    4    0    0  0.94035903183E+02  0.16124054377E+02  0.16619697245E+02  0.96844982077E+02  0.00000000000E+00 0. -1.
         11    1    4    4    0    0  0.20483277642E+02  0.70881124220E+02 -0.50239205781E+01  0.73952269820E+02  0.00000000000E+00 0.  1.
</event>
<event>
 8    1  0.7005395E-009  0.1060611E+03  0.7561462E-02  0.1268043E+00
         -2   -1    0    0    0  501 -0.00000000000E+00  0.00000000000E+00  0.32722422267E+02  0.32722422267E+02  0.00000000000E+00 0. -1.
          2   -1    0    0  501    0  0.00000000000E+00 -0.00000000000E+00 -0.54780205542E+03  0.54780205542E+03  0.00000000000E+00 0.  1.
         25    2    1    2    0    0 -0.61749117879E+02  0.47864080704E+02 -0.30181414327E+03  0.33592629250E+03  0.12510305006E+03 0.  0.
         23    2    1    2    0    0  0.61749117879E+02 -0.47864080704E+02 -0.21326548988E+03  0.24459818519E+03  0.90786448564E+02 0.  0.
          5    1    3    3  502    0 -0.92778827925E+02  0.30757496958E+02 -0.14373662843E+03  0.17387243969E+03  0.41800000000E+01 0. -1.
         -5    1    3    3    0  502  0.31029710047E+02  0.17106583746E+02 -0.15807751484E+03  0.16205385281E+03  0.41800000000E+01 0. -1.
        -11    1    4    4    0    0  0.41552481085E+02 -0.26897083950E+02 -0.20947097742E+03  0.21523975513E+03  0.00000000000E+00 0.  1.
         11    1    4    4    0    0  0.20196636793E+02 -0.20966996753E+02 -0.37945124663E+01  0.29358430058E+02  0.00000000000E+00 0. -1.
</event>
<event>
 8    1  0.7005395E-009  0.1124672E+03  0.7561462E-02  0.1256068E+00
         -2   -1    0    0    0  501 -0.00000000000E+00  0.00000000000E+00  0.15179526901E+03  0.15179526901E+03  0.00000000000E+00 0.  1.
          2   -1    0    0  501    0  0.00000000000E+00 -0.00000000000E+00 -0.29074591042E+03  0.29074591042E+03  0.00000000000E+00 0. -1.
         25    2    1    2    0    0  0.69123571106E+02  0.62929953735E+02 -0.23332405285E+03  0.28076315277E+03  0.12509830996E+03 0.  0.
         23    2    1    2    0    0 -0.69123571106E+02 -0.62929953735E+02  0.94373411441E+02  0.16177802666E+03  0.92344691044E+02 0.  0.
          5    1    3    3  502    0  0.31911809497E+02  0.28001774633E+02 -0.22484806895E+03  0.22885932247E+03  0.41800000000E+01 0.  1.
         -5    1    3    3    0  502  0.37211761609E+02  0.34928179101E+02 -0.84759838998E+01  0.51903830306E+02  0.41800000000E+01 0.  1.
        -11    1    4    4    0    0 -0.59898757535E+02 -0.86808357279E+02  0.71227876968E+02  0.12726728765E+03  0.00000000000E+00 0.  1.
         11    1    4    4    0    0 -0.92248135710E+01  0.23878403545E+02  0.23145534473E+02  0.34510739014E+02  0.00000000000E+00 0. -1.
</event>
<event>
 8    1  0.7005395E-009  0.7456239E+02  0.7561462E-02  0.1345232E+00
         -2   -1    0    0    0  501 -0.00000000000E+00  0.00000000000E+00  0.66699243427E+02  0.66699243427E+02  0.00000000000E+00 0.  1.
          2   -1    0    0  501    0  0.00000000000E+00 -0.00000000000E+00 -0.21665344370E+03  0.21665344370E+03  0.00000000000E+00 0. -1.
         25    2    1    2    0    0 -0.34083154807E+02  0.11057128803E+02 -0.37385358542E+02  0.13538124656E+03  0.12508595184E+03 0.  0.
         23    2    1    2    0    0  0.34083154807E+02 -0.11057128803E+02 -0.11256884173E+03  0.14797144057E+03  0.89106013022E+02 0.  0.
          5    1    3    3  502    0  0.23417499093E+02  0.16560100082E+01 -0.66115722688E+02  0.70284299950E+02  0.41800000000E+01 0. -1.
         -5    1    3    3    0  502 -0.57500653900E+02  0.94011187950E+01  0.28730364146E+02  0.65096946607E+02  0.41800000000E+01 0. -1.
        -11    1    4    4    0    0  0.22683965034E+02 -0.34216601699E+02 -0.10066740790E+02  0.42269106586E+02  0.00000000000E+00 0.  1.
         11    1    4    4    0    0  0.11399189774E+02  0.23159472895E+02 -0.10250210094E+03  0.10570233398E+03  0.00000000000E+00 0. -1.
</event>
<event>
 8    1  0.7005395E-009  0.1068706E+03  0.7561462E-02  0.1266477E+00
         -2   -1    0    0    0  501 -0.00000000000E+00  0.00000000000E+00  0.94723878922E+02  0.94723878922E+02  0.00000000000E+00 0.  1.
          2   -1    0    0  501    0  0.00000000000E+00 -0.00000000000E+00 -0.24948909706E+03  0.24948909706E+03  0.00000000000E+00 0. -1.
         25    2    1    2    0    0  0.72385329278E+01 -0.72856773602E+02 -0.17282835667E+03  0.22555826328E+03  0.12508550454E+03 0.  0.
         23    2    1    2    0    0 -0.72385329278E+01  0.72856773602E+02  0.18063138540E+02  0.11865471270E+03  0.91608722577E+02 0.  0.
          5    1    3    3  502    0 -0.65961662437E+01 -0.80005516652E+02 -0.18734481588E+03  0.20386256287E+03  0.41800000000E+01 0.  1.
         -5    1    3    3    0  502  0.13834699172E+02  0.71487430501E+01  0.14516459207E+02  0.21695700410E+02  0.41800000000E+01 0.  1.
        -11    1    4    4    0    0 -0.45504028066E+02  0.15090304646E+02  0.89118778341E+01  0.48762233656E+02  0.00000000000E+00 0.  1.
         11    1    4    4    0    0  0.38265495138E+02  0.57766468956E+02  0.91512607056E+01  0.69892479040E+02  0.00000000000E+00 0. -1.
</event>
<event>
 8    1  0.7005395E-009  0.3979107E+03  0.7561462E-02  0.1044506E+00
          1   -1    0    0  501    0  0.00000000000E+00  0.00000000000E+00  0.40562084600E+03  0.40562084600E+03  0.00000000000E+00 0. -1.
         -1   -1    0    0    0  501 -0.00000000000E+00 -0.00000000000E+00 -0.76747227439E+03  0.76747227439E+03  0.00000000000E+00 0.  1.
         25    2    1    2    0    0  0.34256863276E+03 -0.17910795698E+03 -0.58996486872E+03  0.71633730513E+03  0.12509060711E+03 0.  0.
         23    2    1    2    0    0 -0.34256863276E+03  0.17910795698E+03  0.22811344033E+03  0.45675581526E+03  0.84600264282E+02 0.  0.
          5    1    3    3  502    0  0.13246156908E+03 -0.14796806341E+02 -0.14076894571E+03  0.19390302018E+03  0.41800000000E+01 0. -1.
         -5    1    3    3    0  502  0.21010706368E+03 -0.16431115064E+03 -0.44919592301E+03  0.52243428494E+03  0.41800000000E+01 0. -1.
        -11    1    4    4    0    0 -0.31872627985E+03  0.13616633482E+03  0.20044555645E+03  0.40038248377E+03  0.00000000000E+00 0.  1.
         11    1    4    4    0    0 -0.23842352902E+02  0.42941622158E+02  0.27667883876E+02  0.56373331493E+02  0.00000000000E+00 0. -1.
</event>
<event>
 8    1  0.7005395E-009  0.1742417E+03  0.7561462E-02  0.1173495E+00
          2   -1    0    0  501    0  0.00000000000E+00  0.00000000000E+00  0.11966446734E+03  0.11966446734E+03  0.00000000000E+00 0. -1.
         -2   -1    0    0    0  501 -0.00000000000E+00 -0.00000000000E+00 -0.27662962327E+03  0.27662962327E+03  0.00000000000E+00 0.  1.
         25    2    1    2    0    0 -0.14512357934E+03  0.97461844385E+01 -0.71207857716E+02  0.20462965358E+03  0.12508754828E+03 0.  0.
         23    2    1    2    0    0  0.14512357934E+03 -0.97461844385E+01 -0.85757298220E+02  0.19166443703E+03  0.90692341641E+02 0.  0.
          5    1    3    3  502    0 -0.62055387630E+02 -0.57637728701E+02 -0.31468480730E+02  0.90447313852E+02  0.41800000000E+01 0. -1.
         -5    1    3    3    0  502 -0.83068191707E+02  0.67383913140E+02 -0.39739376986E+02  0.11418233973E+03  0.41800000000E+01 0. -1.
        -11    1    4    4    0    0  0.59713219443E+02 -0.32863858174E+02  0.40443978476E+00  0.68160584811E+02  0.00000000000E+00 0. -1.
         11    1    4    4    0    0  0.85410359894E+02  0.23117673735E+02 -0.86161738005E+02  0.12350385222E+03  0.00000000000E+00 0.  1.
</event>
<event>
 8    1  0.7005395E-009  0.1043437E+03  0.7561462E-02  0.1271418E+00
         -2   -1    0    0    0  501 -0.00000000000E+00  0.00000000000E+00  0.11906047716E+03  0.11906047716E+03  0.00000000000E+00 0.  1.
          2   -1    0    0  501    0  0.00000000000E+00 -0.00000000000E+00 -0.10144319186E+03  0.10144319186E+03  0.00000000000E+00 0. -1.
         25    2    1    2    0    0 -0.90055074118E+01  0.20776860487E+02  0.16516233117E+02  0.12819116235E+03  0.12508961209E+03 0.  0.
         23    2    1    2    0    0  0.90055074118E+01 -0.20776860487E+02  0.11010521868E+01  0.92312506668E+02  0.89485247254E+02 0.  0.
          5    1    3    3  502    0 -0.71086433123E+01  0.68977689408E+02  0.33178714422E+02  0.76985413790E+02  0.41800000000E+01 0.  1.
         -5    1    3    3    0  502 -0.18968640995E+01 -0.48200828921E+02 -0.16662481305E+02  0.51205748557E+02  0.41800000000E+01 0.  1.
        -11    1    4    4    0    0 -0.10160514773E+02  0.32568054415E+02 -0.76341876368E+01  0.34959906317E+02  0.00000000000E+00 0.  1.
         11    1    4    4    0    0  0.19166022185E+02 -0.53344914902E+02  0.87352398237E+01  0.57352600351E+02  0.00000000000E+00 0. -1.
</event>
<event>
 8    1  0.7005395E-009  0.9304820E+02  0.7561462E-02  0.1295634E+00
          1   -1    0    0  501    0  0.00000000000E+00  0.00000000000E+00  0.34579449028E+03  0.34579449028E+03  0.00000000000E+00 0. -1.
         -1   -1    0    0    0  501 -0.00000000000E+00 -0.00000000000E+00 -0.41112298816E+02  0.41112298816E+02  0.00000000000E+00 0.  1.
         25    2    1    2    0    0 -0.12328117312E+02  0.30328715272E+02  0.11077306455E+03  0.17026581104E+03  0.12509181082E+03 0.  0.
         23    2    1    2    0    0  0.12328117312E+02 -0.30328715272E+02  0.19390912692E+03  0.21664097806E+03  0.90888670501E+02 0.  0.
          5    1    3    3  502    0 -0.59474522848E+02 -0.15978849725E+02  0.41162131485E+02  0.74191212249E+02  0.41800000000E+01 0.  1.
         -5    1    3    3    0  502  0.47146405537E+02  0.46307564997E+02  0.69610933064E+02  0.96074598792E+02  0.41800000000E+01 0.  1.
        -11    1    4    4    0    0 -0.29054216518E+01  0.12429001164E+02 -0.41698125691E+01  0.13427914275E+02  0.00000000000E+00 0.  1.
         11    1    4    4    0    0  0.15233538964E+02 -0.42757716435E+02  0.19807893949E+03  0.20321306378E+03  0.00000000000E+00 0. -1.
</event>
<event>
 8    1  0.7005395E-009  0.1381183E+03  0.7561462E-02  0.1215884E+00
          3   -1    0    0  501    0  0.00000000000E+00  0.00000000000E+00  0.20336572191E+03  0.20336572191E+03  0.00000000000E+00 0. -1.
         -3   -1    0    0    0  501 -0.00000000000E+00 -0.00000000000E+00 -0.23043276567E+03  0.23043276567E+03  0.00000000000E+00 0.  1.
         25    2    1    2    0    0 -0.89334274774E+02 -0.63841498343E+02  0.13801272319E+03  0.21622498359E+03  0.12509749080E+03 0.  0.
         23    2    1    2    0    0  0.89334274774E+02  0.63841498343E+02 -0.16507976695E+03  0.21757350399E+03  0.89613339520E+02 0.  0.
          5    1    3    3  502    0  0.75926906730E+01 -0.68744495157E+02  0.55776064688E+02  0.88948841242E+02  0.41800000000E+01 0.  1.
         -5    1    3    3    0  502 -0.96926965447E+02  0.49029968141E+01  0.82236658506E+02  0.12727614235E+03  0.41800000000E+01 0.  1.
        -11    1    4    4    0    0  0.11685201339E+02  0.78957526741E+01  0.10515126704E+02  0.17591325425E+02  0.00000000000E+00 0. -1.
         11    1    4    4    0    0  0.77649073435E+02  0.55945745669E+02 -0.17559489366E+03  0.19998217856E+03  0.00000000000E+00 0.  1.
</event>
<event>
 8    1  0.7005395E-009  0.1072850E+03  0.7561462E-02  0.1265682E+00
         -1   -1    0    0    0  501 -0.00000000000E+00  0.00000000000E+00  0.23682834244E+02  0.23682834244E+02  0.00000000000E+00 0.  1.
          1   -1    0    0  501    0  0.00000000000E+00 -0.00000000000E+00 -0.91704079330E+03  0.91704079330E+03  0.00000000000E+00 0. -1.
         25    2    1    2    0    0  0.73051781805E+02 -0.51257854484E+02 -0.34182562283E+03  0.37477540597E+03  0.12509163851E+03 0.  0.
         23    2    1    2    0    0 -0.73051781805E+02  0.51257854484E+02 -0.55153233623E+03  0.56594822158E+03  0.90252651640E+02 0.  0.
          5    1    3    3  502    0  0.13891394844E+02 -0.11741110472E+02 -0.27943329851E+03  0.28005582522E+03  0.41800000000E+01 0. -1.
         -5    1    3    3    0  502  0.59160386961E+02 -0.39516744012E+02 -0.62392324318E+02  0.94719580745E+02  0.41800000000E+01 0. -1.
        -11    1    4    4    0    0 -0.19881979133E+02  0.66435364887E+02 -0.35884962288E+03  0.36548871753E+03  0.00000000000E+00 0. -1.
         11    1    4    4    0    0 -0.53169802673E+02 -0.15177510403E+02 -0.19268271335E+03  0.20045950405E+03  0.00000000000E+00 0.  1.
</event>
<event>
 8    1  0.7005395E-009  0.1823683E+03  0.7561462E-02  0.1165531E+00
          2   -1    0    0  501    0  0.00000000000E+00  0.00000000000E+00  0.73357973193E+03  0.73357973193E+03  0.00000000000E+00 0. -1.
         -2   -1    0    0    0  501 -0.00000000000E+00 -0.00000000000E+00 -0.48072668415E+02  0.48072668415E+02  0.00000000000E+00 0.  1.
         25    2    1    2    0    0 -0.12184520003E+03  0.88535471921E+02  0.40526221563E+03  0.45007856892E+03  0.12509385369E+03 0.  0.
         23    2    1    2    0    0  0.12184520003E+03 -0.88535471921E+02  0.28024484789E+03  0.33157383142E+03  0.93376915549E+02 0.  0.
          5    1    3    3  502    0 -0.72452193761E+02  0.11161836074E+03  0.22229057698E+03  0.25911108014E+03  0.41800000000E+01 0. -1.
         -5    1    3    3    0  502 -0.49393006270E+02 -0.23082888820E+02  0.18297163864E+03  0.19096748878E+03  0.41800000000E+01 0. -1.
        -11    1    4    4    0    0  0.12018039308E+03 -0.37555169422E+02  0.20788514520E+03  0.24304310569E+03  0.00000000000E+00 0.  1.
         11    1    4    4    0    0  0.16648069562E+01 -0.50980302499E+02  0.72359702693E+02  0.88530725734E+02  0.00000000000E+00 0. -1.
</event>
<event>
 8    1  0.7005395E-009  0.2097426E+03  0.7561462E-02  0.1141770E+00
         -1   -1    0    0    0  501 -0.00000000000E+00  0.00000000000E+00  0.74665741634E+02  0.74665741634E+02  0.00000000000E+00 0.  1.
          1   -1    0    0  501    0  0.00000000000E+00 -0.00000000000E+00 -0.63762390812E+03  0.63762390812E+03  0.00000000000E+00 0. -1.
         25    2    1    2    0    0 -0.35535487504E+02 -0.17584053275E+03 -0.19552461745E+03  0.29336069882E+03  0.12509180530E+03 0.  0.
         23    2    1    2    0    0  0.35535487504E+02  0.17584053275E+03 -0.36743354904E+03  0.41892895094E+03  0.91166820406E+02 0.  0.
          5    1    3    3  502    0 -0.15414993619E+01 -0.18354252744E+03 -0.16428935968E+03  0.24637106507E+03  0.41800000000E+01 0. -1.
         -5    1    3    3    0  502 -0.33993988142E+02  0.77019946889E+01 -0.31235257764E+02  0.46989633746E+02  0.41800000000E+01 0. -1.
        -11    1    4    4    0    0  0.63700327453E+02  0.14825007964E+03 -0.28367119866E+03  0.32635129352E+03  0.00000000000E+00 0. -1.
         11    1    4    4    0    0 -0.28164839949E+02  0.27590453111E+02 -0.83762350385E+02  0.92577657425E+02  0.00000000000E+00 0.  1.
</event>
<event>
 8    1  0.7005395E-009  0.9906259E+02  0.7561462E-02  0.1282280E+00
         -1   -1    0    0    0  501 -0.00000000000E+00  0.00000000000E+00  0.73235154874E+02  0.73235154874E+02  0.00000000000E+00 0.  1.
          1   -1    0    0  501    0  0.00000000000E+00 -0.00000000000E+00 -0.23168253655E+03  0.23168253655E+03  0.00000000000E+00 0. -1.
         25    2    1    2    0    0 -0.71711680767E+02  0.42747371710E+01 -0.10591463583E+03  0.17895858825E+03  0.12508967858E+03 0.  0.
         23    2    1    2    0    0  0.71711680767E+02 -0.42747371710E+01 -0.52532745841E+02  0.12595910317E+03  0.89135670473E+02 0.  0.
          5    1    3    3  502    0 -0.28968726409E+02 -0.22635905136E+02 -0.12063565146E+03  0.12618242395E+03  0.41800000000E+01 0.  1.
         -5    1    3    3    0  502 -0.42742954358E+02  0.26910642307E+02  0.14721015628E+02  0.52776164295E+02  0.41800000000E+01 0.  1.
        -11    1    4    4    0    0 -0.22117757762E+01  0.29207074563E+02 -0.58884434954E-02  0.29290701448E+02  0.00000000000E+00 0.  1.
         11    1    4    4    0    0  0.73923456543E+02 -0.33481811734E+02 -0.52526857397E+02  0.96668401727E+02  0.00000000000E+00 0. -1.
</event>
<event>
 8    1  0.7005395E-009  0.8792694E+02  0.7561462E-02  0.1307951E+00
          1   -1    0    0  501    0  0.00000000000E+00  0.00000000000E+00  0.52108277475E+02  0.52108277475E+02  0.00000000000E+00 0. -1.
         -1   -1    0    0    0  501 -0.00000000000E+00 -0.00000000000E+00 -0.31653107340E+03  0.31653107340E+03  0.00000000000E+00 0.  1.
         25    2    1    2    0    0  0.86454431977E+01  0.29570193085E+02 -0.23674743272E+03  0.26953150381E+03  0.12509494250E+03 0.  0.
         23    2    1    2    0    0 -0.86454431977E+01 -0.29570193085E+02 -0.27675363212E+02  0.99107847070E+02  0.90040544283E+02 0.  0.
          5    1    3    3  502    0 -0.34407407040E+02  0.20247646779E+02 -0.14124301745E+02  0.42553556362E+02  0.41800000000E+01 0.  1.
         -5    1    3    3    0  502  0.43052850238E+02  0.93225463064E+01 -0.22262313097E+03  0.22697794745E+03  0.41800000000E+01 0.  1.
        -11    1    4    4    0    0 -0.35038639915E+02 -0.47887665733E+02 -0.30754334271E+02  0.66833852896E+02  0.00000000000E+00 0.  1.
         11    1    4    4    0    0  0.26393196717E+02  0.18317472648E+02  0.30789710590E+01  0.32273994174E+02  0.00000000000E+00 0. -1.
</event>
<event>
 8    1  0.7005395E-009  0.1425530E+03  0.7561462E-02  0.1209934E+00
         -2   -1    0    0    0  501 -0.00000000000E+00  0.00000000000E+00  0.16806071698E+03  0.16806071698E+03  0.00000000000E+00 0.  1.
          2   -1    0    0  501    0  0.00000000000E+00 -0.00000000000E+00 -0.16534806204E+03  0.16534806204E+03  0.00000000000E+00 0. -1.
         25    2    1    2    0    0  0.15217872271E+01 -0.12041544386E+03 -0.36950154669E+02  0.17752597623E+03  0.12509181967E+03 0.  0.
         23    2    1    2    0    0 -0.15217872271E+01  0.12041544386E+03  0.39662809608E+02  0.15588280279E+03  0.90686905245E+02 0.  0.
          5    1    3    3  502    0 -0.18397296083E+02 -0.27459826248E+01 -0.53659695962E+02  0.56945906741E+02  0.41800000000E+01 0. -1.
         -5    1    3    3    0  502  0.19919083310E+02 -0.11766946123E+03  0.16709541293E+02  0.12058006949E+03  0.41800000000E+01 0. -1.
        -11    1    4    4    0    0 -0.33168520788E+02  0.14711465107E+02  0.26134727964E+02  0.44716909358E+02  0.00000000000E+00 0. -1.
         11    1    4    4    0    0  0.31646733561E+02  0.10570397875E+03  0.13528081644E+02  0.11116589343E+03  0.00000000000E+00 0.  1.
</event>
<event>
 8    1  0.7005395E-009  0.3117929E+03  0.7561462E-02  0.1079490E+00
          2   -1    0    0  501    0  0.00000000000E+00  0.00000000000E+00  0.70354989857E+03  0.70354989857E+03  0.00000000000E+00 0. -1.
         -2   -1    0    0    0  501 -0.00000000000E+00 -0.00000000000E+00 -0.14996599619E+03  0.14996599619E+03  0.00000000000E+00 0.  1.
         25    2    1    2    0    0 -0.37119403310E+02  0.30277161924E+03  0.30611607925E+03  0.44989395700E+03  0.12509602332E+03 0.  0.
         23    2    1    2    0    0  0.37119403310E+02 -0.30277161924E+03  0.24746782313E+03  0.40362193776E+03  0.92853872525E+02 0.  0.
          5    1    3    3  502    0 -0.34232421409E+02  0.82416369779E+02  0.16657849574E+03  0.18902429559E+03  0.41800000000E+01 0. -1.
         -5    1    3    3    0  502 -0.28869819019E+01  0.22035524946E+03  0.13953758351E+03  0.26086966140E+03  0.41800000000E+01 0. -1.
        -11    1    4    4    0    0  0.56652531954E+02 -0.26824392393E+03  0.23748122443E+03  0.36271427330E+03  0.00000000000E+00 0.  1.
         11    1    4    4    0    0 -0.19533128643E+02 -0.34527695309E+02  0.99865986941E+01  0.40907664458E+02  0.00000000000E+00 0. -1.
</event>
<event>
 8    1  0.7005395E-009  0.2096377E+03  0.7561462E-02  0.1141853E+00
         -3   -1    0    0    0  501 -0.00000000000E+00  0.00000000000E+00  0.11716767917E+03  0.11716767917E+03  0.00000000000E+00 0.  1.
          3   -1    0    0  501    0  0.00000000000E+00 -0.00000000000E+00 -0.51880207937E+03  0.51880207937E+03  0.00000000000E+00 0. -1.
         25    2    1    2    0    0  0.18672315144E+03 -0.94031824808E+01 -0.56471423063E+02  0.23192742482E+03  0.12508938258E+03 0.  0.
         23    2    1    2    0    0 -0.18672315144E+03  0.94031824808E+01 -0.34516297713E+03  0.40404233372E+03  0.95701470905E+02 0.  0.
          5    1    3    3  502    0 -0.60389106072E+00 -0.22085233334E+02  0.19087980657E+02  0.29494840589E+02  0.41800000000E+01 0.  1.
         -5    1    3    3    0  502  0.18732704250E+03  0.12682050853E+02 -0.75559403720E+02  0.20243258423E+03  0.41800000000E+01 0.  1.
        -11    1    4    4    0    0 -0.83091645920E+02 -0.42228198952E+02 -0.13413567406E+03  0.16333958940E+03  0.00000000000E+00 0.  1.
         11    1    4    4    0    0 -0.10363150552E+03  0.51631381433E+02 -0.21102730307E+03  0.24070274433E+03  0.00000000000E+00 0. -1.
</event>
<event>
 8    1  0.7005395E-009  0.1905151E+03  0.7561462E-02  0.1157998E+00
          2   -1    0    0  501    0  0.00000000000E+00  0.00000000000E+00  0.48974557402E+03  0.48974557402E+03  0.00000000000E+00 0. -1.
         -2   -1    0    0    0  501 -0.00000000000E+00 -0.00000000000E+00 -0.98499491245E+02  0.98499491245E+02  0.00000000000E+00 0.  1.
         25    2    1    2    0    0 -0.11783670260E+03 -0.13571832049E+03  0.28956225287E+03  0.36304023596E+03  0.12508782373E+03 0.  0.
         23    2    1    2    0    0  0.11783670260E+03  0.13571832049E+03  0.10168382991E+03  0.22520482930E+03  0.89847998734E+02 0.  0.
          5    1    3    3  502    0 -0.97821633972E+02 -0.13674320837E+03  0.29695533108E+03  0.34127367048E+03  0.41800000000E+01 0. -1.
         -5    1    3    3    0  502 -0.20015068632E+02  0.10248878718E+01 -0.73930782119E+01  0.21766565483E+02  0.41800000000E+01 0. -1.
        -11    1    4    4    0    0  0.22556138462E+02  0.77501357606E+02  0.11207616461E+02  0.81491413534E+02  0.00000000000E+00 0.  1.
         11    1    4    4    0    0  0.95280564142E+02  0.58216962889E+02  0.90476213445E+02  0.14371341576E+03  0.00000000000E+00 0. -1.
</event>
<event>
 8    1  0.7005395E-009  0.1125181E+03  0.7561462E-02  0.1255977E+00
         -2   -1    0    0    0  501 -0.00000000000E+00  0.00000000000E+00  0.25923780593E+03  0.25923780593E+03  0.00000000000E+00 0.  1.
          2   -1    0    0  501    0  0.00000000000E+00 -0.00000000000E+00 -0.50326308586E+02  0.50326308586E+02  0.00000000000E+00 0. -1.
         25    2    1    2    0    0  0.19234483241E+02  0.27952107648E+02  0.11509552290E+03  0.17333882347E+03  0.12509229657E+03 0.  0.
         23    2    1    2    0    0 -0.19234483241E+02 -0.27952107648E+02  0.93815974441E+02  0.13622529105E+03  0.92761021953E+02 0.  0.
          5    1    3    3  502    0  0.67272656228E+02 -0.55481434883E+01  0.42114630037E+02  0.79671240955E+02  0.41800000000E+01 0.  1.
         -5    1    3    3    0  502 -0.48038172987E+02  0.33500251136E+02  0.72980892864E+02  0.93667582511E+02  0.41800000000E+01 0.  1.
        -11    1    4    4    0    0  0.88622075797E+01 -0.57347226624E+02  0.57858849376E+02  0.81944429803E+02  0.00000000000E+00 0. -1.
         11    1    4    4    0    0 -0.28096690821E+02  0.29395118976E+02  0.35957125065E+02  0.54280861247E+02  0.00000000000E+00 0.  1.
</event>
<event>
 8    1  0.7005395E-009  0.9570379E+02  0.7561462E-02  0.1289599E+00
         -2   -1    0    0    0  501 -0.00000000000E+00  0.00000000000E+00  0.44402064273E+02  0.44402064273E+02  0.00000000000E+00 0.  1.
          2   -1    0    0  501    0  0.00000000000E+00 -0.00000000000E+00 -0.34126917671E+03  0.34126917671E+03  0.00000000000E+00 0. -1.
         25    2    1    2    0    0 -0.21854176101E+02 -0.51151685098E+02 -0.19678260782E+03  0.23971723705E+03  0.12508740583E+03 0.  0.
         23    2    1    2    0    0  0.21854176101E+02  0.51151685098E+02 -0.10008450462E+03  0.14595400393E+03  0.90507255500E+02 0.  0.
          5    1    3    3  502    0 -0.35494170304E+02 -0.28224630259E+01  0.74996986115E+00  0.35858573283E+02  0.41800000000E+01 0.  1.
         -5    1    3    3    0  502  0.13639994203E+02 -0.48329222072E+02 -0.19753257768E+03  0.20385866377E+03  0.41800000000E+01 0.  1.
        -11    1    4    4    0    0 -0.31775675176E+02  0.38765488711E+02 -0.58060024754E+02  0.76703475295E+02  0.00000000000E+00 0. -1.
         11    1    4    4    0    0  0.53629851276E+02  0.12386196387E+02 -0.42024479865E+02  0.69250528639E+02  0.00000000000E+00 0.  1.
</event>
<event>
 8    1  0.7005395E-009  0.9010642E+02  0.7561462E-02  0.1302594E+00
          2   -1    0    0  501    0  0.00000000000E+00  0.00000000000E+00  0.98439357492E+02  0.98439357492E+02  0.00000000000E+00 0. -1.
         -2   -1    0    0    0  501 -0.00000000000E+00 -0.00000000000E+00 -0.13132873552E+03  0.13132873552E+03  0.00000000000E+00 0.  1.
         25    2    1    2    0    0  0.21615264850E+02 -0.55748241043E+01  0.89968355380E+00  0.12706883319E+03  0.12508949036E+03 0.  0.
         23    2    1    2    0    0 -0.21615264850E+02  0.55748241043E+01 -0.33789061583E+02  0.10269925982E+03  0.94377640082E+02 0.  0.
          5    1    3    3  502    0  0.42349563630E+02  0.46206286707E+02  0.23043959081E+02  0.66910409661E+02  0.41800000000E+01 0. -1.
         -5    1    3    3    0  502 -0.20734298780E+02 -0.51781110811E+02 -0.22144275528E+02  0.60158423528E+02  0.41800000000E+01 0. -1.
        -11    1    4    4    0    0  0.21846845270E+01 -0.23661712017E+02  0.23953022068E+02  0.33740135272E+02  0.00000000000E+00 0. -1.
         11    1    4    4    0    0 -0.23799949377E+02  0.29236536121E+02 -0.57742083651E+02  0.68959124552E+02  0.00000000000E+00 0.  1.
</event>
<event>
 8    1  0.7005395E-009  0.8441081E+02  0.7561462E-02  0.1316981E+00
         -4   -1    0    0    0  501 -0.00000000000E+00  0.00000000000E+00  0.47943318207E+02  0.47943318207E+02  0.00000000000E+00 0.  1.
          4   -1    0    0  501    0  0.00000000000E+00 -0.00000000000E+00 -0.27239063794E+03  0.27239063794E+03  0.00000000000E+00 0. -1.
         25    2    1    2    0    0 -0.35233304798E+02 -0.99743334617E+01 -0.13079578578E+03  0.18465306077E+03  0.12509333386E+03 0.  0.
         23    2    1    2    0    0  0.35233304798E+02  0.99743334617E+01 -0.93651533948E+02  0.13568089538E+03  0.91092384230E+02 0.  0.
          5    1    3    3  502    0 -0.61874283497E+02 -0.27195224089E+02 -0.13629259192E+03  0.15218787791E+03  0.41800000000E+01 0.  1.
         -5    1    3    3    0  502  0.26640978699E+02  0.17220890627E+02  0.54968061363E+01  0.32465182854E+02  0.41800000000E+01 0.  1.
        -11    1    4    4    0    0  0.51456278039E+02  0.32850831107E+01 -0.10344655207E+03  0.11558429589E+03  0.00000000000E+00 0. -1.
         11    1    4    4    0    0 -0.16222973241E+02  0.66892503510E+01  0.97950181221E+01  0.20096599490E+02  0.00000000000E+00 0.  1.
</event>
<event>
 8    1  0.7005395E-009  0.1024192E+03  0.7561462E-02  0.1275289E+00
          1   -1    0    0  501    0  0.00000000000E+00  0.00000000000E+00  0.34260139439E+03  0.34260139439E+03  0.00000000000E+00 0. -1.
         -1   -1    0    0    0  501 -0.00000000000E+00 -0.00000000000E+00 -0.45928113494E+02  0.45928113494E+02  0.00000000000E+00 0.  1.
         25    2    1    2    0    0 -0.32952539633E+02  0.37404103250E+02  0.10508116770E+03  0.17081889889E+03  0.12510838343E+03 0.  0.
         23    2    1    2    0    0  0.32952539633E+02 -0.37404103250E+02  0.19159211320E+03  0.21771060899E+03  0.90583854079E+02 0.  0.
          5    1    3    3  502    0  0.37830174274E+02 -0.15881963116E+02  0.13666511739E+02  0.43446573871E+02  0.41800000000E+01 0. -1.
         -5    1    3    3    0  502 -0.70782713907E+02  0.53286066366E+02  0.91414655958E+02  0.12737232502E+03  0.41800000000E+01 0. -1.
        -11    1    4    4    0    0 -0.15829911728E+02 -0.62505314572E+01 -0.56154210063E+00  0.17028522495E+02  0.00000000000E+00 0.  1.
         11    1    4    4    0    0  0.48782451361E+02 -0.31153571793E+02  0.19215365530E+03  0.20068208650E+03  0.00000000000E+00 0. -1.
</event>
<event>
 8    1  0.7005395E-009  0.7627093E+02  0.7561462E-02  0.1339980E+00
          4   -1    0    0  501    0  0.00000000000E+00  0.00000000000E+00  0.16526613561E+03  0.16526613561E+03  0.00000000000E+00 0.  1.
         -4   -1    0    0    0  501 -0.00000000000E+00 -0.00000000000E+00 -0.82276441916E+02  0.82276441916E+02  0.00000000000E+00 0. -1.
         25    2    1    2    0    0  0.11278363084E+02  0.45908976570E+01  0.14357644025E+01  0.12568481638E+03  0.12508530622E+03 0.  0.
         23    2    1    2    0    0 -0.11278363084E+02 -0.45908976570E+01  0.81553929291E+02  0.12185776115E+03  0.89721751847E+02 0.  0.
          5    1    3    3  502    0 -0.35564554726E+02  0.76505781195E+01  0.47370856553E+02  0.59873527948E+02  0.41800000000E+01 0. -1.
         -5    1    3    3    0  502  0.46842917810E+02 -0.30596804625E+01 -0.45935092151E+02  0.65811288427E+02  0.41800000000E+01 0. -1.
        -11    1    4    4    0    0 -0.29781061565E+02 -0.26678026454E+02  0.83909547038E+02  0.92948592284E+02  0.00000000000E+00 0.  1.
         11    1    4    4    0    0  0.18502698481E+02  0.22087128797E+02 -0.23556177466E+01  0.28909168866E+02  0.00000000000E+00 0. -1.
</event>
<event>
 8    1  0.7005395E-009  0.1310843E+03  0.7561462E-02  0.1225856E+00
         -2   -1    0    0    0  501 -0.00000000000E+00  0.00000000000E+00  0.95176960929E+02  0.95176960929E+02  0.00000000000E+00 0.  1.
          2   -1    0    0  501    0  0.00000000000E+00 -0.00000000000E+00 -0.54657054675E+03  0.54657054675E+03  0.00000000000E+00 0. -1.
         25    2    1    2    0    0  0.67965192711E+02 -0.31217000746E+02  0.27368491971E+02  0.14829738899E+03  0.12509721289E+03 0.  0.
         23    2    1    2    0    0 -0.67965192711E+02  0.31217000746E+02 -0.47876207779E+03  0.49345011868E+03  0.93199377374E+02 0.  0.
          5    1    3    3  502    0  0.10333725687E+03 -0.34999763911E+02  0.27019907243E+02  0.11247719732E+03  0.41800000000E+01 0. -1.
         -5    1    3    3    0  502 -0.35372064156E+02  0.37827631648E+01  0.34858472776E+00  0.35820191668E+02  0.41800000000E+01 0. -1.
        -11    1    4    4    0    0 -0.21747768560E+02 -0.32101612235E+02 -0.11580813345E+03  0.12212699422E+03  0.00000000000E+00 0.  1.
         11    1    4    4    0    0 -0.46217424151E+02  0.63318612981E+02 -0.36295394434E+03  0.37132312446E+03  0.00000000000E+00 0. -1.
</event>
<event>
 8    1  0.7005395E-009  0.2746549E+03  0.7561462E-02  0.1098645E+00
          1   -1    0    0  501    0  0.00000000000E+00  0.00000000000E+00  0.63354384593E+03  0.63354384593E+03  0.00000000000E+00 0. -1.
         -1   -1    0    0    0  501 -0.00000000000E+00 -0.00000000000E+00 -0.30560029340E+03  0.30560029340E+03  0.00000000000E+00 0.  1.
         25    2    1    2    0    0  0.13167312456E+03 -0.22047335224E+03  0.52859894541E+03  0.60084138497E+03  0.12508882451E+03 0.  0.
         23    2    1    2    0    0 -0.13167312456E+03  0.22047335224E+03 -0.20065539288E+03  0.33830275437E+03  0.90773653342E+02 0.  0.
          5    1    3    3  502    0  0.28544176437E+02 -0.16281299057E+03  0.34318329310E+03  0.38093973929E+03  0.41800000000E+01 0. -1.
         -5    1    3    3    0  502  0.10312894812E+03 -0.57660361674E+02  0.18541565231E+03  0.21990164567E+03  0.41800000000E+01 0. -1.
        -11    1    4    4    0    0 -0.61695975392E+02  0.16587230409E+03 -0.16714641847E+03  0.24342953776E+03  0.00000000000E+00 0. -1.
         11    1    4    4    0    0 -0.69977149165E+02  0.54601048149E+02 -0.33508974412E+02  0.94873216613E+02  0.00000000000E+00 0.  1.
</event>
<event>
 8    1  0.7005395E-009  0.1151002E+03  0.7561462E-02  0.1251406E+00
         -2   -1    0    0    0  501 -0.00000000000E+00  0.00000000000E+00  0.18079723680E+02  0.18079723680E+02  0.00000000000E+00 0.  1.
          2   -1    0    0  501    0  0.00000000000E+00 -0.00000000000E+00 -0.11365362969E+04  0.11365362969E+04  0.00000000000E+00 0. -1.
         25    2    1    2    0    0 -0.91838268069E+02  0.93875047261E+01 -0.64063694464E+03  0.65923088422E+03  0.12508905285E+03 0.  0.
         23    2    1    2    0    0  0.91838268069E+02 -0.93875047261E+01 -0.47781962856E+03  0.49538513634E+03  0.92587489137E+02 0.  0.
          5    1    3    3  502    0 -0.32433461057E+02 -0.20456045821E+02 -0.42491897888E+02  0.57388265290E+02  0.41800000000E+01 0. -1.
         -5    1    3    3    0  502 -0.59404807012E+02  0.29843550548E+02 -0.59814504676E+03  0.60184261893E+03  0.41800000000E+01 0. -1.
        -11    1    4    4    0    0  0.36980729019E+02 -0.46031128683E+02 -0.29923731957E+03  0.30500723360E+03  0.00000000000E+00 0. -1.
         11    1    4    4    0    0  0.54857539050E+02  0.36643623957E+02 -0.17858230900E+03  0.19037790275E+03  0.00000000000E+00 0.  1.
</event>
<event>
 8    1  0.7005395E-009  0.3354174E+03  0.7561462E-02  0.1068765E+00
          4   -1    0    0  501    0  0.00000000000E+00  0.00000000000E+00  0.14330016238E+04  0.14330016238E+04  0.00000000000E+00 0. -1.
         -4   -1    0    0    0  501 -0.00000000000E+00 -0.00000000000E+00 -0.99086719421E+02  0.99086719421E+02  0.00000000000E+00 0.  1.
         25    2    1    2    0    0 -0.31094014086E+03 -0.88467471753E+02  0.35144990561E+03  0.49363531811E+03  0.12509407011E+03 0.  0.
         23    2    1    2    0    0  0.31094014086E+03  0.88467471753E+02  0.98246499876E+03  0.10384530251E+04  0.92935175271E+02 0.  0.
          5    1    3    3  502    0 -0.27027712495E+03 -0.25775112124E+02  0.28326162814E+03  0.39238845938E+03  0.41800000000E+01 0.  1.
         -5    1    3    3    0  502 -0.40663015905E+02 -0.62692359630E+02  0.68188277473E+02  0.10124685873E+03  0.41800000000E+01 0.  1.
        -11    1    4    4    0    0  0.18788733897E+03  0.67421704047E+02  0.46301952778E+03  0.50421664137E+03  0.00000000000E+00 0.  1.
         11    1    4    4    0    0  0.12305280189E+03  0.21045767707E+02  0.51944547098E+03  0.53423638374E+03  0.00000000000E+00 0. -1.
</event>
<event>
 8    1  0.7005395E-009  0.1429723E+03  0.7561462E-02  0.1209385E+00
          2   -1    0    0  501    0  0.00000000000E+00  0.00000000000E+00  0.72878171983E+02  0.72878171983E+02  0.00000000000E+00 0. -1.
         -2   -1    0    0    0  501 -0.00000000000E+00 -0.00000000000E+00 -0.36752276343E+03  0.36752276343E+03  0.00000000000E+00 0.  1.
         25    2    1    2    0    0 -0.80806035170E+02 -0.63875262617E+02 -0.74748507993E+02  0.17844885013E+03  0.12508792177E+03 0.  0.
         23    2    1    2    0    0  0.80806035170E+02  0.63875262617E+02 -0.21989608346E+03  0.26195208528E+03  0.98259569361E+02 0.  0.
          5    1    3    3  502    0 -0.93070712851E+02 -0.10012250161E+00 -0.62610467877E+02  0.11224843296E+03  0.41800000000E+01 0.  1.
         -5    1    3    3    0  502  0.12264677681E+02 -0.63775140115E+02 -0.12138040116E+02  0.66200417168E+02  0.41800000000E+01 0.  1.
        -11    1    4    4    0    0  0.89448976000E+02  0.32519683809E+02 -0.20532626141E+03  0.22631288688E+03  0.00000000000E+00 0.  1.
         11    1    4    4    0    0 -0.86429408299E+01  0.31355578808E+02 -0.14569822047E+02  0.35639198406E+02  0.00000000000E+00 0. -1.
</event>
<event>
 8    1  0.7005395E-009  0.2043896E+03  0.7561462E-02  0.1146087E+00
          1   -1    0    0  501    0  0.00000000000E+00  0.00000000000E+00  0.12870055862E+03  0.12870055862E+03  0.00000000000E+00 0. -1.
         -1   -1    0    0    0  501 -0.00000000000E+00 -0.00000000000E+00 -0.37496382187E+03  0.37496382187E+03  0.00000000000E+00 0.  1.
         25    2    1    2    0    0  0.16225084413E+03 -0.95901283869E+02 -0.15730902826E+03  0.27553051956E+03  0.12509414122E+03 0.  0.
         23    2    1    2    0    0 -0.16225084413E+03  0.95901283869E+02 -0.88954234988E+02  0.22813386093E+03  0.92789061381E+02 0.  0.
          5    1    3    3  502    0  0.66315216914E+02  0.13515989884E+02 -0.10207909114E+02  0.68571596054E+02  0.41800000000E+01 0. -1.
         -5    1    3    3    0  502  0.95935627214E+02 -0.10941727375E+03 -0.14710111914E+03  0.20695892350E+03  0.41800000000E+01 0. -1.
        -11    1    4    4    0    0 -0.83298439180E+02  0.19551976252E+02 -0.81314830023E+02  0.11803817741E+03  0.00000000000E+00 0.  1.
         11    1    4    4    0    0 -0.78952404948E+02  0.76349307617E+02 -0.76394049642E+01  0.11009568352E+03  0.00000000000E+00 0. -1.
</event>
<event>
 8    1  0.7005395E-009  0.1225634E+03  0.7561462E-02  0.1238927E+00
         -2   -1    0    0    0  501 -0.00000000000E+00  0.00000000000E+00  0.13161700030E+02  0.13161700030E+02  0.00000000000E+00 0.  1.
          2   -1    0    0  501    0  0.00000000000E+00 -0.00000000000E+00 -0.15435714112E+04  0.15435714112E+04  0.00000000000E+00 0. -1.
         25    2    1    2    0    0  0.85945091000E+00  0.88277080767E+02 -0.97664193404E+03  0.98856992867E+03  0.12508978737E+03 0.  0.
         23    2    1    2    0    0 -0.85945091000E+00 -0.88277080767E+02 -0.55376777710E+03  0.56816318253E+03  0.91417008164E+02 0.  0.
          5    1    3    3  502    0  0.51150024024E+02  0.27870531039E+02 -0.64830351703E+03  0.65092857831E+03  0.41800000000E+01 0. -1.
         -5    1    3    3    0  502 -0.50290573114E+02  0.60406549728E+02 -0.32833841701E+03  0.33764135037E+03  0.41800000000E+01 0. -1.
        -11    1    4    4    0    0 -0.19152440085E+02 -0.87642597860E+02 -0.53292932735E+03  0.54042733912E+03  0.00000000000E+00 0. -1.
         11    1    4    4    0    0  0.18292989175E+02 -0.63448290736E+00 -0.20838449754E+02  0.27735843410E+02  0.00000000000E+00 0.  1.
</event>
<event>
 8    1  0.7005395E-009  0.1870786E+03  0.7561462E-02  0.1161123E+00
         -1   -1    0    0    0  501 -0.00000000000E+00  0.00000000000E+00  0.89007627724E+02  0.89007627724E+02  0.00000000000E+00 0.  1.
          1   -1    0    0  501    0  0.00000000000E+00 -0.00000000000E+00 -0.65217781460E+03  0.65217781460E+03  0.00000000000E+00 0. -1.
         25    2    1    2    0    0  0.10108430160E+03  0.14444348489E+03 -0.10145357432E+03  0.23878865680E+03  0.12508092786E+03 0.  0.
         23    2    1    2    0    0 -0.10108430160E+03 -0.14444348489E+03 -0.46171661256E+03  0.50239678553E+03  0.90212767614E+02 0.  0.
          5    1    3    3  502    0  0.69634085511E+02  0.73271957718E+02  0.11226006416E+02  0.10178988787E+03  0.41800000000E+01 0. -1.
         -5    1    3    3    0  502  0.31450216088E+02  0.71171527174E+02 -0.11267958073E+03  0.13699876892E+03  0.41800000000E+01 0. -1.
        -11    1    4    4    0    0  0.12890746248E+02 -0.33984430525E+02 -0.56243295009E+02  0.66965820315E+02  0.00000000000E+00 0.  1.
         11    1    4    4    0    0 -0.11397504785E+03 -0.11045905437E+03 -0.40547331755E+03  0.43543096521E+03  0.00000000000E+00 0. -1.
</event>
<event>
 8    1  0.7005395E-009  0.1017608E+03  0.7561462E-02  0.1276636E+00
         -1   -1    0    0    0  501 -0.00000000000E+00  0.00000000000E+00  0.24411848062E+02  0.24411848062E+02  0.00000000000E+00 0.  1.
          1   -1    0    0  501    0  0.00000000000E+00 -0.00000000000E+00 -0.55874939585E+03  0.55874939585E+03  0.00000000000E+00 0. -1.
         25    2    1    2    0    0 -0.21424548743E+02 -0.87499606998E+01 -0.39613997941E+03  0.41606493920E+03  0.12509027640E+03 0.  0.
         23    2    1    2    0    0  0.21424548743E+02  0.87499606998E+01 -0.13819756838E+03  0.16709630471E+03  0.91033148024E+02 0.  0.
          5    1    3    3  502    0  0.69985253549E+01 -0.63203739099E+02 -0.23736740142E+03  0.24577316299E+03  0.41800000000E+01 0.  1.
         -5    1    3    3    0  502 -0.28423074097E+02  0.54453778400E+02 -0.15877257799E+03  0.17029177621E+03  0.41800000000E+01 0.  1.
        -11    1    4    4    0    0 -0.27515940114E+02 -0.36047949038E+01 -0.10303778361E+02  0.29602184973E+02  0.00000000000E+00 0.  1.
         11    1    4    4    0    0  0.48940488857E+02  0.12354755604E+02 -0.12789379002E+03  0.13749411974E+03  0.00000000000E+00 0. -1.
</event>
<event>
 8    1  0.7005395E-009  0.2238678E+03  0.7561462E-02  0.1131032E+00
         -2   -1    0    0    0  501 -0.00000000000E+00  0.00000000000E+00  0.22040197565E+02  0.22040197565E+02  0.00000000000E+00 0. -1.
          2   -1    0    0  501    0  0.00000000000E+00 -0.00000000000E+00 -0.24280015717E+04  0.24280015717E+04  0.00000000000E+00 0.  1.
         25    2    1    2    0    0  0.84793150577E+02 -0.18496506359E+03 -0.13306374932E+04  0.13519048425E+04  0.12509441106E+03 0.  0.
         23    2    1    2    0    0 -0.84793150577E+02  0.18496506359E+03 -0.10753238810E+04  0.10981369268E+04  0.90450582764E+02 0.  0.
          5    1    3    3  502    0  0.10398243509E+03 -0.12508081142E+03 -0.11285213790E+04  0.11401910066E+04  0.41800000000E+01 0.  1.
         -5    1    3    3    0  502 -0.19189284510E+02 -0.59884252172E+02 -0.20211611416E+03  0.21171383587E+03  0.41800000000E+01 0.  1.
        -11    1    4    4    0    0 -0.58743520186E+02  0.32117685262E+02 -0.36470475193E+03  0.37079900614E+03  0.00000000000E+00 0.  1.
         11    1    4    4    0    0 -0.26049630392E+02  0.15284737833E+03 -0.71061912902E+03  0.72733792066E+03  0.00000000000E+00 0. -1.
</event>
<event>
 8    1  0.7005395E-009  0.1099185E+03  0.7561462E-02  0.1260721E+00
          2   -1    0    0  501    0  0.00000000000E+00  0.00000000000E+00  0.20390236828E+03  0.20390236828E+03  0.00000000000E+00 0. -1.
         -2   -1    0    0    0  501 -0.00000000000E+00 -0.00000000000E+00 -0.63802587593E+02  0.63802587593E+02  0.00000000000E+00 0.  1.
         25    2    1    2    0    0 -0.12515093047E+02  0.23708483493E+02  0.49841916368E+02  0.13730948258E+03  0.12510378745E+03 0.  0.
         23    2    1    2    0    0  0.12515093047E+02 -0.23708483493E+02  0.90257864318E+02  0.13039547330E+03  0.90209631644E+02 0.  0.
          5    1    3    3  502    0 -0.62906543075E+02  0.40155088403E+02  0.27787804641E+02  0.79745211600E+02  0.41800000000E+01 0. -1.
         -5    1    3    3    0  502  0.50391450028E+02 -0.16446604910E+02  0.22054111727E+02  0.57564270977E+02  0.41800000000E+01 0. -1.
        -11    1    4    4    0    0  0.32924343468E+02  0.23523845215E+02  0.53873610330E+02  0.67377663781E+02  0.00000000000E+00 0.  1.
         11    1    4    4    0    0 -0.20409250421E+02 -0.47232328708E+02  0.36384253988E+02  0.63017809516E+02  0.00000000000E+00 0. -1.
</event>
<event>
 8    1  0.7005395E-009  0.1275532E+03  0.7561462E-02  0.1231132E+00
          2   -1    0    0  501    0  0.00000000000E+00  0.00000000000E+00  0.12696979238E+03  0.12696979238E+03  0.00000000000E+00 0. -1.
         -2   -1    0    0    0  501 -0.00000000000E+00 -0.00000000000E+00 -0.27904620319E+03  0.27904620319E+03  0.00000000000E+00 0.  1.
         25    2    1    2    0    0  0.30448575790E+02 -0.11282923118E+03 -0.18714344444E+03  0.25362790810E+03  0.12508755250E+03 0.  0.
         23    2    1    2    0    0 -0.30448575790E+02  0.11282923118E+03  0.35067033631E+02  0.15238808748E+03  0.91295570430E+02 0.  0.
          5    1    3    3  502    0  0.42207913670E+02 -0.31497594256E+02 -0.15757064470E+03  0.16619141642E+03  0.41800000000E+01 0.  1.
         -5    1    3    3    0  502 -0.11759337880E+02 -0.81331636929E+02 -0.29572799744E+02  0.87436491681E+02  0.41800000000E+01 0.  1.
        -11    1    4    4    0    0  0.49684248021E+01  0.20745894477E+02  0.48341837614E+02  0.52839479999E+02  0.00000000000E+00 0. -1.
         11    1    4    4    0    0 -0.35417000592E+02  0.92083336708E+02 -0.13274803983E+02  0.99548607479E+02  0.00000000000E+00 0.  1.
</event>
<event>
 8    1  0.7005395E-009  0.1662119E+03  0.7561462E-02  0.1181857E+00
          1   -1    0    0  501    0  0.00000000000E+00  0.00000000000E+00  0.76764448014E+03  0.76764448014E+03  0.00000000000E+00 0. -1.
         -1   -1    0    0    0  501 -0.00000000000E+00 -0.00000000000E+00 -0.61652276673E+02  0.61652276673E+02  0.00000000000E+00 0.  1.
         25    2    1    2    0    0 -0.21700385267E+02 -0.15538213948E+03  0.17011485922E+03  0.26306069879E+03  0.12508936778E+03 0.  0.
         23    2    1    2    0    0  0.21700385267E+02  0.15538213948E+03  0.53587734425E+03  0.56623605803E+03  0.94043762894E+02 0.  0.
          5    1    3    3  502    0  0.17443224928E+02 -0.26996175100E+02 -0.13892649302E+02  0.35263829493E+02  0.41800000000E+01 0.  1.
         -5    1    3    3    0  502 -0.39143610196E+02 -0.12838596438E+03  0.18400750852E+03  0.22779686930E+03  0.41800000000E+01 0.  1.
        -11    1    4    4    0    0 -0.17533783026E+02  0.35628991585E+02  0.47747137527E+02  0.62101914065E+02  0.00000000000E+00 0.  1.
         11    1    4    4    0    0  0.39234168293E+02  0.11975314790E+03  0.48813020672E+03  0.50413414396E+03  0.00000000000E+00 0. -1.
</event>
<event>
 8    1  0.7005395E-009  0.1202261E+03  0.7561462E-02  0.1242725E+00
          1   -1    0    0  501    0  0.00000000000E+00  0.00000000000E+00  0.33605814706E+03  0.33605814706E+03  0.00000000000E+00 0. -1.
         -1   -1    0    0    0  501 -0.00000000000E+00 -0.00000000000E+00 -0.63442499577E+02  0.63442499577E+02  0.00000000000E+00 0.  1.
         25    2    1    2    0    0 -0.85742752480E+02  0.10042821697E+02  0.20624982064E+03  0.25619881453E+03  0.12508463606E+03 0.  0.
         23    2    1    2    0    0  0.85742752480E+02 -0.10042821697E+02  0.66365826841E+02  0.14330183211E+03  0.93157470144E+02 0.  0.
          5    1    3    3  502    0 -0.23616748327E+02  0.38349299327E+02  0.17544796337E+03  0.18118465667E+03  0.41800000000E+01 0.  1.
         -5    1    3    3    0  502 -0.62126004154E+02 -0.28306477630E+02  0.30801857271E+02  0.75014157859E+02  0.41800000000E+01 0.  1.
        -11    1    4    4    0    0  0.68210199875E+02 -0.49077183697E+02  0.40276833366E+02  0.93184894873E+02  0.00000000000E+00 0.  1.
         11    1    4    4    0    0  0.17532552606E+02  0.39034361999E+02  0.26088993475E+02  0.50116937238E+02  0.00000000000E+00 0. -1.
</event>
<event>
 8    1  0.7005395E-009  0.2774844E+03  0.7561462E-02  0.1097071E+00
         -2   -1    0    0    0  501 -0.00000000000E+00  0.00000000000E+00  0.12784142154E+03  0.12784142154E+03  0.00000000000E+00 0.  1.
          2   -1    0    0  501    0  0.00000000000E+00 -0.00000000000E+00 -0.68550193814E+03  0.68550193814E+03  0.00000000000E+00 0. -1.
         25    2    1    2    0    0 -0.19848446208E+03 -0.17287820941E+03 -0.17533463122E+03  0.34010614502E+03  0.12508796906E+03 0.  0.
         23    2    1    2    0    0  0.19848446208E+03  0.17287820941E+03 -0.38232588537E+03  0.47323721466E+03  0.92181460920E+02 0.  0.
          5    1    3    3  502    0  0.11480157331E+02 -0.42009716035E+02 -0.21589575233E+02  0.48787215666E+02  0.41800000000E+01 0. -1.
         -5    1    3    3    0  502 -0.20996461941E+03 -0.13086849337E+03 -0.15374505599E+03  0.29131892936E+03  0.41800000000E+01 0. -1.
        -11    1    4    4    0    0  0.39745553158E+02  0.44094987926E+02 -0.16276922019E+03  0.17325673435E+03  0.00000000000E+00 0. -1.
         11    1    4    4    0    0  0.15873890892E+03  0.12878322148E+03 -0.21955666518E+03  0.29998048031E+03  0.00000000000E+00 0.  1.
</event>
<event>
 8    1  0.7005395E-009  0.1194899E+03  0.7561462E-02  0.1243941E+00
         -1   -1    0    0    0  501 -0.00000000000E+00  0.00000000000E+00  0.87759365318E+02  0.87759365318E+02  0.00000000000E+00 0.  1.
          1   -1    0    0  501    0  0.00000000000E+00 -0.00000000000E+00 -0.18948197977E+03  0.18948197977E+03  0.00000000000E+00 0. -1.
         25    2    1    2    0    0 -0.27662917232E+02  0.48234012329E+02 -0.10264048381E+03  0.17109367700E+03  0.12508485303E+03 0.  0.
         23    2    1    2    0    0  0.27662917232E+02 -0.48234012329E+02  0.91786935792E+00  0.10614766809E+03  0.90414202541E+02 0.  0.
          5    1    3    3  502    0 -0.56085114283E+02 -0.22457209377E+02 -0.46961262582E+02  0.76633536265E+02  0.41800000000E+01 0.  1.
         -5    1    3    3    0  502  0.28422197051E+02  0.70691221706E+02 -0.55679221229E+02  0.94460140737E+02  0.41800000000E+01 0.  1.
        -11    1    4    4    0    0 -0.30880094898E+02 -0.11231537997E+02 -0.13296492225E+02  0.35447488094E+02  0.00000000000E+00 0. -1.
         11    1    4    4    0    0  0.58543012130E+02 -0.37002474332E+02  0.14214361583E+02  0.70700179994E+02  0.00000000000E+00 0.  1.
</event>
<event>
 8    1  0.7005395E-009  0.9402134E+02  0.7561462E-02  0.1293396E+00
          2   -1    0    0  501    0  0.00000000000E+00  0.00000000000E+00  0.31113244714E+03  0.31113244714E+03  0.00000000000E+00 0.  1.
         -2   -1    0    0    0  501 -0.00000000000E+00 -0.00000000000E+00 -0.41397127279E+02  0.41397127279E+02  0.00000000000E+00 0. -1.
         25    2    1    2    0    0  0.13712163256E+02 -0.15291015223E+02  0.19761354754E+03  0.23477885779E+03  0.12509260301E+03 0.  0.
         23    2    1    2    0    0 -0.13712163256E+02  0.15291015223E+02  0.72121772321E+02  0.11775071663E+03  0.90784594813E+02 0.  0.
          5    1    3    3  502    0  0.50565313069E+02 -0.30778840133E+02  0.38667464110E+02  0.70829605861E+02  0.41800000000E+01 0. -1.
         -5    1    3    3    0  502 -0.36853149814E+02  0.15487824910E+02  0.15894608343E+03  0.16394925193E+03  0.41800000000E+01 0. -1.
        -11    1    4    4    0    0  0.34282528946E+02 -0.79315994350E+01  0.11503787296E+02  0.37020793923E+02  0.00000000000E+00 0.  1.
         11    1    4    4    0    0 -0.47994692202E+02  0.23222614658E+02  0.60617985024E+02  0.80729922702E+02  0.00000000000E+00 0. -1.
</event>
<event>
 8    1  0.7005395E-009  0.1025885E+03  0.7561462E-02  0.1274945E+00
          2   -1    0    0  501    0  0.00000000000E+00  0.00000000000E+00  0.32642736338E+03  0.32642736338E+03  0.00000000000E+00 0. -1.
         -2   -1    0    0    0  501 -0.00000000000E+00 -0.00000000000E+00 -0.46660656522E+02  0.46660656522E+02  0.00000000000E+00 0.  1.
         25    2    1    2    0    0  0.44643139274E+02  0.28233111046E+02  0.20459393234E+03  0.24555333635E+03  0.12509054879E+03 0.  0.
         23    2    1    2    0    0 -0.44643139274E+02 -0.28233111046E+02  0.75172774516E+02  0.12753468355E+03  0.88453552994E+02 0.  0.
          5    1    3    3  502    0 -0.35761457941E+02  0.19483768223E+02  0.12684056052E+03  0.13328352971E+03  0.41800000000E+01 0.  1.
         -5    1    3    3    0  502  0.80404597215E+02  0.87493428225E+01  0.77753371822E+02  0.11226980664E+03  0.41800000000E+01 0.  1.
        -11    1    4    4    0    0 -0.56316201224E+02 -0.38077675136E+02  0.85401616631E+02  0.10915521054E+03  0.00000000000E+00 0. -1.
         11    1    4    4    0    0  0.11673061951E+02  0.98445640897E+01 -0.10228842114E+02  0.18379473018E+02  0.00000000000E+00 0.  1.
</event>
<event>
 8    1  0.7005395E-009  0.1728124E+03  0.7561462E-02  0.1174946E+00
         -3   -1    0    0    0  501 -0.00000000000E+00  0.00000000000E+00  0.45801376597E+03  0.45801376597E+03  0.00000000000E+00 0.  1.
          3   -1    0    0  501    0  0.00000000000E+00 -0.00000000000E+00 -0.70186200978E+02  0.70186200978E+02  0.00000000000E+00 0. -1.
         25    2    1    2    0    0 -0.12456444887E+03 -0.64502012540E+02  0.24001058385E+03  0.30484320655E+03  0.12508992237E+03 0.  0.
         23    2    1    2    0    0  0.12456444887E+03  0.64502012540E+02  0.14781698114E+03  0.22335676039E+03  0.91441625941E+02 0.  0.
          5    1    3    3  502    0 -0.13102597038E+03 -0.12138288125E+02  0.14328771087E+03  0.19458669903E+03  0.41800000000E+01 0. -1.
         -5    1    3    3    0  502  0.64615215082E+01 -0.52363724415E+02  0.96722872976E+02  0.11025650753E+03  0.41800000000E+01 0. -1.
        -11    1    4    4    0    0  0.70957949797E+02 -0.74183532391E+01  0.96515727052E+02  0.12002228198E+03  0.00000000000E+00 0.  1.
         11    1    4    4    0    0  0.53606499073E+02  0.71920365779E+02  0.51301254089E+02  0.10333447841E+03  0.00000000000E+00 0. -1.
</event>
<event>
 8    1  0.7005395E-009  0.1259587E+03  0.7561462E-02  0.1233579E+00
          1   -1    0    0  501    0  0.00000000000E+00  0.00000000000E+00  0.60112970347E+03  0.60112970347E+03  0.00000000000E+00 0. -1.
         -1   -1    0    0    0  501 -0.00000000000E+00 -0.00000000000E+00 -0.38879501561E+02  0.38879501561E+02  0.00000000000E+00 0.  1.
         25    2    1    2    0    0 -0.95193582497E+02  0.73439579589E+01  0.37461711076E+03  0.40632633020E+03  0.12508938834E+03 0.  0.
         23    2    1    2    0    0  0.95193582497E+02 -0.73439579589E+01  0.18763309115E+03  0.23368287483E+03  0.10141872227E+03 0.  0.
          5    1    3    3  502    0 -0.50740551438E+02  0.63950359781E+02  0.15585156403E+03  0.17598702931E+03  0.41800000000E+01 0. -1.
         -5    1    3    3    0  502 -0.44453031058E+02 -0.56606401822E+02  0.21876554673E+03  0.23033930088E+03  0.41800000000E+01 0. -1.
        -11    1    4    4    0    0  0.73064719989E+02  0.40749777319E+01  0.19453432030E+03  0.20784287460E+03  0.00000000000E+00 0. -1.
         11    1    4    4    0    0  0.22128862507E+02 -0.11418935691E+02 -0.69012291423E+01  0.25840000229E+02  0.00000000000E+00 0.  1.
</event>
<event>
 8    1  0.7005395E-009  0.9192202E+02  0.7561462E-02  0.1298263E+00
          1   -1    0    0  501    0  0.00000000000E+00  0.00000000000E+00  0.31884463039E+03  0.31884463039E+03  0.00000000000E+00 0. -1.
         -1   -1    0    0    0  501 -0.00000000000E+00 -0.00000000000E+00 -0.43170486173E+02  0.43170486173E+02  0.00000000000E+00 0.  1.
         25    2    1    2    0    0  0.17758157768E+02 -0.34099983642E+02  0.14304905805E+03  0.19388071187E+03  0.12509411006E+03 0.  0.
         23    2    1    2    0    0 -0.17758157768E+02  0.34099983642E+02  0.13262508616E+03  0.16813440469E+03  0.95924988982E+02 0.  0.
          5    1    3    3  502    0  0.52366618998E+02  0.13096579696E+02  0.20286680921E+02  0.57816995839E+02  0.41800000000E+01 0. -1.
         -5    1    3    3    0  502 -0.34608461230E+02 -0.47196563338E+02  0.12276237713E+03  0.13606371603E+03  0.41800000000E+01 0. -1.
        -11    1    4    4    0    0  0.52493808875E+00  0.48036309858E+02  0.18117682231E+02  0.51342117547E+02  0.00000000000E+00 0.  1.
         11    1    4    4    0    0 -0.18283095857E+02 -0.13936326217E+02  0.11450740393E+03  0.11679228715E+03  0.00000000000E+00 0. -1.
</event>
<event>
 8    1  0.7005395E-009  0.1328430E+03  0.7561462E-02  0.1223297E+00
          2   -1    0    0  501    0  0.00000000000E+00  0.00000000000E+00  0.76968727208E+02  0.76968727208E+02  0.00000000000E+00 0. -1.
         -2   -1    0    0    0  501 -0.00000000000E+00 -0.00000000000E+00 -0.37335862592E+03  0.37335862592E+03  0.00000000000E+00 0.  1.
         25    2    1    2    0    0 -0.62037426970E+02 -0.11463921769E+03 -0.16017870258E+03  0.24144455681E+03  0.12508982642E+03 0.  0.
         23    2    1    2    0    0  0.62037426970E+02  0.11463921769E+03 -0.13621119613E+03  0.20888279631E+03  0.89931863473E+02 0.  0.
          5    1    3    3  502    0 -0.16405217828E+02 -0.54099489994E+02 -0.15534482312E+03  0.16536436273E+03  0.41800000000E+01 0. -1.
         -5    1    3    3    0  502 -0.45632209142E+02 -0.60539727698E+02 -0.48338794594E+01  0.76080194082E+02  0.41800000000E+01 0. -1.
        -11    1    4    4    0    0  0.19980609760E+02  0.65057788977E+02 -0.12581258657E+03  0.14304037057E+03  0.00000000000E+00 0.  1.
         11    1    4    4    0    0  0.42056817210E+02  0.49581428716E+02 -0.10398609556E+02  0.65842425745E+02  0.00000000000E+00 0. -1.
</event>
<event>
 8    1  0.7005395E-009  0.1039788E+03  0.7561462E-02  0.1272145E+00
          1   -1    0    0  501    0  0.00000000000E+00  0.00000000000E+00  0.41930509587E+02  0.41930509587E+02  0.00000000000E+00 0. -1.
         -1   -1    0    0    0  501 -0.00000000000E+00 -0.00000000000E+00 -0.38514886870E+03  0.38514886870E+03  0.00000000000E+00 0.  1.
         25    2    1    2    0    0  0.32352432118E+02  0.44428730039E+02 -0.26862942020E+03  0.30137923566E+03  0.12508831430E+03 0.  0.
         23    2    1    2    0    0 -0.32352432118E+02 -0.44428730039E+02 -0.74588938908E+02  0.12570014262E+03  0.84949538731E+02 0.  0.
          5    1    3    3  502    0 -0.35567966614E+01 -0.39417703851E+02 -0.46440662258E+02  0.61160556655E+02  0.41800000000E+01 0.  1.
         -5    1    3    3    0  502  0.35909228779E+02  0.83846433890E+02 -0.22218875794E+03  0.24021867901E+03  0.41800000000E+01 0.  1.
        -11    1    4    4    0    0 -0.12708594010E+02  0.11768022928E+02  0.11675703420E+02  0.20888197043E+02  0.00000000000E+00 0. -1.
         11    1    4    4    0    0 -0.19643838107E+02 -0.56196752968E+02 -0.86264642328E+02  0.10481194558E+03  0.00000000000E+00 0.  1.
</event>
<event>
 8    1  0.7005395E-009  0.2965130E+03  0.7561462E-02  0.1086997E+00
         -2   -1    0    0    0  501 -0.00000000000E+00  0.00000000000E+00  0.30560093672E+03  0.30560093672E+03  0.00000000000E+00 0.  1.
          2   -1    0    0  501    0  0.00000000000E+00 -0.00000000000E+00 -0.37446065314E+03  0.37446065314E+03  0.00000000000E+00 0. -1.
         25    2    1    2    0    0  0.28372289682E+03 -0.78061218015E+02  0.91515916884E+02  0.33258795271E+03  0.12508935728E+03 0.  0.
         23    2    1    2    0    0 -0.28372289682E+03  0.78061218015E+02 -0.16037563331E+03  0.34747363715E+03  0.91789698843E+02 0.  0.
          5    1    3    3  502    0  0.87382698484E+02 -0.94429481601E+01  0.88125268196E+02  0.12453288947E+03  0.41800000000E+01 0. -1.
         -5    1    3    3    0  502  0.19634019834E+03 -0.68618269854E+02  0.33906486875E+01  0.20805506324E+03  0.41800000000E+01 0. -1.
        -11    1    4    4    0    0 -0.37167390682E+02  0.25041065775E+02  0.61886755336E+01  0.45241237937E+02  0.00000000000E+00 0.  1.
         11    1    4    4    0    0 -0.24655550614E+03  0.53020152240E+02 -0.16656430884E+03  0.30223239921E+03  0.00000000000E+00 0. -1.
</event>
<event>
 8    1  0.7005395E-009  0.1576879E+03  0.7561462E-02  0.1191332E+00
          1   -1    0    0  501    0  0.00000000000E+00  0.00000000000E+00  0.12233887810E+04  0.12233887810E+04  0.00000000000E+00 0. -1.
         -1   -1    0    0    0  501 -0.00000000000E+00 -0.00000000000E+00 -0.25099447091E+02  0.25099447091E+02  0.00000000000E+00 0.  1.
         25    2    1    2    0    0  0.13754645927E+03  0.91256023425E+01  0.54665386011E+03  0.57747802225E+03  0.12509243919E+03 0.  0.
         23    2    1    2    0    0 -0.13754645927E+03 -0.91256023425E+01  0.65163547375E+03  0.67101020579E+03  0.81385505733E+02 0.  0.
          5    1    3    3  502    0  0.60547444761E+02  0.42444495572E+02  0.10864441319E+03  0.13148615588E+03  0.41800000000E+01 0. -1.
         -5    1    3    3    0  502  0.76999014504E+02 -0.33318893230E+02  0.43800944692E+03  0.44599186637E+03  0.41800000000E+01 0. -1.
        -11    1    4    4    0    0 -0.13032425540E+03 -0.31267200464E+02  0.59216444639E+03  0.60714148346E+03  0.00000000000E+00 0.  1.
         11    1    4    4    0    0 -0.72222038645E+01  0.22141598122E+02  0.59471027364E+02  0.63868722328E+02  0.00000000000E+00 0. -1.
</event>
<event>
 8    1  0.7005395E-009  0.1255479E+03  0.7561462E-02  0.1234216E+00
         -2   -1    0    0    0  501 -0.00000000000E+00  0.00000000000E+00  0.22395302768E+03  0.22395302768E+03  0.00000000000E+00 0.  1.
          2   -1    0    0  501    0  0.00000000000E+00 -0.00000000000E+00 -0.97384056864E+02  0.97384056864E+02  0.00000000000E+00 0. -1.
         25    2    1    2    0    0  0.54114278580E+02 -0.66013780272E+02  0.12365048677E+03  0.19551158887E+03  0.12509661935E+03 0.  0.
         23    2    1    2    0    0 -0.54114278580E+02  0.66013780272E+02  0.29184840521E+01  0.12582549567E+03  0.92397854306E+02 0.  0.
          5    1    3    3  502    0 -0.23750576465E+02 -0.41081653524E+02  0.50774651168E+00  0.47639504040E+02  0.41800000000E+01 0.  1.
         -5    1    3    3    0  502  0.77864855045E+02 -0.24932126749E+02  0.12314274025E+03  0.14787208483E+03  0.41800000000E+01 0.  1.
        -11    1    4    4    0    0 -0.32150625217E+02  0.86052131582E+02 -0.11859138327E+02  0.92624355401E+02  0.00000000000E+00 0. -1.
         11    1    4    4    0    0 -0.21963653363E+02 -0.20038351309E+02  0.14777622380E+02  0.33201140273E+02  0.00000000000E+00 0.  1.
</event>
<event>
 8    1  0.7005395E-009  0.1161024E+03  0.7561462E-02  0.1249669E+00
         -1   -1    0    0    0  501 -0.00000000000E+00  0.00000000000E+00  0.32675634966E+02  0.32675634966E+02  0.00000000000E+00 0.  1.
          1   -1    0    0  501    0  0.00000000000E+00 -0.00000000000E+00 -0.60965131254E+03  0.60965131254E+03  0.00000000000E+00 0. -1.
         25    2    1    2    0    0  0.87351800611E+02 -0.13895639075E+02 -0.34847734353E+03  0.38066663861E+03  0.12508878821E+03 0.  0.
         23    2    1    2    0    0 -0.87351800611E+02  0.13895639075E+02 -0.22849833404E+03  0.26166030890E+03  0.91821581009E+02 0.  0.
          5    1    3    3  502    0  0.97614355022E+00  0.18132063565E+02  0.15479713087E+01  0.18697411600E+02  0.41800000000E+01 0.  1.
         -5    1    3    3    0  502  0.86375657060E+02 -0.32027702640E+02 -0.35002531484E+03  0.36196922701E+03  0.41800000000E+01 0.  1.
        -11    1    4    4    0    0 -0.68417799300E+02  0.47147628511E+02 -0.11493493274E+03  0.14182359783E+03  0.00000000000E+00 0.  1.
         11    1    4    4    0    0 -0.18934001310E+02 -0.33251989436E+02 -0.11356340129E+03  0.11983671107E+03  0.00000000000E+00 0. -1.
</event>
<event>
 8    1  0.7005395E-009  0.1450058E+03  0.7561462E-02  0.1206748E+00
         -1   -1    0    0    0  501 -0.00000000000E+00  0.00000000000E+00  0.54491303927E+02  0.54491303927E+02  0.00000000000E+00 0.  1.
          1   -1    0    0  501    0  0.00000000000E+00 -0.00000000000E+00 -0.59209728568E+03  0.59209728568E+03  0.00000000000E+00 0. -1.
         25    2    1    2    0    0  0.12963699401E+03 -0.28257539313E+02 -0.19031291230E+03  0.26357376574E+03  0.12509151313E+03 0.  0.
         23    2    1    2    0    0 -0.12963699401E+03  0.28257539313E+02 -0.34729306946E+03  0.38301482386E+03  0.92106679785E+02 0.  0.
          5    1    3    3  502    0  0.97493478639E+02  0.17763138589E+02 -0.18117227604E+03  0.20654629862E+03  0.41800000000E+01 0. -1.
         -5    1    3    3    0  502  0.32143515376E+02 -0.46020677902E+02 -0.91406362609E+01  0.57027467124E+02  0.41800000000E+01 0. -1.
        -11    1    4    4    0    0 -0.97328236791E+02  0.11117543994E+02 -0.13059856144E+03  0.16325553501E+03  0.00000000000E+00 0.  1.
         11    1    4    4    0    0 -0.32308757224E+02  0.17139995319E+02 -0.21669450801E+03  0.21975928885E+03  0.00000000000E+00 0. -1.
</event>
<event>
 8    1  0.7005395E-009  0.1109813E+03  0.7561462E-02  0.1258763E+00
         -2   -1    0    0    0  501 -0.00000000000E+00  0.00000000000E+00  0.27036810389E+02  0.27036810389E+02  0.00000000000E+00 0.  1.
          2   -1    0    0  501    0  0.00000000000E+00 -0.00000000000E+00 -0.76888667740E+03  0.76888667740E+03  0.00000000000E+00 0. -1.
         25    2    1    2    0    0 -0.86932219711E+02  0.21359969642E+02 -0.46652711529E+03  0.49123091314E+03  0.12508717598E+03 0.  0.
         23    2    1    2    0    0  0.86932219711E+02 -0.21359969642E+02 -0.27532275172E+03  0.30469257465E+03  0.94981515601E+02 0.  0.
          5    1    3    3  502    0 -0.69053994479E+02  0.47707846228E+02 -0.44429422843E+03  0.45217178877E+03  0.41800000000E+01 0.  1.
         -5    1    3    3    0  502 -0.17878225232E+02 -0.26347876586E+02 -0.22232886860E+02  0.39059124365E+02  0.41800000000E+01 0.  1.
        -11    1    4    4    0    0  0.34288423929E+02  0.19253049851E+02 -0.27196495341E+02  0.47812396959E+02  0.00000000000E+00 0.  1.
         11    1    4    4    0    0  0.52643795782E+02 -0.40613019493E+02 -0.24812625638E+03  0.25688017769E+03  0.00000000000E+00 0. -1.
</event>
<event>
 8    1  0.7005395E-009  0.8820777E+02  0.7561462E-02  0.1307251E+00
          2   -1    0    0  501    0  0.00000000000E+00  0.00000000000E+00  0.42405252073E+02  0.42405252073E+02  0.00000000000E+00 0. -1.
         -2   -1    0    0    0  501 -0.00000000000E+00 -0.00000000000E+00 -0.41047308562E+03  0.41047308562E+03  0.00000000000E+00 0.  1.
         25    2    1    2    0    0  0.32894431160E+02  0.64723612159E+02 -0.23684709989E+03  0.27751621267E+03  0.12509000756E+03 0.  0.
         23    2    1    2    0    0 -0.32894431160E+02 -0.64723612159E+02 -0.13122073365E+03  0.17536212502E+03  0.90894468373E+02 0.  0.
          5    1    3    3  502    0  0.30199091855E+02  0.51232380523E+02 -0.24132752324E+02  0.64316437227E+02  0.41800000000E+01 0.  1.
         -5    1    3    3    0  502  0.26953393058E+01  0.13491231636E+02 -0.21271434757E+03  0.21319977544E+03  0.41800000000E+01 0.  1.
        -11    1    4    4    0    0  0.78622337052E+01  0.12692484686E+02  0.29187756464E+01  0.15212926662E+02  0.00000000000E+00 0. -1.
         11    1    4    4    0    0 -0.40756664866E+02 -0.77416096845E+02 -0.13413950930E+03  0.16014919836E+03  0.00000000000E+00 0.  1.
</event>
<event>
 8    1  0.7005395E-009  0.8389863E+02  0.7561462E-02  0.1318338E+00
          2   -1    0    0  501    0  0.00000000000E+00  0.00000000000E+00  0.42481193472E+03  0.42481193472E+03  0.00000000000E+00 0. -1.
         -2   -1    0    0    0  501 -0.00000000000E+00 -0.00000000000E+00 -0.28623062277E+02  0.28623062277E+02  0.00000000000E+00 0.  1.
         25    2    1    2    0    0  0.22434283349E+02 -0.12837957357E+02  0.20569346272E+03  0.24212589683E+03  0.12508812531E+03 0.  0.
         23    2    1    2    0    0 -0.22434283349E+02  0.12837957357E+02  0.19049540972E+03  0.21130910016E+03  0.87720718573E+02 0.  0.
          5    1    3    3  502    0  0.60043296933E+02 -0.18636836972E+02  0.46274877494E+02  0.78175225525E+02  0.41800000000E+01 0. -1.
         -5    1    3    3    0  502 -0.37609013583E+02  0.57988796151E+01  0.15941858523E+03  0.16395067131E+03  0.41800000000E+01 0. -1.
        -11    1    4    4    0    0  0.18194306712E+02  0.17949476853E+02  0.12106131808E+02  0.28280292491E+02  0.00000000000E+00 0.  1.
         11    1    4    4    0    0 -0.40628590062E+02 -0.51115194968E+01  0.17838927791E+03  0.18302880767E+03  0.00000000000E+00 0. -1.
</event>
<event>
 8    1  0.7005395E-009  0.1280265E+03  0.7561462E-02  0.1230414E+00
          1   -1    0    0  501    0  0.00000000000E+00  0.00000000000E+00  0.33937075440E+03  0.33937075440E+03  0.00000000000E+00 0. -1.
         -1   -1    0    0    0  501 -0.00000000000E+00 -0.00000000000E+00 -0.67220494784E+02  0.67220494784E+02  0.00000000000E+00 0.  1.
         25    2    1    2    0    0  0.55896644907E+02  0.85383849446E+02  0.17787256488E+03  0.24020588256E+03  0.12508149352E+03 0.  0.
         23    2    1    2    0    0 -0.55896644907E+02 -0.85383849446E+02  0.94277694736E+02  0.16638536663E+03  0.91547637022E+02 0.  0.
          5    1    3    3  502    0  0.62220481555E+02  0.10531366500E+03  0.18116190107E+03  0.21863088336E+03  0.41800000000E+01 0. -1.
         -5    1    3    3    0  502 -0.63238366473E+01 -0.19929815551E+02 -0.32893361892E+01  0.21574999198E+02  0.41800000000E+01 0. -1.
        -11    1    4    4    0    0 -0.47286756459E+01 -0.49775228476E+02  0.91156432891E+02  0.10396840386E+03  0.00000000000E+00 0. -1.
         11    1    4    4    0    0 -0.51167969262E+02 -0.35608620970E+02  0.31212618445E+01  0.62416962768E+02  0.00000000000E+00 0.  1.
</event>
<event>
 8    1  0.7005395E-009  0.9866761E+02  0.7561462E-02  0.1283123E+00
         -1   -1    0    0    0  501 -0.00000000000E+00  0.00000000000E+00  0.90284998832E+02  0.90284998832E+02  0.00000000000E+00 0.  1.
          1   -1    0    0  501    0  0.00000000000E+00 -0.00000000000E+00 -0.22401945856E+03  0.22401945856E+03  0.00000000000E+00 0. -1.
         25    2    1    2    0    0  0.14049406295E+02 -0.90202004469E+02 -0.77321711347E+02  0.17308764361E+03  0.12508756092E+03 0.  0.
         23    2    1    2    0    0 -0.14049406295E+02  0.90202004469E+02 -0.56412748385E+02  0.14121681379E+03  0.91793261678E+02 0.  0.
          5    1    3    3  502    0 -0.19236104319E+02 -0.24040072032E+02  0.29625937505E+02  0.42931589135E+02  0.41800000000E+01 0. -1.
         -5    1    3    3    0  502  0.33285510614E+02 -0.66161932437E+02 -0.10694764885E+03  0.13015605447E+03  0.41800000000E+01 0. -1.
        -11    1    4    4    0    0 -0.17436850431E+01  0.50218199231E+02  0.20015458853E+02  0.54088137004E+02  0.00000000000E+00 0.  1.
         11    1    4    4    0    0 -0.12305721252E+02  0.39983805238E+02 -0.76428207239E+02  0.87128676786E+02  0.00000000000E+00 0. -1.
</event>
<event>
 8    1  0.7005395E-009  0.6477797E+02  0.7561462E-02  0.1378809E+00
         -2   -1    0    0    0  501 -0.00000000000E+00  0.00000000000E+00  0.73167969342E+02  0.73167969342E+02  0.00000000000E+00 0.  1.
          2   -1    0    0  501    0  0.00000000000E+00 -0.00000000000E+00 -0.27080929653E+03  0.27080929653E+03  0.00000000000E+00 0. -1.
         25    2    1    2    0    0  0.43782738557E+02 -0.65514309136E+01 -0.13900963786E+02  0.13341330539E+03  0.12508406700E+03 0.  0.
         23    2    1    2    0    0 -0.43782738557E+02  0.65514309136E+01 -0.18374036340E+03  0.21056396048E+03  0.92826778836E+02 0.  0.
          5    1    3    3  502    0  0.18064767118E+02 -0.12371901377E+02 -0.68824835760E+02  0.72344524133E+02  0.41800000000E+01 0.  1.
         -5    1    3    3    0  502  0.25717971439E+02  0.58204704636E+01  0.54923871974E+02  0.61068781255E+02  0.41800000000E+01 0.  1.
        -11    1    4    4    0    0  0.19205915583E+01  0.29405891170E+02 -0.12762408132E+02  0.32113457752E+02  0.00000000000E+00 0.  1.
         11    1    4    4    0    0 -0.45703330115E+02 -0.22854460256E+02 -0.17097795527E+03  0.17845050273E+03  0.00000000000E+00 0. -1.
</event>
<event>
 8    1  0.7005395E-009  0.1116883E+03  0.7561462E-02  0.1257475E+00
          2   -1    0    0  501    0  0.00000000000E+00  0.00000000000E+00  0.37485511613E+03  0.37485511613E+03  0.00000000000E+00 0. -1.
         -2   -1    0    0    0  501 -0.00000000000E+00 -0.00000000000E+00 -0.40236095158E+02  0.40236095158E+02  0.00000000000E+00 0.  1.
         25    2    1    2    0    0  0.16689973713E+02  0.44773490112E+02  0.17788144264E+03  0.22264782722E+03  0.12508807573E+03 0.  0.
         23    2    1    2    0    0 -0.16689973713E+02 -0.44773490112E+02  0.15673757833E+03  0.19244338407E+03  0.10091861559E+03 0.  0.
          5    1    3    3  502    0  0.22605632410E+02  0.78974974413E+02  0.16679260227E+03  0.18597124986E+03  0.41800000000E+01 0.  1.
         -5    1    3    3    0  502 -0.59156586965E+01 -0.34201484301E+02  0.11088840369E+02  0.36676577361E+02  0.41800000000E+01 0.  1.
        -11    1    4    4    0    0 -0.41263106576E+02  0.13097203015E+02  0.94656326544E+02  0.10408650655E+03  0.00000000000E+00 0. -1.
         11    1    4    4    0    0  0.24573132863E+02 -0.57870693127E+02  0.62081251785E+02  0.88356877519E+02  0.00000000000E+00 0.  1.
</event>
<event>
 8    1  0.7005395E-009  0.9246260E+02  0.7561462E-02  0.1296995E+00
          1   -1    0    0  501    0  0.00000000000E+00  0.00000000000E+00  0.74225462711E+02  0.74225462711E+02  0.00000000000E+00 0. -1.
         -1   -1    0    0    0  501 -0.00000000000E+00 -0.00000000000E+00 -0.27510729435E+03  0.27510729435E+03  0.00000000000E+00 0.  1.
         25    2    1    2    0    0  0.76318282509E+02  0.35666139011E+02 -0.15511961313E+03  0.21634773131E+03  0.12509073806E+03 0.  0.
         23    2    1    2    0    0 -0.76318282509E+02 -0.35666139011E+02 -0.45762218512E+02  0.13298502576E+03  0.92164433025E+02 0.  0.
          5    1    3    3  502    0  0.33330883665E+02 -0.38108584634E+01  0.14599446743E+02  0.36825082394E+02  0.41800000000E+01 0. -1.
         -5    1    3    3    0  502  0.42987398844E+02  0.39476997474E+02 -0.16971905987E+03  0.17952264891E+03  0.41800000000E+01 0. -1.
        -11    1    4    4    0    0 -0.15031958569E+02  0.83069754413E+01  0.24486873737E+02  0.29909406628E+02  0.00000000000E+00 0. -1.
         11    1    4    4    0    0 -0.61286323940E+02 -0.43973114452E+02 -0.70249092249E+02  0.10307561913E+03  0.00000000000E+00 0.  1.
</event>
<event>
 8    1  0.7005395E-009  0.1294608E+03  0.7561462E-02  0.1228258E+00
         -1   -1    0    0    0  501 -0.00000000000E+00  0.00000000000E+00  0.31467759815E+02  0.31467759815E+02  0.00000000000E+00 0.  1.
          1   -1    0    0  501    0  0.00000000000E+00 -0.00000000000E+00 -0.59897329109E+03  0.59897329109E+03  0.00000000000E+00 0. -1.
         25    2    1    2    0    0 -0.10336450173E+02 -0.82323458594E+02 -0.34429619888E+03  0.37559632063E+03  0.12509488187E+03 0.  0.
         23    2    1    2    0    0  0.10336450173E+02  0.82323458594E+02 -0.22320933239E+03  0.25484473027E+03  0.90771341534E+02 0.  0.
          5    1    3    3  502    0  0.39876660091E+02 -0.76668511656E+02 -0.13576942127E+03  0.16099384104E+03  0.41800000000E+01 0. -1.
         -5    1    3    3    0  502 -0.50213110264E+02 -0.56549469375E+01 -0.20852677761E+03  0.21460247960E+03  0.41800000000E+01 0. -1.
        -11    1    4    4    0    0  0.36810669892E+02  0.17112209699E+01 -0.85372594643E+02  0.92986201187E+02  0.00000000000E+00 0.  1.
         11    1    4    4    0    0 -0.26474219719E+02  0.80612237624E+02 -0.13783673775E+03  0.16185852909E+03  0.00000000000E+00 0. -1.
</event>
<event>
 8    1  0.7005395E-009  0.3492861E+03  0.7561462E-02  0.1062908E+00
         -2   -1    0    0    0  501 -0.00000000000E+00  0.00000000000E+00  0.88788595230E+02  0.88788595230E+02  0.00000000000E+00 0.  1.
          2   -1    0    0  501    0  0.00000000000E+00 -0.00000000000E+00 -0.16050335805E+04  0.16050335805E+04  0.00000000000E+00 0. -1.
         25    2    1    2    0    0 -0.12912127941E+03  0.31599352935E+03 -0.10402998202E+04  0.11019954646E+04  0.12508426237E+03 0.  0.
         23    2    1    2    0    0  0.12912127941E+03 -0.31599352935E+03 -0.47594516511E+03  0.59182671118E+03  0.84916667840E+02 0.  0.
          5    1    3    3  502    0 -0.14432246483E+03  0.30582575041E+03 -0.10187780574E+04  0.10734451854E+04  0.41800000000E+01 0.  1.
         -5    1    3    3    0  502  0.15201185421E+02  0.10167778938E+02 -0.21521762797E+02  0.28550279169E+02  0.41800000000E+01 0.  1.
        -11    1    4    4    0    0  0.39588935745E+02 -0.81318962947E+02 -0.19512259772E+03  0.21506484071E+03  0.00000000000E+00 0. -1.
         11    1    4    4    0    0  0.89532343665E+02 -0.23467456641E+03 -0.28082256739E+03  0.37676187046E+03  0.00000000000E+00 0.  1.
</event>
<event>
 8    1  0.7005395E-009  0.1614679E+03  0.7561462E-02  0.1187049E+00
         -1   -1    0    0    0  501 -0.00000000000E+00  0.00000000000E+00  0.40124748670E+03  0.40124748670E+03  0.00000000000E+00 0.  1.
          1   -1    0    0  501    0  0.00000000000E+00 -0.00000000000E+00 -0.99802188607E+02  0.99802188607E+02  0.00000000000E+00 0. -1.
         25    2    1    2    0    0  0.99685256762E+02 -0.70899373865E+02  0.30152397501E+03  0.34860868503E+03  0.12508971240E+03 0.  0.
         23    2    1    2    0    0 -0.99685256762E+02  0.70899373865E+02 -0.78676917107E-01  0.15244099027E+03  0.90963606425E+02 0.  0.
          5    1    3    3  502    0  0.19093555955E+02 -0.89769181703E+02  0.16706367514E+03  0.19065889388E+03  0.41800000000E+01 0. -1.
         -5    1    3    3    0  502  0.80591700807E+02  0.18869807838E+02  0.13446029986E+03  0.15794979116E+03  0.41800000000E+01 0. -1.
        -11    1    4    4    0    0 -0.75234037541E+02  0.22005355630E+01  0.17839243045E+02  0.77351414686E+02  0.00000000000E+00 0.  1.
         11    1    4    4    0    0 -0.24451219221E+02  0.68698838302E+02 -0.17917919962E+02  0.75089575583E+02  0.00000000000E+00 0. -1.
</event>
<event>
 8    1  0.7005395E-009  0.1831873E+03  0.7561462E-02  0.1164754E+00
         -2   -1    0    0    0  501 -0.00000000000E+00  0.00000000000E+00  0.34017807138E+02  0.34017807138E+02  0.00000000000E+00 0. -1.
          2   -1    0    0  501    0  0.00000000000E+00 -0.00000000000E+00 -0.11863893712E+04  0.11863893712E+04  0.00000000000E+00 0.  1.
         25    2    1    2    0    0 -0.13460728841E+03  0.72628639896E+02 -0.81631094124E+03  0.83988340000E+03  0.12508609589E+03 0.  0.
         23    2    1    2    0    0  0.13460728841E+03 -0.72628639896E+02 -0.33606062284E+03  0.38052377836E+03  0.92019357993E+02 0.  0.
          5    1    3    3  502    0 -0.31331426611E+02  0.79964477665E+02 -0.49087554988E+03  0.49834952980E+03  0.41800000000E+01 0.  1.
         -5    1    3    3    0  502 -0.10327586179E+03 -0.73358377697E+01 -0.32543539136E+03  0.34153387020E+03  0.41800000000E+01 0.  1.
        -11    1    4    4    0    0  0.81109408763E+02  0.63713173691E+01 -0.18126906221E+03  0.19869021815E+03  0.00000000000E+00 0.  1.
         11    1    4    4    0    0  0.53497879643E+02 -0.78999957265E+02 -0.15479156063E+03  0.18183356021E+03  0.00000000000E+00 0. -1.
</event>
<event>
 8    1  0.7005395E-009  0.1080168E+03  0.7561462E-02  0.1264287E+00
          1   -1    0    0  501    0  0.00000000000E+00  0.00000000000E+00  0.87981015984E+02  0.87981015984E+02  0.00000000000E+00 0. -1.
         -1   -1    0    0    0  501 -0.00000000000E+00 -0.00000000000E+00 -0.22936633388E+03  0.22936633388E+03  0.00000000000E+00 0.  1.
         25    2    1    2    0    0 -0.52924115749E+02  0.67939748406E+02 -0.11023965209E+03  0.18766706757E+03  0.12509746566E+03 0.  0.
         23    2    1    2    0    0  0.52924115749E+02 -0.67939748406E+02 -0.31145665799E+02  0.12968028229E+03  0.91815857428E+02 0.  0.
          5    1    3    3  502    0 -0.60542819601E+02  0.58131732834E+02 -0.13536521208E+03  0.15932967209E+03  0.41800000000E+01 0. -1.
         -5    1    3    3    0  502  0.76187038521E+01  0.98080155722E+01  0.25125559987E+02  0.28337395479E+02  0.41800000000E+01 0. -1.
        -11    1    4    4    0    0 -0.19703452305E+02 -0.38978770935E+00 -0.22811368358E+02  0.30145256568E+02  0.00000000000E+00 0.  1.
         11    1    4    4    0    0  0.72627568054E+02 -0.67549960696E+02 -0.83342974410E+01  0.99535025721E+02  0.00000000000E+00 0. -1.
</event>
<event>
 8    1  0.7005395E-009  0.4906749E+03  0.7561462E-02  0.1016242E+00
         -1   -1    0    0    0  501 -0.00000000000E+00  0.00000000000E+00  0.30614465574E+03  0.30614465574E+03  0.00000000000E+00 0.  1.
          1   -1    0    0  501    0  0.00000000000E+00 -0.00000000000E+00 -0.81071765973E+03  0.81071765973E+03  0.00000000000E+00 0. -1.
         25    2    1    2    0    0 -0.48530423533E+03  0.12731504938E+02 -0.25020689813E+03  0.56029749195E+03  0.12508994989E+03 0.  0.
         23    2    1    2    0    0  0.48530423533E+03 -0.12731504938E+02 -0.25436610586E+03  0.55656482352E+03  0.96850373894E+02 0.  0.
          5    1    3    3  502    0 -0.22086819579E+02  0.61597189059E+01 -0.50859932138E+02  0.55946178004E+02  0.41800000000E+01 0. -1.
         -5    1    3    3    0  502 -0.46321741576E+03  0.65717860322E+01 -0.19934696599E+03  0.50435131395E+03  0.41800000000E+01 0. -1.
        -11    1    4    4    0    0  0.29431485256E+03 -0.54342036514E+02 -0.14471734107E+03  0.33244157107E+03  0.00000000000E+00 0.  1.
         11    1    4    4    0    0  0.19098938277E+03  0.41610531576E+02 -0.10964876478E+03  0.22412325245E+03  0.00000000000E+00 0. -1.
</event>
<event>
 8    1  0.7005395E-009  0.1530315E+03  0.7561462E-02  0.1196797E+00
          2   -1    0    0  501    0  0.00000000000E+00  0.00000000000E+00  0.52698516417E+03  0.52698516417E+03  0.00000000000E+00 0. -1.
         -2   -1    0    0    0  501 -0.00000000000E+00 -0.00000000000E+00 -0.66548539712E+02  0.66548539712E+02  0.00000000000E+00 0.  1.
         25    2    1    2    0    0 -0.67239292825E+02  0.12610420137E+03  0.14907471943E+03  0.24144162582E+03  0.12508954633E+03 0.  0.
         23    2    1    2    0    0  0.67239292825E+02 -0.12610420137E+03  0.31136190503E+03  0.35209207807E+03  0.81235481345E+02 0.  0.
          5    1    3    3  502    0 -0.53213592497E+02  0.91068817891E+02  0.16846760162E+03  0.19880649188E+03  0.41800000000E+01 0. -1.
         -5    1    3    3    0  502 -0.14025700328E+02  0.35035383482E+02 -0.19392882197E+02  0.42635133931E+02  0.41800000000E+01 0. -1.
        -11    1    4    4    0    0  0.26682936860E+02 -0.11825223235E+03  0.20749276190E+03  0.24030983296E+03  0.00000000000E+00 0.  1.
         11    1    4    4    0    0  0.40556355965E+02 -0.78519690216E+01  0.10386914314E+03  0.11178224511E+03  0.00000000000E+00 0. -1.
</event>
<event>
 8    1  0.7005395E-009  0.1390678E+03  0.7561462E-02  0.1214589E+00
          2   -1    0    0  501    0  0.00000000000E+00  0.00000000000E+00  0.98269178858E+03  0.98269178858E+03  0.00000000000E+00 0.  1.
         -2   -1    0    0    0  501 -0.00000000000E+00 -0.00000000000E+00 -0.46286519680E+02  0.46286519680E+02  0.00000000000E+00 0. -1.
         25    2    1    2    0    0  0.80744065538E+02 -0.66417364909E+02  0.84781985931E+03  0.86335239617E+03  0.12509186883E+03 0.  0.
         23    2    1    2    0    0 -0.80744065538E+02  0.66417364909E+02  0.88585409588E+02  0.16562591209E+03  0.93025251856E+02 0.  0.
          5    1    3    3  502    0  0.12137081055E+02  0.28539370693E+02  0.69057173129E+02  0.75816686664E+02  0.41800000000E+01 0. -1.
         -5    1    3    3    0  502  0.68606984482E+02 -0.94956735602E+02  0.77876268618E+03  0.78753570951E+03  0.41800000000E+01 0. -1.
        -11    1    4    4    0    0 -0.66108103363E+02  0.47938341677E+01  0.76368358165E+02  0.10112066211E+03  0.00000000000E+00 0. -1.
         11    1    4    4    0    0 -0.14635962175E+02  0.61623530741E+02  0.12217051423E+02  0.64505249982E+02  0.00000000000E+00 0.  1.
</event>
<event>
 8    1  0.7005395E-009  0.6630669E+02  0.7561462E-02  0.1373123E+00
         -1   -1    0    0    0  501 -0.00000000000E+00  0.00000000000E+00  0.17485196066E+02  0.17485196066E+02  0.00000000000E+00 0. -1.
          1   -1    0    0  501    0  0.00000000000E+00 -0.00000000000E+00 -0.71022580968E+03  0.71022580968E+03  0.00000000000E+00 0.  1.
         25    2    1    2    0    0  0.18453891233E+02 -0.12289539076E+02 -0.43850634898E+03  0.45653831072E+03  0.12509129541E+03 0.  0.
         23    2    1    2    0    0 -0.18453891233E+02  0.12289539076E+02 -0.25423426463E+03  0.27117269502E+03  0.91695094418E+02 0.  0.
          5    1    3    3  502    0  0.18484290567E+01  0.10147791735E+02 -0.42517976819E+03  0.42532540725E+03  0.41800000000E+01 0.  1.
         -5    1    3    3    0  502  0.16605462176E+02 -0.22437330811E+02 -0.13326580788E+02  0.31212903477E+02  0.41800000000E+01 0.  1.
        -11    1    4    4    0    0  0.20702612094E+02 -0.29468729600E+02 -0.78915864447E+02  0.86745131466E+02  0.00000000000E+00 0.  1.
         11    1    4    4    0    0 -0.39156503327E+02  0.41758268676E+02 -0.17531840018E+03  0.18442756355E+03  0.00000000000E+00 0. -1.
</event>
<event>
 8    1  0.7005395E-009  0.2284598E+03  0.7561462E-02  0.1127729E+00
          1   -1    0    0  501    0  0.00000000000E+00  0.00000000000E+00  0.20712928356E+03  0.20712928356E+03  0.00000000000E+00 0. -1.
         -1   -1    0    0    0  501 -0.00000000000E+00 -0.00000000000E+00 -0.32796373936E+03  0.32796373936E+03  0.00000000000E+00 0.  1.
         25    2    1    2    0    0 -0.11344838183E+03 -0.17327714000E+03  0.53916177141E+02  0.24789228871E+03  0.12509248601E+03 0.  0.
         23    2    1    2    0    0  0.11344838183E+03  0.17327714000E+03 -0.17475063294E+03  0.28720073421E+03  0.95136614578E+02 0.  0.
          5    1    3    3  502    0 -0.47549089256E+02 -0.31395260721E+01  0.44203249704E+02  0.65131959877E+02  0.41800000000E+01 0.  1.
         -5    1    3    3    0  502 -0.65899292573E+02 -0.17013761393E+03  0.97129274373E+01  0.18276032883E+03  0.41800000000E+01 0.  1.
        -11    1    4    4    0    0  0.11556656667E+03  0.98709358706E+02 -0.10226672596E+03  0.18318747792E+03  0.00000000000E+00 0.  1.
         11    1    4    4    0    0 -0.21181848376E+01  0.74567781294E+02 -0.72483906976E+02  0.10401325629E+03  0.00000000000E+00 0. -1.
</event>
<event>
 8    1  0.7005395E-009  0.1479051E+03  0.7561462E-02  0.1203071E+00
         -2   -1    0    0    0  501 -0.00000000000E+00  0.00000000000E+00  0.19251527845E+02  0.19251527845E+02  0.00000000000E+00 0.  1.
          2   -1    0    0  501    0  0.00000000000E+00 -0.00000000000E+00 -0.12624014341E+04  0.12624014341E+04  0.00000000000E+00 0. -1.
         25    2    1    2    0    0  0.11129397940E+03  0.67732700765E+01 -0.67515091412E+03  0.69563582946E+03  0.12509285892E+03 0.  0.
         23    2    1    2    0    0 -0.11129397940E+03 -0.67732700765E+01 -0.56799899211E+03  0.58601713246E+03  0.91438490027E+02 0.  0.
          5    1    3    3  502    0  0.24676583268E+02  0.49360145190E+02 -0.12007560731E+03  0.13221566309E+03  0.41800000000E+01 0. -1.
         -5    1    3    3    0  502  0.86617396136E+02 -0.42586875114E+02 -0.55507530681E+03  0.56342016638E+03  0.41800000000E+01 0. -1.
        -11    1    4    4    0    0 -0.69346729011E+02  0.40777887641E+02 -0.29744574099E+03  0.30813272105E+03  0.00000000000E+00 0. -1.
         11    1    4    4    0    0 -0.41947250393E+02 -0.47551157717E+02 -0.27055325112E+03  0.27788441142E+03  0.00000000000E+00 0.  1.
</event>
<event>
 8    1  0.7005395E-009  0.1692385E+03  0.7561462E-02  0.1178644E+00
         -2   -1    0    0    0  501 -0.00000000000E+00  0.00000000000E+00  0.50542096589E+02  0.50542096589E+02  0.00000000000E+00 0.  1.
          2   -1    0    0  501    0  0.00000000000E+00 -0.00000000000E+00 -0.76590278931E+03  0.76590278931E+03  0.00000000000E+00 0. -1.
         25    2    1    2    0    0  0.14804509791E+03 -0.51195876306E+02 -0.47158486312E+03  0.51242374781E+03  0.12508974950E+03 0.  0.
         23    2    1    2    0    0 -0.14804509791E+03  0.51195876306E+02 -0.24377582961E+03  0.30402113809E+03  0.91999068149E+02 0.  0.
          5    1    3    3  502    0  0.15314165524E+03 -0.38049161257E+02 -0.47201539443E+03  0.49771087010E+03  0.41800000000E+01 0. -1.
         -5    1    3    3    0  502 -0.50965573262E+01 -0.13146715049E+02  0.43053131093E+00  0.14712877705E+02  0.41800000000E+01 0. -1.
        -11    1    4    4    0    0 -0.83915112396E+02  0.57125390621E+02 -0.20523022496E+03  0.22896397441E+03  0.00000000000E+00 0. -1.
         11    1    4    4    0    0 -0.64129985517E+02 -0.59295143142E+01 -0.38545604652E+02  0.75057163685E+02  0.00000000000E+00 0.  1.
</event>
<event>
 8    1  0.7005395E-009  0.1653055E+03  0.7561462E-02  0.1182834E+00
          1   -1    0    0  501    0  0.00000000000E+00  0.00000000000E+00  0.90776741490E+03  0.90776741490E+03  0.00000000000E+00 0. -1.
         -1   -1    0    0    0  501 -0.00000000000E+00 -0.00000000000E+00 -0.40728245988E+02  0.40728245988E+02  0.00000000000E+00 0.  1.
         25    2    1    2    0    0  0.10740124015E+03 -0.67172242570E+02  0.21841626360E+03  0.28178012787E+03  0.12508892717E+03 0.  0.
         23    2    1    2    0    0 -0.10740124015E+03  0.67172242570E+02  0.64862290531E+03  0.66671553301E+03  0.88038583095E+02 0.  0.
          5    1    3    3  502    0 -0.27183170356E+02 -0.21867975967E+02  0.54754610489E+02  0.65058995483E+02  0.41800000000E+01 0. -1.
         -5    1    3    3    0  502  0.13458441051E+03 -0.45304266603E+02  0.16366165311E+03  0.21672113239E+03  0.41800000000E+01 0. -1.
        -11    1    4    4    0    0 -0.16419674278E+02 -0.21036240467E+02  0.14190979478E+03  0.14439708782E+03  0.00000000000E+00 0. -1.
         11    1    4    4    0    0 -0.90981565875E+02  0.88208483037E+02  0.50671311053E+03  0.52231844520E+03  0.00000000000E+00 0.  1.
</event>
<event>
 8    1  0.7005395E-009  0.1093405E+03  0.7561462E-02  0.1261796E+00
         -2   -1    0    0    0  501 -0.00000000000E+00  0.00000000000E+00  0.17087737582E+02  0.17087737582E+02  0.00000000000E+00 0.  1.
          2   -1    0    0  501    0  0.00000000000E+00 -0.00000000000E+00 -0.10063239814E+04  0.10063239814E+04  0.00000000000E+00 0. -1.
         25    2    1    2    0    0  0.22188959760E+02  0.12928289095E+02 -0.81637709681E+03  0.82630408298E+03  0.12508949901E+03 0.  0.
         23    2    1    2    0    0 -0.22188959760E+02 -0.12928289095E+02 -0.17285914701E+03  0.19710763600E+03  0.91168222922E+02 0.  0.
          5    1    3    3  502    0 -0.44257827416E+02  0.34730757976E+02 -0.42182816508E+03  0.42558366286E+03  0.41800000000E+01 0. -1.
         -5    1    3    3    0  502  0.66446787176E+02 -0.21802468881E+02 -0.39454893173E+03  0.40072042013E+03  0.41800000000E+01 0. -1.
        -11    1    4    4    0    0  0.33193688698E+02 -0.15782110201E+02 -0.47741097562E+02  0.60250380648E+02  0.00000000000E+00 0.  1.
         11    1    4    4    0    0 -0.55382648458E+02  0.28538211060E+01 -0.12511804945E+03  0.13685725535E+03  0.00000000000E+00 0. -1.
</event>
<event>
 8    1  0.7005395E-009  0.1377877E+03  0.7561462E-02  0.1216337E+00
          1   -1    0    0  501    0  0.00000000000E+00  0.00000000000E+00  0.77471432904E+02  0.77471432904E+02  0.00000000000E+00 0. -1.
         -1   -1    0    0    0  501 -0.00000000000E+00 -0.00000000000E+00 -0.26930936853E+03  0.26930936853E+03  0.00000000000E+00 0.  1.
         25    2    1    2    0    0 -0.75634032905E+02  0.52738069511E+02 -0.68955656329E+02  0.17000846033E+03  0.12508470385E+03 0.  0.
         23    2    1    2    0    0  0.75634032905E+02 -0.52738069511E+02 -0.12288227930E+03  0.17677234110E+03  0.87444811759E+02 0.  0.
          5    1    3    3  502    0 -0.90430494356E+02  0.78427981332E+02 -0.35097396583E+02  0.12481154679E+03  0.41800000000E+01 0.  1.
         -5    1    3    3    0  502  0.14796461451E+02 -0.25689911821E+02 -0.33858259746E+02  0.45196913543E+02  0.41800000000E+01 0.  1.
        -11    1    4    4    0    0  0.21335607072E+02 -0.66505396558E+02 -0.55937739886E+02  0.89482996396E+02  0.00000000000E+00 0. -1.
         11    1    4    4    0    0  0.54298425833E+02  0.13767327047E+02 -0.66944539413E+02  0.87289344706E+02  0.00000000000E+00 0.  1.
</event>
<event>
 8    1  0.7005395E-009  0.1225791E+03  0.7561462E-02  0.1238902E+00
         -1   -1    0    0    0  501 -0.00000000000E+00  0.00000000000E+00  0.27447807494E+03  0.27447807494E+03  0.00000000000E+00 0.  1.
          1   -1    0    0  501    0  0.00000000000E+00 -0.00000000000E+00 -0.73840809891E+02  0.73840809891E+02  0.00000000000E+00 0. -1.
         25    2    1    2    0    0  0.83891959247E+02 -0.24881522018E+02  0.14615389585E+03  0.21134389054E+03  0.12509327653E+03 0.  0.
         23    2    1    2    0    0 -0.83891959247E+02  0.24881522018E+02  0.54483369195E+02  0.13697499429E+03  0.90203994242E+02 0.  0.
          5    1    3    3  502    0  0.22179506224E+01  0.42386269741E+02  0.65812052127E+02  0.78423298660E+02  0.41800000000E+01 0. -1.
         -5    1    3    3    0  502  0.81674008624E+02 -0.67267791758E+02  0.80341843722E+02  0.13292059188E+03  0.41800000000E+01 0. -1.
        -11    1    4    4    0    0 -0.78487208563E+02  0.34381112610E+02  0.74905701425E+02  0.11381198056E+03  0.00000000000E+00 0.  1.
         11    1    4    4    0    0 -0.54047506835E+01 -0.94995905926E+01 -0.20422332230E+02  0.23163013731E+02  0.00000000000E+00 0. -1.
</event>
<event>
 8    1  0.7005395E-009  0.1301922E+03  0.7561462E-02  0.1227171E+00
          2   -1    0    0  501    0  0.00000000000E+00  0.00000000000E+00  0.61607243685E+03  0.61607243685E+03  0.00000000000E+00 0. -1.
         -2   -1    0    0    0  501 -0.00000000000E+00 -0.00000000000E+00 -0.30814925572E+02  0.30814925572E+02  0.00000000000E+00 0.  1.
         25    2    1    2    0    0 -0.78522864408E+02  0.24944601506E+02  0.27518646700E+03  0.31330865612E+03  0.12508656604E+03 0.  0.
         23    2    1    2    0    0  0.78522864408E+02 -0.24944601506E+02  0.31007104428E+03  0.33357870630E+03  0.91337984520E+02 0.  0.
          5    1    3    3  502    0 -0.37494723661E+02 -0.43786813268E+02  0.17901266843E+03  0.18811206016E+03  0.41800000000E+01 0.  1.
         -5    1    3    3    0  502 -0.41028140747E+02  0.68731414774E+02  0.96173798566E+02  0.12519659596E+03  0.41800000000E+01 0.  1.
        -11    1    4    4    0    0  0.83039854159E+02 -0.50027564646E+02  0.25779381796E+03  0.27541972911E+03  0.00000000000E+00 0.  1.
         11    1    4    4    0    0 -0.45169897506E+01  0.25082963140E+02  0.52277226316E+02  0.58158977188E+02  0.00000000000E+00 0. -1.
</event>
<event>
 8    1  0.7005395E-009  0.9262897E+02  0.7561462E-02  0.1296607E+00
          1   -1    0    0  501    0  0.00000000000E+00  0.00000000000E+00  0.45595435231E+03  0.45595435231E+03  0.00000000000E+00 0. -1.
         -1   -1    0    0    0  501 -0.00000000000E+00 -0.00000000000E+00 -0.35493735462E+02  0.35493735462E+02  0.00000000000E+00 0.  1.
         25    2    1    2    0    0  0.37394355780E+02 -0.11492371928E+02  0.13156246922E+03  0.18570233927E+03  0.12508502326E+03 0.  0.
         23    2    1    2    0    0 -0.37394355780E+02  0.11492371928E+02  0.28889814762E+03  0.30574574850E+03  0.92129857104E+02 0.  0.
          5    1    3    3  502    0  0.51016885410E+02 -0.35782287247E+02  0.14242671163E+03  0.15551827952E+03  0.41800000000E+01 0.  1.
         -5    1    3    3    0  502 -0.13622529630E+02  0.24289915319E+02 -0.10864242412E+02  0.30184059749E+02  0.41800000000E+01 0.  1.
        -11    1    4    4    0    0 -0.81786957686E+01 -0.37074134902E+02  0.16779179442E+03  0.17203333635E+03  0.00000000000E+00 0. -1.
         11    1    4    4    0    0 -0.29215660012E+02  0.48566506830E+02  0.12110635321E+03  0.13371241215E+03  0.00000000000E+00 0.  1.
</event>
<event>
 8    1  0.7005395E-009  0.8848549E+02  0.7561462E-02  0.1306561E+00
         -2   -1    0    0    0  501 -0.00000000000E+00  0.00000000000E+00  0.67198462145E+02  0.67198462145E+02  0.00000000000E+00 0.  1.
          2   -1    0    0  501    0  0.00000000000E+00 -0.00000000000E+00 -0.21096455890E+03  0.21096455890E+03  0.00000000000E+00 0. -1.
         25    2    1    2    0    0  0.40004498018E+02  0.17901278052E+02 -0.10973105215E+03  0.17207427820E+03  0.12509131783E+03 0.  0.
         23    2    1    2    0    0 -0.40004498018E+02 -0.17901278052E+02 -0.34035044602E+02  0.10608874284E+03  0.90419143319E+02 0.  0.
          5    1    3    3  502    0 -0.27622152420E+02  0.26358986426E+02 -0.94651102327E+02  0.10214735944E+03  0.41800000000E+01 0.  1.
         -5    1    3    3    0  502  0.67626650438E+02 -0.84577083744E+01 -0.15079949822E+02  0.69926918758E+02  0.41800000000E+01 0.  1.
        -11    1    4    4    0    0  0.80376810592E+01  0.11444155783E+02  0.22380043683E+02  0.26390137810E+02  0.00000000000E+00 0.  1.
         11    1    4    4    0    0 -0.48042179077E+02 -0.29345433835E+02 -0.56415088285E+02  0.79698605029E+02  0.00000000000E+00 0. -1.
</event>
<event>
 8    1  0.7005395E-009  0.1003839E+03  0.7561462E-02  0.1279491E+00
         -2   -1    0    0    0  501 -0.00000000000E+00  0.00000000000E+00  0.73269794898E+02  0.73269794898E+02  0.00000000000E+00 0.  1.
          2   -1    0    0  501    0  0.00000000000E+00 -0.00000000000E+00 -0.17477868847E+03  0.17477868847E+03  0.00000000000E+00 0. -1.
         25    2    1    2    0    0  0.89592361348E+00  0.29160653818E+02 -0.62634495687E+02  0.14290439778E+03  0.12508972957E+03 0.  0.
         23    2    1    2    0    0 -0.89592361348E+00 -0.29160653818E+02 -0.38874397880E+02  0.10514408559E+03  0.93235795237E+02 0.  0.
          5    1    3    3  502    0 -0.28134647141E+02 -0.36955345045E+02 -0.51915230386E+02  0.69784808112E+02  0.41800000000E+01 0. -1.
         -5    1    3    3    0  502  0.29030570755E+02  0.66115998863E+02 -0.10719265302E+02  0.73119589664E+02  0.41800000000E+01 0. -1.
        -11    1    4    4    0    0  0.17506893866E+02  0.21603965653E+02  0.12613233416E+02  0.30533855341E+02  0.00000000000E+00 0.  1.
         11    1    4    4    0    0 -0.18402817480E+02 -0.50764619470E+02 -0.51487631295E+02  0.74610230247E+02  0.00000000000E+00 0. -1.
</event>
<event>
 8    1  0.7005395E-009  0.9471406E+02  0.7561462E-02  0.1291821E+00
          1   -1    0    0  501    0  0.00000000000E+00  0.00000000000E+00  0.45040445501E+03  0.45040445501E+03  0.00000000000E+00 0. -1.
         -1   -1    0    0    0  501 -0.00000000000E+00 -0.00000000000E+00 -0.27299978741E+02  0.27299978741E+02  0.00000000000E+00 0.  1.
         25    2    1    2    0    0  0.84797044392E+01 -0.10461668889E+02  0.26107460974E+03  0.28980462853E+03  0.12508164918E+03 0.  0.
         23    2    1    2    0    0 -0.84797044392E+01  0.10461668889E+02  0.16202986653E+03  0.18789980523E+03  0.94187617297E+02 0.  0.
          5    1    3    3  502    0 -0.47914531900E+02 -0.13856590247E+02  0.20138331780E+03  0.20751029023E+03  0.41800000000E+01 0.  1.
         -5    1    3    3    0  502  0.56394236339E+02  0.33949213584E+01  0.59691291933E+02  0.82294338298E+02  0.41800000000E+01 0.  1.
        -11    1    4    4    0    0 -0.34995152781E+02 -0.21595845782E+02  0.12707152191E+03  0.13355977296E+03  0.00000000000E+00 0. -1.
         11    1    4    4    0    0  0.26515448342E+02  0.32057514671E+02  0.34958344623E+02  0.54340032264E+02  0.00000000000E+00 0.  1.
</event>
<event>
 8    1  0.7005395E-009  0.9730936E+02  0.7561462E-02  0.1286058E+00
          1   -1    0    0  501    0  0.00000000000E+00  0.00000000000E+00  0.77338685118E+02  0.77338685118E+02  0.00000000000E+00 0. -1.
         -1   -1    0    0    0  501 -0.00000000000E+00 -0.00000000000E+00 -0.21290256876E+03  0.21290256876E+03  0.00000000000E+00 0.  1.
         25    2    1    2    0    0  0.26881246727E+02  0.99177639909E+01 -0.13964336900E+03  0.18964895082E+03  0.12508193544E+03 0.  0.
         23    2    1    2    0    0 -0.26881246727E+02 -0.99177639909E+01  0.40794853511E+01  0.10059230306E+03  0.96339014768E+02 0.  0.
          5    1    3    3  502    0  0.15484623717E+02  0.64817110391E+02 -0.10226178025E+03  0.12213097671E+03  0.41800000000E+01 0.  1.
         -5    1    3    3    0  502  0.11396623009E+02 -0.54899346401E+02 -0.37381588746E+02  0.67517974113E+02  0.41800000000E+01 0.  1.
        -11    1    4    4    0    0 -0.37894261106E+02  0.17747678507E+02  0.37246205688E+02  0.56019951405E+02  0.00000000000E+00 0. -1.
         11    1    4    4    0    0  0.11013014380E+02 -0.27665442498E+02 -0.33166720337E+02  0.44572351658E+02  0.00000000000E+00 0.  1.
</event>
<event>
 8    1  0.7005395E-009  0.2965691E+03  0.7561462E-02  0.1086968E+00
         -2   -1    0    0    0  501 -0.00000000000E+00  0.00000000000E+00  0.32658262251E+02  0.32658262251E+02  0.00000000000E+00 0. -1.
          2   -1    0    0  501    0  0.00000000000E+00 -0.00000000000E+00 -0.31877203031E+04  0.31877203031E+04  0.00000000000E+00 0.  1.
         25    2    1    2    0    0 -0.10466598542E+03 -0.26632666839E+03 -0.21120948070E+04  0.21350581785E+04  0.12507633233E+03 0.  0.
         23    2    1    2    0    0  0.10466598542E+03  0.26632666839E+03 -0.10429672338E+04  0.10853203868E+04  0.90856086706E+02 0.  0.
          5    1    3    3  502    0 -0.91339848012E+02 -0.14890067362E+03 -0.15986840032E+04  0.16082047111E+04  0.41800000000E+01 0. -1.
         -5    1    3    3    0  502 -0.13326137410E+02 -0.11742599477E+03 -0.51341080388E+03  0.52685346742E+03  0.41800000000E+01 0. -1.
        -11    1    4    4    0    0  0.27170883009E+02  0.18804774339E+03 -0.64792171844E+03  0.67520571969E+03  0.00000000000E+00 0.  1.
         11    1    4    4    0    0  0.77495102414E+02  0.78278924996E+02 -0.39504551537E+03  0.41011466715E+03  0.00000000000E+00 0. -1.
</event>
<event>
 8    1  0.7005395E-009  0.1352401E+03  0.7561462E-02  0.1219881E+00
          2   -1    0    0  501    0  0.00000000000E+00  0.00000000000E+00  0.71808551436E+02  0.71808551436E+02  0.00000000000E+00 0. -1.
         -2   -1    0    0    0  501 -0.00000000000E+00 -0.00000000000E+00 -0.41898615104E+03  0.41898615104E+03  0.00000000000E+00 0.  1.
         25    2    1    2    0    0  0.72643816376E+02  0.37421778131E+02 -0.33635250468E+02  0.15314692050E+03  0.12508051667E+03 0.  0.
         23    2    1    2    0    0 -0.72643816376E+02 -0.37421778131E+02 -0.31354234914E+03  0.33764778197E+03  0.94972135034E+02 0.  0.
          5    1    3    3  502    0 -0.30221906555E+02  0.28802473003E+02  0.62182219489E+01  0.42415619424E+02  0.41800000000E+01 0. -1.
         -5    1    3    3    0  502  0.10286572293E+03  0.86193051278E+01 -0.39853472417E+02  0.11073130108E+03  0.41800000000E+01 0. -1.
        -11    1    4    4    0    0 -0.95372886674E+02 -0.22401928635E+02 -0.25008444949E+03  0.26858902769E+03  0.00000000000E+00 0.  1.
         11    1    4    4    0    0  0.22729070298E+02 -0.15019849496E+02 -0.63457899644E+02  0.69058754280E+02  0.00000000000E+00 0. -1.
</event>
<event>
 8    1  0.7005395E-009  0.9577393E+02  0.7561462E-02  0.1289442E+00
         -1   -1    0    0    0  501 -0.00000000000E+00  0.00000000000E+00  0.17554874212E+02  0.17554874212E+02  0.00000000000E+00 0.  1.
          1   -1    0    0  501    0  0.00000000000E+00 -0.00000000000E+00 -0.69162616439E+03  0.69162616439E+03  0.00000000000E+00 0. -1.
         25    2    1    2    0    0 -0.13057273022E+02  0.26474007781E+01 -0.30580655925E+03  0.33067043092E+03  0.12509109117E+03 0.  0.
         23    2    1    2    0    0  0.13057273022E+02 -0.26474007781E+01 -0.36826473092E+03  0.37851060768E+03  0.86451529641E+02 0.  0.
          5    1    3    3  502    0  0.15686523368E+02 -0.45261473478E+02 -0.23753526671E+03  0.24235334396E+03  0.41800000000E+01 0.  1.
         -5    1    3    3    0  502 -0.28743796390E+02  0.47908874256E+02 -0.68271292545E+02  0.88317086960E+02  0.41800000000E+01 0.  1.
        -11    1    4    4    0    0  0.48219833491E+02  0.11438405497E+02 -0.21402757324E+03  0.21969021728E+03  0.00000000000E+00 0.  1.
         11    1    4    4    0    0 -0.35162560469E+02 -0.14085806275E+02 -0.15423715769E+03  0.15882039041E+03  0.00000000000E+00 0. -1.
</event>
<event>
 8    1  0.7005395E-009  0.7707645E+02  0.7561462E-02  0.1337559E+00
          1   -1    0    0  501    0  0.00000000000E+00  0.00000000000E+00  0.53374035917E+03  0.53374035917E+03  0.00000000000E+00 0. -1.
         -1   -1    0    0    0  501 -0.00000000000E+00 -0.00000000000E+00 -0.27077626394E+02  0.27077626394E+02  0.00000000000E+00 0.  1.
         25    2    1    2    0    0  0.14017893021E+02  0.38531779688E+02  0.36981507617E+03  0.39254515765E+03  0.12508921161E+03 0.  0.
         23    2    1    2    0    0 -0.14017893021E+02 -0.38531779688E+02  0.13684765661E+03  0.16827282792E+03  0.88922798679E+02 0.  0.
          5    1    3    3  502    0  0.26911293287E+02  0.23277753677E+02  0.17918926506E+02  0.40057856280E+02  0.41800000000E+01 0.  1.
         -5    1    3    3    0  502 -0.12893400266E+02  0.15254026011E+02  0.35189614966E+03  0.35248730137E+03  0.41800000000E+01 0.  1.
        -11    1    4    4    0    0 -0.50311150517E+02 -0.35349067067E+02  0.85765868429E+02  0.10552986590E+03  0.00000000000E+00 0.  1.
         11    1    4    4    0    0  0.36293257496E+02 -0.31827126210E+01  0.51081788184E+02  0.62742962023E+02  0.00000000000E+00 0. -1.
</event>
<event>
 8    1  0.7005395E-009  0.5656875E+02  0.7561462E-02  0.1412823E+00
          2   -1    0    0  501    0  0.00000000000E+00  0.00000000000E+00  0.50334462268E+03  0.50334462268E+03  0.00000000000E+00 0.  1.
         -2   -1    0    0    0  501 -0.00000000000E+00 -0.00000000000E+00 -0.26398913909E+02  0.26398913909E+02  0.00000000000E+00 0. -1.
         25    2    1    2    0    0  0.19515623353E+01 -0.65126471404E+01  0.18188540848E+03  0.22085452140E+03  0.12509274414E+03 0.  0.
         23    2    1    2    0    0 -0.19515623353E+01  0.65126471404E+01  0.29506030029E+03  0.30888901519E+03  0.91135172837E+02 0.  0.
          5    1    3    3  502    0  0.17812707010E+02 -0.81255622192E+01  0.19728489615E+03  0.19829805834E+03  0.41800000000E+01 0.  1.
         -5    1    3    3    0  502 -0.15861144675E+02  0.16129150788E+01 -0.15399487669E+02  0.22556463063E+02  0.41800000000E+01 0.  1.
        -11    1    4    4    0    0  0.29594312994E+02 -0.19757959453E+02  0.56138557834E+02  0.66466066523E+02  0.00000000000E+00 0. -1.
         11    1    4    4    0    0 -0.31545875329E+02  0.26270606593E+02  0.23892174246E+03  0.24242294867E+03  0.00000000000E+00 0.  1.
</event>
<event>
 8    1  0.7005395E-009  0.1330590E+03  0.7561462E-02  0.1222986E+00
         -2   -1    0    0    0  501 -0.00000000000E+00  0.00000000000E+00  0.10880971942E+02  0.10880971942E+02  0.00000000000E+00 0.  1.
          2   -1    0    0  501    0  0.00000000000E+00 -0.00000000000E+00 -0.17191967542E+04  0.17191967542E+04  0.00000000000E+00 0. -1.
         25    2    1    2    0    0 -0.16028263028E+02 -0.77297339993E+02 -0.11191257242E+04  0.11288583474E+04  0.12508796156E+03 0.  0.
         23    2    1    2    0    0  0.16028263028E+02  0.77297339993E+02 -0.58919005808E+03  0.60121937868E+03  0.89933490852E+02 0.  0.
          5    1    3    3  502    0 -0.53063114430E+02  0.75785185503E+01 -0.33760536153E+03  0.34185959192E+03  0.41800000000E+01 0. -1.
         -5    1    3    3    0  502  0.37034851403E+02 -0.84875858543E+02 -0.78152036264E+03  0.78699875553E+03  0.41800000000E+01 0. -1.
        -11    1    4    4    0    0  0.53072338799E+02  0.54939475320E+02 -0.37239952969E+03  0.38015316493E+03  0.00000000000E+00 0. -1.
         11    1    4    4    0    0 -0.37044075771E+02  0.22357864673E+02 -0.21679052839E+03  0.22106621375E+03  0.00000000000E+00 0.  1.
</event>
<event>
 8    1  0.7005395E-009  0.2502729E+03  0.7561462E-02  0.1113132E+00
         -2   -1    0    0    0  501 -0.00000000000E+00  0.00000000000E+00  0.38267946960E+03  0.38267946960E+03  0.00000000000E+00 0.  1.
          2   -1    0    0  501    0  0.00000000000E+00 -0.00000000000E+00 -0.22848948393E+03  0.22848948393E+03  0.00000000000E+00 0. -1.
         25    2    1    2    0    0  0.79555190696E+02 -0.23352542282E+03 -0.50273852189E+02  0.28113664176E+03  0.12508876711E+03 0.  0.
         23    2    1    2    0    0 -0.79555190696E+02  0.23352542282E+03  0.20446383786E+03  0.33003231177E+03  0.79074106717E+02 0.  0.
          5    1    3    3  502    0  0.12545789231E+02 -0.31911039975E+01  0.26033995759E+02  0.29373820102E+02  0.41800000000E+01 0.  1.
         -5    1    3    3    0  502  0.67009401465E+02 -0.23033431882E+03 -0.76307847948E+02  0.25176282166E+03  0.41800000000E+01 0.  1.
        -11    1    4    4    0    0 -0.59448386052E+02  0.18987017514E+03  0.11858484540E+03  0.23161856482E+03  0.00000000000E+00 0.  1.
         11    1    4    4    0    0 -0.20106804644E+02  0.43655247679E+02  0.85878992464E+02  0.98413746954E+02  0.00000000000E+00 0. -1.
</event>
<event>
 8    1  0.7005395E-009  0.1688102E+03  0.7561462E-02  0.1179094E+00
         -1   -1    0    0    0  501 -0.00000000000E+00  0.00000000000E+00  0.41890943698E+02  0.41890943698E+02  0.00000000000E+00 0.  1.
          1   -1    0    0  501    0  0.00000000000E+00 -0.00000000000E+00 -0.85700711902E+03  0.85700711902E+03  0.00000000000E+00 0. -1.
         25    2    1    2    0    0 -0.14692918186E+03 -0.32521881077E+02 -0.52161216517E+03  0.55711055147E+03  0.12508820279E+03 0.  0.
         23    2    1    2    0    0  0.14692918186E+03  0.32521881077E+02 -0.29350401015E+03  0.34178751124E+03  0.89600455569E+02 0.  0.
          5    1    3    3  502    0 -0.28528541262E+02  0.38362790099E+02 -0.22331181557E+03  0.22841020272E+03  0.41800000000E+01 0. -1.
         -5    1    3    3    0  502 -0.11840064060E+03 -0.70884671176E+02 -0.29830034960E+03  0.32870034875E+03  0.41800000000E+01 0. -1.
        -11    1    4    4    0    0  0.10753707519E+03  0.31913433460E+02 -0.27740911659E+03  0.29922985770E+03  0.00000000000E+00 0. -1.
         11    1    4    4    0    0  0.39392106665E+02  0.60844761682E+00 -0.16094893563E+02  0.42557653539E+02  0.00000000000E+00 0.  1.
</event>
<event>
 8    1  0.7005395E-009  0.1085658E+03  0.7561462E-02  0.1263249E+00
         -1   -1    0    0    0  501 -0.00000000000E+00  0.00000000000E+00  0.87747330583E+02  0.87747330583E+02  0.00000000000E+00 0.  1.
          1   -1    0    0  501    0  0.00000000000E+00 -0.00000000000E+00 -0.22858488754E+03  0.22858488754E+03  0.00000000000E+00 0. -1.
         25    2    1    2    0    0  0.34154267170E+02  0.24418197559E+02  0.13762756615E+02  0.13264573137E+03  0.12507083690E+03 0.  0.
         23    2    1    2    0    0 -0.34154267170E+02 -0.24418197559E+02 -0.15460031357E+03  0.18368648675E+03  0.89870496382E+02 0.  0.
          5    1    3    3  502    0  0.17255470756E+02  0.75560377671E+02  0.38014248378E+01  0.77711293745E+02  0.41800000000E+01 0.  1.
         -5    1    3    3    0  502  0.16898796414E+02 -0.51142180111E+02  0.99613317768E+01  0.54934437629E+02  0.41800000000E+01 0.  1.
        -11    1    4    4    0    0 -0.49378028081E+02  0.76727708002E+01 -0.40922206862E+02  0.64588606452E+02  0.00000000000E+00 0.  1.
         11    1    4    4    0    0  0.15223760910E+02 -0.32090968360E+02 -0.11367810671E+03  0.11909788030E+03  0.00000000000E+00 0. -1.
</event>
<event>
 8    1  0.7005395E-009  0.7543304E+02  0.7561462E-02  0.1342535E+00
         -2   -1    0    0    0  501 -0.00000000000E+00  0.00000000000E+00  0.78552577787E+02  0.78552577787E+02  0.00000000000E+00 0. -1.
          2   -1    0    0  501    0  0.00000000000E+00 -0.00000000000E+00 -0.51901891347E+03  0.51901891347E+03  0.00000000000E+00 0.  1.
         25    2    1    2    0    0 -0.31834893382E+02  0.61716987908E+01 -0.47647529159E+03  0.49368782691E+03  0.12508963442E+03 0.  0.
         23    2    1    2    0    0  0.31834893382E+02 -0.61716987908E+01  0.36008955908E+02  0.10388366435E+03  0.91889175151E+02 0.  0.
          5    1    3    3  502    0 -0.43579920240E+02 -0.29336421363E+02 -0.43296503609E+03  0.43616055523E+03  0.41800000000E+01 0. -1.
         -5    1    3    3    0  502  0.11745026858E+02  0.35508120153E+02 -0.43510255506E+02  0.57527271680E+02  0.41800000000E+01 0. -1.
        -11    1    4    4    0    0  0.35789131476E+02 -0.23463435373E+02 -0.18454592660E+02  0.46604363761E+02  0.00000000000E+00 0.  1.
         11    1    4    4    0    0 -0.39542380945E+01  0.17291736582E+02  0.54463548568E+02  0.57279300585E+02  0.00000000000E+00 0. -1.
</event>
<event>
 8    1  0.7005395E-009  0.1025418E+03  0.7561462E-02  0.1275040E+00
         -2   -1    0    0    0  501 -0.00000000000E+00  0.00000000000E+00  0.25735239816E+02  0.25735239816E+02  0.00000000000E+00 0. -1.
          2   -1    0    0  501    0  0.00000000000E+00 -0.00000000000E+00 -0.49533468682E+03  0.49533468682E+03  0.00000000000E+00 0.  1.
         25    2    1    2    0    0 -0.18611928816E+02  0.26040053416E+02 -0.30199382134E+03  0.32843874739E+03  0.12508898587E+03 0.  0.
         23    2    1    2    0    0  0.18611928816E+02 -0.26040053416E+02 -0.16760562567E+03  0.19263117925E+03  0.89390364056E+02 0.  0.
          5    1    3    3  502    0  0.53748625731E+02  0.11595543048E+02 -0.13436967542E+03  0.14524480528E+03  0.41800000000E+01 0.  1.
         -5    1    3    3    0  502 -0.72360554547E+02  0.14444510368E+02 -0.16762414592E+03  0.18319394212E+03  0.41800000000E+01 0.  1.
        -11    1    4    4    0    0 -0.25967888719E+02 -0.39026484965E+01 -0.12307413136E+03  0.12584436308E+03  0.00000000000E+00 0.  1.
         11    1    4    4    0    0  0.44579817535E+02 -0.22137404920E+02 -0.44531494311E+02  0.66786816167E+02  0.00000000000E+00 0. -1.
</event>
<event>
 8    1  0.7005395E-009  0.1005639E+03  0.7561462E-02  0.1279115E+00
          1   -1    0    0  501    0  0.00000000000E+00  0.00000000000E+00  0.17428316739E+03  0.17428316739E+03  0.00000000000E+00 0. -1.
         -1   -1    0    0    0  501 -0.00000000000E+00 -0.00000000000E+00 -0.98787177270E+02  0.98787177270E+02  0.00000000000E+00 0.  1.
         25    2    1    2    0    0 -0.29226564410E+02 -0.29860594838E+02 -0.23827453356E+02  0.13402205438E+03  0.12509323058E+03 0.  0.
         23    2    1    2    0    0  0.29226564410E+02  0.29860594838E+02  0.99323443475E+02  0.13904829028E+03  0.87883066709E+02 0.  0.
          5    1    3    3  502    0 -0.28504604557E+01 -0.75670612338E+02 -0.27974323473E+02  0.80834410187E+02  0.41800000000E+01 0.  1.
         -5    1    3    3    0  502 -0.26376103955E+02  0.45810017500E+02  0.41468701170E+01  0.53187644195E+02  0.41800000000E+01 0.  1.
        -11    1    4    4    0    0  0.59718642455E+01  0.44424179500E+02  0.10206411783E+03  0.11147311351E+03  0.00000000000E+00 0.  1.
         11    1    4    4    0    0  0.23254700165E+02 -0.14563584662E+02 -0.27406743550E+01  0.27575176770E+02  0.00000000000E+00 0. -1.
</event>
<event>
 8    1  0.7005395E-009  0.1032160E+03  0.7561462E-02  0.1273675E+00
          1   -1    0    0  501    0  0.00000000000E+00  0.00000000000E+00  0.18769794791E+03  0.18769794791E+03  0.00000000000E+00 0. -1.
         -1   -1    0    0    0  501 -0.00000000000E+00 -0.00000000000E+00 -0.12302859512E+03  0.12302859512E+03  0.00000000000E+00 0.  1.
         25    2    1    2    0    0 -0.39178553174E+02 -0.20473978738E+02  0.13408939886E+03  0.18862940117E+03  0.12508773427E+03 0.  0.
         23    2    1    2    0    0  0.39178553174E+02  0.20473978738E+02 -0.69420046063E+02  0.12209714186E+03  0.90191055103E+02 0.  0.
          5    1    3    3  502    0 -0.77049875623E+01  0.41498654191E+02  0.60001355844E+01  0.42836656732E+02  0.41800000000E+01 0.  1.
         -5    1    3    3    0  502 -0.31473565612E+02 -0.61972632928E+02  0.12808926327E+03  0.14579274444E+03  0.41800000000E+01 0.  1.
        -11    1    4    4    0    0  0.65577241045E+02  0.17114574506E+02 -0.67121508280E+02  0.95386477434E+02  0.00000000000E+00 0.  1.
         11    1    4    4    0    0 -0.26398687871E+02  0.33594042318E+01 -0.22985377834E+01  0.26710664425E+02  0.00000000000E+00 0. -1.
</event>
<event>
 8    1  0.7005395E-009  0.1091035E+03  0.7561462E-02  0.1262239E+00
          1   -1    0    0  501    0  0.00000000000E+00  0.00000000000E+00  0.49926951100E+03  0.49926951100E+03  0.00000000000E+00 0. -1.
         -1   -1    0    0    0  501 -0.00000000000E+00 -0.00000000000E+00 -0.31655986300E+02  0.31655986300E+02  0.00000000000E+00 0.  1.
         25    2    1    2    0    0  0.32762109047E+02  0.18032202093E+02  0.35829706912E+03  0.38134854109E+03  0.12510557122E+03 0.  0.
         23    2    1    2    0    0 -0.32762109047E+02 -0.18032202093E+02  0.10931645558E+03  0.14957695620E+03  0.94998222439E+02 0.  0.
          5    1    3    3  502    0 -0.41841757379E+02  0.15717542888E+02  0.21593541042E+03  0.22055236949E+03  0.41800000000E+01 0.  1.
         -5    1    3    3    0  502  0.74603866426E+02  0.23146592043E+01  0.14236165870E+03  0.16079617160E+03  0.41800000000E+01 0.  1.
        -11    1    4    4    0    0 -0.29783064262E+01 -0.52739724330E+02  0.38858588798E+02  0.65576968174E+02  0.00000000000E+00 0.  1.
         11    1    4    4    0    0 -0.29783802621E+02  0.34707522237E+02  0.70457866777E+02  0.83999988031E+02  0.00000000000E+00 0. -1.
</event>
<event>
 8    1  0.7005395E-009  0.1084617E+03  0.7561462E-02  0.1263445E+00
         -2   -1    0    0    0  501 -0.00000000000E+00  0.00000000000E+00  0.63032517078E+02  0.63032517078E+02  0.00000000000E+00 0.  1.
          2   -1    0    0  501    0  0.00000000000E+00 -0.00000000000E+00 -0.21944097734E+03  0.21944097734E+03  0.00000000000E+00 0. -1.
         25    2    1    2    0    0 -0.61123682868E+00 -0.20863511063E+02 -0.13728411097E+03  0.18689484463E+03  0.12508835326E+03 0.  0.
         23    2    1    2    0    0  0.61123682868E+00  0.20863511063E+02 -0.19124349292E+02  0.95578649787E+02  0.91290075337E+02 0.  0.
          5    1    3    3  502    0 -0.21125961931E+02 -0.69118597878E+02 -0.94787340652E+02  0.11927195474E+03  0.41800000000E+01 0. -1.
         -5    1    3    3    0  502  0.20514725102E+02  0.48255086815E+02 -0.42496770322E+02  0.67622889892E+02  0.41800000000E+01 0. -1.
        -11    1    4    4    0    0 -0.38845299240E+01 -0.35335280540E+02  0.14128141620E+01  0.35576223344E+02  0.00000000000E+00 0. -1.
         11    1    4    4    0    0  0.44957667527E+01  0.56198791603E+02 -0.20537163454E+02  0.60002426443E+02  0.00000000000E+00 0.  1.
</event>
<event>
 8    1  0.7005395E-009  0.1541675E+03  0.7561462E-02  0.1195444E+00
          1   -1    0    0  501    0  0.00000000000E+00  0.00000000000E+00  0.24453681774E+03  0.24453681774E+03  0.00000000000E+00 0. -1.
         -1   -1    0    0    0  501 -0.00000000000E+00 -0.00000000000E+00 -0.14659120141E+03  0.14659120141E+03  0.00000000000E+00 0.  1.
         25    2    1    2    0    0  0.12051895901E+03  0.82682125865E+02  0.98487347506E+02  0.21611434887E+03  0.12507797868E+03 0.  0.
         23    2    1    2    0    0 -0.12051895901E+03 -0.82682125865E+02 -0.54173116938E+00  0.17501367028E+03  0.96272207286E+02 0.  0.
          5    1    3    3  502    0  0.12232695634E+03  0.57376745853E+02  0.12138817172E+03  0.18168251387E+03  0.41800000000E+01 0. -1.
         -5    1    3    3    0  502 -0.18079973373E+01  0.25305380012E+02 -0.22900824211E+02  0.34431835001E+02  0.41800000000E+01 0. -1.
        -11    1    4    4    0    0 -0.45668802754E+02 -0.20177147960E+02  0.45158050820E+02  0.67320178243E+02  0.00000000000E+00 0. -1.
         11    1    4    4    0    0 -0.74850156252E+02 -0.62504977905E+02 -0.45699781989E+02  0.10769349204E+03  0.00000000000E+00 0.  1.
</event>
<event>
 8    1  0.7005395E-009  0.1093347E+03  0.7561462E-02  0.1261807E+00
          1   -1    0    0  501    0  0.00000000000E+00  0.00000000000E+00  0.31927505664E+03  0.31927505664E+03  0.00000000000E+00 0. -1.
         -1   -1    0    0    0  501 -0.00000000000E+00 -0.00000000000E+00 -0.55055893230E+02  0.55055893230E+02  0.00000000000E+00 0.  1.
         25    2    1    2    0    0  0.18761225303E+01  0.37935528118E+02  0.53390257925E+02  0.14120929338E+03  0.12508765233E+03 0.  0.
         23    2    1    2    0    0 -0.18761225303E+01 -0.37935528118E+02  0.21082890548E+03  0.23312165649E+03  0.91947023919E+02 0.  0.
          5    1    3    3  502    0  0.56823473241E+02  0.44203630724E+02  0.14727940034E+02  0.73601988411E+02  0.41800000000E+01 0. -1.
         -5    1    3    3    0  502 -0.54947350711E+02 -0.62681026061E+01  0.38662317891E+02  0.67607304968E+02  0.41800000000E+01 0. -1.
        -11    1    4    4    0    0  0.32282040464E+02 -0.45808801035E+02  0.79985202864E+02  0.97663755130E+02  0.00000000000E+00 0.  1.
         11    1    4    4    0    0 -0.34158162995E+02  0.78732729168E+01  0.13084370262E+03  0.13545790136E+03  0.00000000000E+00 0. -1.
</event>
<event>
 8    1  0.7005395E-009  0.1080160E+03  0.7561462E-02  0.1264289E+00
         -4   -1    0    0    0  501 -0.00000000000E+00  0.00000000000E+00  0.14223774418E+03  0.14223774418E+03  0.00000000000E+00 0.  1.
          4   -1    0    0  501    0  0.00000000000E+00 -0.00000000000E+00 -0.13775955203E+03  0.13775955203E+03  0.00000000000E+00 0. -1.
         25    2    1    2    0    0 -0.74234420297E+02 -0.39884603183E+02 -0.22221058021E+02  0.15245511007E+03  0.12508898609E+03 0.  0.
         23    2    1    2    0    0  0.74234420297E+02  0.39884603183E+02  0.26699250176E+02  0.12754218614E+03  0.91938177907E+02 0.  0.
          5    1    3    3  502    0 -0.48159102359E+02  0.29187451988E+02  0.28036101210E+02  0.63045236653E+02  0.41800000000E+01 0. -1.
         -5    1    3    3    0  502 -0.26075317939E+02 -0.69072055171E+02 -0.50257159231E+02  0.89409873421E+02  0.41800000000E+01 0. -1.
        -11    1    4    4    0    0  0.19523507468E+02  0.18429703080E+02  0.55830733337E+02  0.61950723034E+02  0.00000000000E+00 0.  1.
         11    1    4    4    0    0  0.54710912829E+02  0.21454900103E+02 -0.29131483161E+02  0.65591463104E+02  0.00000000000E+00 0. -1.
</event>
<event>
 8    1  0.7005395E-009  0.1182349E+03  0.7561462E-02  0.1246038E+00
          1   -1    0    0  501    0  0.00000000000E+00  0.00000000000E+00  0.76744425608E+02  0.76744425608E+02  0.00000000000E+00 0. -1.
         -1   -1    0    0    0  501 -0.00000000000E+00 -0.00000000000E+00 -0.29340572905E+03  0.29340572905E+03  0.00000000000E+00 0.  1.
         25    2    1    2    0    0 -0.94749048090E+02 -0.30756164523E+01 -0.16609278078E+03  0.22852154970E+03  0.12509374611E+03 0.  0.
         23    2    1    2    0    0  0.94749048090E+02  0.30756164523E+01 -0.50568522661E+02  0.14162860496E+03  0.92274832586E+02 0.  0.
          5    1    3    3  502    0 -0.25912056623E+02  0.39175230868E+02 -0.39415558544E+01  0.47319569467E+02  0.41800000000E+01 0. -1.
         -5    1    3    3    0  502 -0.68836991467E+02 -0.42250847320E+02 -0.16215122493E+03  0.18120198023E+03  0.41800000000E+01 0. -1.
        -11    1    4    4    0    0  0.24325487567E+02  0.24800647530E+02 -0.57946503838E+02  0.67561814440E+02  0.00000000000E+00 0.  1.
         11    1    4    4    0    0  0.70423560523E+02 -0.21725031077E+02  0.73779811770E+01  0.74066790523E+02  0.00000000000E+00 0. -1.
</event>
<event>
 8    1  0.7005395E-009  0.1036810E+03  0.7561462E-02  0.1272740E+00
          1   -1    0    0  501    0  0.00000000000E+00  0.00000000000E+00  0.58196831149E+03  0.58196831149E+03  0.00000000000E+00 0. -1.
         -1   -1    0    0    0  501 -0.00000000000E+00 -0.00000000000E+00 -0.23308600352E+02  0.23308600352E+02  0.00000000000E+00 0.  1.
         25    2    1    2    0    0  0.36638117407E+02  0.15584060893E+02  0.36036474701E+03  0.38353082614E+03  0.12509168282E+03 0.  0.
         23    2    1    2    0    0 -0.36638117407E+02 -0.15584060893E+02  0.19829496413E+03  0.22174608570E+03  0.90913250546E+02 0.  0.
          5    1    3    3  502    0  0.61131570608E+02  0.44010326223E+02  0.13176008624E+03  0.15182941239E+03  0.41800000000E+01 0.  1.
         -5    1    3    3    0  502 -0.24493453201E+02 -0.28426265330E+02  0.22860466076E+03  0.23170141375E+03  0.41800000000E+01 0.  1.
        -11    1    4    4    0    0  0.26816035727E+02 -0.14962430820E+02  0.10117702070E+03  0.10573440134E+03  0.00000000000E+00 0. -1.
         11    1    4    4    0    0 -0.63454153134E+02 -0.62163007236E+00  0.97117943429E+02  0.11601168437E+03  0.00000000000E+00 0.  1.
</event>
<event>
 8    1  0.7005395E-009  0.1060173E+03  0.7561462E-02  0.1268128E+00
          2   -1    0    0  501    0  0.00000000000E+00  0.00000000000E+00  0.21643891636E+03  0.21643891636E+03  0.00000000000E+00 0. -1.
         -2   -1    0    0    0  501 -0.00000000000E+00 -0.00000000000E+00 -0.69291585572E+02  0.69291585572E+02  0.00000000000E+00 0.  1.
         25    2    1    2    0    0  0.51001350392E+02  0.19607865140E+02  0.67175492135E+02  0.15213870174E+03  0.12509209290E+03 0.  0.
         23    2    1    2    0    0 -0.51001350392E+02 -0.19607865140E+02  0.79971838650E+02  0.13359180019E+03  0.92009064682E+02 0.  0.
          5    1    3    3  502    0 -0.24954988380E+02  0.40357535790E+02 -0.13793639234E+01  0.47653511780E+02  0.41800000000E+01 0. -1.
         -5    1    3    3    0  502  0.75956338772E+02 -0.20749670651E+02  0.68554856058E+02  0.10448518996E+03  0.41800000000E+01 0. -1.
        -11    1    4    4    0    0  0.49386531413E+01 -0.28485538983E+02 -0.70528209534E+01  0.29758335125E+02  0.00000000000E+00 0. -1.
         11    1    4    4    0    0 -0.55940003533E+02  0.88776738436E+01  0.87024659604E+02  0.10383346506E+03  0.00000000000E+00 0.  1.
</event>
<event>
 8    1  0.7005395E-009  0.2612719E+03  0.7561462E-02  0.1106381E+00
         -2   -1    0    0    0  501 -0.00000000000E+00  0.00000000000E+00  0.45272225800E+02  0.45272225800E+02  0.00000000000E+00 0. -1.
          2   -1    0    0  501    0  0.00000000000E+00 -0.00000000000E+00 -0.16636117240E+04  0.16636117240E+04  0.00000000000E+00 0.  1.
         25    2    1    2    0    0 -0.24585367355E+03  0.12031089019E+02 -0.99041322657E+03  0.10281804684E+04  0.12509172771E+03 0.  0.
         23    2    1    2    0    0  0.24585367355E+03 -0.12031089019E+02 -0.62792627161E+03  0.68070348138E+03  0.92070902474E+02 0.  0.
          5    1    3    3  502    0 -0.49697332129E+02 -0.45256255013E+02 -0.17420343065E+03  0.18676793378E+03  0.41800000000E+01 0. -1.
         -5    1    3    3    0  502 -0.19615634142E+03  0.57287344032E+02 -0.81620979592E+03  0.84141253462E+03  0.41800000000E+01 0. -1.
        -11    1    4    4    0    0  0.13201148898E+03 -0.30461765794E+02 -0.43831156932E+03  0.45877225744E+03  0.00000000000E+00 0.  1.
         11    1    4    4    0    0  0.11384218457E+03  0.18430676774E+02 -0.18961470229E+03  0.22193122394E+03  0.00000000000E+00 0. -1.
</event>
<event>
 8    1  0.7005395E-009  0.1514291E+03  0.7561462E-02  0.1198728E+00
          2   -1    0    0  501    0  0.00000000000E+00  0.00000000000E+00  0.59255377080E+03  0.59255377080E+03  0.00000000000E+00 0. -1.
         -2   -1    0    0    0  501 -0.00000000000E+00 -0.00000000000E+00 -0.53056526752E+02  0.53056526752E+02  0.00000000000E+00 0.  1.
         25    2    1    2    0    0  0.86476230823E+02  0.10578825284E+03  0.22444905713E+03  0.29102264883E+03  0.12509000739E+03 0.  0.
         23    2    1    2    0    0 -0.86476230823E+02 -0.10578825284E+03  0.31504818691E+03  0.35458764872E+03  0.88361459981E+02 0.  0.
          5    1    3    3  502    0  0.10415400446E+03  0.83383943229E+02  0.22562596691E+03  0.26215546528E+03  0.41800000000E+01 0. -1.
         -5    1    3    3    0  502 -0.17677773633E+02  0.22404309608E+02 -0.11769097758E+01  0.28867183552E+02  0.41800000000E+01 0. -1.
        -11    1    4    4    0    0 -0.89537137498E+01 -0.32992152539E+02  0.17087436977E+02  0.38218210601E+02  0.00000000000E+00 0.  1.
         11    1    4    4    0    0 -0.77522517073E+02 -0.72796100298E+02  0.29796074993E+03  0.31636943811E+03  0.00000000000E+00 0. -1.
</event>
<event>
 8    1  0.7005395E-009  0.6552268E+02  0.7561462E-02  0.1376016E+00
         -1   -1    0    0    0  501 -0.00000000000E+00  0.00000000000E+00  0.36087358583E+02  0.36087358583E+02  0.00000000000E+00 0.  1.
          1   -1    0    0  501    0  0.00000000000E+00 -0.00000000000E+00 -0.37916122630E+03  0.37916122630E+03  0.00000000000E+00 0. -1.
         25    2    1    2    0    0  0.36572895319E+02 -0.22533522246E+02 -0.20057916108E+03  0.24025843440E+03  0.12508708624E+03 0.  0.
         23    2    1    2    0    0 -0.36572895319E+02  0.22533522246E+02 -0.14249470664E+03  0.17499015049E+03  0.92040616308E+02 0.  0.
          5    1    3    3  502    0  0.10496159000E+02  0.89842818704E+00  0.16670696629E+02  0.20158399069E+02  0.41800000000E+01 0. -1.
         -5    1    3    3    0  502  0.26076736319E+02 -0.23431950433E+02 -0.21724985770E+03  0.22010003533E+03  0.41800000000E+01 0. -1.
        -11    1    4    4    0    0  0.22195309994E+02  0.25912541356E+01 -0.92895385915E+02  0.95545272557E+02  0.00000000000E+00 0. -1.
         11    1    4    4    0    0 -0.58768205313E+02  0.19942268111E+02 -0.49599320729E+02  0.79444877934E+02  0.00000000000E+00 0.  1.
</event>
<event>
 8    1  0.7005395E-009  0.8013574E+02  0.7561462E-02  0.1328667E+00
         -2   -1    0    0    0  501 -0.00000000000E+00  0.00000000000E+00  0.41827217476E+02  0.41827217476E+02  0.00000000000E+00 0.  1.
          2   -1    0    0  501    0  0.00000000000E+00 -0.00000000000E+00 -0.28937015693E+03  0.28937015693E+03  0.00000000000E+00 0. -1.
         25    2    1    2    0    0  0.16069925726E+02 -0.42262237708E+01 -0.15694855550E+03  0.20139517627E+03  0.12510421444E+03 0.  0.
         23    2    1    2    0    0 -0.16069925726E+02  0.42262237708E+01 -0.90594383955E+02  0.12980219814E+03  0.91461274632E+02 0.  0.
          5    1    3    3  502    0 -0.25319304180E+02 -0.35140262804E+02 -0.14040061177E+03  0.14698880713E+03  0.41800000000E+01 0. -1.
         -5    1    3    3    0  502  0.41389229906E+02  0.30914039033E+02 -0.16547943727E+02  0.54406369142E+02  0.41800000000E+01 0. -1.
        -11    1    4    4    0    0 -0.28363902420E+02 -0.22045558583E+02 -0.13354833763E+01  0.35948590091E+02  0.00000000000E+00 0.  1.
         11    1    4    4    0    0  0.12293976694E+02  0.26271782354E+02 -0.89258900579E+02  0.93853608048E+02  0.00000000000E+00 0. -1.
</event>
<event>
 8    1  0.7005395E-009  0.1708828E+03  0.7561462E-02  0.1176930E+00
         -2   -1    0    0    0  501 -0.00000000000E+00  0.00000000000E+00  0.48210629980E+02  0.48210629980E+02  0.00000000000E+00 0.  1.
          2   -1    0    0  501    0  0.00000000000E+00 -0.00000000000E+00 -0.75936058867E+03  0.75936058867E+03  0.00000000000E+00 0. -1.
         25    2    1    2    0    0 -0.77220320623E+02 -0.12222738056E+03 -0.50033209211E+03  0.53561323646E+03  0.12508727434E+03 0.  0.
         23    2    1    2    0    0  0.77220320623E+02  0.12222738056E+03 -0.21081786658E+03  0.27195798219E+03  0.92814119247E+02 0.  0.
          5    1    3    3  502    0 -0.20047391867E+02 -0.13150867046E+03 -0.34543183274E+03  0.37018515880E+03  0.41800000000E+01 0. -1.
         -5    1    3    3    0  502 -0.57172928756E+02  0.92812899058E+01 -0.15490025937E+03  0.16542807766E+03  0.41800000000E+01 0. -1.
        -11    1    4    4    0    0  0.51709123884E+02  0.42635692438E+02 -0.16163981470E+03  0.17498304334E+03  0.00000000000E+00 0. -1.
         11    1    4    4    0    0  0.25511196739E+02  0.79591688119E+02 -0.49178051880E+02  0.96974938842E+02  0.00000000000E+00 0.  1.
</event>
<event>
 8    1  0.7005395E-009  0.1148108E+03  0.7561462E-02  0.1251912E+00
         -3   -1    0    0    0  501 -0.00000000000E+00  0.00000000000E+00  0.18337710879E+03  0.18337710879E+03  0.00000000000E+00 0.  1.
          3   -1    0    0  501    0  0.00000000000E+00 -0.00000000000E+00 -0.75640121157E+02  0.75640121157E+02  0.00000000000E+00 0. -1.
         25    2    1    2    0    0  0.11002763588E+02  0.44119370527E+02  0.54105157799E+02  0.14367353163E+03  0.12508851238E+03 0.  0.
         23    2    1    2    0    0 -0.11002763588E+02 -0.44119370527E+02  0.53631829833E+02  0.11534369831E+03  0.91434216282E+02 0.  0.
          5    1    3    3  502    0  0.48998664853E+02  0.68454338754E+02  0.19127550599E+02  0.86430325948E+02  0.41800000000E+01 0. -1.
         -5    1    3    3    0  502 -0.37995901264E+02 -0.24334968227E+02  0.34977607201E+02  0.57243205684E+02  0.41800000000E+01 0. -1.
        -11    1    4    4    0    0 -0.62024728595E+01 -0.71728951578E+02  0.27633904463E+02  0.77117740112E+02  0.00000000000E+00 0.  1.
         11    1    4    4    0    0 -0.48002907287E+01  0.27609581051E+02  0.25997925370E+02  0.38225958202E+02  0.00000000000E+00 0. -1.
</event>
<event>
 8    1  0.7005395E-009  0.1063009E+03  0.7561462E-02  0.1267577E+00
         -2   -1    0    0    0  501 -0.00000000000E+00  0.00000000000E+00  0.86753717462E+02  0.86753717462E+02  0.00000000000E+00 0.  1.
          2   -1    0    0  501    0  0.00000000000E+00 -0.00000000000E+00 -0.21440583221E+03  0.21440583221E+03  0.00000000000E+00 0. -1.
         25    2    1    2    0    0 -0.33697407508E+02  0.76081177807E+02 -0.55142449265E+02  0.16003068919E+03  0.12508105725E+03 0.  0.
         23    2    1    2    0    0  0.33697407508E+02 -0.76081177807E+02 -0.72509665485E+02  0.14112886048E+03  0.87953639968E+02 0.  0.
          5    1    3    3  502    0  0.26316262877E+02  0.29842074611E+02  0.26954661528E+02  0.48240245511E+02  0.41800000000E+01 0.  1.
         -5    1    3    3    0  502 -0.60013670385E+02  0.46239103196E+02 -0.82097110792E+02  0.11179044368E+03  0.41800000000E+01 0.  1.
        -11    1    4    4    0    0 -0.43852714244E+01 -0.50844012427E+02 -0.79941982263E+02  0.94842315098E+02  0.00000000000E+00 0. -1.
         11    1    4    4    0    0  0.38082678932E+02 -0.25237165380E+02  0.74323167776E+01  0.46286545386E+02  0.00000000000E+00 0.  1.
</event>
<event>
 8    1  0.7005395E-009  0.1805223E+03  0.7561462E-02  0.1167299E+00
         -2   -1    0    0    0  501 -0.00000000000E+00  0.00000000000E+00  0.10950132069E+03  0.10950132069E+03  0.00000000000E+00 0.  1.
          2   -1    0    0  501    0  0.00000000000E+00 -0.00000000000E+00 -0.35284772393E+03  0.35284772393E+03  0.00000000000E+00 0. -1.
         25    2    1    2    0    0 -0.12092946165E+03 -0.11022348834E+03 -0.12447143133E+03  0.24065500625E+03  0.12509413552E+03 0.  0.
         23    2    1    2    0    0  0.12092946165E+03  0.11022348834E+03 -0.11887497191E+03  0.22169403836E+03  0.90795570479E+02 0.  0.
          5    1    3    3  502    0 -0.13747066729E+03 -0.73591839596E+02 -0.65529209466E+02  0.16919069984E+03  0.41800000000E+01 0.  1.
         -5    1    3    3    0  502  0.16541205634E+02 -0.36631648741E+02 -0.58942221859E+02  0.71464306412E+02  0.41800000000E+01 0.  1.
        -11    1    4    4    0    0  0.33065829234E+02  0.19665404438E+02  0.11605244305E+02  0.40184062637E+02  0.00000000000E+00 0.  1.
         11    1    4    4    0    0  0.87863632420E+02  0.90558083898E+02 -0.13048021622E+03  0.18150997572E+03  0.00000000000E+00 0. -1.
</event>
<event>
 8    1  0.7005395E-009  0.1480158E+03  0.7561462E-02  0.1202933E+00
         -2   -1    0    0    0  501 -0.00000000000E+00  0.00000000000E+00  0.23121838821E+02  0.23121838821E+02  0.00000000000E+00 0. -1.
          2   -1    0    0  501    0  0.00000000000E+00 -0.00000000000E+00 -0.13534296932E+04  0.13534296932E+04  0.00000000000E+00 0.  1.
         25    2    1    2    0    0  0.42936486583E+02  0.11485648432E+03 -0.95730552694E+03  0.97319914879E+03  0.12508859831E+03 0.  0.
         23    2    1    2    0    0 -0.42936486583E+02 -0.11485648432E+03 -0.37300232744E+03  0.40335238323E+03  0.92340970936E+02 0.  0.
          5    1    3    3  502    0  0.69631946503E+02  0.80913618049E+02 -0.86062637434E+03  0.86723171654E+03  0.41800000000E+01 0.  1.
         -5    1    3    3    0  502 -0.26695459920E+02  0.33942866266E+02 -0.96679152596E+02  0.10596743225E+03  0.41800000000E+01 0.  1.
        -11    1    4    4    0    0 -0.54714763364E+02 -0.34684454737E+02 -0.10508310143E+03  0.12344705317E+03  0.00000000000E+00 0. -1.
         11    1    4    4    0    0  0.11778276782E+02 -0.80172029578E+02 -0.26791922601E+03  0.27990533006E+03  0.00000000000E+00 0.  1.
</event>
<event>
 8    1  0.7005395E-009  0.1348544E+03  0.7561462E-02  0.1220425E+00
          2   -1    0    0  501    0  0.00000000000E+00  0.00000000000E+00  0.38350411270E+03  0.38350411270E+03  0.00000000000E+00 0. -1.
         -2   -1    0    0    0  501 -0.00000000000E+00 -0.00000000000E+00 -0.49220837166E+02  0.49220837166E+02  0.00000000000E+00 0.  1.
         25    2    1    2    0    0  0.61170686500E+02 -0.58538008242E+02  0.18447162800E+03  0.23842342856E+03  0.12508956173E+03 0.  0.
         23    2    1    2    0    0 -0.61170686500E+02  0.58538008242E+02  0.14981164754E+03  0.19430152131E+03  0.90227491093E+02 0.  0.
          5    1    3    3  502    0 -0.74590834824E+01  0.33795669343E+02  0.31588492799E+02  0.47043495513E+02  0.41800000000E+01 0. -1.
         -5    1    3    3    0  502  0.68629769983E+02 -0.92333677586E+02  0.15288313520E+03  0.19137993304E+03  0.41800000000E+01 0. -1.
        -11    1    4    4    0    0 -0.18467008968E+02 -0.21905405541E+02  0.59507466868E+02  0.66045558709E+02  0.00000000000E+00 0. -1.
         11    1    4    4    0    0 -0.42703677533E+02  0.80443413783E+02  0.90304180668E+02  0.12825596260E+03  0.00000000000E+00 0.  1.
</event>
<event>
 8    1  0.7005395E-009  0.1290079E+03  0.7561462E-02  0.1228935E+00
         -2   -1    0    0    0  501 -0.00000000000E+00  0.00000000000E+00  0.62820316296E+02  0.62820316296E+02  0.00000000000E+00 0.  1.
          2   -1    0    0  501    0  0.00000000000E+00 -0.00000000000E+00 -0.32312760091E+03  0.32312760091E+03  0.00000000000E+00 0. -1.
         25    2    1    2    0    0  0.48024134759E+02  0.58197258279E+02 -0.21289071840E+03  0.25819914927E+03  0.12510437368E+03 0.  0.
         23    2    1    2    0    0 -0.48024134759E+02 -0.58197258279E+02 -0.47416566208E+02  0.12774876793E+03  0.91532390801E+02 0.  0.
          5    1    3    3  502    0  0.36514878919E+02 -0.32014236636E+02 -0.11290351546E+03  0.12297529806E+03  0.41800000000E+01 0.  1.
         -5    1    3    3    0  502  0.11509255840E+02  0.90211494915E+02 -0.99987202941E+02  0.13522385121E+03  0.41800000000E+01 0.  1.
        -11    1    4    4    0    0 -0.72515270744E+02 -0.59366303589E+02 -0.41681915891E+02  0.10256804866E+03  0.00000000000E+00 0.  1.
         11    1    4    4    0    0  0.24491135986E+02  0.11690453096E+01 -0.57346503176E+01  0.25180719272E+02  0.00000000000E+00 0. -1.
</event>
<event>
 8    1  0.7005395E-009  0.1154113E+03  0.7561462E-02  0.1250865E+00
         -2   -1    0    0    0  501 -0.00000000000E+00  0.00000000000E+00  0.31058981819E+02  0.31058981819E+02  0.00000000000E+00 0. -1.
          2   -1    0    0  501    0  0.00000000000E+00 -0.00000000000E+00 -0.69318400401E+03  0.69318400401E+03  0.00000000000E+00 0.  1.
         25    2    1    2    0    0  0.97416988679E+02 -0.93779574508E+01 -0.38082265543E+03  0.41261552763E+03  0.12509061908E+03 0.  0.
         23    2    1    2    0    0 -0.97416988679E+02  0.93779574508E+01 -0.28130236676E+03  0.31162745820E+03  0.91665890004E+02 0.  0.
          5    1    3    3  502    0  0.10589162315E+03  0.98025733870E+01 -0.37589827580E+03  0.39067392087E+03  0.41800000000E+01 0. -1.
         -5    1    3    3    0  502 -0.84746344670E+01 -0.19180530838E+02 -0.49243796328E+01  0.21941606763E+02  0.41800000000E+01 0. -1.
        -11    1    4    4    0    0 -0.48234240028E+02  0.20791550587E+02 -0.42555659478E+02  0.67600404144E+02  0.00000000000E+00 0. -1.
         11    1    4    4    0    0 -0.49182748651E+02 -0.11413593136E+02 -0.23874670728E+03  0.24402705406E+03  0.00000000000E+00 0.  1.
</event>
<event>
 8    1  0.7005395E-009  0.1219834E+03  0.7561462E-02  0.1239860E+00
          1   -1    0    0  501    0  0.00000000000E+00  0.00000000000E+00  0.98247823899E+02  0.98247823899E+02  0.00000000000E+00 0. -1.
         -1   -1    0    0    0  501 -0.00000000000E+00 -0.00000000000E+00 -0.17383988789E+03  0.17383988789E+03  0.00000000000E+00 0.  1.
         25    2    1    2    0    0  0.55291631179E+02  0.12872845144E+02  0.64991041031E+01  0.13752578852E+03  0.12509288363E+03 0.  0.
         23    2    1    2    0    0 -0.55291631179E+02 -0.12872845144E+02 -0.82091168097E+02  0.13456192327E+03  0.90250078636E+02 0.  0.
          5    1    3    3  502    0  0.89234445629E+02 -0.18188270071E+02  0.50014280489E+01  0.91302169401E+02  0.41800000000E+01 0. -1.
         -5    1    3    3    0  502 -0.33942814450E+02  0.31061115215E+02  0.14976760541E+01  0.46223619122E+02  0.41800000000E+01 0. -1.
        -11    1    4    4    0    0  0.23373443132E+02  0.88505984510E+01 -0.20305067368E+02  0.32201656753E+02  0.00000000000E+00 0. -1.
         11    1    4    4    0    0 -0.78665074311E+02 -0.21723443595E+02 -0.61786100729E+02  0.10236026652E+03  0.00000000000E+00 0.  1.
</event>
<event>
 8    1  0.7005395E-009  0.7547406E+02  0.7561462E-02  0.1342409E+00
          2   -1    0    0  501    0  0.00000000000E+00  0.00000000000E+00  0.37907769422E+03  0.37907769422E+03  0.00000000000E+00 0. -1.
         -2   -1    0    0    0  501 -0.00000000000E+00 -0.00000000000E+00 -0.41017085076E+02  0.41017085076E+02  0.00000000000E+00 0.  1.
         25    2    1    2    0    0 -0.97074036148E+01  0.22585886936E+02  0.28501909931E+03  0.31222876781E+03  0.12508621229E+03 0.  0.
         23    2    1    2    0    0  0.97074036148E+01 -0.22585886936E+02  0.53041509829E+02  0.10786601148E+03  0.90649427432E+02 0.  0.
          5    1    3    3  502    0  0.95079631359E+00 -0.19856487926E+02  0.26166222880E+03  0.26244957327E+03  0.41800000000E+01 0. -1.
         -5    1    3    3    0  502 -0.10658199928E+02  0.42442374863E+02  0.23356870507E+02  0.49779194546E+02  0.41800000000E+01 0. -1.
        -11    1    4    4    0    0  0.41934888091E+02  0.74840454923E+01  0.53611589903E+01  0.42933527713E+02  0.00000000000E+00 0.  1.
         11    1    4    4    0    0 -0.32227484476E+02 -0.30069932429E+02  0.47680350839E+02  0.64932483766E+02  0.00000000000E+00 0. -1.
</event>
<event>
 8    1  0.7005395E-009  0.1000484E+03  0.7561462E-02  0.1280194E+00
          1   -1    0    0  501    0  0.00000000000E+00  0.00000000000E+00  0.27205534141E+03  0.27205534141E+03  0.00000000000E+00 0. -1.
         -1   -1    0    0    0  501 -0.00000000000E+00 -0.00000000000E+00 -0.70516183446E+02  0.70516183446E+02  0.00000000000E+00 0.  1.
         25    2    1    2    0    0  0.50343140852E+02 -0.25209227384E+02  0.19625673028E+03  0.23944540640E+03  0.12508981369E+03 0.  0.
         23    2    1    2    0    0 -0.50343140852E+02  0.25209227384E+02  0.52824276897E+01  0.10312611846E+03  0.86238943005E+02 0.  0.
          5    1    3    3  502    0  0.27831874269E+02 -0.59921561751E+02  0.39112897275E+02  0.76892768979E+02  0.41800000000E+01 0.  1.
         -5    1    3    3    0  502  0.22511266583E+02  0.34712334367E+02  0.15714383300E+03  0.16255263742E+03  0.41800000000E+01 0.  1.
        -11    1    4    4    0    0  0.19216214425E+02  0.64024322719E+01 -0.18311254564E+02  0.27304872817E+02  0.00000000000E+00 0.  1.
         11    1    4    4    0    0 -0.69559355277E+02  0.18806795112E+02  0.23593682254E+02  0.75821245646E+02  0.00000000000E+00 0. -1.
</event>
<event>
 8    1  0.7005395E-009  0.9587767E+02  0.7561462E-02  0.1289212E+00
         -1   -1    0    0    0  501 -0.00000000000E+00  0.00000000000E+00  0.30175952598E+03  0.30175952598E+03  0.00000000000E+00 0.  1.
          1   -1    0    0  501    0  0.00000000000E+00 -0.00000000000E+00 -0.41145109136E+02  0.41145109136E+02  0.00000000000E+00 0. -1.
         25    2    1    2    0    0 -0.17893872301E+02 -0.10183664763E+02  0.18071490143E+03  0.22074672198E+03  0.12508933595E+03 0.  0.
         23    2    1    2    0    0  0.17893872301E+02  0.10183664763E+02  0.79899515408E+02  0.12215791314E+03  0.90081771106E+02 0.  0.
          5    1    3    3  502    0 -0.14367778747E+02 -0.62321818859E+02  0.54697851100E+02  0.84260129877E+02  0.41800000000E+01 0. -1.
         -5    1    3    3    0  502 -0.35260935539E+01  0.52138154096E+02  0.12601705033E+03  0.13648659210E+03  0.41800000000E+01 0. -1.
        -11    1    4    4    0    0  0.17662719171E+02 -0.30129116611E+02  0.73451871527E+02  0.81332113873E+02  0.00000000000E+00 0.  1.
         11    1    4    4    0    0  0.23115312987E+00  0.40312781374E+02  0.64476438816E+01  0.40825799264E+02  0.00000000000E+00 0. -1.
</event>
<event>
 8    1  0.7005395E-009  0.9031736E+02  0.7561462E-02  0.1302085E+00
          2   -1    0    0  501    0  0.00000000000E+00  0.00000000000E+00  0.95727854593E+02  0.95727854593E+02  0.00000000000E+00 0. -1.
         -2   -1    0    0    0  501 -0.00000000000E+00 -0.00000000000E+00 -0.21355613747E+03  0.21355613747E+03  0.00000000000E+00 0.  1.
         25    2    1    2    0    0 -0.69734622562E+02 -0.31886132118E+02 -0.11993926056E+03  0.18950659688E+03  0.12509069123E+03 0.  0.
         23    2    1    2    0    0  0.69734622562E+02  0.31886132118E+02  0.21109776892E+01  0.11977739518E+03  0.91991984236E+02 0.  0.
          5    1    3    3  502    0 -0.31822855255E+02 -0.20319644741E+02 -0.13987536765E+03  0.14494196409E+03  0.41800000000E+01 0. -1.
         -5    1    3    3    0  502 -0.37911767306E+02 -0.11566487377E+02  0.19936107083E+02  0.44564632795E+02  0.41800000000E+01 0. -1.
        -11    1    4    4    0    0  0.73465799764E+01 -0.20214797141E+02 -0.26025756323E+02  0.33763149335E+02  0.00000000000E+00 0.  1.
         11    1    4    4    0    0  0.62388042585E+02  0.52100929259E+02  0.28136734012E+02  0.86014245844E+02  0.00000000000E+00 0. -1.
</event>
<event>
 8    1  0.7005395E-009  0.1502413E+03  0.7561462E-02  0.1200177E+00
          1   -1    0    0  501    0  0.00000000000E+00  0.00000000000E+00  0.50989882528E+03  0.50989882528E+03  0.00000000000E+00 0. -1.
         -1   -1    0    0    0  501 -0.00000000000E+00 -0.00000000000E+00 -0.53799709103E+02  0.53799709103E+02  0.00000000000E+00 0.  1.
         25    2    1    2    0    0 -0.45289909476E+02  0.11488870202E+03  0.27291394841E+03  0.32462407136E+03  0.12509266453E+03 0.  0.
         23    2    1    2    0    0  0.45289909476E+02 -0.11488870202E+03  0.18318516777E+03  0.23907446302E+03  0.91373975640E+02 0.  0.
          5    1    3    3  502    0 -0.20743676029E+02 -0.10790347895E+02  0.69703731390E+00  0.23763206095E+02  0.41800000000E+01 0. -1.
         -5    1    3    3    0  502 -0.24546233447E+02  0.12567904992E+03  0.27221691109E+03  0.30086086527E+03  0.41800000000E+01 0. -1.
        -11    1    4    4    0    0 -0.15833832817E+02 -0.72537788394E+02  0.61233613494E+02  0.96239266561E+02  0.00000000000E+00 0.  1.
         11    1    4    4    0    0  0.61123742292E+02 -0.42350913630E+02  0.12195155428E+03  0.14283519646E+03  0.00000000000E+00 0. -1.
</event>
<event>
 8    1  0.7005395E-009  0.1282834E+03  0.7561462E-02  0.1230025E+00
         -2   -1    0    0    0  501 -0.00000000000E+00  0.00000000000E+00  0.96944718890E+02  0.96944718890E+02  0.00000000000E+00 0.  1.
          2   -1    0    0  501    0  0.00000000000E+00 -0.00000000000E+00 -0.17929743867E+03  0.17929743867E+03  0.00000000000E+00 0. -1.
         25    2    1    2    0    0  0.56858866235E+02  0.46710204217E+02 -0.57049229426E+02  0.15593767984E+03  0.12508865484E+03 0.  0.
         23    2    1    2    0    0 -0.56858866235E+02 -0.46710204217E+02 -0.25303490352E+02  0.12030447772E+03  0.91750350883E+02 0.  0.
          5    1    3    3  502    0  0.59170772941E+02  0.85337105017E+02 -0.53403728547E+02  0.11684619158E+03  0.41800000000E+01 0.  1.
         -5    1    3    3    0  502 -0.23119067061E+01 -0.38626900800E+02 -0.36455008783E+01  0.39091488264E+02  0.41800000000E+01 0.  1.
        -11    1    4    4    0    0  0.21154604101E+02 -0.24980047556E+02 -0.21635868477E+02  0.39238130120E+02  0.00000000000E+00 0.  1.
         11    1    4    4    0    0 -0.78013470336E+02 -0.21730156661E+02 -0.36676218750E+01  0.81066347597E+02  0.00000000000E+00 0. -1.
</event>
<event>
 8    1  0.7005395E-009  0.1315622E+03  0.7561462E-02  0.1225156E+00
          2   -1    0    0  501    0  0.00000000000E+00  0.00000000000E+00  0.51480593660E+03  0.51480593660E+03  0.00000000000E+00 0. -1.
         -2   -1    0    0    0  501 -0.00000000000E+00 -0.00000000000E+00 -0.43672398163E+02  0.43672398163E+02  0.00000000000E+00 0.  1.
         25    2    1    2    0    0  0.52954759030E+02  0.58944546130E+02  0.13355975987E+03  0.19940794369E+03  0.12508658013E+03 0.  0.
         23    2    1    2    0    0 -0.52954759030E+02 -0.58944546130E+02  0.33757377857E+03  0.35907039107E+03  0.93256762459E+02 0.  0.
          5    1    3    3  502    0  0.80481627879E+02 -0.31757216482E+00  0.57239043197E+02  0.98849247565E+02  0.41800000000E+01 0.  1.
         -5    1    3    3    0  502 -0.27526868850E+02  0.59262118294E+02  0.76320716669E+02  0.10055869612E+03  0.41800000000E+01 0.  1.
        -11    1    4    4    0    0 -0.68195689823E+02 -0.14025983247E+02  0.14658154252E+03  0.16227608858E+03  0.00000000000E+00 0.  1.
         11    1    4    4    0    0  0.15240930793E+02 -0.44918562882E+02  0.19099223605E+03  0.19679430250E+03  0.00000000000E+00 0. -1.
</event>
<event>
 8    1  0.7005395E-009  0.1370593E+03  0.7561462E-02  0.1217342E+00
         -1   -1    0    0    0  501 -0.00000000000E+00  0.00000000000E+00  0.26506713625E+03  0.26506713625E+03  0.00000000000E+00 0.  1.
          1   -1    0    0  501    0  0.00000000000E+00 -0.00000000000E+00 -0.10597185134E+03  0.10597185134E+03  0.00000000000E+00 0. -1.
         25    2    1    2    0    0  0.95720897769E+02  0.67054138515E+02  0.27338542627E+02  0.17335958599E+03  0.12508957743E+03 0.  0.
         23    2    1    2    0    0 -0.95720897769E+02 -0.67054138515E+02  0.13175674228E+03  0.19767940160E+03  0.89769476542E+02 0.  0.
          5    1    3    3  502    0 -0.16095356049E+01  0.19042093297E+02  0.57421105269E+02  0.60661747851E+02  0.41800000000E+01 0. -1.
         -5    1    3    3    0  502  0.97330433374E+02  0.48012045219E+02 -0.30082562643E+02  0.11269783814E+03  0.41800000000E+01 0. -1.
        -11    1    4    4    0    0 -0.34126969828E+02 -0.76375068479E+02  0.61791083916E+02  0.10399970772E+03  0.00000000000E+00 0. -1.
         11    1    4    4    0    0 -0.61593927941E+02  0.93209299632E+01  0.69965658366E+02  0.93679693879E+02  0.00000000000E+00 0.  1.
</event>
<event>
 8    1  0.7005395E-009  0.2548590E+03  0.7561462E-02  0.1110272E+00
          2   -1    0    0  501    0  0.00000000000E+00  0.00000000000E+00  0.13857478039E+04  0.13857478039E+04  0.00000000000E+00 0. -1.
         -2   -1    0    0    0  501 -0.00000000000E+00 -0.00000000000E+00 -0.50105088666E+02  0.50105088666E+02  0.00000000000E+00 0.  1.
         25    2    1    2    0    0  0.11598603735E+03 -0.21005062477E+03  0.67480344676E+03  0.72703623766E+03  0.12509185943E+03 0.  0.
         23    2    1    2    0    0 -0.11598603735E+03  0.21005062477E+03  0.66083926852E+03  0.70881665494E+03  0.90213555961E+02 0.  0.
          5    1    3    3  502    0  0.13910188577E+03 -0.15681139185E+03  0.48154166721E+03  0.52520376702E+03  0.41800000000E+01 0.  1.
         -5    1    3    3    0  502 -0.23115848421E+02 -0.53239232926E+02  0.19326177955E+03  0.20183247064E+03  0.41800000000E+01 0.  1.
        -11    1    4    4    0    0 -0.75839688391E+02  0.10596066096E+03  0.47031022541E+03  0.48802769197E+03  0.00000000000E+00 0.  1.
         11    1    4    4    0    0 -0.40146348961E+02  0.10408996381E+03  0.19052904311E+03  0.22078896297E+03  0.00000000000E+00 0. -1.
</event>
<event>
 8    1  0.7005395E-009  0.1086613E+03  0.7561462E-02  0.1263069E+00
          1   -1    0    0  501    0  0.00000000000E+00  0.00000000000E+00  0.22108586665E+03  0.22108586665E+03  0.00000000000E+00 0. -1.
         -1   -1    0    0    0  501 -0.00000000000E+00 -0.00000000000E+00 -0.86600946109E+02  0.86600946109E+02  0.00000000000E+00 0.  1.
         25    2    1    2    0    0  0.76341833927E+02  0.29242024225E+02  0.10328172121E+03  0.18165188579E+03  0.12508845704E+03 0.  0.
         23    2    1    2    0    0 -0.76341833927E+02 -0.29242024225E+02  0.31203199335E+02  0.12603492698E+03  0.90708277357E+02 0.  0.
          5    1    3    3  502    0  0.27792725532E+01 -0.23579456074E+02 -0.18103292178E+02  0.30148245262E+02  0.41800000000E+01 0. -1.
         -5    1    3    3    0  502  0.73562561373E+02  0.52821480299E+02  0.12138501339E+03  0.15150364052E+03  0.41800000000E+01 0. -1.
        -11    1    4    4    0    0 -0.38424845528E+02 -0.46982071325E+02  0.51419574585E+02  0.79547196244E+02  0.00000000000E+00 0. -1.
         11    1    4    4    0    0 -0.37916988399E+02  0.17740047100E+02 -0.20216375250E+02  0.46487730732E+02  0.00000000000E+00 0.  1.
</event>
<event>
 8    1  0.7005395E-009  0.2030817E+03  0.7561462E-02  0.1147165E+00
         -2   -1    0    0    0  501 -0.00000000000E+00  0.00000000000E+00  0.34287620745E+03  0.34287620745E+03  0.00000000000E+00 0. -1.
          2   -1    0    0  501    0  0.00000000000E+00 -0.00000000000E+00 -0.15406084257E+03  0.15406084257E+03  0.00000000000E+00 0.  1.
         25    2    1    2    0    0 -0.19478745413E+03 -0.48587960025E+02  0.12298284443E+03  0.26659876303E+03  0.12508868167E+03 0.  0.
         23    2    1    2    0    0  0.19478745413E+03  0.48587960025E+02  0.65832520449E+02  0.23033828698E+03  0.91754365320E+02 0.  0.
          5    1    3    3  502    0 -0.10216566064E+03 -0.17336612234E+02 -0.69550595331E+01  0.10394337685E+03  0.41800000000E+01 0. -1.
         -5    1    3    3    0  502 -0.92621793488E+02 -0.31251347792E+02  0.12993790396E+03  0.16265538618E+03  0.41800000000E+01 0. -1.
        -11    1    4    4    0    0  0.12010580931E+03  0.99243628220E+01 -0.46595540996E+01  0.12060518169E+03  0.00000000000E+00 0.  1.
         11    1    4    4    0    0  0.74681644819E+02  0.38663597203E+02  0.70492074549E+02  0.10973310529E+03  0.00000000000E+00 0. -1.
</event>
<event>
 8    1  0.7005395E-009  0.1922003E+03  0.7561462E-02  0.1156492E+00
          2   -1    0    0  501    0  0.00000000000E+00  0.00000000000E+00  0.93290917782E+03  0.93290917782E+03  0.00000000000E+00 0. -1.
         -2   -1    0    0    0  501 -0.00000000000E+00 -0.00000000000E+00 -0.75317993111E+02  0.75317993111E+02  0.00000000000E+00 0.  1.
         25    2    1    2    0    0 -0.98514804470E+02  0.15514670649E+03  0.14195782778E+03  0.26377152148E+03  0.12509086074E+03 0.  0.
         23    2    1    2    0    0  0.98514804470E+02 -0.15514670649E+03  0.71563335693E+03  0.74445564946E+03  0.91145187583E+02 0.  0.
          5    1    3    3  502    0 -0.76212163851E+02  0.12612639995E+03  0.16425488321E+03  0.22071090082E+03  0.41800000000E+01 0.  1.
         -5    1    3    3    0  502 -0.22302640619E+02  0.29020306541E+02 -0.22297055432E+02  0.43060620656E+02  0.41800000000E+01 0.  1.
        -11    1    4    4    0    0  0.13873116577E+01 -0.72767908049E+02  0.18618502215E+03  0.19990486624E+03  0.00000000000E+00 0. -1.
         11    1    4    4    0    0  0.97127492812E+02 -0.82378798440E+02  0.52944833479E+03  0.54455078322E+03  0.00000000000E+00 0.  1.
</event>
<event>
 8    1  0.7005395E-009  0.7951042E+02  0.7561462E-02  0.1330447E+00
         -1   -1    0    0    0  501 -0.00000000000E+00  0.00000000000E+00  0.15245417235E+02  0.15245417235E+02  0.00000000000E+00 0.  1.
          1   -1    0    0  501    0  0.00000000000E+00 -0.00000000000E+00 -0.93248773889E+03  0.93248773889E+03  0.00000000000E+00 0. -1.
         25    2    1    2    0    0  0.19070004544E+02  0.24010175639E+01 -0.68762879631E+03  0.69917921782E+03  0.12509511249E+03 0.  0.
         23    2    1    2    0    0 -0.19070004544E+02 -0.24010175639E+01 -0.22961352535E+03  0.24855393831E+03  0.93205467990E+02 0.  0.
          5    1    3    3  502    0  0.13741243524E+02  0.43544911305E+02 -0.99306908743E+02  0.10938151397E+03  0.41800000000E+01 0. -1.
         -5    1    3    3    0  502  0.53287610194E+01 -0.41143893741E+02 -0.58832188756E+03  0.58979770385E+03  0.41800000000E+01 0. -1.
        -11    1    4    4    0    0 -0.21623278091E+02  0.31096770949E+02 -0.36708773542E+02  0.52745704790E+02  0.00000000000E+00 0.  1.
         11    1    4    4    0    0  0.25532735473E+01 -0.33497788513E+02 -0.19290475181E+03  0.19580823352E+03  0.00000000000E+00 0. -1.
</event>
<event>
 8    1  0.7005395E-009  0.2913925E+03  0.7561462E-02  0.1089624E+00
          2   -1    0    0  501    0  0.00000000000E+00  0.00000000000E+00  0.12534255200E+04  0.12534255200E+04  0.00000000000E+00 0. -1.
         -2   -1    0    0    0  501 -0.00000000000E+00 -0.00000000000E+00 -0.10113621231E+03  0.10113621231E+03  0.00000000000E+00 0.  1.
         25    2    1    2    0    0  0.14505741782E+03  0.24467100961E+03  0.23417494700E+03  0.38908978818E+03  0.12508956812E+03 0.  0.
         23    2    1    2    0    0 -0.14505741782E+03 -0.24467100961E+03  0.91811436068E+03  0.96547194411E+03  0.91085334563E+02 0.  0.
          5    1    3    3  502    0  0.69966139619E+02  0.43189357662E+02  0.18231731253E+02  0.84323482690E+02  0.41800000000E+01 0.  1.
         -5    1    3    3    0  502  0.75091278203E+02  0.20148165195E+03  0.21594321575E+03  0.30476630549E+03  0.41800000000E+01 0.  1.
        -11    1    4    4    0    0 -0.70641085554E+01 -0.24992158531E+02  0.27423261632E+02  0.37769629284E+02  0.00000000000E+00 0.  1.
         11    1    4    4    0    0 -0.13799330927E+03 -0.21967885108E+03  0.89069109905E+03  0.92770231483E+03  0.00000000000E+00 0. -1.
</event>
<event>
 8    1  0.7005395E-009  0.2133895E+03  0.7561462E-02  0.1138910E+00
          2   -1    0    0  501    0  0.00000000000E+00  0.00000000000E+00  0.11002540765E+04  0.11002540765E+04  0.00000000000E+00 0. -1.
         -2   -1    0    0    0  501 -0.00000000000E+00 -0.00000000000E+00 -0.49886316981E+02  0.49886316981E+02  0.00000000000E+00 0.  1.
         25    2    1    2    0    0  0.13407173547E+03 -0.15375411178E+03  0.63948679483E+03  0.68279293845E+03  0.12508908380E+03 0.  0.
         23    2    1    2    0    0 -0.13407173547E+03  0.15375411178E+03  0.41088096472E+03  0.46734745506E+03  0.89302404495E+02 0.  0.
          5    1    3    3  502    0  0.94919864951E+02 -0.10556285401E+03  0.24306446795E+03  0.28151572760E+03  0.41800000000E+01 0. -1.
         -5    1    3    3    0  502  0.39151870522E+02 -0.48191257773E+02  0.39642232688E+03  0.40127721085E+03  0.41800000000E+01 0. -1.
        -11    1    4    4    0    0 -0.12000495074E+03  0.72807830871E+02  0.25040747252E+03  0.28706457589E+03  0.00000000000E+00 0. -1.
         11    1    4    4    0    0 -0.14066784733E+02  0.80946280907E+02  0.16047349220E+03  0.18028287918E+03  0.00000000000E+00 0.  1.
</event>
<event>
 8    1  0.7005395E-009  0.6232237E+02  0.7561462E-02  0.1388336E+00
         -1   -1    0    0    0  501 -0.00000000000E+00  0.00000000000E+00  0.68643049844E+02  0.68643049844E+02  0.00000000000E+00 0.  1.
          1   -1    0    0  501    0  0.00000000000E+00 -0.00000000000E+00 -0.19490774277E+03  0.19490774277E+03  0.00000000000E+00 0. -1.
         25    2    1    2    0    0 -0.35463520107E+02  0.19493837919E+02 -0.74588967716E+02  0.15115862491E+03  0.12509094614E+03 0.  0.
         23    2    1    2    0    0  0.35463520107E+02 -0.19493837919E+02 -0.51675725207E+02  0.11239216770E+03  0.91235671801E+02 0.  0.
          5    1    3    3  502    0 -0.13065126873E+02  0.35797641431E+02  0.26274818110E+02  0.46475876957E+02  0.41800000000E+01 0.  1.
         -5    1    3    3    0  502 -0.22398393235E+02 -0.16303803512E+02 -0.10086378583E+03  0.10468274796E+03  0.41800000000E+01 0.  1.
        -11    1    4    4    0    0  0.11680660713E+02  0.13351471098E+02  0.22019600278E+02  0.28276534646E+02  0.00000000000E+00 0.  1.
         11    1    4    4    0    0  0.23782859394E+02 -0.32845309017E+02 -0.73695325486E+02  0.84115633053E+02  0.00000000000E+00 0. -1.
</event>
<event>
 8    1  0.7005395E-009  0.1470279E+03  0.7561462E-02  0.1204173E+00
          1   -1    0    0  501    0  0.00000000000E+00  0.00000000000E+00  0.12550179977E+04  0.12550179977E+04  0.00000000000E+00 0. -1.
         -1   -1    0    0    0  501 -0.00000000000E+00 -0.00000000000E+00 -0.18028415303E+02  0.18028415303E+02  0.00000000000E+00 0.  1.
         25    2    1    2    0    0  0.37283095539E+01  0.10205725499E+03  0.59907960132E+03  0.62046136795E+03  0.12508539809E+03 0.  0.
         23    2    1    2    0    0 -0.37283095539E+01 -0.10205725499E+03  0.63790998103E+03  0.65258504501E+03  0.92241603819E+02 0.  0.
          5    1    3    3  502    0 -0.58298638366E+02  0.35829866793E+02  0.20947823210E+03  0.22041123545E+03  0.41800000000E+01 0. -1.
         -5    1    3    3    0  502  0.62026947920E+02  0.66227388198E+02  0.38960136921E+03  0.40005013250E+03  0.41800000000E+01 0. -1.
        -11    1    4    4    0    0  0.30825832397E+02 -0.94355194777E+02  0.52332468111E+03  0.53265547644E+03  0.00000000000E+00 0. -1.
         11    1    4    4    0    0 -0.34554141951E+02 -0.77020602145E+01  0.11458529992E+03  0.11992956856E+03  0.00000000000E+00 0.  1.
</event>
<event>
 8    1  0.7005395E-009  0.1793274E+03  0.7561462E-02  0.1168456E+00
          2   -1    0    0  501    0  0.00000000000E+00  0.00000000000E+00  0.62840043731E+03  0.62840043731E+03  0.00000000000E+00 0. -1.
         -2   -1    0    0    0  501 -0.00000000000E+00 -0.00000000000E+00 -0.58889101342E+02  0.58889101342E+02  0.00000000000E+00 0.  1.
         25    2    1    2    0    0  0.91617090630E+02  0.12840603147E+03  0.26020860637E+03  0.32899478297E+03  0.12508896107E+03 0.  0.
         23    2    1    2    0    0 -0.91617090630E+02 -0.12840603147E+03  0.30930272960E+03  0.35829475568E+03  0.88459895990E+02 0.  0.
          5    1    3    3  502    0 -0.27733608020E+02  0.18699459749E+02  0.20077108380E+02  0.39235003372E+02  0.41800000000E+01 0.  1.
         -5    1    3    3    0  502  0.11935069865E+03  0.10970657172E+03  0.24013149799E+03  0.28975977960E+03  0.41800000000E+01 0.  1.
        -11    1    4    4    0    0 -0.21223223588E+02 -0.68292115322E+01  0.45988048678E+01  0.22764278065E+02  0.00000000000E+00 0.  1.
         11    1    4    4    0    0 -0.70393867043E+02 -0.12157681994E+03  0.30470392473E+03  0.33553047762E+03  0.00000000000E+00 0. -1.
</event>
<event>
 8    1  0.7005395E-009  0.2212646E+03  0.7561462E-02  0.1132944E+00
          3   -1    0    0  501    0  0.00000000000E+00  0.00000000000E+00  0.16862209769E+03  0.16862209769E+03  0.00000000000E+00 0. -1.
         -3   -1    0    0    0  501 -0.00000000000E+00 -0.00000000000E+00 -0.31014927170E+03  0.31014927170E+03  0.00000000000E+00 0.  1.
         25    2    1    2    0    0  0.15643170327E+03  0.11630947799E+03 -0.18662323408E+02  0.23236722691E+03  0.12508986118E+03 0.  0.
         23    2    1    2    0    0 -0.15643170327E+03 -0.11630947799E+03 -0.12286485061E+03  0.24640414248E+03  0.87295231603E+02 0.  0.
          5    1    3    3  502    0  0.14624626558E+03  0.38750755694E+02 -0.26450739737E+02  0.15364473728E+03  0.41800000000E+01 0. -1.
         -5    1    3    3    0  502  0.10185437691E+02  0.77558722292E+02  0.77884163297E+01  0.78722489629E+02  0.41800000000E+01 0. -1.
        -11    1    4    4    0    0 -0.72230337613E+02 -0.38222673947E+01 -0.32150525475E+02  0.79154833636E+02  0.00000000000E+00 0. -1.
         11    1    4    4    0    0 -0.84201365653E+02 -0.11248721059E+03 -0.90714325133E+02  0.16724930884E+03  0.00000000000E+00 0.  1.
</event>
<event>
 8    1  0.7005395E-009  0.8131496E+02  0.7561462E-02  0.1325361E+00
         -3   -1    0    0    0  501 -0.00000000000E+00  0.00000000000E+00  0.19825725518E+02  0.19825725518E+02  0.00000000000E+00 0.  1.
          3   -1    0    0  501    0  0.00000000000E+00 -0.00000000000E+00 -0.71718683313E+03  0.71718683313E+03  0.00000000000E+00 0. -1.
         25    2    1    2    0    0 -0.78259017745E+01  0.37674108732E+02 -0.50651923664E+03  0.52315461144E+03  0.12509367360E+03 0.  0.
         23    2    1    2    0    0  0.78259017745E+01 -0.37674108732E+02 -0.19084187097E+03  0.21385794721E+03  0.88509991871E+02 0.  0.
          5    1    3    3  502    0  0.57104213232E+00  0.60950581612E+02 -0.48838799562E+03  0.49219468318E+03  0.41800000000E+01 0. -1.
         -5    1    3    3    0  502 -0.83969439068E+01 -0.23276472880E+02 -0.18131241022E+02  0.30959928258E+02  0.41800000000E+01 0. -1.
        -11    1    4    4    0    0 -0.18024611355E+02  0.11148814094E+02 -0.76740848808E+01  0.22540502411E+02  0.00000000000E+00 0.  1.
         11    1    4    4    0    0  0.25850513129E+02 -0.48822922826E+02 -0.18316778609E+03  0.19131744480E+03  0.00000000000E+00 0. -1.
</event>
<event>
 8    1  0.7005395E-009  0.1232350E+03  0.7561462E-02  0.1237854E+00
         -4   -1    0    0    0  501 -0.00000000000E+00  0.00000000000E+00  0.81469555943E+02  0.81469555943E+02  0.00000000000E+00 0.  1.
          4   -1    0    0  501    0  0.00000000000E+00 -0.00000000000E+00 -0.28374312621E+03  0.28374312621E+03  0.00000000000E+00 0. -1.
         25    2    1    2    0    0 -0.97264640498E+02 -0.72286207219E+01 -0.55618575928E+02  0.16808716786E+03  0.12508879551E+03 0.  0.
         23    2    1    2    0    0  0.97264640498E+02  0.72286207219E+01 -0.14665499434E+03  0.19712551430E+03  0.88533145050E+02 0.  0.
          5    1    3    3  502    0 -0.67554547012E+02 -0.51774008549E+02  0.71059726082E+01  0.85511005315E+02  0.41800000000E+01 0. -1.
         -5    1    3    3    0  502 -0.29710093486E+02  0.44545387827E+02 -0.62724548536E+02  0.82576162545E+02  0.41800000000E+01 0. -1.
        -11    1    4    4    0    0  0.54068031917E+02 -0.18647978212E+02 -0.19604287885E+02  0.60460129592E+02  0.00000000000E+00 0. -1.
         11    1    4    4    0    0  0.43196608581E+02  0.25876598934E+02 -0.12705070646E+03  0.13666538471E+03  0.00000000000E+00 0.  1.
</event>
<event>
 8    1  0.7005395E-009  0.1233134E+03  0.7561462E-02  0.1237729E+00
         -1   -1    0    0    0  501 -0.00000000000E+00  0.00000000000E+00  0.35536975724E+02  0.35536975724E+02  0.00000000000E+00 0.  1.
          1   -1    0    0  501    0  0.00000000000E+00 -0.00000000000E+00 -0.60611988357E+03  0.60611988357E+03  0.00000000000E+00 0. -1.
         25    2    1    2    0    0 -0.95750222533E+02  0.23175682611E+02 -0.31862109146E+03  0.35619116303E+03  0.12509007681E+03 0.  0.
         23    2    1    2    0    0  0.95750222533E+02 -0.23175682611E+02 -0.25196181639E+03  0.28546569627E+03  0.91108119548E+02 0.  0.
          5    1    3    3  502    0 -0.15998369127E+02  0.37484140567E+02 -0.23910436546E+03  0.24258890863E+03  0.41800000000E+01 0. -1.
         -5    1    3    3    0  502 -0.79751853406E+02 -0.14308457956E+02 -0.79516726004E+02  0.11360225440E+03  0.41800000000E+01 0. -1.
        -11    1    4    4    0    0  0.30741141128E+02  0.28160649213E+02 -0.39515123943E+02  0.57441143287E+02  0.00000000000E+00 0.  1.
         11    1    4    4    0    0  0.65009081405E+02 -0.51336331824E+02 -0.21244669244E+03  0.22802455298E+03  0.00000000000E+00 0. -1.
</event>
<event>
 8    1  0.7005395E-009  0.1212337E+03  0.7561462E-02  0.1241076E+00
          1   -1    0    0  501    0  0.00000000000E+00  0.00000000000E+00  0.90267460190E+02  0.90267460190E+02  0.00000000000E+00 0. -1.
         -1   -1    0    0    0  501 -0.00000000000E+00 -0.00000000000E+00 -0.18195960013E+03  0.18195960013E+03  0.00000000000E+00 0.  1.
         25    2    1    2    0    0 -0.22120928693E+02 -0.56219644208E+02 -0.87359623039E+02  0.16409696053E+03  0.12508447081E+03 0.  0.
         23    2    1    2    0    0  0.22120928693E+02  0.56219644208E+02 -0.43325169050E+01  0.10813009979E+03  0.89573232036E+02 0.  0.
          5    1    3    3  502    0 -0.63606614255E+01  0.39958901528E+02 -0.33293937199E+02  0.52565487530E+02  0.41800000000E+01 0. -1.
         -5    1    3    3    0  502 -0.15760267268E+02 -0.96178545736E+02 -0.54065685841E+02  0.11153147300E+03  0.41800000000E+01 0. -1.
        -11    1    4    4    0    0 -0.64259247314E+01 -0.20974009225E+02 -0.12791763997E+02  0.25393518814E+02  0.00000000000E+00 0.  1.
         11    1    4    4    0    0  0.28546853425E+02  0.77193653433E+02  0.84592470919E+01  0.82736580979E+02  0.00000000000E+00 0. -1.
</event>
<event>
 8    1  0.7005395E-009  0.2647921E+03  0.7561462E-02  0.1104298E+00
         -2   -1    0    0    0  501 -0.00000000000E+00  0.00000000000E+00  0.95953711358E+02  0.95953711358E+02  0.00000000000E+00 0.  1.
          2   -1    0    0  501    0  0.00000000000E+00 -0.00000000000E+00 -0.93600117654E+03  0.93600117654E+03  0.00000000000E+00 0. -1.
         25    2    1    2    0    0  0.15687657030E+02 -0.25830212286E+03 -0.24791101371E+03  0.37957106119E+03  0.12509288756E+03 0.  0.
         23    2    1    2    0    0 -0.15687657030E+02  0.25830212286E+03 -0.59213645147E+03  0.65238382670E+03  0.89515311135E+02 0.  0.
          5    1    3    3  502    0  0.41664453215E+02 -0.83291513825E+02 -0.15190505232E+03  0.17823024507E+03  0.41800000000E+01 0. -1.
         -5    1    3    3    0  502 -0.25976796185E+02 -0.17501060904E+03 -0.96005961390E+02  0.20134081612E+03  0.41800000000E+01 0. -1.
        -11    1    4    4    0    0 -0.18755636097E+02  0.17091891017E+03 -0.28319287955E+03  0.33130537993E+03  0.00000000000E+00 0.  1.
         11    1    4    4    0    0  0.30679790667E+01  0.87383212690E+02 -0.30894357191E+03  0.32107844677E+03  0.00000000000E+00 0. -1.
</event>
<event>
 8    1  0.7005395E-009  0.1134466E+03  0.7561462E-02  0.1254317E+00
         -2   -1    0    0    0  501 -0.00000000000E+00  0.00000000000E+00  0.60493352433E+02  0.60493352433E+02  0.00000000000E+00 0.  1.
          2   -1    0    0  501    0  0.00000000000E+00 -0.00000000000E+00 -0.31432757967E+03  0.31432757967E+03  0.00000000000E+00 0. -1.
         25    2    1    2    0    0  0.69068835848E+02 -0.44842687675E+02 -0.15259500415E+03  0.21380843204E+03  0.12508972619E+03 0.  0.
         23    2    1    2    0    0 -0.69068835848E+02  0.44842687675E+02 -0.10123922309E+03  0.16101250006E+03  0.94309459553E+02 0.  0.
          5    1    3    3  502    0 -0.27421064836E+02  0.14387278612E+02 -0.59358998380E+02  0.67081082812E+02  0.41800000000E+01 0. -1.
         -5    1    3    3    0  502  0.96489900684E+02 -0.59229966287E+02 -0.93236005771E+02  0.14672734923E+03  0.41800000000E+01 0. -1.
        -11    1    4    4    0    0 -0.52521339168E+02  0.34324570826E+02 -0.51618921617E+01  0.62954843825E+02  0.00000000000E+00 0.  1.
         11    1    4    4    0    0 -0.16547496680E+02  0.10518116849E+02 -0.96077330927E+02  0.98057656236E+02  0.00000000000E+00 0. -1.
</event>
<event>
 8    1  0.7005395E-009  0.1195442E+03  0.7561462E-02  0.1243851E+00
          2   -1    0    0  501    0  0.00000000000E+00  0.00000000000E+00  0.76676982262E+02  0.76676982262E+02  0.00000000000E+00 0. -1.
         -2   -1    0    0    0  501 -0.00000000000E+00 -0.00000000000E+00 -0.29240884406E+03  0.29240884406E+03  0.00000000000E+00 0.  1.
         25    2    1    2    0    0 -0.32035852895E+02 -0.95984624719E+02 -0.13975643394E+03  0.21311468090E+03  0.12508661933E+03 0.  0.
         23    2    1    2    0    0  0.32035852895E+02  0.95984624719E+02 -0.75975427849E+02  0.15597114541E+03  0.91188752112E+02 0.  0.
          5    1    3    3  502    0  0.45018576499E+01 -0.10265307002E+02 -0.11632874148E+03  0.11694225816E+03  0.41800000000E+01 0.  1.
         -5    1    3    3    0  502 -0.36537710545E+02 -0.85719317717E+02 -0.23427692467E+02  0.96172422742E+02  0.41800000000E+01 0.  1.
        -11    1    4    4    0    0 -0.23741194332E+02  0.10768802456E+01 -0.25528269422E+02  0.34878310152E+02  0.00000000000E+00 0.  1.
         11    1    4    4    0    0  0.55777047227E+02  0.94907744473E+02 -0.50447158427E+02  0.12109283526E+03  0.00000000000E+00 0. -1.
</event>
<event>
 8    1  0.7005395E-009  0.1488315E+03  0.7561462E-02  0.1201916E+00
          1   -1    0    0  501    0  0.00000000000E+00  0.00000000000E+00  0.73918108328E+03  0.73918108328E+03  0.00000000000E+00 0. -1.
         -1   -1    0    0    0  501 -0.00000000000E+00 -0.00000000000E+00 -0.73942320252E+02  0.73942320252E+02  0.00000000000E+00 0.  1.
         25    2    1    2    0    0 -0.96736640260E+02 -0.95804931546E+02  0.61467530424E+03  0.64187881961E+03  0.12508447922E+03 0.  0.
         23    2    1    2    0    0  0.96736640260E+02  0.95804931546E+02  0.50563458784E+02  0.17124458392E+03  0.90727513359E+02 0.  0.
          5    1    3    3  502    0 -0.44658434286E+02 -0.96007045800E+02  0.54264879493E+03  0.55289864861E+03  0.41800000000E+01 0.  1.
         -5    1    3    3    0  502 -0.52078205974E+02  0.20211425432E+00  0.72026509317E+02  0.88980171005E+02  0.41800000000E+01 0.  1.
        -11    1    4    4    0    0  0.41077065151E+02  0.61856318707E+02 -0.18237738124E+02  0.76460084601E+02  0.00000000000E+00 0.  1.
         11    1    4    4    0    0  0.55659575109E+02  0.33948612840E+02  0.68801196909E+02  0.94784499319E+02  0.00000000000E+00 0. -1.
</event>
<event>
 8    1  0.7005395E-009  0.1749246E+03  0.7561462E-02  0.1172807E+00
         -1   -1    0    0    0  501 -0.00000000000E+00  0.00000000000E+00  0.16214598437E+03  0.16214598437E+03  0.00000000000E+00 0.  1.
          1   -1    0    0  501    0  0.00000000000E+00 -0.00000000000E+00 -0.26121481078E+03  0.26121481078E+03  0.00000000000E+00 0. -1.
         25    2    1    2    0    0  0.74544128718E+02  0.13034420534E+03  0.40393263378E+02  0.19956365899E+03  0.12509036443E+03 0.  0.
         23    2    1    2    0    0 -0.74544128718E+02 -0.13034420534E+03 -0.13946208978E+03  0.22379713616E+03  0.89939116486E+02 0.  0.
          5    1    3    3  502    0  0.89094491212E+02  0.70892974679E+02 -0.17429326067E+02  0.11526012333E+03  0.41800000000E+01 0.  1.
         -5    1    3    3    0  502 -0.14550362494E+02  0.59451230657E+02  0.57822589445E+02  0.84303535664E+02  0.41800000000E+01 0.  1.
        -11    1    4    4    0    0 -0.26677053375E+02  0.82621237387E+01 -0.28544661739E+02  0.39934015316E+02  0.00000000000E+00 0. -1.
         11    1    4    4    0    0 -0.47867075343E+02 -0.13860632907E+03 -0.11091742804E+03  0.18386312084E+03  0.00000000000E+00 0.  1.
</event>
<event>
 8    1  0.7005395E-009  0.3286752E+03  0.7561462E-02  0.1071725E+00
         -1   -1    0    0    0  501 -0.00000000000E+00  0.00000000000E+00  0.18643404096E+03  0.18643404096E+03  0.00000000000E+00 0.  1.
          1   -1    0    0  501    0  0.00000000000E+00 -0.00000000000E+00 -0.62737678381E+03  0.62737678381E+03  0.00000000000E+00 0. -1.
         25    2    1    2    0    0 -0.17838719028E+02 -0.32352137109E+03 -0.23254279195E+03  0.41798074257E+03  0.12508978226E+03 0.  0.
         23    2    1    2    0    0  0.17838719028E+02  0.32352137109E+03 -0.20839995090E+03  0.39583008220E+03  0.90920938130E+02 0.  0.
          5    1    3    3  502    0 -0.36621046289E+02 -0.99208215883E+02 -0.18701798859E+02  0.10747372149E+03  0.41800000000E+01 0.  1.
         -5    1    3    3    0  502  0.18782327262E+02 -0.22431315520E+03 -0.21384099309E+03  0.31050702108E+03  0.41800000000E+01 0.  1.
        -11    1    4    4    0    0 -0.11423918441E+02  0.14754771636E+03 -0.14311065479E+03  0.20586766145E+03  0.00000000000E+00 0.  1.
         11    1    4    4    0    0  0.29262637469E+02  0.17597365473E+03 -0.65289296102E+02  0.18996242074E+03  0.00000000000E+00 0. -1.
</event>
<event>
 8    1  0.7005395E-009  0.1258495E+03  0.7561462E-02  0.1233748E+00
         -2   -1    0    0    0  501 -0.00000000000E+00  0.00000000000E+00  0.12464250070E+03  0.12464250070E+03  0.00000000000E+00 0.  1.
          2   -1    0    0  501    0  0.00000000000E+00 -0.00000000000E+00 -0.13339725836E+03  0.13339725836E+03  0.00000000000E+00 0. -1.
         25    2    1    2    0    0  0.35606373663E+02  0.58842215146E+02 -0.27844080942E+02  0.14543696389E+03  0.12508556069E+03 0.  0.
         23    2    1    2    0    0 -0.35606373663E+02 -0.58842215146E+02  0.19089323284E+02  0.11260279517E+03  0.87090568300E+02 0.  0.
          5    1    3    3  502    0 -0.42105961313E+02 -0.17957291349E+01  0.18938964597E+01  0.42393346942E+02  0.41800000000E+01 0. -1.
         -5    1    3    3    0  502  0.77712334976E+02  0.60637944281E+02 -0.29737977401E+02  0.10304361695E+03  0.41800000000E+01 0. -1.
        -11    1    4    4    0    0  0.22521807562E+02 -0.45914070205E+02  0.12837790087E+02  0.52727056744E+02  0.00000000000E+00 0. -1.
         11    1    4    4    0    0 -0.58128181225E+02 -0.12928144941E+02  0.62515331973E+01  0.59875738421E+02  0.00000000000E+00 0.  1.
</event>
<event>
 8    1  0.7005395E-009  0.1179185E+03  0.7561462E-02  0.1246571E+00
          2   -1    0    0  501    0  0.00000000000E+00  0.00000000000E+00  0.19393635017E+03  0.19393635017E+03  0.00000000000E+00 0. -1.
         -2   -1    0    0    0  501 -0.00000000000E+00 -0.00000000000E+00 -0.93628338192E+02  0.93628338192E+02  0.00000000000E+00 0.  1.
         25    2    1    2    0    0  0.64751351751E+02  0.37696374756E+02  0.24266687163E+02  0.14780626940E+03  0.12507624453E+03 0.  0.
         23    2    1    2    0    0 -0.64751351751E+02 -0.37696374756E+02  0.76041324817E+02  0.13975841896E+03  0.90201875628E+02 0.  0.
          5    1    3    3  502    0  0.54672072055E+02 -0.30767423192E+02 -0.19488792391E+02  0.65825186832E+02  0.41800000000E+01 0. -1.
         -5    1    3    3    0  502  0.10079279696E+02  0.68463797949E+02  0.43755479554E+02  0.81981082572E+02  0.41800000000E+01 0. -1.
        -11    1    4    4    0    0 -0.33902189987E+02  0.19165052734E+02  0.62539133040E+02  0.73673610565E+02  0.00000000000E+00 0. -1.
         11    1    4    4    0    0 -0.30849161763E+02 -0.56861427490E+02  0.13502191777E+02  0.66084808394E+02  0.00000000000E+00 0.  1.
</event>
<event>
 8    1  0.7005395E-009  0.1738331E+03  0.7561462E-02  0.1173908E+00
          4   -1    0    0  501    0  0.00000000000E+00  0.00000000000E+00  0.28860825858E+03  0.28860825858E+03  0.00000000000E+00 0. -1.
         -4   -1    0    0    0  501 -0.00000000000E+00 -0.00000000000E+00 -0.13442037602E+03  0.13442037602E+03  0.00000000000E+00 0.  1.
         25    2    1    2    0    0 -0.10373236247E+02 -0.16143818865E+03  0.10383453374E+03  0.22934821764E+03  0.12509636986E+03 0.  0.
         23    2    1    2    0    0  0.10373236247E+02  0.16143818865E+03  0.50353348831E+02  0.19368041696E+03  0.93844293334E+02 0.  0.
          5    1    3    3  502    0 -0.39807180369E+02 -0.12403399031E+03  0.12171876060E+03  0.17833107257E+03  0.41800000000E+01 0. -1.
         -5    1    3    3    0  502  0.29433944122E+02 -0.37404198340E+02 -0.17884226868E+02  0.51017145066E+02  0.41800000000E+01 0. -1.
        -11    1    4    4    0    0  0.30994055326E+02  0.10436691302E+03 -0.84260951281E+01  0.10919744996E+03  0.00000000000E+00 0.  1.
         11    1    4    4    0    0 -0.20620819079E+02  0.57071275637E+02  0.58779443959E+02  0.84482967008E+02  0.00000000000E+00 0. -1.
</event>
<event>
 8    1  0.7005395E-009  0.2500323E+03  0.7561462E-02  0.1113284E+00
          4   -1    0    0  501    0  0.00000000000E+00  0.00000000000E+00  0.77539481427E+03  0.77539481427E+03  0.00000000000E+00 0. -1.
         -4   -1    0    0    0  501 -0.00000000000E+00 -0.00000000000E+00 -0.85196650074E+02  0.85196650074E+02  0.00000000000E+00 0.  1.
         25    2    1    2    0    0 -0.16450962351E+03 -0.16069037305E+03  0.40381283325E+03  0.48124994214E+03  0.12510751495E+03 0.  0.
         23    2    1    2    0    0  0.16450962351E+03  0.16069037305E+03  0.28638533094E+03  0.37934152220E+03  0.94861058765E+02 0.  0.
          5    1    3    3  502    0 -0.15760088279E+03 -0.76198700448E+02  0.29755332606E+03  0.34525314547E+03  0.41800000000E+01 0. -1.
         -5    1    3    3    0  502 -0.69087407145E+01 -0.84491672598E+02  0.10625950719E+03  0.13599679667E+03  0.41800000000E+01 0. -1.
        -11    1    4    4    0    0  0.11908480115E+03  0.68679903421E+02  0.11337896712E+03  0.17819345999E+03  0.00000000000E+00 0.  1.
         11    1    4    4    0    0  0.45424822359E+02  0.92010469625E+02  0.17300636383E+03  0.20114806221E+03  0.00000000000E+00 0. -1.
</event>
<event>
 8    1  0.7005395E-009  0.1056119E+03  0.7561462E-02  0.1268919E+00
          2   -1    0    0  501    0  0.00000000000E+00  0.00000000000E+00  0.41891793375E+02  0.41891793375E+02  0.00000000000E+00 0. -1.
         -2   -1    0    0    0  501 -0.00000000000E+00 -0.00000000000E+00 -0.45528854398E+03  0.45528854398E+03  0.00000000000E+00 0.  1.
         25    2    1    2    0    0  0.69946149632E+02 -0.15837724591E+02 -0.30588523681E+03  0.33816648825E+03  0.12508996084E+03 0.  0.
         23    2    1    2    0    0 -0.69946149632E+02  0.15837724591E+02 -0.10751151379E+03  0.15901384910E+03  0.92646539285E+02 0.  0.
          5    1    3    3  502    0  0.76059153057E+02  0.17973978698E+02 -0.88921596153E+02  0.11845919693E+03  0.41800000000E+01 0. -1.
         -5    1    3    3    0  502 -0.61130034251E+01 -0.33811703289E+02 -0.21696364066E+03  0.21970729132E+03  0.41800000000E+01 0. -1.
        -11    1    4    4    0    0 -0.49254067509E+02 -0.22984097397E+02 -0.14702206022E+02  0.56306187593E+02  0.00000000000E+00 0. -1.
         11    1    4    4    0    0 -0.20692082123E+02  0.38821821988E+02 -0.92809307766E+02  0.10270766151E+03  0.00000000000E+00 0.  1.
</event>
<event>
 8    1  0.7005395E-009  0.1086290E+03  0.7561462E-02  0.1263130E+00
          1   -1    0    0  501    0  0.00000000000E+00  0.00000000000E+00  0.22865300342E+03  0.22865300342E+03  0.00000000000E+00 0. -1.
         -1   -1    0    0    0  501 -0.00000000000E+00 -0.00000000000E+00 -0.54252213704E+02  0.54252213704E+02  0.00000000000E+00 0.  1.
         25    2    1    2    0    0 -0.79443249298E+01  0.19469322435E+02  0.11344857393E+03  0.17017412076E+03  0.12508591301E+03 0.  0.
         23    2    1    2    0    0  0.79443249298E+01 -0.19469322435E+02  0.60952215783E+02  0.11273109636E+03  0.92471404574E+02 0.  0.
          5    1    3    3  502    0 -0.62233484998E+02  0.29086949421E+02  0.80089896253E+02  0.10559792215E+03  0.41800000000E+01 0.  1.
         -5    1    3    3    0  502  0.54289160068E+02 -0.96176269862E+01  0.33358677680E+02  0.64576198605E+02  0.41800000000E+01 0.  1.
        -11    1    4    4    0    0  0.47383952024E+02  0.34810176186E+01  0.41659199884E+02  0.63188965240E+02  0.00000000000E+00 0. -1.
         11    1    4    4    0    0 -0.39439627094E+02 -0.22950340053E+02  0.19293015898E+02  0.49542131124E+02  0.00000000000E+00 0.  1.
</event>
<event>
 8    1  0.7005395E-009  0.1632905E+03  0.7561462E-02  0.1185031E+00
         -1   -1    0    0    0  501 -0.00000000000E+00  0.00000000000E+00  0.44201551194E+03  0.44201551194E+03  0.00000000000E+00 0.  1.
          1   -1    0    0  501    0  0.00000000000E+00 -0.00000000000E+00 -0.11017144610E+03  0.11017144610E+03  0.00000000000E+00 0. -1.
         25    2    1    2    0    0 -0.11201222070E+03  0.61581067580E+02  0.34980018143E+03  0.39287029588E+03  0.12509171429E+03 0.  0.
         23    2    1    2    0    0  0.11201222070E+03 -0.61581067580E+02 -0.17956115582E+02  0.15931666216E+03  0.93383142399E+02 0.  0.
          5    1    3    3  502    0 -0.87025302339E+02  0.94917310463E+02  0.20489764512E+03  0.24203970015E+03  0.41800000000E+01 0. -1.
         -5    1    3    3    0  502 -0.24986918363E+02 -0.33336242883E+02  0.14490253631E+03  0.15083059573E+03  0.41800000000E+01 0. -1.
        -11    1    4    4    0    0  0.28422902349E+02 -0.66311241051E+02 -0.22205239856E+02  0.75485857912E+02  0.00000000000E+00 0. -1.
         11    1    4    4    0    0  0.83589318354E+02  0.47301734712E+01  0.42491242740E+01  0.83830804249E+02  0.00000000000E+00 0.  1.
</event>
<event>
 8    1  0.7005395E-009  0.1030234E+03  0.7561462E-02  0.1274064E+00
         -1   -1    0    0    0  501 -0.00000000000E+00  0.00000000000E+00  0.46025020399E+02  0.46025020399E+02  0.00000000000E+00 0.  1.
          1   -1    0    0  501    0  0.00000000000E+00 -0.00000000000E+00 -0.42243951020E+03  0.42243951020E+03  0.00000000000E+00 0. -1.
         25    2    1    2    0    0  0.76339494508E+02  0.29512294953E+02 -0.15458643945E+03  0.21504376996E+03  0.12509261274E+03 0.  0.
         23    2    1    2    0    0 -0.76339494508E+02 -0.29512294953E+02 -0.22182805035E+03  0.25342076064E+03  0.91190482101E+02 0.  0.
          5    1    3    3  502    0  0.51993384413E+02  0.42794817695E+02 -0.10535048697E+02  0.68287393385E+02  0.41800000000E+01 0. -1.
         -5    1    3    3    0  502  0.24346110096E+02 -0.13282522742E+02 -0.14405139076E+03  0.14675637658E+03  0.41800000000E+01 0. -1.
        -11    1    4    4    0    0 -0.66009926211E+02  0.12572126539E+02 -0.76750949454E+02  0.10201018070E+03  0.00000000000E+00 0.  1.
         11    1    4    4    0    0 -0.10329568297E+02 -0.42084421492E+02 -0.14507710090E+03  0.15141057994E+03  0.00000000000E+00 0. -1.
</event>
<event>
 8    1  0.7005395E-009  0.9450935E+02  0.7561462E-02  0.1292285E+00
          2   -1    0    0  501    0  0.00000000000E+00  0.00000000000E+00  0.79092826650E+02  0.79092826650E+02  0.00000000000E+00 0. -1.
         -2   -1    0    0    0  501 -0.00000000000E+00 -0.00000000000E+00 -0.20991751779E+03  0.20991751779E+03  0.00000000000E+00 0.  1.
         25    2    1    2    0    0 -0.50647168373E+02 -0.13357278918E+02 -0.11988906386E+03  0.18101072543E+03  0.12509173643E+03 0.  0.
         23    2    1    2    0    0  0.50647168373E+02  0.13357278918E+02 -0.10935627285E+02  0.10799961901E+03  0.93812457589E+02 0.  0.
          5    1    3    3  502    0 -0.65895847135E+02 -0.11594316630E+01 -0.70448458704E+01  0.66413170416E+02  0.41800000000E+01 0.  1.
         -5    1    3    3    0  502  0.15248678762E+02 -0.12197847255E+02 -0.11284421799E+03  0.11459755501E+03  0.41800000000E+01 0.  1.
        -11    1    4    4    0    0  0.13041680814E+02  0.49297066179E+02  0.99339392618E+01  0.51951605573E+02  0.00000000000E+00 0.  1.
         11    1    4    4    0    0  0.37605487559E+02 -0.35939787261E+02 -0.20869566547E+02  0.56048013442E+02  0.00000000000E+00 0. -1.
</event>
<event>
 8    1  0.7005395E-009  0.1316339E+03  0.7561462E-02  0.1225051E+00
         -2   -1    0    0    0  501 -0.00000000000E+00  0.00000000000E+00  0.32472540826E+03  0.32472540826E+03  0.00000000000E+00 0.  1.
          2   -1    0    0  501    0  0.00000000000E+00 -0.00000000000E+00 -0.69767209922E+02  0.69767209922E+02  0.00000000000E+00 0. -1.
         25    2    1    2    0    0  0.55285604529E+02  0.65673342096E+02  0.59101151017E+02  0.16281758848E+03  0.12508850921E+03 0.  0.
         23    2    1    2    0    0 -0.55285604529E+02 -0.65673342096E+02  0.19585704732E+03  0.23167502970E+03  0.89128280998E+02 0.  0.
          5    1    3    3  502    0 -0.27738476520E+02 -0.88037666343E+01 -0.10572128007E+02  0.31243746209E+02  0.41800000000E+01 0. -1.
         -5    1    3    3    0  502  0.83024081049E+02  0.74477108730E+02  0.69673279024E+02  0.13157384227E+03  0.41800000000E+01 0. -1.
        -11    1    4    4    0    0 -0.35056706754E+02  0.15694968733E+02  0.45724013073E+02  0.59715911644E+02  0.00000000000E+00 0. -1.
         11    1    4    4    0    0 -0.20228897775E+02 -0.81368310829E+02  0.15013303424E+03  0.17195911806E+03  0.00000000000E+00 0.  1.
</event>
<event>
 8    1  0.7005395E-009  0.1130688E+03  0.7561462E-02  0.1254990E+00
          1   -1    0    0  501    0  0.00000000000E+00  0.00000000000E+00  0.93073364405E+03  0.93073364405E+03  0.00000000000E+00 0. -1.
         -1   -1    0    0    0  501 -0.00000000000E+00 -0.00000000000E+00 -0.14581838097E+02  0.14581838097E+02  0.00000000000E+00 0.  1.
         25    2    1    2    0    0 -0.20184702676E+02  0.36701082042E+02  0.45114372737E+03  0.47003470797E+03  0.12509025663E+03 0.  0.
         23    2    1    2    0    0  0.20184702676E+02 -0.36701082042E+02  0.46500807859E+03  0.47528077418E+03  0.88909558046E+02 0.  0.
          5    1    3    3  502    0 -0.58644855979E+02 -0.19347319263E+02  0.17522497018E+03  0.18583541231E+03  0.41800000000E+01 0. -1.
         -5    1    3    3    0  502  0.38460153303E+02  0.56048401305E+02  0.27591875719E+03  0.28419929565E+03  0.41800000000E+01 0. -1.
        -11    1    4    4    0    0 -0.32520312472E+02 -0.27600579038E+02  0.25649226609E+03  0.26001470199E+03  0.00000000000E+00 0.  1.
         11    1    4    4    0    0  0.52705015148E+02 -0.91005030047E+01  0.20851581250E+03  0.21526607219E+03  0.00000000000E+00 0. -1.
</event>
<event>
 8    1  0.7005395E-009  0.1087471E+03  0.7561462E-02  0.1262908E+00
         -2   -1    0    0    0  501 -0.00000000000E+00  0.00000000000E+00  0.58482846505E+02  0.58482846505E+02  0.00000000000E+00 0.  1.
          2   -1    0    0  501    0  0.00000000000E+00 -0.00000000000E+00 -0.29622328370E+03  0.29622328370E+03  0.00000000000E+00 0. -1.
         25    2    1    2    0    0  0.13430308451E+02 -0.74959363398E+02 -0.15255261235E+03  0.21147552200E+03  0.12510122911E+03 0.  0.
         23    2    1    2    0    0 -0.13430308451E+02  0.74959363398E+02 -0.85187824848E+02  0.14323060821E+03  0.86364126109E+02 0.  0.
          5    1    3    3  502    0  0.94985525771E+01 -0.90938010818E+02 -0.16617086056E+03  0.18971075777E+03  0.41800000000E+01 0.  1.
         -5    1    3    3    0  502  0.39317558743E+01  0.15978647420E+02  0.13618248215E+02  0.21764764232E+02  0.41800000000E+01 0.  1.
        -11    1    4    4    0    0 -0.36750408511E+02  0.77259590162E+02 -0.83796671728E+02  0.11975608123E+03  0.00000000000E+00 0. -1.
         11    1    4    4    0    0  0.23320100060E+02 -0.23002267642E+01 -0.13911531201E+01  0.23474526980E+02  0.00000000000E+00 0.  1.
</event>
<event>
 8    1  0.7005395E-009  0.1880640E+03  0.7561462E-02  0.1160219E+00
          1   -1    0    0  501    0  0.00000000000E+00  0.00000000000E+00  0.27094715370E+03  0.27094715370E+03  0.00000000000E+00 0. -1.
         -1   -1    0    0    0  501 -0.00000000000E+00 -0.00000000000E+00 -0.15739441794E+03  0.15739441794E+03  0.00000000000E+00 0.  1.
         25    2    1    2    0    0 -0.55537105632E+01 -0.17492852853E+03  0.55624754779E+02  0.22219904204E+03  0.12508983630E+03 0.  0.
         23    2    1    2    0    0  0.55537105632E+01  0.17492852853E+03  0.57927980988E+02  0.20614252960E+03  0.92240217546E+02 0.  0.
          5    1    3    3  502    0  0.34179143216E+02 -0.64495240852E+02  0.73194376612E+02  0.10345404338E+03  0.41800000000E+01 0. -1.
         -5    1    3    3    0  502 -0.39732853779E+02 -0.11043328768E+03 -0.17569621833E+02  0.11874499867E+03  0.41800000000E+01 0. -1.
        -11    1    4    4    0    0 -0.28197607280E+02  0.77716367461E+02  0.61715097655E+02  0.10316827083E+03  0.00000000000E+00 0.  1.
         11    1    4    4    0    0  0.33751317843E+02  0.97212161071E+02 -0.37871166673E+01  0.10297425877E+03  0.00000000000E+00 0. -1.
</event>
<event>
 8    1  0.7005395E-009  0.1209014E+03  0.7561462E-02  0.1241617E+00
         -2   -1    0    0    0  501 -0.00000000000E+00  0.00000000000E+00  0.17544788247E+03  0.17544788247E+03  0.00000000000E+00 0.  1.
          2   -1    0    0  501    0  0.00000000000E+00 -0.00000000000E+00 -0.13076527920E+03  0.13076527920E+03  0.00000000000E+00 0. -1.
         25    2    1    2    0    0  0.15121062908E+02 -0.90711740925E+02  0.76438180022E+02  0.17304915809E+03  0.12508376900E+03 0.  0.
         23    2    1    2    0    0 -0.15121062908E+02  0.90711740925E+02 -0.31755576756E+02  0.13316400357E+03  0.90922872303E+02 0.  0.
          5    1    3    3  502    0  0.38415615723E+02 -0.27501766618E+02 -0.23122989350E+02  0.52766009276E+02  0.41800000000E+01 0.  1.
         -5    1    3    3    0  502 -0.23294552816E+02 -0.63209974307E+02  0.99561169372E+02  0.12028314882E+03  0.41800000000E+01 0.  1.
        -11    1    4    4    0    0 -0.12850982208E+02 -0.15786216733E+02  0.41092033402E+01  0.20766269153E+02  0.00000000000E+00 0. -1.
         11    1    4    4    0    0 -0.22700806998E+01  0.10649795766E+03 -0.35864780097E+02  0.11239773442E+03  0.00000000000E+00 0.  1.
</event>
<event>
 8    1  0.7005395E-009  0.7874008E+02  0.7561462E-02  0.1332665E+00
          1   -1    0    0  501    0  0.00000000000E+00  0.00000000000E+00  0.59000217012E+02  0.59000217012E+02  0.00000000000E+00 0. -1.
         -1   -1    0    0    0  501 -0.00000000000E+00 -0.00000000000E+00 -0.20972317988E+03  0.20972317988E+03  0.00000000000E+00 0.  1.
         25    2    1    2    0    0 -0.48675059511E+00  0.17891763316E+02 -0.10801068550E+03  0.16623527990E+03  0.12508999951E+03 0.  0.
         23    2    1    2    0    0  0.48675059511E+00 -0.17891763316E+02 -0.42712277363E+02  0.10248811699E+03  0.91428241626E+02 0.  0.
          5    1    3    3  502    0  0.30258982070E+02 -0.36496384322E+02 -0.80304947158E+01  0.48265446335E+02  0.41800000000E+01 0. -1.
         -5    1    3    3    0  502 -0.30745732666E+02  0.54388147638E+02 -0.99980190786E+02  0.11796983356E+03  0.41800000000E+01 0. -1.
        -11    1    4    4    0    0 -0.18460798586E+02 -0.21119225816E+02  0.21575756036E+02  0.35388360121E+02  0.00000000000E+00 0. -1.
         11    1    4    4    0    0  0.18947549182E+02  0.32274625001E+01 -0.64288033399E+02  0.67099756874E+02  0.00000000000E+00 0.  1.
</event>
<event>
 8    1  0.7005395E-009  0.2850006E+03  0.7561462E-02  0.1092989E+00
          1   -1    0    0  501    0  0.00000000000E+00  0.00000000000E+00  0.34961811287E+03  0.34961811287E+03  0.00000000000E+00 0. -1.
         -1   -1    0    0    0  501 -0.00000000000E+00 -0.00000000000E+00 -0.25563890739E+03  0.25563890739E+03  0.00000000000E+00 0.  1.
         25    2    1    2    0    0  0.26035835253E+03  0.84059157224E+02  0.98944397866E+02  0.31668597962E+03  0.12509037601E+03 0.  0.
         23    2    1    2    0    0 -0.26035835253E+03 -0.84059157224E+02 -0.49651923837E+01  0.28857104064E+03  0.91630664697E+02 0.  0.
          5    1    3    3  502    0  0.19931434423E+03  0.10687028728E+03  0.10818124904E+03  0.25073516140E+03  0.41800000000E+01 0. -1.
         -5    1    3    3    0  502  0.61044008305E+02 -0.22811130052E+02 -0.92368511730E+01  0.65950818219E+02  0.41800000000E+01 0. -1.
        -11    1    4    4    0    0 -0.16328217067E+03 -0.78754908563E+02 -0.39247893600E+02  0.18548261383E+03  0.00000000000E+00 0.  1.
         11    1    4    4    0    0 -0.97076181867E+02 -0.53042486609E+01  0.34282701216E+02  0.10308842681E+03  0.00000000000E+00 0. -1.
</event>
<event>
 8    1  0.7005395E-009  0.1812820E+03  0.7561462E-02  0.1166568E+00
         -2   -1    0    0    0  501 -0.00000000000E+00  0.00000000000E+00  0.58750623249E+02  0.58750623249E+02  0.00000000000E+00 0.  1.
          2   -1    0    0  501    0  0.00000000000E+00 -0.00000000000E+00 -0.11938456994E+04  0.11938456994E+04  0.00000000000E+00 0. -1.
         25    2    1    2    0    0  0.16181247585E+03  0.12606084602E+02 -0.10040327122E+04  0.10247297846E+04  0.12508898295E+03 0.  0.
         23    2    1    2    0    0 -0.16181247585E+03 -0.12606084602E+02 -0.13106236403E+03  0.22786653809E+03  0.91671288869E+02 0.  0.
          5    1    3    3  502    0  0.23130167132E+02  0.34694180470E+02 -0.49171909797E+03  0.49350160536E+03  0.41800000000E+01 0. -1.
         -5    1    3    3    0  502  0.13868230872E+03 -0.22088095868E+02 -0.51231361419E+03  0.53122817924E+03  0.41800000000E+01 0. -1.
        -11    1    4    4    0    0 -0.81431580697E+02 -0.45537832675E+02 -0.38508194314E+02  0.10093402582E+03  0.00000000000E+00 0.  1.
         11    1    4    4    0    0 -0.80380895157E+02  0.32931748073E+02 -0.92554169718E+02  0.12693251226E+03  0.00000000000E+00 0. -1.
</event>
<event>
 8    1  0.7005395E-009  0.1802242E+03  0.7561462E-02  0.1167586E+00
          2   -1    0    0  501    0  0.00000000000E+00  0.00000000000E+00  0.17769369986E+03  0.17769369986E+03  0.00000000000E+00 0. -1.
         -2   -1    0    0    0  501 -0.00000000000E+00 -0.00000000000E+00 -0.25976950356E+03  0.25976950356E+03  0.00000000000E+00 0.  1.
         25    2    1    2    0    0  0.15025582944E+03  0.23222486301E+02  0.64999160974E+02  0.20734206182E+03  0.12509892693E+03 0.  0.
         23    2    1    2    0    0 -0.15025582944E+03 -0.23222486301E+02 -0.14707496467E+03  0.23012114160E+03  0.90601304761E+02 0.  0.
          5    1    3    3  502    0  0.89266077580E+02 -0.47188059438E+02  0.17035818613E+02  0.10248335024E+03  0.41800000000E+01 0.  1.
         -5    1    3    3    0  502  0.60989751862E+02  0.70410545739E+02  0.47963342361E+02  0.10485871158E+03  0.41800000000E+01 0.  1.
        -11    1    4    4    0    0 -0.10826889295E+03  0.15077177200E+02 -0.13187864892E+03  0.17129346892E+03  0.00000000000E+00 0.  1.
         11    1    4    4    0    0 -0.41986936490E+02 -0.38299663501E+02 -0.15196315753E+02  0.58827672677E+02  0.00000000000E+00 0. -1.
</event>
<event>
 8    1  0.7005395E-009  0.8063499E+02  0.7561462E-02  0.1327259E+00
          1   -1    0    0  501    0  0.00000000000E+00  0.00000000000E+00  0.69485600883E+03  0.69485600883E+03  0.00000000000E+00 0. -1.
         -1   -1    0    0    0  501 -0.00000000000E+00 -0.00000000000E+00 -0.24101179749E+02  0.24101179749E+02  0.00000000000E+00 0.  1.
         25    2    1    2    0    0  0.38675602152E+02 -0.18968432883E+01  0.53573758908E+03  0.55150880497E+03  0.12509115634E+03 0.  0.
         23    2    1    2    0    0 -0.38675602152E+02  0.18968432883E+01  0.13501724001E+03  0.16744838361E+03  0.91158685043E+02 0.  0.
          5    1    3    3  502    0 -0.18338502748E+02 -0.33321088749E+02  0.58950461887E+02  0.70279620056E+02  0.41800000000E+01 0.  1.
         -5    1    3    3    0  502  0.57014104900E+02  0.31424245460E+02  0.47678712719E+03  0.48122918492E+03  0.41800000000E+01 0.  1.
        -11    1    4    4    0    0  0.61009635494E+01  0.10531114427E+02 -0.97970160336E+01  0.15623944779E+02  0.00000000000E+00 0.  1.
         11    1    4    4    0    0 -0.44776565701E+02 -0.86342711388E+01  0.14481425604E+03  0.15182443883E+03  0.00000000000E+00 0. -1.
</event>
<event>
 8    1  0.7005395E-009  0.1020293E+03  0.7561462E-02  0.1276086E+00
          1   -1    0    0  501    0  0.00000000000E+00  0.00000000000E+00  0.88005449272E+02  0.88005449272E+02  0.00000000000E+00 0. -1.
         -1   -1    0    0    0  501 -0.00000000000E+00 -0.00000000000E+00 -0.13974708323E+03  0.13974708323E+03  0.00000000000E+00 0.  1.
         25    2    1    2    0    0 -0.13844926369E+02 -0.10079951584E+02 -0.67968833148E+02  0.14339042490E+03  0.12509102391E+03 0.  0.
         23    2    1    2    0    0  0.13844926369E+02  0.10079951584E+02  0.16227199191E+02  0.84362107601E+02  0.80996023329E+02 0.  0.
          5    1    3    3  502    0  0.29033421326E+02  0.45352695004E+02 -0.16964247580E+02  0.56613289906E+02  0.41800000000E+01 0.  1.
         -5    1    3    3    0  502 -0.42878347695E+02 -0.55432646589E+02 -0.51004585568E+02  0.86777134995E+02  0.41800000000E+01 0.  1.
        -11    1    4    4    0    0 -0.32423401758E+02 -0.29196633782E+00 -0.42703911488E+01  0.32704716273E+02  0.00000000000E+00 0.  1.
         11    1    4    4    0    0  0.46268328128E+02  0.10371917922E+02  0.20497590339E+02  0.51657391328E+02  0.00000000000E+00 0. -1.
</event>
<event>
 8    1  0.7005395E-009  0.1307910E+03  0.7561462E-02  0.1226287E+00
          2   -1    0    0  501    0  0.00000000000E+00  0.00000000000E+00  0.22920807676E+03  0.22920807676E+03  0.00000000000E+00 0. -1.
         -2   -1    0    0    0  501 -0.00000000000E+00 -0.00000000000E+00 -0.10934160770E+03  0.10934160770E+03  0.00000000000E+00 0.  1.
         25    2    1    2    0    0  0.10404129108E+03  0.18548047978E+02  0.10951942776E+03  0.19700354704E+03  0.12508905690E+03 0.  0.
         23    2    1    2    0    0 -0.10404129108E+03 -0.18548047978E+02  0.10347041303E+02  0.14154613743E+03  0.93592881265E+02 0.  0.
          5    1    3    3  502    0  0.67877441196E+02 -0.35136036717E+02  0.10767880062E+03  0.13211390768E+03  0.41800000000E+01 0. -1.
         -5    1    3    3    0  502  0.36163849885E+02  0.53684084695E+02  0.18406271407E+01  0.64889639361E+02  0.41800000000E+01 0. -1.
        -11    1    4    4    0    0 -0.63833566641E+02  0.17480721035E+02  0.42551357224E+02  0.78682385828E+02  0.00000000000E+00 0.  1.
         11    1    4    4    0    0 -0.40207724441E+02 -0.36028769013E+02 -0.32204315921E+02  0.62863751600E+02  0.00000000000E+00 0. -1.
</event>
<event>
 8    1  0.7005395E-009  0.1359938E+03  0.7561462E-02  0.1218824E+00
          1   -1    0    0  501    0  0.00000000000E+00  0.00000000000E+00  0.56568195980E+03  0.56568195980E+03  0.00000000000E+00 0. -1.
         -1   -1    0    0    0  501 -0.00000000000E+00 -0.00000000000E+00 -0.39498441261E+02  0.39498441261E+02  0.00000000000E+00 0.  1.
         25    2    1    2    0    0 -0.37322528321E+02 -0.88924040482E+02  0.35611436294E+03  0.38957085043E+03  0.12509017514E+03 0.  0.
         23    2    1    2    0    0  0.37322528321E+02  0.88924040482E+02  0.17006915560E+03  0.21560955063E+03  0.90903820275E+02 0.  0.
          5    1    3    3  502    0 -0.80241534968E+02 -0.75979562535E+02  0.22047130774E+03  0.24665090269E+03  0.41800000000E+01 0.  1.
         -5    1    3    3    0  502  0.42919006647E+02 -0.12944477947E+02  0.13564305519E+03  0.14291994774E+03  0.41800000000E+01 0.  1.
        -11    1    4    4    0    0 -0.53006485671E+01  0.69219155534E+02  0.46864439509E+02  0.83759560998E+02  0.00000000000E+00 0.  1.
         11    1    4    4    0    0  0.42623176888E+02  0.19704884948E+02  0.12320471609E+03  0.13184998963E+03  0.00000000000E+00 0. -1.
</event>
<event>
 8    1  0.7005395E-009  0.2009014E+03  0.7561462E-02  0.1148981E+00
         -1   -1    0    0    0  501 -0.00000000000E+00  0.00000000000E+00  0.89683968774E+02  0.89683968774E+02  0.00000000000E+00 0.  1.
          1   -1    0    0  501    0  0.00000000000E+00 -0.00000000000E+00 -0.56973992578E+03  0.56973992578E+03  0.00000000000E+00 0. -1.
         25    2    1    2    0    0 -0.13839166685E+03  0.11326942897E+03 -0.12432365216E+03  0.25116867243E+03  0.12508842685E+03 0.  0.
         23    2    1    2    0    0  0.13839166685E+03 -0.11326942897E+03 -0.35573230485E+03  0.40825522213E+03  0.90247640903E+02 0.  0.
          5    1    3    3  502    0 -0.51740437270E+02  0.12041767847E+03 -0.77736559880E+02  0.15243993991E+03  0.41800000000E+01 0.  1.
         -5    1    3    3    0  502 -0.86651229577E+02 -0.71482495003E+01 -0.46587092277E+02  0.98728732519E+02  0.41800000000E+01 0.  1.
        -11    1    4    4    0    0  0.52885308940E+02 -0.70185529117E+02 -0.25297166457E+03  0.26780128356E+03  0.00000000000E+00 0.  1.
         11    1    4    4    0    0  0.85506357907E+02 -0.43083899853E+02 -0.10276064027E+03  0.14045393857E+03  0.00000000000E+00 0. -1.
</event>
<event>
 8    1  0.7005395E-009  0.3189538E+03  0.7561462E-02  0.1076132E+00
          2   -1    0    0  501    0  0.00000000000E+00  0.00000000000E+00  0.95864030006E+03  0.95864030006E+03  0.00000000000E+00 0.  1.
         -2   -1    0    0    0  501 -0.00000000000E+00 -0.00000000000E+00 -0.13384642181E+03  0.13384642181E+03  0.00000000000E+00 0. -1.
         25    2    1    2    0    0 -0.20960589940E+03 -0.23265907258E+03  0.62421307392E+03  0.70947546537E+03  0.12509435314E+03 0.  0.
         23    2    1    2    0    0  0.20960589940E+03  0.23265907258E+03  0.20058080432E+03  0.38301125650E+03  0.91651985405E+02 0.  0.
          5    1    3    3  502    0 -0.20003746891E+03 -0.22911856430E+03  0.50344105858E+03  0.58820122181E+03  0.41800000000E+01 0.  1.
         -5    1    3    3    0  502 -0.95684304913E+01 -0.35405082826E+01  0.12077201535E+03  0.12127424356E+03  0.41800000000E+01 0. -1.
        -11    1    4    4    0    0  0.67060712247E+02  0.26608005368E+02  0.69782972595E+02  0.10037324514E+03  0.00000000000E+00 0.  1.
         11    1    4    4    0    0  0.14254518715E+03  0.20605106721E+03  0.13079783173E+03  0.28263801136E+03  0.00000000000E+00 0. -1.
</event>
<event>
 8    1  0.7005395E-009  0.2113122E+03  0.7561462E-02  0.1140531E+00
         -1   -1    0    0    0  501 -0.00000000000E+00  0.00000000000E+00  0.71125635410E+03  0.71125635410E+03  0.00000000000E+00 0.  1.
          1   -1    0    0  501    0  0.00000000000E+00 -0.00000000000E+00 -0.91988543042E+02  0.91988543042E+02  0.00000000000E+00 0. -1.
         25    2    1    2    0    0  0.14029055496E+03  0.15649522143E+03  0.46940555766E+03  0.52930411922E+03  0.12509627860E+03 0.  0.
         23    2    1    2    0    0 -0.14029055496E+03 -0.15649522143E+03  0.14986225340E+03  0.27394077792E+03  0.91720557526E+02 0.  0.
          5    1    3    3  502    0  0.11202178410E+03  0.11203859016E+03  0.20214698942E+03  0.25687040221E+03  0.41800000000E+01 0.  1.
         -5    1    3    3    0  502  0.28268770864E+02  0.44456631270E+02  0.26725856824E+03  0.27243371701E+03  0.41800000000E+01 0.  1.
        -11    1    4    4    0    0 -0.87993979074E+02 -0.82086056023E+02  0.30983925812E+02  0.12426208032E+03  0.00000000000E+00 0.  1.
         11    1    4    4    0    0 -0.52296575886E+02 -0.74409165407E+02  0.11887832758E+03  0.14967869760E+03  0.00000000000E+00 0. -1.
</event>
<event>
 8    1  0.7005395E-009  0.1017461E+03  0.7561462E-02  0.1276666E+00
          1   -1    0    0  501    0  0.00000000000E+00  0.00000000000E+00  0.12185075779E+04  0.12185075779E+04  0.00000000000E+00 0. -1.
         -1   -1    0    0    0  501 -0.00000000000E+00 -0.00000000000E+00 -0.21776801111E+02  0.21776801111E+02  0.00000000000E+00 0.  1.
         25    2    1    2    0    0 -0.79658707674E+02  0.49837675177E+02  0.94030832025E+03  0.95323425411E+03  0.12508598045E+03 0.  0.
         23    2    1    2    0    0  0.79658707674E+02 -0.49837675177E+02  0.25642245658E+03  0.28705012494E+03  0.88408112834E+02 0.  0.
          5    1    3    3  502    0 -0.49229686377E+02  0.18425995045E+02  0.11232795470E+03  0.12408916601E+03  0.41800000000E+01 0. -1.
         -5    1    3    3    0  502 -0.30429021297E+02  0.31411680132E+02  0.82798036555E+03  0.82914508810E+03  0.41800000000E+01 0. -1.
        -11    1    4    4    0    0  0.19153193656E+02 -0.41557748816E+02  0.35707595537E+02  0.58042430109E+02  0.00000000000E+00 0.  1.
         11    1    4    4    0    0  0.60505514018E+02 -0.82799263603E+01  0.22071486105E+03  0.22900769483E+03  0.00000000000E+00 0. -1.
</event>
<event>
 8    1  0.7005395E-009  0.1034132E+03  0.7561462E-02  0.1273278E+00
         -1   -1    0    0    0  501 -0.00000000000E+00  0.00000000000E+00  0.44606755260E+02  0.44606755260E+02  0.00000000000E+00 0.  1.
          1   -1    0    0  501    0  0.00000000000E+00 -0.00000000000E+00 -0.34728787781E+03  0.34728787781E+03  0.00000000000E+00 0. -1.
         25    2    1    2    0    0  0.52416413826E+02 -0.10668172101E+02 -0.21409702092E+03  0.25366551903E+03  0.12508945136E+03 0.  0.
         23    2    1    2    0    0 -0.52416413826E+02  0.10668172101E+02 -0.88584101630E+02  0.13822911405E+03  0.91645264876E+02 0.  0.
          5    1    3    3  502    0 -0.14404590976E+02  0.23835942315E+02 -0.15920605986E+01  0.28207294166E+02  0.41800000000E+01 0.  1.
         -5    1    3    3    0  502  0.66821004803E+02 -0.34504114416E+02 -0.21250496033E+03  0.22545822486E+03  0.41800000000E+01 0.  1.
        -11    1    4    4    0    0 -0.52539035661E+02 -0.31445534130E+02 -0.67493581402E+02  0.91129333452E+02  0.00000000000E+00 0.  1.
         11    1    4    4    0    0  0.12262183494E+00  0.42113706231E+02 -0.21090520228E+02  0.47099780595E+02  0.00000000000E+00 0. -1.
</event>
<event>
 8    1  0.7005395E-009  0.1276238E+03  0.7561462E-02  0.1231025E+00
         -1   -1    0    0    0  501 -0.00000000000E+00  0.00000000000E+00  0.10386080547E+02  0.10386080547E+02  0.00000000000E+00 0.  1.
          1   -1    0    0  501    0  0.00000000000E+00 -0.00000000000E+00 -0.18881373044E+04  0.18881373044E+04  0.00000000000E+00 0. -1.
         25    2    1    2    0    0 -0.28393318730E+02 -0.62556712681E+02 -0.14035405199E+04  0.14107773529E+04  0.12508887135E+03 0.  0.
         23    2    1    2    0    0  0.28393318730E+02  0.62556712681E+02 -0.47421070397E+03  0.48774603202E+03  0.91109149593E+02 0.  0.
          5    1    3    3  502    0  0.42410308277E+02  0.66752974848E+01 -0.37521665126E+03  0.37768796860E+03  0.41800000000E+01 0. -1.
         -5    1    3    3    0  502 -0.70803627008E+02 -0.69232010165E+02 -0.10283238686E+04  0.10330893843E+04  0.41800000000E+01 0. -1.
        -11    1    4    4    0    0 -0.47774493007E+01  0.76763788848E+02 -0.28943674762E+03  0.29948144212E+03  0.00000000000E+00 0.  1.
         11    1    4    4    0    0  0.33170768031E+02 -0.14207076168E+02 -0.18477395635E+03  0.18826458990E+03  0.00000000000E+00 0. -1.
</event>
<event>
 8    1  0.7005395E-009  0.1731153E+03  0.7561462E-02  0.1174638E+00
          1   -1    0    0  501    0  0.00000000000E+00  0.00000000000E+00  0.13370502653E+03  0.13370502653E+03  0.00000000000E+00 0. -1.
         -1   -1    0    0    0  501 -0.00000000000E+00 -0.00000000000E+00 -0.37309723375E+03  0.37309723375E+03  0.00000000000E+00 0.  1.
         25    2    1    2    0    0  0.98047026190E+01 -0.14760442440E+03 -0.26671060496E+03  0.32964330026E+03  0.12508781041E+03 0.  0.
         23    2    1    2    0    0 -0.98047026190E+01  0.14760442440E+03  0.27318397734E+02  0.17715896002E+03  0.93572453019E+02 0.  0.
          5    1    3    3  502    0  0.17371284428E+02 -0.16921710571E+03 -0.22841271253E+03  0.28482631556E+03  0.41800000000E+01 0. -1.
         -5    1    3    3    0  502 -0.75665818091E+01  0.21612681309E+02 -0.38297892430E+02  0.44816984707E+02  0.41800000000E+01 0. -1.
        -11    1    4    4    0    0  0.14414027762E+02  0.71203077360E+02 -0.30027143813E+02  0.78608344261E+02  0.00000000000E+00 0.  1.
         11    1    4    4    0    0 -0.24218730381E+02  0.76401347038E+02  0.57345541547E+02  0.98550615756E+02  0.00000000000E+00 0. -1.
</event>
<event>
 8    1  0.7005395E-009  0.1256402E+03  0.7561462E-02  0.1234072E+00
          1   -1    0    0  501    0  0.00000000000E+00  0.00000000000E+00  0.15120025195E+03  0.15120025195E+03  0.00000000000E+00 0. -1.
         -1   -1    0    0    0  501 -0.00000000000E+00 -0.00000000000E+00 -0.14670913692E+03  0.14670913692E+03  0.00000000000E+00 0.  1.
         25    2    1    2    0    0  0.10082145398E+03  0.87328945952E+01 -0.14648078896E+02  0.16156532147E+03  0.12509019888E+03 0.  0.
         23    2    1    2    0    0 -0.10082145398E+03 -0.87328945952E+01  0.19139193932E+02  0.13634406740E+03  0.89342973642E+02 0.  0.
          5    1    3    3  502    0  0.91068419511E+02  0.39352020748E+02  0.32390765204E+02  0.10444459124E+03  0.41800000000E+01 0.  1.
         -5    1    3    3    0  502  0.97530344698E+01 -0.30619126153E+02 -0.47038844100E+02  0.57120730230E+02  0.41800000000E+01 0.  1.
        -11    1    4    4    0    0 -0.28253169412E+02  0.26655358259E+02 -0.23133640199E+02  0.45209678329E+02  0.00000000000E+00 0.  1.
         11    1    4    4    0    0 -0.72568284568E+02 -0.35388252855E+02  0.42272834131E+02  0.91134389068E+02  0.00000000000E+00 0. -1.
</event>
<event>
 8    1  0.7005395E-009  0.9571675E+02  0.7561462E-02  0.1289570E+00
         -1   -1    0    0    0  501 -0.00000000000E+00  0.00000000000E+00  0.23240360392E+03  0.23240360392E+03  0.00000000000E+00 0.  1.
          1   -1    0    0  501    0  0.00000000000E+00 -0.00000000000E+00 -0.51315748446E+02  0.51315748446E+02  0.00000000000E+00 0. -1.
         25    2    1    2    0    0  0.17018392802E+02  0.19040300989E+02  0.12475638500E+03  0.17850308449E+03  0.12508811621E+03 0.  0.
         23    2    1    2    0    0 -0.17018392802E+02 -0.19040300989E+02  0.56331470474E+02  0.10521626788E+03  0.85117975218E+02 0.  0.
          5    1    3    3  502    0  0.29064860057E+02 -0.49022147828E+02  0.43983912482E+02  0.72110984081E+02  0.41800000000E+01 0.  1.
         -5    1    3    3    0  502 -0.12046467255E+02  0.68062448817E+02  0.80772472516E+02  0.10639210041E+03  0.41800000000E+01 0.  1.
        -11    1    4    4    0    0 -0.35373279251E+01 -0.39981618991E+02  0.67015419525E+02  0.78115997082E+02  0.00000000000E+00 0.  1.
         11    1    4    4    0    0 -0.13481064877E+02  0.20941318002E+02 -0.10683949052E+02  0.27100270796E+02  0.00000000000E+00 0. -1.
</event>
<event>
 8    1  0.7005395E-009  0.1787825E+03  0.7561462E-02  0.1168987E+00
          2   -1    0    0  501    0  0.00000000000E+00  0.00000000000E+00  0.60230118460E+03  0.60230118460E+03  0.00000000000E+00 0. -1.
         -2   -1    0    0    0  501 -0.00000000000E+00 -0.00000000000E+00 -0.69514299472E+02  0.69514299472E+02  0.00000000000E+00 0.  1.
         25    2    1    2    0    0 -0.13504363953E+03 -0.92311403343E+02  0.18505913964E+03  0.27686234646E+03  0.12509074289E+03 0.  0.
         23    2    1    2    0    0  0.13504363953E+03  0.92311403343E+02  0.34772774549E+03  0.39495313761E+03  0.91187807102E+02 0.  0.
          5    1    3    3  502    0 -0.23312747006E+02  0.30529220399E+01 -0.15319933104E+02  0.28372121110E+02  0.41800000000E+01 0. -1.
         -5    1    3    3    0  502 -0.11173089252E+03 -0.95364325383E+02  0.20037907274E+03  0.24849022535E+03  0.41800000000E+01 0. -1.
        -11    1    4    4    0    0 -0.74821335727E-01  0.42839422893E+02  0.93046931505E+02  0.10243511710E+03  0.00000000000E+00 0. -1.
         11    1    4    4    0    0  0.13511846087E+03  0.49471980450E+02  0.25468081398E+03  0.29251802052E+03  0.00000000000E+00 0.  1.
</event>
<event>
 8    1  0.7005395E-009  0.1149401E+03  0.7561462E-02  0.1251686E+00
         -1   -1    0    0    0  501 -0.00000000000E+00  0.00000000000E+00  0.61954796337E+02  0.61954796337E+02  0.00000000000E+00 0. -1.
          1   -1    0    0  501    0  0.00000000000E+00 -0.00000000000E+00 -0.39874406596E+03  0.39874406596E+03  0.00000000000E+00 0.  1.
         25    2    1    2    0    0 -0.27692439291E+02 -0.41841225222E+02 -0.30732006661E+02  0.13823683897E+03  0.12508960025E+03 0.  0.
         23    2    1    2    0    0  0.27692439291E+02  0.41841225222E+02 -0.30605726296E+03  0.32246202333E+03  0.88278813747E+02 0.  0.
          5    1    3    3  502    0 -0.57881944263E+02  0.23443907015E+02 -0.11152604839E+02  0.63575067775E+02  0.41800000000E+01 0. -1.
         -5    1    3    3    0  502  0.30189504972E+02 -0.65285132237E+02 -0.19579401822E+02  0.74661771191E+02  0.41800000000E+01 0. -1.
        -11    1    4    4    0    0  0.56000124687E+02  0.19914345729E+02 -0.24079975238E+03  0.24802644190E+03  0.00000000000E+00 0.  1.
         11    1    4    4    0    0 -0.28307685396E+02  0.21926879493E+02 -0.65257510574E+02  0.74435581432E+02  0.00000000000E+00 0. -1.
</event>
<event>
 8    1  0.7005395E-009  0.1027090E+03  0.7561462E-02  0.1274700E+00
          1   -1    0    0  501    0  0.00000000000E+00  0.00000000000E+00  0.10313235154E+04  0.10313235154E+04  0.00000000000E+00 0. -1.
         -1   -1    0    0    0  501 -0.00000000000E+00 -0.00000000000E+00 -0.12686932578E+02  0.12686932578E+02  0.00000000000E+00 0.  1.
         25    2    1    2    0    0  0.12531031570E+02  0.21746480455E+02  0.47518526439E+03  0.49201848724E+03  0.12510483654E+03 0.  0.
         23    2    1    2    0    0 -0.12531031570E+02 -0.21746480455E+02  0.54345131845E+03  0.55199196076E+03  0.93412274633E+02 0.  0.
          5    1    3    3  502    0 -0.12171356977E+02  0.60882766407E+02  0.13472894657E+03  0.14840557476E+03  0.41800000000E+01 0.  1.
         -5    1    3    3    0  502  0.24702388548E+02 -0.39136285952E+02  0.34045631782E+03  0.34361291247E+03  0.41800000000E+01 0.  1.
        -11    1    4    4    0    0 -0.15883875329E+02  0.35753842153E+02  0.22229465507E+03  0.22571120574E+03  0.00000000000E+00 0.  1.
         11    1    4    4    0    0  0.33528437587E+01 -0.57500322608E+02  0.32115666339E+03  0.32628075502E+03  0.00000000000E+00 0. -1.
</event>
<event>
 8    1  0.7005395E-009  0.1444549E+03  0.7561462E-02  0.1207457E+00
         -2   -1    0    0    0  501 -0.00000000000E+00  0.00000000000E+00  0.59161431998E+02  0.59161431998E+02  0.00000000000E+00 0.  1.
          2   -1    0    0  501    0  0.00000000000E+00 -0.00000000000E+00 -0.43182387682E+03  0.43182387682E+03  0.00000000000E+00 0. -1.
         25    2    1    2    0    0  0.48312147449E+02  0.95471351477E+02 -0.27638661200E+03  0.32169327179E+03  0.12509260280E+03 0.  0.
         23    2    1    2    0    0 -0.48312147449E+02 -0.95471351477E+02 -0.96275832817E+02  0.16929203703E+03  0.89117424066E+02 0.  0.
          5    1    3    3  502    0  0.81996724246E+02  0.69515897961E+02 -0.12763098842E+03  0.16692233063E+03  0.41800000000E+01 0. -1.
         -5    1    3    3    0  502 -0.33684576797E+02  0.25955453516E+02 -0.14875562358E+03  0.15477094116E+03  0.41800000000E+01 0. -1.
        -11    1    4    4    0    0 -0.43746707452E+02 -0.73351808641E+00 -0.38156920986E+02  0.58053966968E+02  0.00000000000E+00 0.  1.
         11    1    4    4    0    0 -0.45654399976E+01 -0.94737833391E+02 -0.58118911832E+02  0.11123807006E+03  0.00000000000E+00 0. -1.
</event>
<event>
 8    1  0.7005395E-009  0.1303098E+03  0.7561462E-02  0.1226997E+00
          1   -1    0    0  501    0  0.00000000000E+00  0.00000000000E+00  0.10124059953E+03  0.10124059953E+03  0.00000000000E+00 0. -1.
         -1   -1    0    0    0  501 -0.00000000000E+00 -0.00000000000E+00 -0.24648090555E+03  0.24648090555E+03  0.00000000000E+00 0.  1.
         25    2    1    2    0    0 -0.52420039072E+02  0.98148785125E+02 -0.47435702882E+02  0.17400654304E+03  0.12508831518E+03 0.  0.
         23    2    1    2    0    0  0.52420039072E+02 -0.98148785125E+02 -0.97804603131E+02  0.17371496204E+03  0.90719915818E+02 0.  0.
          5    1    3    3  502    0 -0.26431726946E+02 -0.97683741342E+01 -0.55758516471E+02  0.62614230664E+02  0.41800000000E+01 0.  1.
         -5    1    3    3    0  502 -0.25988312126E+02  0.10791715926E+03  0.83228135896E+01  0.11139231237E+03  0.41800000000E+01 0.  1.
        -11    1    4    4    0    0  0.43011983567E+02 -0.10214360309E+03 -0.11111086876E+03  0.15693620213E+03  0.00000000000E+00 0.  1.
         11    1    4    4    0    0  0.94080555048E+01  0.39948179650E+01  0.13306265634E+02  0.16778759908E+02  0.00000000000E+00 0. -1.
</event>
<event>
 8    1  0.7005395E-009  0.1012603E+03  0.7561462E-02  0.1277668E+00
         -1   -1    0    0    0  501 -0.00000000000E+00  0.00000000000E+00  0.15598094455E+03  0.15598094455E+03  0.00000000000E+00 0.  1.
          1   -1    0    0  501    0  0.00000000000E+00 -0.00000000000E+00 -0.18551975067E+03  0.18551975067E+03  0.00000000000E+00 0. -1.
         25    2    1    2    0    0 -0.12752562162E+02  0.54389888604E+02  0.10299742925E+03  0.17139539995E+03  0.12508806844E+03 0.  0.
         23    2    1    2    0    0  0.12752562162E+02 -0.54389888604E+02 -0.13253623538E+03  0.17010529528E+03  0.90824390825E+02 0.  0.
          5    1    3    3  502    0  0.35005141248E+02  0.16054590120E+02  0.10296677486E+03  0.11001244886E+03  0.41800000000E+01 0.  1.
         -5    1    3    3    0  502 -0.47757703411E+02  0.38335298484E+02  0.30654392725E-01  0.61382951091E+02  0.41800000000E+01 0.  1.
        -11    1    4    4    0    0  0.20915789561E+02  0.19180203414E+02 -0.17592504660E+02  0.33389319792E+02  0.00000000000E+00 0.  1.
         11    1    4    4    0    0 -0.81632273988E+01 -0.73570092018E+02 -0.11494373072E+03  0.13671597548E+03  0.00000000000E+00 0. -1.
</event>
<event>
 8    1  0.7005395E-009  0.2052385E+03  0.7561462E-02  0.1145393E+00
         -2   -1    0    0    0  501 -0.00000000000E+00  0.00000000000E+00  0.71061865354E+03  0.71061865354E+03  0.00000000000E+00 0.  1.
          2   -1    0    0  501    0  0.00000000000E+00 -0.00000000000E+00 -0.70144311917E+02  0.70144311917E+02  0.00000000000E+00 0. -1.
         25    2    1    2    0    0 -0.13996139541E+03  0.10692016974E+03  0.47497353494E+03  0.52179386763E+03  0.12509143256E+03 0.  0.
         23    2    1    2    0    0  0.13996139541E+03 -0.10692016974E+03  0.16550080669E+03  0.25896909783E+03  0.93023447110E+02 0.  0.
          5    1    3    3  502    0 -0.96082357999E+02 -0.95933752907E+00  0.17012074187E+03  0.19542589149E+03  0.41800000000E+01 0.  1.
         -5    1    3    3    0  502 -0.43879037416E+02  0.10787950727E+03  0.30485279306E+03  0.32636797614E+03  0.41800000000E+01 0.  1.
        -11    1    4    4    0    0  0.15316328465E+03 -0.98676596739E+02  0.15994577370E+03  0.24244321610E+03  0.00000000000E+00 0.  1.
         11    1    4    4    0    0 -0.13201889240E+02 -0.82435730023E+01  0.55550329911E+01  0.16525881728E+02  0.00000000000E+00 0. -1.
</event>
<event>
 8    1  0.7005395E-009  0.1090357E+03  0.7561462E-02  0.1262366E+00
         -1   -1    0    0    0  501 -0.00000000000E+00  0.00000000000E+00  0.10513945323E+03  0.10513945323E+03  0.00000000000E+00 0.  1.
          1   -1    0    0  501    0  0.00000000000E+00 -0.00000000000E+00 -0.19376483175E+03  0.19376483175E+03  0.00000000000E+00 0. -1.
         25    2    1    2    0    0 -0.86787792910E+02 -0.27777283103E+02 -0.67624358528E+02  0.16889005919E+03  0.12508836786E+03 0.  0.
         23    2    1    2    0    0  0.86787792910E+02  0.27777283103E+02 -0.21001019987E+02  0.13001422579E+03  0.90326948426E+02 0.  0.
          5    1    3    3  502    0  0.30748818021E+01 -0.23764368135E+02 -0.74702562699E+02  0.78563002519E+02  0.41800000000E+01 0.  1.
         -5    1    3    3    0  502 -0.89862674712E+02 -0.40129149676E+01  0.70782041708E+01  0.90327056673E+02  0.41800000000E+01 0.  1.
        -11    1    4    4    0    0  0.24935721525E+02 -0.14436622679E+02 -0.43183236788E+02  0.51913372284E+02  0.00000000000E+00 0. -1.
         11    1    4    4    0    0  0.61852071385E+02  0.42213905781E+02  0.22182216801E+02  0.78100853504E+02  0.00000000000E+00 0.  1.
</event>
<event>
 8    1  0.7005395E-009  0.2369124E+03  0.7561462E-02  0.1121867E+00
         -1   -1    0    0    0  501 -0.00000000000E+00  0.00000000000E+00  0.15359212708E+03  0.15359212708E+03  0.00000000000E+00 0.  1.
          1   -1    0    0  501    0  0.00000000000E+00 -0.00000000000E+00 -0.47273324352E+03  0.47273324352E+03  0.00000000000E+00 0. -1.
         25    2    1    2    0    0 -0.43050707987E+01 -0.21740334189E+03 -0.29729741750E+03  0.38899327381E+03  0.12508903199E+03 0.  0.
         23    2    1    2    0    0  0.43050707987E+01  0.21740334189E+03 -0.21843698946E+02  0.23733209678E+03  0.92556092623E+02 0.  0.
          5    1    3    3  502    0  0.47961393006E+02 -0.17464209830E+03 -0.19326382368E+03  0.26489344209E+03  0.41800000000E+01 0. -1.
         -5    1    3    3    0  502 -0.52266463805E+02 -0.42761243589E+02 -0.10403359382E+03  0.12409983173E+03  0.41800000000E+01 0. -1.
        -11    1    4    4    0    0 -0.26827926682E+02  0.10513738401E+03  0.25689024123E+02  0.11150575378E+03  0.00000000000E+00 0.  1.
         11    1    4    4    0    0  0.31132997481E+02  0.11226595788E+03 -0.47532723069E+02  0.12582634300E+03  0.00000000000E+00 0. -1.
</event>
<event>
 8    1  0.7005395E-009  0.2219300E+03  0.7561462E-02  0.1132452E+00
          2   -1    0    0  501    0  0.00000000000E+00  0.00000000000E+00  0.18125851447E+03  0.18125851447E+03  0.00000000000E+00 0.  1.
         -2   -1    0    0    0  501 -0.00000000000E+00 -0.00000000000E+00 -0.34692645827E+03  0.34692645827E+03  0.00000000000E+00 0. -1.
         25    2    1    2    0    0  0.17335831052E+03  0.88973059384E+02  0.35169607871E+02  0.23421046245E+03  0.12509328631E+03 0.  0.
         23    2    1    2    0    0 -0.17335831052E+03 -0.88973059384E+02 -0.20083755167E+03  0.29397451029E+03  0.90088741910E+02 0.  0.
          5    1    3    3  502    0  0.11515492211E+03 -0.11018763453E+02  0.15860043294E+02  0.11683784750E+03  0.41800000000E+01 0.  1.
         -5    1    3    3    0  502  0.58203388405E+02  0.99991822837E+02  0.19309564577E+02  0.11737261495E+03  0.41800000000E+01 0.  1.
        -11    1    4    4    0    0 -0.12144765704E+03 -0.10223780606E+03 -0.16796458743E+03  0.23111513368E+03  0.00000000000E+00 0.  1.
         11    1    4    4    0    0 -0.51910653482E+02  0.13264746681E+02 -0.32872964246E+02  0.62859376610E+02  0.00000000000E+00 0. -1.
</event>
<event>
 8    1  0.7005395E-009  0.1308720E+03  0.7561462E-02  0.1226168E+00
         -2   -1    0    0    0  501 -0.00000000000E+00  0.00000000000E+00  0.33778350764E+02  0.33778350764E+02  0.00000000000E+00 0.  1.
          2   -1    0    0  501    0  0.00000000000E+00 -0.00000000000E+00 -0.53099347914E+03  0.53099347914E+03  0.00000000000E+00 0. -1.
         25    2    1    2    0    0  0.79073290608E+02 -0.11258583910E+02 -0.29209960263E+03  0.32764087254E+03  0.12508805899E+03 0.  0.
         23    2    1    2    0    0 -0.79073290608E+02  0.11258583910E+02 -0.20511552574E+03  0.23713095736E+03  0.88200742859E+02 0.  0.
          5    1    3    3  502    0  0.47312185658E+02  0.53338826222E+02 -0.10370507262E+03  0.12591937016E+03  0.41800000000E+01 0. -1.
         -5    1    3    3    0  502  0.31761104950E+02 -0.64597410131E+02 -0.18839453002E+03  0.20172150238E+03  0.41800000000E+01 0. -1.
        -11    1    4    4    0    0 -0.59264339567E+02 -0.34346070487E+02 -0.13194987439E+03  0.14866971397E+03  0.00000000000E+00 0. -1.
         11    1    4    4    0    0 -0.19808951040E+02  0.45604654397E+02 -0.73165651355E+02  0.88461243391E+02  0.00000000000E+00 0.  1.
</event>
<event>
 8    1  0.7005395E-009  0.1608612E+03  0.7561462E-02  0.1187728E+00
          2   -1    0    0  501    0  0.00000000000E+00  0.00000000000E+00  0.10411247403E+04  0.10411247403E+04  0.00000000000E+00 0.  1.
         -2   -1    0    0    0  501 -0.00000000000E+00 -0.00000000000E+00 -0.29543594552E+02  0.29543594552E+02  0.00000000000E+00 0. -1.
         25    2    1    2    0    0 -0.95017935157E+02  0.96332674567E+02  0.46020188196E+03  0.49572205488E+03  0.12508473662E+03 0.  0.
         23    2    1    2    0    0  0.95017935157E+02 -0.96332674567E+02  0.55137926380E+03  0.57494627999E+03  0.90750978710E+02 0.  0.
          5    1    3    3  502    0  0.23102189613E+02 -0.85437658822E+01  0.45033244339E+02  0.51499248500E+02  0.41800000000E+01 0.  1.
         -5    1    3    3    0  502 -0.11812012477E+03  0.10487644045E+03  0.41516863762E+03  0.44422280638E+03  0.41800000000E+01 0.  1.
        -11    1    4    4    0    0  0.81182757092E+02 -0.63410696327E+02  0.50994910322E+03  0.52024959811E+03  0.00000000000E+00 0.  1.
         11    1    4    4    0    0  0.13835178065E+02 -0.32921978240E+02  0.41430160581E+02  0.54696681883E+02  0.00000000000E+00 0. -1.
</event>
<event>
 8    1  0.7005395E-009  0.1768915E+03  0.7561462E-02  0.1170846E+00
         -2   -1    0    0    0  501 -0.00000000000E+00  0.00000000000E+00  0.96218703565E+02  0.96218703565E+02  0.00000000000E+00 0.  1.
          2   -1    0    0  501    0  0.00000000000E+00 -0.00000000000E+00 -0.38552705219E+03  0.38552705219E+03  0.00000000000E+00 0. -1.
         25    2    1    2    0    0  0.13806935091E+03 -0.56301486442E+02 -0.22028325326E+03  0.29394758823E+03  0.12508984740E+03 0.  0.
         23    2    1    2    0    0 -0.13806935091E+03  0.56301486442E+02 -0.69025095365E+02  0.18779816753E+03  0.90943305959E+02 0.  0.
          5    1    3    3  502    0 -0.16438560971E+02  0.16278042755E+02 -0.21101002947E+02  0.31589961825E+02  0.41800000000E+01 0.  1.
         -5    1    3    3    0  502  0.15450791188E+03 -0.72579529197E+02 -0.19918225031E+03  0.26235762641E+03  0.41800000000E+01 0.  1.
        -11    1    4    4    0    0 -0.80830521751E+02  0.23583565844E+01 -0.73145141982E+02  0.10903828175E+03  0.00000000000E+00 0. -1.
         11    1    4    4    0    0 -0.57238829161E+02  0.53943129857E+02  0.41200466166E+01  0.78759885771E+02  0.00000000000E+00 0.  1.
</event>
<event>
 8    1  0.7005395E-009  0.1619114E+03  0.7561462E-02  0.1186556E+00
         -2   -1    0    0    0  501 -0.00000000000E+00  0.00000000000E+00  0.18491128589E+02  0.18491128589E+02  0.00000000000E+00 0.  1.
          2   -1    0    0  501    0  0.00000000000E+00 -0.00000000000E+00 -0.18334092413E+04  0.18334092413E+04  0.00000000000E+00 0. -1.
         25    2    1    2    0    0  0.14542425491E+03 -0.29872782544E+02 -0.10112002213E+04  0.10296664660E+04  0.12508615696E+03 0.  0.
         23    2    1    2    0    0 -0.14542425491E+03  0.29872782544E+02 -0.80371789144E+03  0.82223390389E+03  0.89808388380E+02 0.  0.
          5    1    3    3  502    0  0.74018450790E+02  0.64186835232E+01 -0.80474447152E+03  0.80817762119E+03  0.41800000000E+01 0.  1.
         -5    1    3    3    0  502  0.71405804122E+02 -0.36291466067E+02 -0.20645574979E+03  0.22148884485E+03  0.41800000000E+01 0.  1.
        -11    1    4    4    0    0 -0.12947674859E+03  0.53994541501E+02 -0.72321504046E+03  0.73669507510E+03  0.00000000000E+00 0. -1.
         11    1    4    4    0    0 -0.15947506322E+02 -0.24121758957E+02 -0.80502850986E+02  0.85538828785E+02  0.00000000000E+00 0.  1.
</event>
<event>
 8    1  0.7005395E-009  0.1534585E+03  0.7561462E-02  0.1196286E+00
          2   -1    0    0  501    0  0.00000000000E+00  0.00000000000E+00  0.71647815325E+03  0.71647815325E+03  0.00000000000E+00 0.  1.
         -2   -1    0    0    0  501 -0.00000000000E+00 -0.00000000000E+00 -0.35667894867E+02  0.35667894867E+02  0.00000000000E+00 0. -1.
         25    2    1    2    0    0 -0.98909751888E+02 -0.62312376795E+02  0.38417568534E+03  0.42059978439E+03  0.12508896875E+03 0.  0.
         23    2    1    2    0    0  0.98909751888E+02  0.62312376795E+02  0.29663457304E+03  0.33154626372E+03  0.90911406021E+02 0.  0.
          5    1    3    3  502    0 -0.12137322497E+03 -0.41661555182E+02  0.23029419303E+03  0.26366651790E+03  0.41800000000E+01 0.  1.
         -5    1    3    3    0  502  0.22463473077E+02 -0.20650821613E+02  0.15388149231E+03  0.15693326649E+03  0.41800000000E+01 0.  1.
        -11    1    4    4    0    0  0.64766105659E+02  0.84903092254E+02  0.22451181183E+03  0.24861363030E+03  0.00000000000E+00 0.  1.
         11    1    4    4    0    0  0.34143646229E+02 -0.22590715459E+02  0.72122761207E+02  0.82932633426E+02  0.00000000000E+00 0. -1.
</event>
<event>
 8    1  0.7005395E-009  0.1330491E+03  0.7561462E-02  0.1223000E+00
         -2   -1    0    0    0  501 -0.00000000000E+00  0.00000000000E+00  0.26759888221E+02  0.26759888221E+02  0.00000000000E+00 0.  1.
          2   -1    0    0  501    0  0.00000000000E+00 -0.00000000000E+00 -0.67599489344E+03  0.67599489344E+03  0.00000000000E+00 0. -1.
         25    2    1    2    0    0 -0.72739392438E+02 -0.35053828560E+02 -0.32270567127E+03  0.35539646717E+03  0.12509160042E+03 0.  0.
         23    2    1    2    0    0  0.72739392438E+02  0.35053828560E+02 -0.32652933395E+03  0.34735831449E+03  0.86698342613E+02 0.  0.
          5    1    3    3  502    0 -0.18216546273E+02  0.46448627551E+02 -0.12545883831E+03  0.13508038374E+03  0.41800000000E+01 0.  1.
         -5    1    3    3    0  502 -0.54522846165E+02 -0.81502456111E+02 -0.19724683296E+03  0.22031608343E+03  0.41800000000E+01 0.  1.
        -11    1    4    4    0    0  0.57819661214E+02 -0.19738393715E+02 -0.18650358602E+03  0.19625571331E+03  0.00000000000E+00 0.  1.
         11    1    4    4    0    0  0.14919731223E+02  0.54792222275E+02 -0.14002574793E+03  0.15110260118E+03  0.00000000000E+00 0. -1.
</event>
<event>
 8    1  0.7005395E-009  0.1584897E+03  0.7561462E-02  0.1190412E+00
          1   -1    0    0  501    0  0.00000000000E+00  0.00000000000E+00  0.48195512870E+02  0.48195512870E+02  0.00000000000E+00 0. -1.
         -1   -1    0    0    0  501 -0.00000000000E+00 -0.00000000000E+00 -0.63587761510E+03  0.63587761510E+03  0.00000000000E+00 0.  1.
         25    2    1    2    0    0 -0.22613679783E+02 -0.12303556751E+03 -0.41777164058E+03  0.45368548176E+03  0.12509293868E+03 0.  0.
         23    2    1    2    0    0  0.22613679783E+02  0.12303556751E+03 -0.16991046165E+03  0.23038764620E+03  0.92519042147E+02 0.  0.
          5    1    3    3  502    0 -0.45789776407E+02 -0.11487693207E+02 -0.51080707781E+02  0.69680569932E+02  0.41800000000E+01 0. -1.
         -5    1    3    3    0  502  0.23176096624E+02 -0.11154787430E+03 -0.36669093280E+03  0.38400491183E+03  0.41800000000E+01 0. -1.
        -11    1    4    4    0    0 -0.25078409091E+02  0.16176272969E+01 -0.26362180509E+02  0.36421255907E+02  0.00000000000E+00 0.  1.
         11    1    4    4    0    0  0.47692088874E+02  0.12141794021E+03 -0.14354828114E+03  0.19396639030E+03  0.00000000000E+00 0. -1.
</event>
<event>
 8    1  0.7005395E-009  0.1375815E+03  0.7561462E-02  0.1216621E+00
          1   -1    0    0  501    0  0.00000000000E+00  0.00000000000E+00  0.11565414628E+04  0.11565414628E+04  0.00000000000E+00 0. -1.
         -1   -1    0    0    0  501 -0.00000000000E+00 -0.00000000000E+00 -0.16480787504E+02  0.16480787504E+02  0.00000000000E+00 0.  1.
         25    2    1    2    0    0 -0.54524559563E+02  0.64228857280E+02  0.66054336270E+03  0.67754259261E+03  0.12509259409E+03 0.  0.
         23    2    1    2    0    0  0.54524559563E+02 -0.64228857280E+02  0.47951731261E+03  0.49547965771E+03  0.92005241170E+02 0.  0.
          5    1    3    3  502    0 -0.67447345910E+02 -0.15693474019E+02  0.32856191816E+03  0.33580624780E+03  0.41800000000E+01 0.  1.
         -5    1    3    3    0  502  0.12922786347E+02  0.79922331299E+02  0.33198144454E+03  0.34173634481E+03  0.41800000000E+01 0.  1.
        -11    1    4    4    0    0 -0.13450980597E+01 -0.68661273367E+02  0.26969740227E+03  0.27830355467E+03  0.00000000000E+00 0. -1.
         11    1    4    4    0    0  0.55869657622E+02  0.44324160872E+01  0.20981991034E+03  0.21717610304E+03  0.00000000000E+00 0.  1.
</event>
<event>
 8    1  0.7005395E-009  0.9444979E+02  0.7561462E-02  0.1292420E+00
          2   -1    0    0  501    0  0.00000000000E+00  0.00000000000E+00  0.98229739096E+01  0.98229739096E+01  0.00000000000E+00 0. -1.
         -2   -1    0    0    0  501 -0.00000000000E+00 -0.00000000000E+00 -0.19148479008E+04  0.19148479008E+04  0.00000000000E+00 0.  1.
         25    2    1    2    0    0 -0.45307848221E+02  0.34981524279E+02 -0.15420855814E+04  0.15482091349E+04  0.12508827727E+03 0.  0.
         23    2    1    2    0    0  0.45307848221E+02 -0.34981524279E+02 -0.36293934556E+03  0.37646173981E+03  0.81987589480E+02 0.  0.
          5    1    3    3  502    0 -0.51681506125E+01 -0.19981530524E+02 -0.46229619198E+02  0.50799817263E+02  0.41800000000E+01 0.  1.
         -5    1    3    3    0  502 -0.40139697609E+02  0.54963054803E+02 -0.14958559622E+04  0.14974093177E+04  0.41800000000E+01 0.  1.
        -11    1    4    4    0    0 -0.19745563005E+01 -0.50003234710E+02 -0.19773307924E+03  0.20396713701E+03  0.00000000000E+00 0. -1.
         11    1    4    4    0    0  0.47282404522E+02  0.15021710431E+02 -0.16520626632E+03  0.17249460280E+03  0.00000000000E+00 0.  1.
</event>
<event>
 8    1  0.7005395E-009  0.1217445E+03  0.7561462E-02  0.1240247E+00
          1   -1    0    0  501    0  0.00000000000E+00  0.00000000000E+00  0.64271887254E+02  0.64271887254E+02  0.00000000000E+00 0. -1.
         -1   -1    0    0    0  501 -0.00000000000E+00 -0.00000000000E+00 -0.28307979539E+03  0.28307979539E+03  0.00000000000E+00 0.  1.
         25    2    1    2    0    0  0.59397912693E+02 -0.11494356020E+02 -0.51844586166E+02  0.14831494961E+03  0.12509688609E+03 0.  0.
         23    2    1    2    0    0 -0.59397912693E+02  0.11494356020E+02 -0.16696332197E+03  0.19903673303E+03  0.89881243656E+02 0.  0.
          5    1    3    3  502    0 -0.27117821017E+02  0.30820571717E+02 -0.64653120035E+01  0.41767888587E+02  0.41800000000E+01 0.  1.
         -5    1    3    3    0  502  0.86515733710E+02 -0.42314927738E+02 -0.45379274162E+02  0.10654706102E+03  0.41800000000E+01 0.  1.
        -11    1    4    4    0    0 -0.11845928875E+01 -0.32708920961E+02 -0.72914793080E+02  0.79923987767E+02  0.00000000000E+00 0.  1.
         11    1    4    4    0    0 -0.58213319805E+02  0.44203276982E+02 -0.94048528886E+02  0.11911274526E+03  0.00000000000E+00 0. -1.
</event>
<event>
 8    1  0.7005395E-009  0.1710280E+03  0.7561462E-02  0.1176780E+00
          3   -1    0    0  501    0  0.00000000000E+00  0.00000000000E+00  0.38731222073E+02  0.38731222073E+02  0.00000000000E+00 0. -1.
         -3   -1    0    0    0  501 -0.00000000000E+00 -0.00000000000E+00 -0.78283360874E+03  0.78283360874E+03  0.00000000000E+00 0.  1.
         25    2    1    2    0    0  0.10683556530E+03 -0.81187047694E+02 -0.45345920619E+03  0.48916022576E+03  0.12508916845E+03 0.  0.
         23    2    1    2    0    0 -0.10683556530E+03  0.81187047694E+02 -0.29064318048E+03  0.33240460505E+03  0.89521999393E+02 0.  0.
          5    1    3    3  502    0  0.47193119082E+02 -0.10798052198E+03 -0.28890580250E+03  0.31204329625E+03  0.41800000000E+01 0. -1.
         -5    1    3    3    0  502  0.59642446217E+02  0.26793474283E+02 -0.16455340369E+03  0.17711692951E+03  0.41800000000E+01 0. -1.
        -11    1    4    4    0    0 -0.94033670099E+02  0.99093952246E+02 -0.26809376606E+03  0.30089235597E+03  0.00000000000E+00 0. -1.
         11    1    4    4    0    0 -0.12801895201E+02 -0.17906904552E+02 -0.22549414423E+02  0.31512249082E+02  0.00000000000E+00 0.  1.
</event>
<event>
 8    1  0.7005395E-009  0.1117873E+03  0.7561462E-02  0.1257295E+00
          4   -1    0    0  501    0  0.00000000000E+00  0.00000000000E+00  0.23075770939E+03  0.23075770939E+03  0.00000000000E+00 0. -1.
         -4   -1    0    0    0  501 -0.00000000000E+00 -0.00000000000E+00 -0.10390714726E+03  0.10390714726E+03  0.00000000000E+00 0.  1.
         25    2    1    2    0    0  0.77770468417E+02  0.66220977147E+02  0.11520346614E+03  0.19837581114E+03  0.12509060822E+03 0.  0.
         23    2    1    2    0    0 -0.77770468417E+02 -0.66220977147E+02  0.11647096000E+02  0.13628904551E+03  0.89473937595E+02 0.  0.
          5    1    3    3  502    0  0.25594432089E+02  0.24422989282E+02  0.12563175922E+03  0.13058471842E+03  0.41800000000E+01 0.  1.
         -5    1    3    3    0  502  0.52176036328E+02  0.41797987865E+02 -0.10428293080E+02  0.67791092726E+02  0.41800000000E+01 0.  1.
        -11    1    4    4    0    0  0.10483787586E+02 -0.16840313163E+02 -0.22081066751E+02  0.29682982640E+02  0.00000000000E+00 0.  1.
         11    1    4    4    0    0 -0.88254256002E+02 -0.49380663984E+02  0.33728162751E+02  0.10660606287E+03  0.00000000000E+00 0. -1.
</event>
<event>
 8    1  0.7005395E-009  0.9535443E+02  0.7561462E-02  0.1290380E+00
         -1   -1    0    0    0  501 -0.00000000000E+00  0.00000000000E+00  0.15398927146E+03  0.15398927146E+03  0.00000000000E+00 0.  1.
          1   -1    0    0  501    0  0.00000000000E+00 -0.00000000000E+00 -0.10182227996E+03  0.10182227996E+03  0.00000000000E+00 0. -1.
         25    2    1    2    0    0  0.29759387588E+02  0.39225502305E+02  0.55388736439E+02  0.14540179430E+03  0.12509799551E+03 0.  0.
         23    2    1    2    0    0 -0.29759387588E+02 -0.39225502305E+02 -0.32217449392E+01  0.11040975713E+03  0.98770813746E+02 0.  0.
          5    1    3    3  502    0  0.25674236720E+02 -0.37822003044E+02 -0.65545529141E+01  0.46369223730E+02  0.41800000000E+01 0.  1.
         -5    1    3    3    0  502  0.40851508679E+01  0.77047505349E+02  0.61943289353E+02  0.99032570572E+02  0.41800000000E+01 0.  1.
        -11    1    4    4    0    0 -0.25457860292E+02 -0.49904891952E+02  0.37944554238E+02  0.67663801901E+02  0.00000000000E+00 0.  1.
         11    1    4    4    0    0 -0.43015272957E+01  0.10679389647E+02 -0.41166299178E+02  0.42745955227E+02  0.00000000000E+00 0. -1.
</event>
<event>
 8    1  0.7005395E-009  0.8251276E+02  0.7561462E-02  0.1322068E+00
         -3   -1    0    0    0  501 -0.00000000000E+00  0.00000000000E+00  0.40998757201E+02  0.40998757201E+02  0.00000000000E+00 0.  1.
          3   -1    0    0  501    0  0.00000000000E+00 -0.00000000000E+00 -0.35731663184E+03  0.35731663184E+03  0.00000000000E+00 0. -1.
         25    2    1    2    0    0  0.47483295644E+02  0.11125425933E+02 -0.21421661117E+03  0.25281294085E+03  0.12508872088E+03 0.  0.
         23    2    1    2    0    0 -0.47483295644E+02 -0.11125425933E+02 -0.10210126346E+03  0.14550244819E+03  0.91475985700E+02 0.  0.
          5    1    3    3  502    0  0.13071929166E+02 -0.26593799424E+02  0.25882613503E+01  0.30037925973E+02  0.41800000000E+01 0.  1.
         -5    1    3    3    0  502  0.34411366478E+02  0.37719225358E+02 -0.21680487252E+03  0.22277501488E+03  0.41800000000E+01 0.  1.
        -11    1    4    4    0    0 -0.49989721533E+02  0.19120214407E+02 -0.10195887535E+03  0.11515279902E+03  0.00000000000E+00 0. -1.
         11    1    4    4    0    0  0.25064258887E+01 -0.30245640341E+02 -0.14238811018E+00  0.30349649170E+02  0.00000000000E+00 0.  1.
</event>
<event>
 8    1  0.7005395E-009  0.1271108E+03  0.7561462E-02  0.1231807E+00
          2   -1    0    0  501    0  0.00000000000E+00  0.00000000000E+00  0.56886054859E+02  0.56886054859E+02  0.00000000000E+00 0. -1.
         -2   -1    0    0    0  501 -0.00000000000E+00 -0.00000000000E+00 -0.35511697926E+03  0.35511697926E+03  0.00000000000E+00 0.  1.
         25    2    1    2    0    0 -0.78151274075E+02  0.15087551802E+02 -0.22821165826E+03  0.27214610925E+03  0.12509071892E+03 0.  0.
         23    2    1    2    0    0  0.78151274075E+02 -0.15087551802E+02 -0.70019266146E+02  0.13985692487E+03  0.91225029144E+02 0.  0.
          5    1    3    3  502    0 -0.15006467749E+02  0.63560362187E+02 -0.13095080019E+03  0.14639227502E+03  0.41800000000E+01 0.  1.
         -5    1    3    3    0  502 -0.63144806325E+02 -0.48472810385E+02 -0.97260858067E+02  0.12575383423E+03  0.41800000000E+01 0.  1.
        -11    1    4    4    0    0  0.79840603649E+02  0.13030621890E+02 -0.76070724748E+02  0.11104537028E+03  0.00000000000E+00 0.  1.
         11    1    4    4    0    0 -0.16893295746E+01 -0.28118173692E+02  0.60514586021E+01  0.28811554581E+02  0.00000000000E+00 0. -1.
</event>
<event>
 8    1  0.7005395E-009  0.1354201E+03  0.7561462E-02  0.1219628E+00
          2   -1    0    0  501    0  0.00000000000E+00  0.00000000000E+00  0.50365020069E+03  0.50365020069E+03  0.00000000000E+00 0. -1.
         -2   -1    0    0    0  501 -0.00000000000E+00 -0.00000000000E+00 -0.48949817011E+02  0.48949817011E+02  0.00000000000E+00 0.  1.
         25    2    1    2    0    0 -0.78305327054E+02 -0.52127884281E+02  0.13067236355E+03  0.20389061428E+03  0.12508827055E+03 0.  0.
         23    2    1    2    0    0  0.78305327054E+02  0.52127884281E+02  0.32402802013E+03  0.34870940342E+03  0.88062759686E+02 0.  0.
          5    1    3    3  502    0 -0.63179810695E+02  0.22026299709E+02  0.10361126850E+03  0.12340832111E+03  0.41800000000E+01 0. -1.
         -5    1    3    3    0  502 -0.15125516359E+02 -0.74154183989E+02  0.27061095048E+02  0.80482293167E+02  0.41800000000E+01 0. -1.
        -11    1    4    4    0    0  0.14666276926E+02  0.61904709073E+02  0.14102917667E+03  0.15471432175E+03  0.00000000000E+00 0. -1.
         11    1    4    4    0    0  0.63639050129E+02 -0.97768247919E+01  0.18299884346E+03  0.19399508167E+03  0.00000000000E+00 0.  1.
</event>
<event>
 8    1  0.7005395E-009  0.1824047E+03  0.7561462E-02  0.1165496E+00
          2   -1    0    0  501    0  0.00000000000E+00  0.00000000000E+00  0.39983777729E+03  0.39983777729E+03  0.00000000000E+00 0. -1.
         -2   -1    0    0    0  501 -0.00000000000E+00 -0.00000000000E+00 -0.92736032310E+02  0.92736032310E+02  0.00000000000E+00 0.  1.
         25    2    1    2    0    0 -0.14079082983E+02  0.15780298208E+03  0.19406809779E+03  0.28001894629E+03  0.12509269350E+03 0.  0.
         23    2    1    2    0    0  0.14079082983E+02 -0.15780298208E+03  0.11303364719E+03  0.21255486331E+03  0.85457374106E+02 0.  0.
          5    1    3    3  502    0  0.25142218800E+02  0.27644427181E+00 -0.18433812354E+01  0.25555391642E+02  0.41800000000E+01 0. -1.
         -5    1    3    3    0  502 -0.39221301782E+02  0.15752653781E+03  0.19591147903E+03  0.25446355465E+03  0.41800000000E+01 0. -1.
        -11    1    4    4    0    0 -0.32577831315E+02 -0.53003692470E+02  0.21598607879E+02  0.65857470123E+02  0.00000000000E+00 0.  1.
         11    1    4    4    0    0  0.46656914298E+02 -0.10479928961E+03  0.91435039306E+02  0.14669739319E+03  0.00000000000E+00 0. -1.
</event>
<event>
 8    1  0.7005395E-009  0.1100130E+03  0.7561462E-02  0.1260546E+00
          2   -1    0    0  501    0  0.00000000000E+00  0.00000000000E+00  0.70781769519E+02  0.70781769519E+02  0.00000000000E+00 0. -1.
         -2   -1    0    0    0  501 -0.00000000000E+00 -0.00000000000E+00 -0.19697032824E+03  0.19697032824E+03  0.00000000000E+00 0.  1.
         25    2    1    2    0    0  0.27754902773E+02  0.23433248150E+02 -0.71577166935E+02  0.14862969016E+03  0.12509213494E+03 0.  0.
         23    2    1    2    0    0 -0.27754902773E+02 -0.23433248150E+02 -0.54611391788E+02  0.11912240760E+03  0.99439892064E+02 0.  0.
          5    1    3    3  502    0  0.55294641330E+01  0.68353042296E+02 -0.70336429433E+02  0.98322932575E+02  0.41800000000E+01 0.  1.
         -5    1    3    3    0  502  0.22225438640E+02 -0.44919794146E+02 -0.12407375021E+01  0.50306757582E+02  0.41800000000E+01 0.  1.
        -11    1    4    4    0    0  0.34814426311E+02 -0.14952044973E+02 -0.38371935702E+02  0.53925999089E+02  0.00000000000E+00 0.  1.
         11    1    4    4    0    0 -0.62569329084E+02 -0.84812031767E+01 -0.16239456086E+02  0.65196408515E+02  0.00000000000E+00 0. -1.
</event>
<event>
 8    1  0.7005395E-009  0.1058496E+03  0.7561462E-02  0.1268455E+00
         -1   -1    0    0    0  501 -0.00000000000E+00  0.00000000000E+00  0.40982876584E+03  0.40982876584E+03  0.00000000000E+00 0.  1.
          1   -1    0    0  501    0  0.00000000000E+00 -0.00000000000E+00 -0.32930568260E+02  0.32930568260E+02  0.00000000000E+00 0. -1.
         25    2    1    2    0    0  0.10306373742E+02  0.34842206113E+02  0.17608084867E+03  0.21902358887E+03  0.12508663617E+03 0.  0.
         23    2    1    2    0    0 -0.10306373742E+02 -0.34842206113E+02  0.20081734890E+03  0.22373574522E+03  0.91705372810E+02 0.  0.
          5    1    3    3  502    0  0.27670488760E+02  0.78188951870E+02  0.11989324262E+03  0.14584591242E+03  0.41800000000E+01 0. -1.
         -5    1    3    3    0  502 -0.17364115017E+02 -0.43346745757E+02  0.56187606050E+02  0.73177676457E+02  0.41800000000E+01 0. -1.
        -11    1    4    4    0    0 -0.28889072130E+02 -0.50029724203E+02  0.18769132208E+03  0.19638122155E+03  0.00000000000E+00 0.  1.
         11    1    4    4    0    0  0.18582698388E+02  0.15187518090E+02  0.13126026820E+02  0.27354523670E+02  0.00000000000E+00 0. -1.
</event>
<event>
 8    1  0.7005395E-009  0.2376590E+03  0.7561462E-02  0.1121362E+00
          1   -1    0    0  501    0  0.00000000000E+00  0.00000000000E+00  0.23787895262E+04  0.23787895262E+04  0.00000000000E+00 0. -1.
         -1   -1    0    0    0  501 -0.00000000000E+00 -0.00000000000E+00 -0.27287235809E+02  0.27287235809E+02  0.00000000000E+00 0.  1.
         25    2    1    2    0    0 -0.22276481883E+03  0.49906058192E+02  0.13390796504E+04  0.13641466330E+04  0.12508775758E+03 0.  0.
         23    2    1    2    0    0  0.22276481883E+03 -0.49906058192E+02  0.10124226400E+04  0.10419301290E+04  0.92217203324E+02 0.  0.
          5    1    3    3  502    0 -0.21270059509E+02  0.11312893567E+02  0.49050255029E+03  0.49111161790E+03  0.41800000000E+01 0. -1.
         -5    1    3    3    0  502 -0.20149475932E+03  0.38593164625E+02  0.84857710010E+03  0.87303501511E+03  0.41800000000E+01 0. -1.
        -11    1    4    4    0    0  0.12529765746E+03  0.18408248189E+02  0.48730097730E+03  0.50348843983E+03  0.00000000000E+00 0.  1.
         11    1    4    4    0    0  0.97467161369E+02 -0.68314306381E+02  0.52512166274E+03  0.53844168921E+03  0.00000000000E+00 0. -1.
</event>
<event>
 8    1  0.7005395E-009  0.8564400E+02  0.7561462E-02  0.1313757E+00
          2   -1    0    0  501    0  0.00000000000E+00  0.00000000000E+00  0.14787904372E+03  0.14787904372E+03  0.00000000000E+00 0. -1.
         -2   -1    0    0    0  501 -0.00000000000E+00 -0.00000000000E+00 -0.11085158853E+03  0.11085158853E+03  0.00000000000E+00 0.  1.
         25    2    1    2    0    0  0.61630749903E+02 -0.59104981890E+01 -0.77433941274E+01  0.13978983492E+03  0.12509178419E+03 0.  0.
         23    2    1    2    0    0 -0.61630749903E+02  0.59104981890E+01  0.44770849314E+02  0.11894079733E+03  0.91154818846E+02 0.  0.
          5    1    3    3  502    0  0.69047931925E+02  0.27056453116E+02  0.37467160862E+02  0.83192121631E+02  0.41800000000E+01 0.  1.
         -5    1    3    3    0  502 -0.74171820226E+01 -0.32966951305E+02 -0.45210554989E+02  0.56597713292E+02  0.41800000000E+01 0.  1.
        -11    1    4    4    0    0 -0.17247730377E+02 -0.34826665242E+01 -0.28069216842E+02  0.33128448551E+02  0.00000000000E+00 0.  1.
         11    1    4    4    0    0 -0.44383019526E+02  0.93931647132E+01  0.72840066155E+02  0.85812348780E+02  0.00000000000E+00 0. -1.
</event>
<event>
 8    1  0.7005395E-009  0.2776194E+03  0.7561462E-02  0.1096996E+00
         -2   -1    0    0    0  501 -0.00000000000E+00  0.00000000000E+00  0.14557813107E+03  0.14557813107E+03  0.00000000000E+00 0.  1.
          2   -1    0    0  501    0  0.00000000000E+00 -0.00000000000E+00 -0.58590103171E+03  0.58590103171E+03  0.00000000000E+00 0. -1.
         25    2    1    2    0    0  0.26639359792E+03 -0.26958260302E+02 -0.17179489548E+03  0.34183708030E+03  0.12508719578E+03 0.  0.
         23    2    1    2    0    0 -0.26639359792E+03  0.26958260302E+02 -0.26852800517E+03  0.38964208248E+03  0.89562079414E+02 0.  0.
          5    1    3    3  502    0  0.13809541173E+03  0.21552817867E+02 -0.14608862227E+03  0.20222320504E+03  0.41800000000E+01 0. -1.
         -5    1    3    3    0  502  0.12829818619E+03 -0.48511078169E+02 -0.25706273204E+02  0.13961387527E+03  0.41800000000E+01 0. -1.
        -11    1    4    4    0    0 -0.12590901061E+03 -0.25055702798E+02 -0.91024919591E+02  0.15737345133E+03  0.00000000000E+00 0.  1.
         11    1    4    4    0    0 -0.14048458731E+03  0.52013963100E+02 -0.17750308558E+03  0.23226863115E+03  0.00000000000E+00 0. -1.
</event>
<event>
 8    1  0.7005395E-009  0.1702968E+03  0.7561462E-02  0.1177539E+00
         -2   -1    0    0    0  501 -0.00000000000E+00  0.00000000000E+00  0.13505232794E+03  0.13505232794E+03  0.00000000000E+00 0.  1.
          2   -1    0    0  501    0  0.00000000000E+00 -0.00000000000E+00 -0.28459936367E+03  0.28459936367E+03  0.00000000000E+00 0. -1.
         25    2    1    2    0    0  0.68901310429E+02  0.14948549980E+03 -0.79491158145E+02  0.22149441678E+03  0.12509047610E+03 0.  0.
         23    2    1    2    0    0 -0.68901310429E+02 -0.14948549980E+03 -0.70055877582E+02  0.19815727484E+03  0.85235992165E+02 0.  0.
          5    1    3    3  502    0  0.56777301234E+02  0.10529325028E+03 -0.11296866999E+03  0.16458956008E+03  0.41800000000E+01 0. -1.
         -5    1    3    3    0  502  0.12124009196E+02  0.44192249515E+02  0.33477511841E+02  0.56904856693E+02  0.41800000000E+01 0. -1.
        -11    1    4    4    0    0  0.10715795045E+02 -0.23761473000E+02  0.11467235859E+02  0.28476891699E+02  0.00000000000E+00 0. -1.
         11    1    4    4    0    0 -0.79617105475E+02 -0.12572402680E+03 -0.81523113441E+02  0.16968038314E+03  0.00000000000E+00 0.  1.
</event>
<event>
 8    1  0.7005395E-009  0.1613413E+03  0.7561462E-02  0.1187191E+00
          1   -1    0    0  501    0  0.00000000000E+00  0.00000000000E+00  0.64698141517E+03  0.64698141517E+03  0.00000000000E+00 0. -1.
         -1   -1    0    0    0  501 -0.00000000000E+00 -0.00000000000E+00 -0.50646578528E+02  0.50646578528E+02  0.00000000000E+00 0.  1.
         25    2    1    2    0    0 -0.46518912356E+02  0.13178576880E+03  0.37595650868E+03  0.42015097311E+03  0.12510813612E+03 0.  0.
         23    2    1    2    0    0  0.46518912356E+02 -0.13178576880E+03  0.22037832796E+03  0.27747702059E+03  0.94315382897E+02 0.  0.
          5    1    3    3  502    0  0.15140039419E+02  0.52340310443E+02  0.26402184573E+03  0.26961775964E+03  0.41800000000E+01 0. -1.
         -5    1    3    3    0  502 -0.61658951776E+02  0.79445458361E+02  0.11193466295E+03  0.15053321347E+03  0.41800000000E+01 0. -1.
        -11    1    4    4    0    0  0.57548046252E+02 -0.29804199022E+02  0.10191159659E+03  0.12077268493E+03  0.00000000000E+00 0.  1.
         11    1    4    4    0    0 -0.11029133895E+02 -0.10198156978E+03  0.11846673138E+03  0.15670433565E+03  0.00000000000E+00 0. -1.
</event>
<event>
 8    1  0.7005395E-009  0.9503009E+02  0.7561462E-02  0.1291108E+00
          2   -1    0    0  501    0  0.00000000000E+00  0.00000000000E+00  0.49387233524E+03  0.49387233524E+03  0.00000000000E+00 0. -1.
         -2   -1    0    0    0  501 -0.00000000000E+00 -0.00000000000E+00 -0.35232200736E+02  0.35232200736E+02  0.00000000000E+00 0.  1.
         25    2    1    2    0    0  0.20591200682E+02 -0.64545984156E+02  0.18991960068E+03  0.23729169983E+03  0.12509082489E+03 0.  0.
         23    2    1    2    0    0 -0.20591200682E+02  0.64545984156E+02  0.26872053382E+03  0.29181283614E+03  0.91399258327E+02 0.  0.
          5    1    3    3  502    0 -0.17861325734E+02 -0.78799811884E+02  0.17613116082E+03  0.19382490945E+03  0.41800000000E+01 0.  1.
         -5    1    3    3    0  502  0.38452526417E+02  0.14253827728E+02  0.13788439858E+02  0.43466790386E+02  0.41800000000E+01 0.  1.
        -11    1    4    4    0    0 -0.56239738214E+01  0.11303671283E+02 -0.42302337722E+01  0.13315289850E+02  0.00000000000E+00 0.  1.
         11    1    4    4    0    0 -0.14967226861E+02  0.53242312873E+02  0.27295076759E+03  0.27849754629E+03  0.00000000000E+00 0. -1.
</event>
<event>
 8    1  0.7005395E-009  0.2837033E+03  0.7561462E-02  0.1093683E+00
         -1   -1    0    0    0  501 -0.00000000000E+00  0.00000000000E+00  0.11196772688E+03  0.11196772688E+03  0.00000000000E+00 0.  1.
          1   -1    0    0  501    0  0.00000000000E+00 -0.00000000000E+00 -0.94384163183E+03  0.94384163183E+03  0.00000000000E+00 0. -1.
         25    2    1    2    0    0  0.23457401774E+02 -0.26845823123E+03 -0.18734217653E+03  0.35123302826E+03  0.12508987739E+03 0.  0.
         23    2    1    2    0    0 -0.23457401774E+02  0.26845823123E+03 -0.64453172842E+03  0.70457633045E+03  0.91578299171E+02 0.  0.
          5    1    3    3  502    0 -0.29840857920E+02 -0.19089785674E+03 -0.82064483823E+02  0.20996314061E+03  0.41800000000E+01 0.  1.
         -5    1    3    3    0  502  0.53298259693E+02 -0.77560374491E+02 -0.10527769270E+03  0.14126988766E+03  0.41800000000E+01 0.  1.
        -11    1    4    4    0    0  0.27954231348E+02  0.93955084945E+02 -0.28958050850E+03  0.30572188005E+03  0.00000000000E+00 0. -1.
         11    1    4    4    0    0 -0.51411633121E+02  0.17450314628E+03 -0.35495121992E+03  0.39885445040E+03  0.00000000000E+00 0.  1.
</event>
<event>
 8    1  0.7005395E-009  0.1239285E+03  0.7561462E-02  0.1236753E+00
         -2   -1    0    0    0  501 -0.00000000000E+00  0.00000000000E+00  0.85166672042E+02  0.85166672042E+02  0.00000000000E+00 0.  1.
          2   -1    0    0  501    0  0.00000000000E+00 -0.00000000000E+00 -0.28469358734E+03  0.28469358734E+03  0.00000000000E+00 0. -1.
         25    2    1    2    0    0  0.79804985657E+02 -0.77062290613E+02 -0.94485351680E+02  0.19204924906E+03  0.12509196622E+03 0.  0.
         23    2    1    2    0    0 -0.79804985657E+02  0.77062290613E+02 -0.10504156362E+03  0.17781101032E+03  0.90970285992E+02 0.  0.
          5    1    3    3  502    0  0.54609768167E+01 -0.16416808238E+02  0.29965964757E+02  0.34853483389E+02  0.41800000000E+01 0. -1.
         -5    1    3    3    0  502  0.74344008840E+02 -0.60645482376E+02 -0.12445131644E+03  0.15719576567E+03  0.41800000000E+01 0. -1.
        -11    1    4    4    0    0 -0.30363098157E+02  0.78908160207E+02 -0.33755372516E+02  0.91037578234E+02  0.00000000000E+00 0.  1.
         11    1    4    4    0    0 -0.49441887500E+02 -0.18458695939E+01 -0.71286191105E+02  0.86773432089E+02  0.00000000000E+00 0. -1.
</event>
<event>
 8    1  0.7005395E-009  0.1256889E+03  0.7561462E-02  0.1233997E+00
         -4   -1    0    0    0  501 -0.00000000000E+00  0.00000000000E+00  0.90513161552E+03  0.90513161552E+03  0.00000000000E+00 0.  1.
          4   -1    0    0  501    0  0.00000000000E+00 -0.00000000000E+00 -0.27422994571E+02  0.27422994571E+02  0.00000000000E+00 0. -1.
         25    2    1    2    0    0  0.10309560133E+03  0.15189343086E+02  0.59863955672E+03  0.62038362568E+03  0.12508838870E+03 0.  0.
         23    2    1    2    0    0 -0.10309560133E+03 -0.15189343086E+02  0.27906906423E+03  0.31217098441E+03  0.93336818785E+02 0.  0.
          5    1    3    3  502    0  0.80024658140E+02 -0.11065024892E+02  0.15049175928E+03  0.17085556092E+03  0.41800000000E+01 0.  1.
         -5    1    3    3    0  502  0.23070943189E+02  0.26254367978E+02  0.44814779743E+03  0.44952806475E+03  0.41800000000E+01 0.  1.
        -11    1    4    4    0    0 -0.11043904863E+03  0.82250664040E+01  0.25399000004E+03  0.27708366119E+03  0.00000000000E+00 0.  1.
         11    1    4    4    0    0  0.73434473018E+01 -0.23414409490E+02  0.25079064198E+02  0.35087323225E+02  0.00000000000E+00 0. -1.
</event>
<event>
 8    1  0.7005395E-009  0.1386198E+03  0.7561462E-02  0.1215198E+00
          2   -1    0    0  501    0  0.00000000000E+00  0.00000000000E+00  0.11003045340E+03  0.11003045340E+03  0.00000000000E+00 0.  1.
         -2   -1    0    0    0  501 -0.00000000000E+00 -0.00000000000E+00 -0.17660060208E+03  0.17660060208E+03  0.00000000000E+00 0. -1.
         25    2    1    2    0    0 -0.80057652840E+02  0.36883683915E+02 -0.24327773340E+02  0.15495028756E+03  0.12509243439E+03 0.  0.
         23    2    1    2    0    0  0.80057652840E+02 -0.36883683915E+02 -0.42242375338E+02  0.13168076792E+03  0.88237024245E+02 0.  0.
          5    1    3    3  502    0 -0.81694686845E+02 -0.28769086840E+02 -0.75627644615E+01  0.87042231259E+02  0.41800000000E+01 0. -1.
         -5    1    3    3    0  502  0.16370340055E+01  0.65652770755E+02 -0.16765008879E+02  0.67908056303E+02  0.41800000000E+01 0. -1.
        -11    1    4    4    0    0  0.81033629009E+02  0.65295986656E+01 -0.27757360524E+02  0.85904340707E+02  0.00000000000E+00 0.  1.
         11    1    4    4    0    0 -0.97597616899E+00 -0.43413282581E+02 -0.14485014814E+02  0.45776427210E+02  0.00000000000E+00 0. -1.
</event>
<event>
 8    1  0.7005395E-009  0.2929669E+03  0.7561462E-02  0.1088810E+00
          1   -1    0    0  501    0  0.00000000000E+00  0.00000000000E+00  0.17051534414E+03  0.17051534414E+03  0.00000000000E+00 0. -1.
         -1   -1    0    0    0  501 -0.00000000000E+00 -0.00000000000E+00 -0.53352955129E+03  0.53352955129E+03  0.00000000000E+00 0.  1.
         25    2    1    2    0    0 -0.21534997295E+03  0.18246007989E+03 -0.20314521360E+03  0.36957102931E+03  0.12508987289E+03 0.  0.
         23    2    1    2    0    0  0.21534997295E+03 -0.18246007989E+03 -0.15986899355E+03  0.33447386611E+03  0.81531468845E+02 0.  0.
          5    1    3    3  502    0 -0.88307446243E+01  0.65402856940E+02 -0.74201147318E+02  0.99392144609E+02  0.41800000000E+01 0.  1.
         -5    1    3    3    0  502 -0.20651922833E+03  0.11705722295E+03 -0.12894406628E+03  0.27017888471E+03  0.41800000000E+01 0.  1.
        -11    1    4    4    0    0  0.16942784604E+03 -0.13891513154E+03 -0.81548142854E+02  0.23378047050E+03  0.00000000000E+00 0. -1.
         11    1    4    4    0    0  0.45922126911E+02 -0.43544948350E+02 -0.78320850694E+02  0.10069339561E+03  0.00000000000E+00 0.  1.
</event>
<event>
 8    1  0.7005395E-009  0.1180757E+03  0.7561462E-02  0.1246306E+00
         -2   -1    0    0    0  501 -0.00000000000E+00  0.00000000000E+00  0.32645059173E+02  0.32645059173E+02  0.00000000000E+00 0.  1.
          2   -1    0    0  501    0  0.00000000000E+00 -0.00000000000E+00 -0.46595315132E+03  0.46595315132E+03  0.00000000000E+00 0. -1.
         25    2    1    2    0    0 -0.32877954166E+02  0.42394214811E+02 -0.29576331883E+03  0.32558026980E+03  0.12509333315E+03 0.  0.
         23    2    1    2    0    0  0.32877954166E+02 -0.42394214811E+02 -0.13754477332E+03  0.17301794070E+03  0.90213157661E+02 0.  0.
          5    1    3    3  502    0 -0.24560126696E+02 -0.40637265242E+02 -0.15202685065E+03  0.15932426956E+03  0.41800000000E+01 0.  1.
         -5    1    3    3    0  502 -0.83178274702E+01  0.83031480054E+02 -0.14373646817E+03  0.16625600024E+03  0.41800000000E+01 0.  1.
        -11    1    4    4    0    0  0.56268968224E+02 -0.54724321714E+02 -0.10456068008E+03  0.13074358107E+03  0.00000000000E+00 0. -1.
         11    1    4    4    0    0 -0.23391014058E+02  0.12330106903E+02 -0.32984093243E+02  0.42274359628E+02  0.00000000000E+00 0.  1.
</event>
<event>
 8    1  0.7005395E-009  0.1506661E+03  0.7561462E-02  0.1199657E+00
          2   -1    0    0  501    0  0.00000000000E+00  0.00000000000E+00  0.33071727987E+03  0.33071727987E+03  0.00000000000E+00 0. -1.
         -2   -1    0    0    0  501 -0.00000000000E+00 -0.00000000000E+00 -0.77859186216E+02  0.77859186216E+02  0.00000000000E+00 0.  1.
         25    2    1    2    0    0 -0.74828404768E+01  0.11592586080E+03  0.16405975480E+03  0.23676621455E+03  0.12509132306E+03 0.  0.
         23    2    1    2    0    0  0.74828404768E+01 -0.11592586080E+03  0.88798338854E+02  0.17181025154E+03  0.90215405813E+02 0.  0.
          5    1    3    3  502    0 -0.16394332237E+02 -0.16119558609E+02  0.71470257578E+02  0.75193646124E+02  0.41800000000E+01 0.  1.
         -5    1    3    3    0  502  0.89114917602E+01  0.13204541941E+03  0.92589497226E+02  0.16157256843E+03  0.41800000000E+01 0.  1.
        -11    1    4    4    0    0 -0.21811844151E+02 -0.11413718291E+03  0.60364302798E+02  0.13094618025E+03  0.00000000000E+00 0.  1.
         11    1    4    4    0    0  0.29294684628E+02 -0.17886778867E+01  0.28434036056E+02  0.40864071291E+02  0.00000000000E+00 0. -1.
</event>
<event>
 8    1  0.7005395E-009  0.1004816E+03  0.7561462E-02  0.1279287E+00
         -2   -1    0    0    0  501 -0.00000000000E+00  0.00000000000E+00  0.14724676179E+02  0.14724676179E+02  0.00000000000E+00 0. -1.
          2   -1    0    0  501    0  0.00000000000E+00 -0.00000000000E+00 -0.11513953741E+04  0.11513953741E+04  0.00000000000E+00 0.  1.
         25    2    1    2    0    0  0.42472674499E+02 -0.13021510326E+02 -0.88802649527E+03  0.89789341286E+03  0.12509211309E+03 0.  0.
         23    2    1    2    0    0 -0.42472674499E+02  0.13021510326E+02 -0.24864420267E+03  0.26822663744E+03  0.90266836084E+02 0.  0.
          5    1    3    3  502    0 -0.20923584165E+02 -0.27911599364E+02 -0.65389692528E+03  0.65484006829E+03  0.41800000000E+01 0.  1.
         -5    1    3    3    0  502  0.63396258664E+02  0.14890089038E+02 -0.23412956999E+03  0.24305334457E+03  0.41800000000E+01 0.  1.
        -11    1    4    4    0    0  0.11785072641E+02  0.38766927206E+02 -0.10347269450E+03  0.11112317980E+03  0.00000000000E+00 0.  1.
         11    1    4    4    0    0 -0.54257747140E+02 -0.25745416881E+02 -0.14517150817E+03  0.15710345763E+03  0.00000000000E+00 0. -1.
</event>
<event>
 8    1  0.7005395E-009  0.1099065E+03  0.7561462E-02  0.1260743E+00
         -2   -1    0    0    0  501 -0.00000000000E+00  0.00000000000E+00  0.42815997588E+02  0.42815997588E+02  0.00000000000E+00 0.  1.
          2   -1    0    0  501    0  0.00000000000E+00 -0.00000000000E+00 -0.33899266689E+03  0.33899266689E+03  0.00000000000E+00 0. -1.
         25    2    1    2    0    0  0.14907989945E+02 -0.42596044115E+02 -0.20242319134E+03  0.24219440526E+03  0.12508521259E+03 0.  0.
         23    2    1    2    0    0 -0.14907989945E+02  0.42596044115E+02 -0.93753477960E+02  0.13961425922E+03  0.93090040327E+02 0.  0.
          5    1    3    3  502    0  0.25352829613E+02 -0.78628745599E+02 -0.18047450181E+03  0.19852899992E+03  0.41800000000E+01 0. -1.
         -5    1    3    3    0  502 -0.10444839668E+02  0.36032701483E+02 -0.21948689528E+02  0.43665405344E+02  0.41800000000E+01 0. -1.
        -11    1    4    4    0    0 -0.34703797851E+02 -0.15470548351E+02 -0.55689905892E+02  0.67417038424E+02  0.00000000000E+00 0. -1.
         11    1    4    4    0    0  0.19795807906E+02  0.58066592467E+02 -0.38063572068E+02  0.72197220791E+02  0.00000000000E+00 0.  1.
</event>
<event>
 8    1  0.7005395E-009  0.1024170E+03  0.7561462E-02  0.1275294E+00
          3   -1    0    0  501    0  0.00000000000E+00  0.00000000000E+00  0.19091920859E+03  0.19091920859E+03  0.00000000000E+00 0. -1.
         -3   -1    0    0    0  501 -0.00000000000E+00 -0.00000000000E+00 -0.79753221772E+02  0.79753221772E+02  0.00000000000E+00 0.  1.
         25    2    1    2    0    0  0.75669584880E+01 -0.54511368764E+02  0.32210027688E+02  0.14040624471E+03  0.12509068505E+03 0.  0.
         23    2    1    2    0    0 -0.75669584880E+01  0.54511368764E+02  0.78955959127E+02  0.13026618565E+03  0.87786601803E+02 0.  0.
          5    1    3    3  502    0  0.64679210435E+02 -0.24032019422E+02  0.30385132078E+02  0.75509382671E+02  0.41800000000E+01 0.  1.
         -5    1    3    3    0  502 -0.57112251947E+02 -0.30479349342E+02  0.18248956103E+01  0.64896862041E+02  0.41800000000E+01 0.  1.
        -11    1    4    4    0    0  0.17066426922E+02  0.36588869447E+02  0.89374511684E+02  0.98070442203E+02  0.00000000000E+00 0. -1.
         11    1    4    4    0    0 -0.24633385410E+02  0.17922499317E+02 -0.10418552556E+02  0.32195743444E+02  0.00000000000E+00 0.  1.
</event>
<event>
 8    1  0.7005395E-009  0.1603758E+03  0.7561462E-02  0.1188273E+00
         -2   -1    0    0    0  501 -0.00000000000E+00  0.00000000000E+00  0.10485001302E+03  0.10485001302E+03  0.00000000000E+00 0.  1.
          2   -1    0    0  501    0  0.00000000000E+00 -0.00000000000E+00 -0.32344650784E+03  0.32344650784E+03  0.00000000000E+00 0. -1.
         25    2    1    2    0    0 -0.14695487966E+03 -0.17044816318E+02 -0.11776487570E+03  0.22672133087E+03  0.12509090096E+03 0.  0.
         23    2    1    2    0    0  0.14695487966E+03  0.17044816318E+02 -0.10083161912E+03  0.20157518999E+03  0.92624399536E+02 0.  0.
          5    1    3    3  502    0 -0.13605290328E+03 -0.14101513075E+02 -0.14351132712E+03  0.19829830704E+03  0.41800000000E+01 0. -1.
         -5    1    3    3    0  502 -0.10901976371E+02 -0.29433032431E+01  0.25746451419E+02  0.28423023826E+02  0.41800000000E+01 0. -1.
        -11    1    4    4    0    0  0.10817553497E+03 -0.28677179335E+02 -0.48400770698E+02  0.12193015043E+03  0.00000000000E+00 0.  1.
         11    1    4    4    0    0  0.38779344688E+02  0.45721995652E+02 -0.52430848422E+02  0.79645039563E+02  0.00000000000E+00 0. -1.
</event>
<event>
 8    1  0.7005395E-009  0.1205710E+03  0.7561462E-02  0.1242158E+00
          3   -1    0    0  501    0  0.00000000000E+00  0.00000000000E+00  0.29467462930E+03  0.29467462930E+03  0.00000000000E+00 0. -1.
         -3   -1    0    0    0  501 -0.00000000000E+00 -0.00000000000E+00 -0.85649212476E+02  0.85649212476E+02  0.00000000000E+00 0.  1.
         25    2    1    2    0    0 -0.12214624287E+02  0.11158117507E+03  0.11047245051E+03  0.20112428218E+03  0.12508900385E+03 0.  0.
         23    2    1    2    0    0  0.12214624287E+02 -0.11158117507E+03  0.98552966317E+02  0.17919955960E+03  0.98996158081E+02 0.  0.
          5    1    3    3  502    0  0.48630685099E+01  0.59486539989E+02  0.12973437711E+03  0.14286629721E+03  0.41800000000E+01 0. -1.
         -5    1    3    3    0  502 -0.17077692797E+02  0.52094635081E+02 -0.19261926602E+02  0.58257984963E+02  0.41800000000E+01 0. -1.
        -11    1    4    4    0    0  0.34960089687E+02 -0.53046936148E+02  0.14352148325E+01  0.63547188350E+02  0.00000000000E+00 0.  1.
         11    1    4    4    0    0 -0.22745465400E+02 -0.58534238922E+02  0.97117751485E+02  0.11565237125E+03  0.00000000000E+00 0. -1.
</event>
<event>
 8    1  0.7005395E-009  0.1006443E+03  0.7561462E-02  0.1278947E+00
         -2   -1    0    0    0  501 -0.00000000000E+00  0.00000000000E+00  0.14675295354E+04  0.14675295354E+04  0.00000000000E+00 0.  1.
          2   -1    0    0  501    0  0.00000000000E+00 -0.00000000000E+00 -0.13518862340E+02  0.13518862340E+02  0.00000000000E+00 0. -1.
         25    2    1    2    0    0 -0.26803047342E+02  0.57775076010E+02  0.11286358256E+04  0.11373324359E+04  0.12509948156E+03 0.  0.
         23    2    1    2    0    0  0.26803047342E+02 -0.57775076010E+02  0.32537484752E+03  0.34371596185E+03  0.90639441062E+02 0.  0.
          5    1    3    3  502    0 -0.61042080731E+02  0.38984562464E+02  0.10048150364E+04  0.10074307230E+04  0.41800000000E+01 0.  1.
         -5    1    3    3    0  502  0.34239033390E+02  0.18790513546E+02  0.12382078913E+03  0.12990171295E+03  0.41800000000E+01 0.  1.
        -11    1    4    4    0    0 -0.20535952737E+02 -0.13030822007E+02  0.20050791664E+02  0.31520817302E+02  0.00000000000E+00 0. -1.
         11    1    4    4    0    0  0.47339000078E+02 -0.44744254002E+02  0.30532405585E+03  0.31219514454E+03  0.00000000000E+00 0.  1.
</event>
<event>
 8    1  0.7005395E-009  0.1064597E+03  0.7561462E-02  0.1267270E+00
         -2   -1    0    0    0  501 -0.00000000000E+00  0.00000000000E+00  0.26963576499E+03  0.26963576499E+03  0.00000000000E+00 0.  1.
          2   -1    0    0  501    0  0.00000000000E+00 -0.00000000000E+00 -0.48405175267E+02  0.48405175267E+02  0.00000000000E+00 0. -1.
         25    2    1    2    0    0 -0.66722694750E+01  0.14584361850E+02  0.16627080778E+03  0.20868728259E+03  0.12508867896E+03 0.  0.
         23    2    1    2    0    0  0.66722694750E+01 -0.14584361850E+02  0.54959781937E+02  0.10935365766E+03  0.93168782450E+02 0.  0.
          5    1    3    3  502    0  0.39970175358E+02  0.51856243601E+02  0.76297697932E+02  0.10062552374E+03  0.41800000000E+01 0.  1.
         -5    1    3    3    0  502 -0.46642444833E+02 -0.37271881751E+02  0.89973109851E+02  0.10806175885E+03  0.41800000000E+01 0.  1.
        -11    1    4    4    0    0  0.40177611175E+02  0.14879607131E+02  0.62501189308E+01  0.43297888341E+02  0.00000000000E+00 0. -1.
         11    1    4    4    0    0 -0.33505341700E+02 -0.29463968981E+02  0.48709663007E+02  0.66055769322E+02  0.00000000000E+00 0.  1.
</event>
<event>
 8    1  0.7005395E-009  0.1090452E+03  0.7561462E-02  0.1262348E+00
         -1   -1    0    0    0  501 -0.00000000000E+00  0.00000000000E+00  0.21726120628E+03  0.21726120628E+03  0.00000000000E+00 0.  1.
          1   -1    0    0  501    0  0.00000000000E+00 -0.00000000000E+00 -0.82978123360E+02  0.82978123360E+02  0.00000000000E+00 0. -1.
         25    2    1    2    0    0  0.45152761713E+02 -0.18988093462E+02  0.48448943070E+01  0.13442953156E+03  0.12509399014E+03 0.  0.
         23    2    1    2    0    0 -0.45152761713E+02  0.18988093462E+02  0.12943818861E+03  0.16580979808E+03  0.91319904105E+02 0.  0.
          5    1    3    3  502    0  0.21939830911E+02 -0.64085459102E+02 -0.28477013184E+02  0.73598335094E+02  0.41800000000E+01 0. -1.
         -5    1    3    3    0  502  0.23212930802E+02  0.45097365640E+02  0.33321907491E+02  0.60831196461E+02  0.41800000000E+01 0. -1.
        -11    1    4    4    0    0 -0.26841523834E+02  0.53728933471E+02  0.54022226691E+02  0.80781598588E+02  0.00000000000E+00 0. -1.
         11    1    4    4    0    0 -0.18311237879E+02 -0.34740840009E+02  0.75415961920E+02  0.85028199496E+02  0.00000000000E+00 0.  1.
</event>
<event>
 8    1  0.7005395E-009  0.1116089E+03  0.7561462E-02  0.1257619E+00
         -2   -1    0    0    0  501 -0.00000000000E+00  0.00000000000E+00  0.14116912670E+03  0.14116912670E+03  0.00000000000E+00 0. -1.
          2   -1    0    0  501    0  0.00000000000E+00 -0.00000000000E+00 -0.13298946383E+03  0.13298946383E+03  0.00000000000E+00 0.  1.
         25    2    1    2    0    0  0.75680266787E+02 -0.32061382340E+02 -0.25778508642E+01  0.14968910772E+03  0.12507896961E+03 0.  0.
         23    2    1    2    0    0 -0.75680266787E+02  0.32061382340E+02  0.10757513729E+02  0.12446948281E+03  0.92851995301E+02 0.  0.
          5    1    3    3  502    0  0.29417975458E+02 -0.54210847552E+02  0.47440392882E+02  0.77924941766E+02  0.41800000000E+01 0. -1.
         -5    1    3    3    0  502  0.46262291328E+02  0.22149465212E+02 -0.50018243747E+02  0.71764165958E+02  0.41800000000E+01 0. -1.
        -11    1    4    4    0    0 -0.71864873344E+02  0.52592671499E+02  0.32050237667E+02  0.94645479822E+02  0.00000000000E+00 0. -1.
         11    1    4    4    0    0 -0.38153934425E+01 -0.20531289159E+02 -0.21292723938E+02  0.29824002990E+02  0.00000000000E+00 0.  1.
</event>
<event>
 8    1  0.7005395E-009  0.2206604E+03  0.7561462E-02  0.1133392E+00
         -1   -1    0    0    0  501 -0.00000000000E+00  0.00000000000E+00  0.23503491352E+02  0.23503491352E+02  0.00000000000E+00 0.  1.
          1   -1    0    0  501    0  0.00000000000E+00 -0.00000000000E+00 -0.24391657920E+04  0.24391657920E+04  0.00000000000E+00 0. -1.
         25    2    1    2    0    0 -0.75916996291E+02 -0.19764791462E+03 -0.14139730580E+04  0.14351990952E+04  0.12509414657E+03 0.  0.
         23    2    1    2    0    0  0.75916996291E+02  0.19764791462E+03 -0.10016892426E+04  0.10274701882E+04  0.86519132650E+02 0.  0.
          5    1    3    3  502    0 -0.38746519344E+02 -0.75104115620E+02 -0.24447109271E+03  0.25869964924E+03  0.41800000000E+01 0.  1.
         -5    1    3    3    0  502 -0.37170476947E+02 -0.12254379900E+03 -0.11695019653E+04  0.11764994459E+04  0.41800000000E+01 0.  1.
        -11    1    4    4    0    0  0.52757817643E+02  0.32815319699E+02 -0.25658663664E+03  0.26400177013E+03  0.00000000000E+00 0.  1.
         11    1    4    4    0    0  0.23159178648E+02  0.16483259492E+03 -0.74510260600E+03  0.76346841805E+03  0.00000000000E+00 0. -1.
</event>
<event>
 8    1  0.7005395E-009  0.1198047E+03  0.7561462E-02  0.1243420E+00
          1   -1    0    0  501    0  0.00000000000E+00  0.00000000000E+00  0.12783054436E+03  0.12783054436E+03  0.00000000000E+00 0. -1.
         -1   -1    0    0    0  501 -0.00000000000E+00 -0.00000000000E+00 -0.15101949977E+03  0.15101949977E+03  0.00000000000E+00 0.  1.
         25    2    1    2    0    0  0.39312552408E+02  0.58574656910E+02  0.38606399716E+02  0.14872018777E+03  0.12510304929E+03 0.  0.
         23    2    1    2    0    0 -0.39312552408E+02 -0.58574656910E+02 -0.61795355118E+02  0.13012985636E+03  0.90214446699E+02 0.  0.
          5    1    3    3  502    0  0.49073310257E+02  0.84310674881E+02  0.59113943391E+02  0.11414206228E+03  0.41800000000E+01 0. -1.
         -5    1    3    3    0  502 -0.97607578489E+01 -0.25736017972E+02 -0.20507543675E+02  0.34578125490E+02  0.41800000000E+01 0. -1.
        -11    1    4    4    0    0 -0.59148333710E+02 -0.69675856123E+02 -0.45042906674E+02  0.10189265797E+03  0.00000000000E+00 0. -1.
         11    1    4    4    0    0  0.19835781303E+02  0.11101199213E+02 -0.16752448444E+02  0.28237198387E+02  0.00000000000E+00 0.  1.
</event>
<event>
 8    1  0.7005395E-009  0.1323285E+03  0.7561462E-02  0.1224041E+00
          3   -1    0    0  501    0  0.00000000000E+00  0.00000000000E+00  0.12466484184E+04  0.12466484184E+04  0.00000000000E+00 0. -1.
         -3   -1    0    0    0  501 -0.00000000000E+00 -0.00000000000E+00 -0.22908809166E+02  0.22908809166E+02  0.00000000000E+00 0.  1.
         25    2    1    2    0    0  0.54915070824E+02 -0.11512910916E+03  0.73720192725E+03  0.75854157441E+03  0.12509301258E+03 0.  0.
         23    2    1    2    0    0 -0.54915070824E+02  0.11512910916E+03  0.48653768198E+03  0.51101565314E+03  0.90264638684E+02 0.  0.
          5    1    3    3  502    0 -0.58827261620E+01 -0.23784826050E+01 -0.23597841187E+01  0.79564205322E+01  0.41800000000E+01 0.  1.
         -5    1    3    3    0  502  0.60797796986E+02 -0.11275062655E+03  0.73956171136E+03  0.75058515388E+03  0.41800000000E+01 0.  1.
        -11    1    4    4    0    0 -0.37652391997E+02  0.57479750428E+02  0.39846768979E+03  0.40434901278E+03  0.00000000000E+00 0. -1.
         11    1    4    4    0    0 -0.17262678827E+02  0.57649358729E+02  0.88069992187E+02  0.10666664036E+03  0.00000000000E+00 0.  1.
</event>
<event>
 8    1  0.7005395E-009  0.1307472E+03  0.7561462E-02  0.1226351E+00
         -1   -1    0    0    0  501 -0.00000000000E+00  0.00000000000E+00  0.96730785008E+02  0.96730785008E+02  0.00000000000E+00 0.  1.
          1   -1    0    0  501    0  0.00000000000E+00 -0.00000000000E+00 -0.24005158851E+03  0.24005158851E+03  0.00000000000E+00 0. -1.
         25    2    1    2    0    0 -0.43458343112E+02 -0.87874758945E+02 -0.12453560618E+03  0.20191153166E+03  0.12509415879E+03 0.  0.
         23    2    1    2    0    0  0.43458343112E+02  0.87874758945E+02 -0.18785197318E+02  0.13487084186E+03  0.90700934392E+02 0.  0.
          5    1    3    3  502    0  0.37388473531E+02 -0.23148319892E+01 -0.13498171903E+02  0.40036601315E+02  0.41800000000E+01 0. -1.
         -5    1    3    3    0  502 -0.80846816643E+02 -0.85559926956E+02 -0.11103743428E+03  0.16187493034E+03  0.41800000000E+01 0. -1.
        -11    1    4    4    0    0  0.26877812579E+02  0.14009452174E+02  0.31714991434E+02  0.43869377029E+02  0.00000000000E+00 0.  1.
         11    1    4    4    0    0  0.16580530533E+02  0.73865306771E+02 -0.50500188752E+02  0.91001464829E+02  0.00000000000E+00 0. -1.
</event>
<event>
 8    1  0.7005395E-009  0.1143772E+03  0.7561462E-02  0.1252672E+00
          1   -1    0    0  501    0  0.00000000000E+00  0.00000000000E+00  0.19108218461E+02  0.19108218461E+02  0.00000000000E+00 0. -1.
         -1   -1    0    0    0  501 -0.00000000000E+00 -0.00000000000E+00 -0.81492848067E+03  0.81492848067E+03  0.00000000000E+00 0.  1.
         25    2    1    2    0    0 -0.29433354045E+02  0.50305888408E+02 -0.37587176558E+03  0.40040664172E+03  0.12509552284E+03 0.  0.
         23    2    1    2    0    0  0.29433354045E+02 -0.50305888408E+02 -0.41994849663E+03  0.43363005741E+03  0.91001550157E+02 0.  0.
          5    1    3    3  502    0 -0.55456072169E+02 -0.86472014761E+01 -0.81563620926E+02  0.99097157842E+02  0.41800000000E+01 0. -1.
         -5    1    3    3    0  502  0.26022718124E+02  0.58953089884E+02 -0.29430814465E+03  0.30130948388E+03  0.41800000000E+01 0. -1.
        -11    1    4    4    0    0  0.60500782765E+02 -0.18104980760E+02 -0.25765485527E+03  0.26528128372E+03  0.00000000000E+00 0.  1.
         11    1    4    4    0    0 -0.31067428721E+02 -0.32200907647E+02 -0.16229364135E+03  0.16834877369E+03  0.00000000000E+00 0. -1.
</event>
<event>
 8    1  0.7005395E-009  0.1070263E+03  0.7561462E-02  0.1266178E+00
         -1   -1    0    0    0  501 -0.00000000000E+00  0.00000000000E+00  0.18328443328E+02  0.18328443328E+02  0.00000000000E+00 0.  1.
          1   -1    0    0  501    0  0.00000000000E+00 -0.00000000000E+00 -0.68836729675E+03  0.68836729675E+03  0.00000000000E+00 0. -1.
         25    2    1    2    0    0  0.13002198799E+02 -0.81748088422E+01 -0.44840054892E+03  0.46577281554E+03  0.12508148842E+03 0.  0.
         23    2    1    2    0    0 -0.13002198799E+02  0.81748088422E+01 -0.22163830450E+03  0.24092292455E+03  0.93190304617E+02 0.  0.
          5    1    3    3  502    0 -0.62870386456E+01  0.57217175604E+02 -0.20670680402E+03  0.21461245832E+03  0.41800000000E+01 0.  1.
         -5    1    3    3    0  502  0.19289237444E+02 -0.65391984446E+02 -0.24169374490E+03  0.25116035721E+03  0.41800000000E+01 0.  1.
        -11    1    4    4    0    0  0.14121691226E+02 -0.34607528768E+02 -0.13949705134E+03  0.14441790243E+03  0.00000000000E+00 0. -1.
         11    1    4    4    0    0 -0.27123890025E+02  0.42782337611E+02 -0.82141253164E+02  0.96505022112E+02  0.00000000000E+00 0.  1.
</event>
<event>
 8    1  0.7005395E-009  0.1222749E+03  0.7561462E-02  0.1239391E+00
         -1   -1    0    0    0  501 -0.00000000000E+00  0.00000000000E+00  0.97283241497E+02  0.97283241497E+02  0.00000000000E+00 0.  1.
          1   -1    0    0  501    0  0.00000000000E+00 -0.00000000000E+00 -0.23951457652E+03  0.23951457652E+03  0.00000000000E+00 0. -1.
         25    2    1    2    0    0 -0.79334471986E+02 -0.83394652350E+01  0.37599934106E+01  0.14840839552E+03  0.12508960462E+03 0.  0.
         23    2    1    2    0    0  0.79334471986E+02  0.83394652350E+01 -0.14599132844E+03  0.18838942250E+03  0.88394577920E+02 0.  0.
          5    1    3    3  502    0 -0.18553020033E+02  0.44945786725E+02 -0.33611155320E+02  0.59258083488E+02  0.41800000000E+01 0. -1.
         -5    1    3    3    0  502 -0.60781451952E+02 -0.53285251960E+02  0.37371148731E+02  0.89150312031E+02  0.41800000000E+01 0. -1.
        -11    1    4    4    0    0 -0.16493355612E+02 -0.67069167777E+01 -0.75326875325E+01  0.19332741489E+02  0.00000000000E+00 0.  1.
         11    1    4    4    0    0  0.95827827598E+02  0.15046382013E+02 -0.13845864090E+03  0.16905668101E+03  0.00000000000E+00 0. -1.
</event>
<event>
 8    1  0.7005395E-009  0.1727220E+03  0.7561462E-02  0.1175039E+00
          1   -1    0    0  501    0  0.00000000000E+00  0.00000000000E+00  0.11690127051E+04  0.11690127051E+04  0.00000000000E+00 0. -1.
         -1   -1    0    0    0  501 -0.00000000000E+00 -0.00000000000E+00 -0.38717117039E+02  0.38717117039E+02  0.00000000000E+00 0.  1.
         25    2    1    2    0    0  0.15711250045E+03  0.71316036738E+02  0.74213157903E+03  0.77212547739E+03  0.12509259512E+03 0.  0.
         23    2    1    2    0    0 -0.15711250045E+03 -0.71316036738E+02  0.38816400901E+03  0.43560434472E+03  0.96485917915E+02 0.  0.
          5    1    3    3  502    0  0.10222383577E+03  0.46401163273E+02  0.66358395215E+03  0.67302593895E+03  0.41800000000E+01 0. -1.
         -5    1    3    3    0  502  0.54888664686E+02  0.24914873465E+02  0.78547626877E+02  0.99099538439E+02  0.41800000000E+01 0. -1.
        -11    1    4    4    0    0 -0.75221134507E+02 -0.37958865714E+02  0.84502881429E+02  0.11933076524E+03  0.00000000000E+00 0.  1.
         11    1    4    4    0    0 -0.81891365946E+02 -0.33357171024E+02  0.30366112758E+03  0.31627357949E+03  0.00000000000E+00 0. -1.
</event>
<event>
 8    1  0.7005395E-009  0.8136414E+02  0.7561462E-02  0.1325224E+00
         -1   -1    0    0    0  501 -0.00000000000E+00  0.00000000000E+00  0.19831602085E+02  0.19831602085E+02  0.00000000000E+00 0.  1.
          1   -1    0    0  501    0  0.00000000000E+00 -0.00000000000E+00 -0.88809124433E+03  0.88809124433E+03  0.00000000000E+00 0. -1.
         25    2    1    2    0    0 -0.28180014498E+02 -0.38195417931E+02 -0.68448894292E+03  0.69744004778E+03  0.12507799207E+03 0.  0.
         23    2    1    2    0    0  0.28180014498E+02  0.38195417931E+02 -0.18377069932E+03  0.21048279863E+03  0.90985358289E+02 0.  0.
          5    1    3    3  502    0 -0.75190707970E+01  0.17333042267E+02 -0.55093062179E+03  0.55127034493E+03  0.41800000000E+01 0. -1.
         -5    1    3    3    0  502 -0.20660943701E+02 -0.55528460199E+02 -0.13355832114E+03  0.14616970285E+03  0.41800000000E+01 0. -1.
        -11    1    4    4    0    0  0.13191942086E+02  0.57810708576E+02 -0.60308120447E+02  0.84576443256E+02  0.00000000000E+00 0.  1.
         11    1    4    4    0    0  0.14988072412E+02 -0.19615290644E+02 -0.12346257888E+03  0.12590635538E+03  0.00000000000E+00 0. -1.
</event>
<event>
 8    1  0.7005395E-009  0.6332495E+02  0.7561462E-02  0.1384385E+00
         -1   -1    0    0    0  501 -0.00000000000E+00  0.00000000000E+00  0.32678465141E+03  0.32678465141E+03  0.00000000000E+00 0.  1.
          1   -1    0    0  501    0  0.00000000000E+00 -0.00000000000E+00 -0.46347022126E+02  0.46347022126E+02  0.00000000000E+00 0. -1.
         25    2    1    2    0    0 -0.34538510762E+02 -0.20451878085E+02  0.22146207922E+03  0.25749462409E+03  0.12508733293E+03 0.  0.
         23    2    1    2    0    0  0.34538510762E+02  0.20451878085E+02  0.58975550071E+02  0.11563704945E+03  0.91008920757E+02 0.  0.
          5    1    3    3  502    0 -0.48089002834E+02 -0.38136595961E+02  0.22613218263E+03  0.23435056766E+03  0.41800000000E+01 0.  1.
         -5    1    3    3    0  502  0.13550492072E+02  0.17684717876E+02 -0.46701034111E+01  0.23144056421E+02  0.41800000000E+01 0.  1.
        -11    1    4    4    0    0  0.12132557362E+02  0.15204767360E+02  0.81288522060E+02  0.83583537358E+02  0.00000000000E+00 0.  1.
         11    1    4    4    0    0  0.22405953400E+02  0.52471107256E+01 -0.22312971989E+02  0.32053512096E+02  0.00000000000E+00 0. -1.
</event>
<event>
 8    1  0.7005395E-009  0.1210324E+03  0.7561462E-02  0.1241404E+00
         -2   -1    0    0    0  501 -0.00000000000E+00  0.00000000000E+00  0.96182600719E+02  0.96182600719E+02  0.00000000000E+00 0.  1.
          2   -1    0    0  501    0  0.00000000000E+00 -0.00000000000E+00 -0.19710667139E+03  0.19710667139E+03  0.00000000000E+00 0. -1.
         25    2    1    2    0    0 -0.34271398309E+02  0.76106734211E+02 -0.66079701174E+02  0.16426003070E+03  0.12509223415E+03 0.  0.
         23    2    1    2    0    0  0.34271398309E+02 -0.76106734211E+02 -0.34844369492E+02  0.12902924140E+03  0.92019841975E+02 0.  0.
          5    1    3    3  502    0 -0.72845817852E+02  0.42290893293E+02 -0.51373530807E+01  0.84491997436E+02  0.41800000000E+01 0. -1.
         -5    1    3    3    0  502  0.38574419543E+02  0.33815840918E+02 -0.60942348094E+02  0.79768033266E+02  0.41800000000E+01 0. -1.
        -11    1    4    4    0    0  0.38967294294E+02 -0.10325131931E+02  0.18358431825E+02  0.44295489534E+02  0.00000000000E+00 0.  1.
         11    1    4    4    0    0 -0.46958959843E+01 -0.65781602280E+02 -0.53202801317E+02  0.84733751868E+02  0.00000000000E+00 0. -1.
</event>
<event>
 8    1  0.7005395E-009  0.2555897E+03  0.7561462E-02  0.1109822E+00
         -1   -1    0    0    0  501 -0.00000000000E+00  0.00000000000E+00  0.63059188404E+02  0.63059188404E+02  0.00000000000E+00 0.  1.
          1   -1    0    0  501    0  0.00000000000E+00 -0.00000000000E+00 -0.11685547783E+04  0.11685547783E+04  0.00000000000E+00 0. -1.
         25    2    1    2    0    0 -0.20221000625E+03 -0.12009685227E+03 -0.38759533160E+03  0.47030896775E+03  0.12509293952E+03 0.  0.
         23    2    1    2    0    0  0.20221000625E+03  0.12009685227E+03 -0.71790025832E+03  0.76130499897E+03  0.94299416800E+02 0.  0.
          5    1    3    3  502    0 -0.18551653477E+03 -0.48477823175E+02 -0.29708301281E+03  0.35361316847E+03  0.41800000000E+01 0. -1.
         -5    1    3    3    0  502 -0.16693471486E+02 -0.71619029099E+02 -0.90512318786E+02  0.11669579929E+03  0.41800000000E+01 0. -1.
        -11    1    4    4    0    0  0.17872305321E+03  0.12920911079E+03 -0.68646239441E+03  0.72101840684E+03  0.00000000000E+00 0. -1.
         11    1    4    4    0    0  0.23486953044E+02 -0.91122585167E+01 -0.31437863911E+02  0.40286592135E+02  0.00000000000E+00 0.  1.
</event>
<event>
 8    1  0.7005395E-009  0.1165478E+03  0.7561462E-02  0.1248903E+00
         -1   -1    0    0    0  501 -0.00000000000E+00  0.00000000000E+00  0.32391759687E+02  0.32391759687E+02  0.00000000000E+00 0.  1.
          1   -1    0    0  501    0  0.00000000000E+00 -0.00000000000E+00 -0.70257426287E+03  0.70257426287E+03  0.00000000000E+00 0. -1.
         25    2    1    2    0    0 -0.89806421096E+02  0.25860863033E+02 -0.25098854634E+03  0.29559430106E+03  0.12508702139E+03 0.  0.
         23    2    1    2    0    0  0.89806421096E+02 -0.25860863033E+02 -0.41919395684E+03  0.43937172150E+03  0.92682030026E+02 0.  0.
          5    1    3    3  502    0 -0.18179412479E+02  0.43278395163E+02 -0.16782903345E+02  0.50026480694E+02  0.41800000000E+01 0.  1.
         -5    1    3    3    0  502 -0.71627008617E+02 -0.17417532130E+02 -0.23420564300E+03  0.24556782037E+03  0.41800000000E+01 0.  1.
        -11    1    4    4    0    0  0.79255069479E+02 -0.44370218676E+02 -0.40159190486E+03  0.41173552239E+03  0.00000000000E+00 0. -1.
         11    1    4    4    0    0  0.10551351618E+02  0.18509355644E+02 -0.17602051980E+02  0.27636199109E+02  0.00000000000E+00 0.  1.
</event>
<event>
 8    1  0.7005395E-009  0.1440597E+03  0.7561462E-02  0.1207968E+00
          2   -1    0    0  501    0  0.00000000000E+00  0.00000000000E+00  0.11993615550E+04  0.11993615550E+04  0.00000000000E+00 0. -1.
         -2   -1    0    0    0  501 -0.00000000000E+00 -0.00000000000E+00 -0.17905830036E+02  0.17905830036E+02  0.00000000000E+00 0.  1.
         25    2    1    2    0    0  0.97348939382E+02  0.20121570299E+02  0.64656861026E+03  0.66601978950E+03  0.12509875555E+03 0.  0.
         23    2    1    2    0    0 -0.97348939382E+02 -0.20121570299E+02  0.53488711468E+03  0.55124759551E+03  0.88814371126E+02 0.  0.
          5    1    3    3  502    0  0.42549818183E+01 -0.44135297191E+02  0.23422945937E+03  0.23842596621E+03  0.41800000000E+01 0. -1.
         -5    1    3    3    0  502  0.93093957563E+02  0.64256867489E+02  0.41233915089E+03  0.42759382328E+03  0.41800000000E+01 0. -1.
        -11    1    4    4    0    0 -0.34540171849E+02  0.33266936947E+02  0.14441591788E+03  0.15216987187E+03  0.00000000000E+00 0.  1.
         11    1    4    4    0    0 -0.62808767532E+02 -0.53388507245E+02  0.39047119680E+03  0.39907772365E+03  0.00000000000E+00 0. -1.
</event>
<event>
 8    1  0.7005395E-009  0.2231604E+03  0.7561462E-02  0.1131549E+00
          2   -1    0    0  501    0  0.00000000000E+00  0.00000000000E+00  0.74429165465E+03  0.74429165465E+03  0.00000000000E+00 0.  1.
         -2   -1    0    0    0  501 -0.00000000000E+00 -0.00000000000E+00 -0.81554604641E+02  0.81554604641E+02  0.00000000000E+00 0. -1.
         25    2    1    2    0    0 -0.10769534143E+02  0.20112543917E+03  0.19272541492E+03  0.30554549385E+03  0.12509011994E+03 0.  0.
         23    2    1    2    0    0  0.10769534143E+02 -0.20112543917E+03  0.47001163508E+03  0.52030076544E+03  0.96096432062E+02 0.  0.
          5    1    3    3  502    0  0.30948869652E+02  0.18902473633E+03  0.14104985410E+03  0.23790905241E+03  0.41800000000E+01 0. -1.
         -5    1    3    3    0  502 -0.41718403795E+02  0.12100702848E+02  0.51675560817E+02  0.67636441438E+02  0.41800000000E+01 0. -1.
        -11    1    4    4    0    0 -0.20473443824E+02 -0.25449222902E+02  0.25901021849E+02  0.41685582414E+02  0.00000000000E+00 0. -1.
         11    1    4    4    0    0  0.31242977967E+02 -0.17567621627E+03  0.44411061323E+03  0.47861518303E+03  0.00000000000E+00 0.  1.
</event>
<event>
 8    1  0.7005395E-009  0.1051793E+03  0.7561462E-02  0.1269767E+00
          2   -1    0    0  501    0  0.00000000000E+00  0.00000000000E+00  0.54972248427E+03  0.54972248427E+03  0.00000000000E+00 0. -1.
         -2   -1    0    0    0  501 -0.00000000000E+00 -0.00000000000E+00 -0.24352869006E+02  0.24352869006E+02  0.00000000000E+00 0.  1.
         25    2    1    2    0    0 -0.17784695085E+02 -0.36833545488E+02  0.32503404365E+03  0.35066681518E+03  0.12508828995E+03 0.  0.
         23    2    1    2    0    0  0.17784695085E+02  0.36833545488E+02  0.20033557161E+03  0.22340853810E+03  0.90022376047E+02 0.  0.
          5    1    3    3  502    0 -0.45311955459E+02 -0.64850509111E+02  0.27890044019E+03  0.28993394037E+03  0.41800000000E+01 0.  1.
         -5    1    3    3    0  502  0.27527260374E+02  0.28016963623E+02  0.46133603460E+02  0.60732874809E+02  0.41800000000E+01 0.  1.
        -11    1    4    4    0    0 -0.32153891946E+02  0.53326877463E+01  0.11576809229E+03  0.12026870548E+03  0.00000000000E+00 0.  1.
         11    1    4    4    0    0  0.49938587031E+02  0.31500857741E+02  0.84567479326E+02  0.10313983262E+03  0.00000000000E+00 0. -1.
</event>
<event>
 8    1  0.7005395E-009  0.1086116E+03  0.7561462E-02  0.1263163E+00
          1   -1    0    0  501    0  0.00000000000E+00  0.00000000000E+00  0.16925532558E+03  0.16925532558E+03  0.00000000000E+00 0. -1.
         -1   -1    0    0    0  501 -0.00000000000E+00 -0.00000000000E+00 -0.11478924577E+03  0.11478924577E+03  0.00000000000E+00 0.  1.
         25    2    1    2    0    0  0.65011924238E+02 -0.49455205426E+02  0.10960255470E+01  0.14940188835E+03  0.12508938938E+03 0.  0.
         23    2    1    2    0    0 -0.65011924238E+02  0.49455205426E+02  0.53370054256E+02  0.13464268300E+03  0.92778886372E+02 0.  0.
          5    1    3    3  502    0  0.32778601062E+01 -0.47057290278E+02  0.51203958475E+02  0.69745614190E+02  0.41800000000E+01 0. -1.
         -5    1    3    3    0  502  0.61734064131E+02 -0.23979151480E+01 -0.50107932928E+02  0.79656274163E+02  0.41800000000E+01 0. -1.
        -11    1    4    4    0    0  0.11495025022E+02  0.25179420199E+02  0.46459472341E+02  0.54079768601E+02  0.00000000000E+00 0. -1.
         11    1    4    4    0    0 -0.76506949260E+02  0.24275785227E+02  0.69105819151E+01  0.80562914395E+02  0.00000000000E+00 0.  1.
</event>
<event>
 8    1  0.7005395E-009  0.1240900E+03  0.7561462E-02  0.1236498E+00
          1   -1    0    0  501    0  0.00000000000E+00  0.00000000000E+00  0.10553577408E+03  0.10553577408E+03  0.00000000000E+00 0. -1.
         -1   -1    0    0    0  501 -0.00000000000E+00 -0.00000000000E+00 -0.23581101228E+03  0.23581101228E+03  0.00000000000E+00 0.  1.
         25    2    1    2    0    0 -0.65888547752E+02  0.91413107407E+02 -0.74040715859E+02  0.18392165415E+03  0.12508992897E+03 0.  0.
         23    2    1    2    0    0  0.65888547752E+02 -0.91413107407E+02 -0.56234522333E+02  0.15742513221E+03  0.94460011736E+02 0.  0.
          5    1    3    3  502    0 -0.49511628641E+01  0.45364296764E+02 -0.94252981700E+02  0.10480233964E+03  0.41800000000E+01 0.  1.
         -5    1    3    3    0  502 -0.60937384888E+02  0.46048810643E+02  0.20212265842E+02  0.79119314513E+02  0.41800000000E+01 0.  1.
        -11    1    4    4    0    0 -0.34568906153E+00 -0.44959008608E+02 -0.61695849955E+02  0.76340093382E+02  0.00000000000E+00 0.  1.
         11    1    4    4    0    0  0.66234236814E+02 -0.46454098799E+02  0.54613276220E+01  0.81085038823E+02  0.00000000000E+00 0. -1.
</event>
<event>
 8    1  0.7005395E-009  0.1048738E+03  0.7561462E-02  0.1270369E+00
         -4   -1    0    0    0  501 -0.00000000000E+00  0.00000000000E+00  0.99805359103E+02  0.99805359103E+02  0.00000000000E+00 0.  1.
          4   -1    0    0  501    0  0.00000000000E+00 -0.00000000000E+00 -0.14673954889E+03  0.14673954889E+03  0.00000000000E+00 0. -1.
         25    2    1    2    0    0  0.45346338992E+01  0.55218080081E+02 -0.23326880899E+02  0.13878363697E+03  0.12508858959E+03 0.  0.
         23    2    1    2    0    0 -0.45346338992E+01 -0.55218080081E+02 -0.23607308885E+02  0.10776127102E+03  0.89362112927E+02 0.  0.
          5    1    3    3  502    0  0.33919430427E+02  0.81922736182E+02 -0.37575870494E+02  0.96391290620E+02  0.41800000000E+01 0.  1.
         -5    1    3    3    0  502 -0.29384796528E+02 -0.26704656102E+02  0.14248989595E+02  0.42392346349E+02  0.41800000000E+01 0.  1.
        -11    1    4    4    0    0 -0.25484495454E+02 -0.54419272795E+02  0.16664779140E+02  0.62358893703E+02  0.00000000000E+00 0.  1.
         11    1    4    4    0    0  0.20949861554E+02 -0.79880728562E+00 -0.40272088024E+02  0.45402377317E+02  0.00000000000E+00 0. -1.
</event>
<event>
 8    1  0.7005395E-009  0.1296831E+03  0.7561462E-02  0.1227927E+00
          2   -1    0    0  501    0  0.00000000000E+00  0.00000000000E+00  0.25250815752E+03  0.25250815752E+03  0.00000000000E+00 0. -1.
         -2   -1    0    0    0  501 -0.00000000000E+00 -0.00000000000E+00 -0.94604477542E+02  0.94604477542E+02  0.00000000000E+00 0.  1.
         25    2    1    2    0    0  0.10169320545E+03 -0.31382635605E+02  0.76588788042E+02  0.18122557750E+03  0.12510191699E+03 0.  0.
         23    2    1    2    0    0 -0.10169320545E+03  0.31382635605E+02  0.81314891933E+02  0.16588705756E+03  0.97877609101E+02 0.  0.
          5    1    3    3  502    0  0.33441305769E+00  0.19100187445E+02  0.64348767604E+02  0.67254481521E+02  0.41800000000E+01 0.  1.
         -5    1    3    3    0  502  0.10135879239E+03 -0.50482823050E+02  0.12240020438E+02  0.11397109598E+03  0.41800000000E+01 0.  1.
        -11    1    4    4    0    0 -0.48165810848E+02 -0.20137378492E+02 -0.44776627941E+01  0.52397603106E+02  0.00000000000E+00 0.  1.
         11    1    4    4    0    0 -0.53527394602E+02  0.51520014097E+02  0.85792554727E+02  0.11348945445E+03  0.00000000000E+00 0. -1.
</event>
<event>
 8    1  0.7005395E-009  0.5858952E+02  0.7561462E-02  0.1403848E+00
         -2   -1    0    0    0  501 -0.00000000000E+00  0.00000000000E+00  0.18629535117E+03  0.18629535117E+03  0.00000000000E+00 0. -1.
          2   -1    0    0  501    0  0.00000000000E+00 -0.00000000000E+00 -0.83507056281E+02  0.83507056281E+02  0.00000000000E+00 0.  1.
         25    2    1    2    0    0 -0.31185187118E+02  0.44729810898E+02  0.27973542723E+02  0.13929888864E+03  0.12509352263E+03 0.  0.
         23    2    1    2    0    0  0.31185187118E+02 -0.44729810898E+02  0.74814752161E+02  0.13050351881E+03  0.91981788427E+02 0.  0.
          5    1    3    3  502    0 -0.10034014876E+02 -0.20888371910E+01 -0.47016881769E+02  0.48302218030E+02  0.41800000000E+01 0.  1.
         -5    1    3    3    0  502 -0.21151172243E+02  0.46818648089E+02  0.74990424491E+02  0.90996670607E+02  0.41800000000E+01 0.  1.
        -11    1    4    4    0    0  0.18359178054E+02 -0.28068670381E+02 -0.16089536997E+02  0.37199232204E+02  0.00000000000E+00 0.  1.
         11    1    4    4    0    0  0.12826009065E+02 -0.16661140517E+02  0.90904289158E+02  0.93304286606E+02  0.00000000000E+00 0. -1.
</event>
<event>
 8    1  0.7005395E-009  0.9132121E+02  0.7561462E-02  0.1299683E+00
          1   -1    0    0  501    0  0.00000000000E+00  0.00000000000E+00  0.65792384165E+02  0.65792384165E+02  0.00000000000E+00 0. -1.
         -1   -1    0    0    0  501 -0.00000000000E+00 -0.00000000000E+00 -0.21596190900E+03  0.21596190900E+03  0.00000000000E+00 0.  1.
         25    2    1    2    0    0  0.11574986714E+02  0.14184785416E+02 -0.13405163578E+03  0.18426293915E+03  0.12509117169E+03 0.  0.
         23    2    1    2    0    0 -0.11574986714E+02 -0.14184785416E+02 -0.16117889051E+02  0.97491354012E+02  0.94390620853E+02 0.  0.
          5    1    3    3  502    0  0.22367007556E+02 -0.47002141242E+02 -0.10114791215E+03  0.11383258251E+03  0.41800000000E+01 0. -1.
         -5    1    3    3    0  502 -0.10792020842E+02  0.61186926658E+02 -0.32903723631E+02  0.70430356641E+02  0.41800000000E+01 0. -1.
        -11    1    4    4    0    0 -0.11521318253E+02 -0.40361427541E+02 -0.42916139398E+02  0.60029831153E+02  0.00000000000E+00 0.  1.
         11    1    4    4    0    0 -0.53668460884E-01  0.26176642125E+02  0.26798250347E+02  0.37461522859E+02  0.00000000000E+00 0. -1.
</event>
<event>
 8    1  0.7005395E-009  0.1609807E+03  0.7561462E-02  0.1187594E+00
          3   -1    0    0  501    0  0.00000000000E+00  0.00000000000E+00  0.21263539044E+03  0.21263539044E+03  0.00000000000E+00 0. -1.
         -3   -1    0    0    0  501 -0.00000000000E+00 -0.00000000000E+00 -0.12834689359E+03  0.12834689359E+03  0.00000000000E+00 0.  1.
         25    2    1    2    0    0 -0.10526862785E+03 -0.60826543245E+02  0.71865202285E+02  0.18866434411E+03  0.12509306563E+03 0.  0.
         23    2    1    2    0    0  0.10526862785E+03  0.60826543245E+02  0.12423294559E+02  0.15231793991E+03  0.90912398490E+02 0.  0.
          5    1    3    3  502    0 -0.12864554824E+03 -0.25555499429E+02  0.46891570603E+02  0.13935226022E+03  0.41800000000E+01 0. -1.
         -5    1    3    3    0  502  0.23376920392E+02 -0.35271043815E+02  0.24973631682E+02  0.49312083897E+02  0.41800000000E+01 0. -1.
        -11    1    4    4    0    0  0.12020162890E+03  0.53225083968E+02 -0.26514981371E-04  0.13145851495E+03  0.00000000000E+00 0.  1.
         11    1    4    4    0    0 -0.14933001045E+02  0.76014592771E+01  0.12423321074E+02  0.20859424965E+02  0.00000000000E+00 0. -1.
</event>
<event>
 8    1  0.7005395E-009  0.1453937E+03  0.7561462E-02  0.1206250E+00
         -2   -1    0    0    0  501 -0.00000000000E+00  0.00000000000E+00  0.83271264863E+02  0.83271264863E+02  0.00000000000E+00 0.  1.
          2   -1    0    0  501    0  0.00000000000E+00 -0.00000000000E+00 -0.31544350733E+03  0.31544350733E+03  0.00000000000E+00 0. -1.
         25    2    1    2    0    0  0.11733667627E+03  0.18168998461E+02 -0.14725710203E+03  0.22678258745E+03  0.12509068617E+03 0.  0.
         23    2    1    2    0    0 -0.11733667627E+03 -0.18168998461E+02 -0.84915140431E+02  0.17193218474E+03  0.90840998300E+02 0.  0.
          5    1    3    3  502    0  0.98305651911E+02  0.50644098782E+02 -0.48147125595E+02  0.12068323845E+03  0.41800000000E+01 0.  1.
         -5    1    3    3    0  502  0.19031024359E+02 -0.32475100321E+02 -0.99109976438E+02  0.10609934900E+03  0.41800000000E+01 0.  1.
        -11    1    4    4    0    0  0.28470830642E+01 -0.21828117436E+02  0.40189195885E+01  0.22376869921E+02  0.00000000000E+00 0.  1.
         11    1    4    4    0    0 -0.12018375933E+03  0.36591189751E+01 -0.88934060019E+02  0.14955531482E+03  0.00000000000E+00 0. -1.
</event>
<event>
 8    1  0.7005395E-009  0.8720266E+02  0.7561462E-02  0.1309771E+00
         -3   -1    0    0    0  501 -0.00000000000E+00  0.00000000000E+00  0.94867243266E+02  0.94867243266E+02  0.00000000000E+00 0.  1.
          3   -1    0    0  501    0  0.00000000000E+00 -0.00000000000E+00 -0.18197874065E+03  0.18197874065E+03  0.00000000000E+00 0. -1.
         25    2    1    2    0    0  0.62970661210E+02 -0.33467854014E+02 -0.25271717264E+02  0.14619327876E+03  0.12509361949E+03 0.  0.
         23    2    1    2    0    0 -0.62970661210E+02  0.33467854014E+02 -0.61839780119E+02  0.13065270515E+03  0.90335870688E+02 0.  0.
          5    1    3    3  502    0  0.25515394777E+02 -0.24944470695E+02  0.50008436979E+02  0.61575791980E+02  0.41800000000E+01 0.  1.
         -5    1    3    3    0  502  0.37455266432E+02 -0.85233833196E+01 -0.75280154242E+02  0.84617486783E+02  0.41800000000E+01 0.  1.
        -11    1    4    4    0    0 -0.74463788487E+01  0.42880701880E+02  0.43587297541E+01  0.43740160914E+02  0.00000000000E+00 0.  1.
         11    1    4    4    0    0 -0.55524282361E+02 -0.94128478659E+01 -0.66198509873E+02  0.86912544239E+02  0.00000000000E+00 0. -1.
</event>
<event>
 8    1  0.7005395E-009  0.1344880E+03  0.7561462E-02  0.1220944E+00
          2   -1    0    0  501    0  0.00000000000E+00  0.00000000000E+00  0.77638784079E+03  0.77638784079E+03  0.00000000000E+00 0.  1.
         -2   -1    0    0    0  501 -0.00000000000E+00 -0.00000000000E+00 -0.29347009267E+02  0.29347009267E+02  0.00000000000E+00 0. -1.
         25    2    1    2    0    0 -0.34471182308E+02  0.98184046261E+02  0.39948432919E+03  0.43135266479E+03  0.12509605431E+03 0.  0.
         23    2    1    2    0    0  0.34471182308E+02 -0.98184046261E+02  0.34755650234E+03  0.37438218527E+03  0.92401996631E+02 0.  0.
          5    1    3    3  502    0 -0.66976131411E+02  0.26058606454E+02  0.27108068729E+03  0.28047649557E+03  0.41800000000E+01 0. -1.
         -5    1    3    3    0  502  0.32504949103E+02  0.72125439807E+02  0.12840364190E+03  0.15087616922E+03  0.41800000000E+01 0. -1.
        -11    1    4    4    0    0  0.49608000854E+02 -0.70348175593E+02  0.32306056488E+03  0.33433209259E+03  0.00000000000E+00 0.  1.
         11    1    4    4    0    0 -0.15136818547E+02 -0.27835870669E+02  0.24495937462E+02  0.40050092681E+02  0.00000000000E+00 0. -1.
</event>
<event>
 8    1  0.7005395E-009  0.1612875E+03  0.7561462E-02  0.1187251E+00
         -3   -1    0    0    0  501 -0.00000000000E+00  0.00000000000E+00  0.51106476532E+03  0.51106476532E+03  0.00000000000E+00 0.  1.
          3   -1    0    0  501    0  0.00000000000E+00 -0.00000000000E+00 -0.56564867409E+02  0.56564867409E+02  0.00000000000E+00 0. -1.
         25    2    1    2    0    0 -0.61814745416E+02  0.11316158017E+03  0.27695781667E+03  0.33012033479E+03  0.12508875749E+03 0.  0.
         23    2    1    2    0    0  0.61814745416E+02 -0.11316158017E+03  0.17754208125E+03  0.23750929794E+03  0.90900330132E+02 0.  0.
          5    1    3    3  502    0  0.35855144388E+02  0.22450512425E+02  0.98967318220E+02  0.10771081358E+03  0.41800000000E+01 0. -1.
         -5    1    3    3    0  502 -0.97669889803E+02  0.90711067746E+02  0.17799049845E+03  0.22240952121E+03  0.41800000000E+01 0. -1.
        -11    1    4    4    0    0  0.72185524174E+02 -0.11537781264E+03  0.18090554575E+03  0.22638375832E+03  0.00000000000E+00 0.  1.
         11    1    4    4    0    0 -0.10370778758E+02  0.22162324670E+01 -0.33634645013E+01  0.11125539621E+02  0.00000000000E+00 0. -1.
</event>
<event>
 8    1  0.7005395E-009  0.9593985E+02  0.7561462E-02  0.1289073E+00
          2   -1    0    0  501    0  0.00000000000E+00  0.00000000000E+00  0.22138183109E+04  0.22138183109E+04  0.00000000000E+00 0. -1.
         -2   -1    0    0    0  501 -0.00000000000E+00 -0.00000000000E+00 -0.84412706366E+01  0.84412706366E+01  0.00000000000E+00 0.  1.
         25    2    1    2    0    0  0.72870576677E+02  0.67837212072E+01  0.15308097554E+04  0.15376545270E+04  0.12508715909E+03 0.  0.
         23    2    1    2    0    0 -0.72870576677E+02 -0.67837212072E+01  0.67456728484E+03  0.68460505451E+03  0.91032516523E+02 0.  0.
          5    1    3    3  502    0  0.16452722423E+02 -0.41299974975E+01  0.23697341862E+02  0.29441218823E+02  0.41800000000E+01 0.  1.
         -5    1    3    3    0  502  0.56417854254E+02  0.10913718705E+02  0.15071124135E+04  0.15082133082E+04  0.41800000000E+01 0.  1.
        -11    1    4    4    0    0  0.20101437871E+02  0.97852449433E+01  0.13268364518E+03  0.13455396138E+03  0.00000000000E+00 0.  1.
         11    1    4    4    0    0 -0.92972014548E+02 -0.16568966151E+02  0.54188363966E+03  0.55005109314E+03  0.00000000000E+00 0. -1.
</event>
<event>
 8    1  0.7005395E-009  0.8665966E+02  0.7561462E-02  0.1311149E+00
          2   -1    0    0  501    0  0.00000000000E+00  0.00000000000E+00  0.31510415804E+03  0.31510415804E+03  0.00000000000E+00 0. -1.
         -2   -1    0    0    0  501 -0.00000000000E+00 -0.00000000000E+00 -0.63818904808E+02  0.63818904808E+02  0.00000000000E+00 0.  1.
         25    2    1    2    0    0  0.14227811578E+02  0.45904365536E+02  0.23332329120E+03  0.26906627403E+03  0.12508900912E+03 0.  0.
         23    2    1    2    0    0 -0.14227811578E+02 -0.45904365536E+02  0.17961962031E+02  0.10985678882E+03  0.97140313839E+02 0.  0.
          5    1    3    3  502    0 -0.15563694870E+02  0.18914466485E+02 -0.66421308096E+01  0.25721118601E+02  0.41800000000E+01 0. -1.
         -5    1    3    3    0  502  0.29791506448E+02  0.26989899051E+02  0.23996542201E+03  0.24334515543E+03  0.41800000000E+01 0. -1.
        -11    1    4    4    0    0 -0.11208467629E+02  0.30033406788E+02  0.14715895118E+01  0.32090510210E+02  0.00000000000E+00 0. -1.
         11    1    4    4    0    0 -0.30193439494E+01 -0.75937772323E+02  0.16490372519E+02  0.77766278612E+02  0.00000000000E+00 0.  1.
</event>
<event>
 8    1  0.7005395E-009  0.1199113E+03  0.7561462E-02  0.1243243E+00
         -1   -1    0    0    0  501 -0.00000000000E+00  0.00000000000E+00  0.12469127847E+03  0.12469127847E+03  0.00000000000E+00 0.  1.
          1   -1    0    0  501    0  0.00000000000E+00 -0.00000000000E+00 -0.12441516629E+03  0.12441516629E+03  0.00000000000E+00 0. -1.
         25    2    1    2    0    0  0.38734524598E+02  0.29441373061E+02  0.29174287826E+02  0.13735229026E+03  0.12508938694E+03 0.  0.
         23    2    1    2    0    0 -0.38734524598E+02 -0.29441373061E+02 -0.28898175652E+02  0.11175415450E+03  0.96367674290E+02 0.  0.
          5    1    3    3  502    0  0.82704737489E+01  0.76051914406E+02  0.58512396739E+01  0.76837515750E+02  0.41800000000E+01 0. -1.
         -5    1    3    3    0  502  0.30464050849E+02 -0.46610541346E+02  0.23323048152E+02  0.60514774508E+02  0.41800000000E+01 0. -1.
        -11    1    4    4    0    0 -0.54743233095E+02  0.17739447718E+02 -0.21269948871E+02  0.61350797061E+02  0.00000000000E+00 0. -1.
         11    1    4    4    0    0  0.16008708497E+02 -0.47180820779E+02 -0.76282267805E+01  0.50403357437E+02  0.00000000000E+00 0.  1.
</event>
<event>
 8    1  0.7005395E-009  0.1360881E+03  0.7561462E-02  0.1218692E+00
         -1   -1    0    0    0  501 -0.00000000000E+00  0.00000000000E+00  0.20956070007E+03  0.20956070007E+03  0.00000000000E+00 0.  1.
          1   -1    0    0  501    0  0.00000000000E+00 -0.00000000000E+00 -0.10362467370E+03  0.10362467370E+03  0.00000000000E+00 0. -1.
         25    2    1    2    0    0 -0.81096398978E+02 -0.51572270156E+02  0.82621095160E+02  0.17807361686E+03  0.12509053793E+03 0.  0.
         23    2    1    2    0    0  0.81096398978E+02  0.51572270156E+02  0.23314931202E+02  0.13511175691E+03  0.92061261460E+02 0.  0.
          5    1    3    3  502    0 -0.34637794281E+02  0.41149617252E+02  0.27739054452E+02  0.60662965098E+02  0.41800000000E+01 0. -1.
         -5    1    3    3    0  502 -0.46458604698E+02 -0.92721887408E+02  0.54882040709E+02  0.11741065176E+03  0.41800000000E+01 0. -1.
        -11    1    4    4    0    0  0.26112756173E+02  0.53374145326E+02 -0.22482558742E+02  0.63530629399E+02  0.00000000000E+00 0.  1.
         11    1    4    4    0    0  0.54983642806E+02 -0.18018751701E+01  0.45797489945E+02  0.71581127510E+02  0.00000000000E+00 0. -1.
</event>
<event>
 8    1  0.7005395E-009  0.9916294E+02  0.7561462E-02  0.1282066E+00
          1   -1    0    0  501    0  0.00000000000E+00  0.00000000000E+00  0.20976151069E+03  0.20976151069E+03  0.00000000000E+00 0. -1.
         -1   -1    0    0    0  501 -0.00000000000E+00 -0.00000000000E+00 -0.67085731156E+02  0.67085731156E+02  0.00000000000E+00 0.  1.
         25    2    1    2    0    0 -0.11090018330E+02  0.44639860122E+02  0.70384455374E+02  0.15071960840E+03  0.12508686253E+03 0.  0.
         23    2    1    2    0    0  0.11090018330E+02 -0.44639860122E+02  0.72291324163E+02  0.12612763345E+03  0.92555057954E+02 0.  0.
          5    1    3    3  502    0 -0.63336804650E+02  0.29455905318E+02  0.65641337573E+02  0.95945082102E+02  0.41800000000E+01 0.  1.
         -5    1    3    3    0  502  0.52246786319E+02  0.15183954804E+02  0.47431178008E+01  0.54774526293E+02  0.41800000000E+01 0.  1.
        -11    1    4    4    0    0  0.24179796466E+02 -0.52995854579E+02  0.87024696349E+02  0.10472115801E+03  0.00000000000E+00 0. -1.
         11    1    4    4    0    0 -0.13089778135E+02  0.83559944575E+01 -0.14733372186E+02  0.21406475445E+02  0.00000000000E+00 0.  1.
</event>
<event>
 8    1  0.7005395E-009  0.1520751E+03  0.7561462E-02  0.1197946E+00
          2   -1    0    0  501    0  0.00000000000E+00  0.00000000000E+00  0.76839476148E+03  0.76839476148E+03  0.00000000000E+00 0. -1.
         -2   -1    0    0    0  501 -0.00000000000E+00 -0.00000000000E+00 -0.45155351893E+02  0.45155351893E+02  0.00000000000E+00 0.  1.
         25    2    1    2    0    0  0.94481136086E+02 -0.56863261134E+02  0.15645443625E+03  0.22866281365E+03  0.12509426918E+03 0.  0.
         23    2    1    2    0    0 -0.94481136086E+02  0.56863261134E+02  0.56678497333E+03  0.58488729972E+03  0.93208539507E+02 0.  0.
          5    1    3    3  502    0  0.81803027716E+01 -0.76337353126E+02  0.87013382035E+02  0.11611679417E+03  0.41800000000E+01 0.  1.
         -5    1    3    3    0  502  0.86300833314E+02  0.19474091992E+02  0.69441054220E+02  0.11254601948E+03  0.41800000000E+01 0.  1.
        -11    1    4    4    0    0 -0.64112693405E+02 -0.10344853185E+02  0.18561026233E+03  0.19664339024E+03  0.00000000000E+00 0.  1.
         11    1    4    4    0    0 -0.30368442681E+02  0.67208114319E+02  0.38117471100E+03  0.38824390948E+03  0.00000000000E+00 0. -1.
</event>
<event>
 8    1  0.7005395E-009  0.1012911E+03  0.7561462E-02  0.1277604E+00
          2   -1    0    0  501    0  0.00000000000E+00  0.00000000000E+00  0.14024491182E+03  0.14024491182E+03  0.00000000000E+00 0. -1.
         -2   -1    0    0    0  501 -0.00000000000E+00 -0.00000000000E+00 -0.13067304253E+03  0.13067304253E+03  0.00000000000E+00 0.  1.
         25    2    1    2    0    0  0.35563598548E+02 -0.13704507724E+02 -0.64940212681E+02  0.14600356404E+03  0.12508887407E+03 0.  0.
         23    2    1    2    0    0 -0.35563598548E+02  0.13704507724E+02  0.74512081967E+02  0.12491439030E+03  0.92730639334E+02 0.  0.
          5    1    3    3  502    0 -0.33158417545E+02  0.12123369655E+01  0.17352210671E+02  0.37676544827E+02  0.41800000000E+01 0. -1.
         -5    1    3    3    0  502  0.68722016092E+02 -0.14916844689E+02 -0.82292423351E+02  0.10832701922E+03  0.41800000000E+01 0. -1.
        -11    1    4    4    0    0  0.18398614771E+01 -0.36244801409E+02  0.38316067470E+02  0.52774915877E+02  0.00000000000E+00 0.  1.
         11    1    4    4    0    0 -0.37403460025E+02  0.49949309132E+02  0.36196014497E+02  0.72139474424E+02  0.00000000000E+00 0. -1.
</event>
<event>
 8    1  0.7005395E-009  0.1121097E+03  0.7561462E-02  0.1256712E+00
          1   -1    0    0  501    0  0.00000000000E+00  0.00000000000E+00  0.31135963661E+03  0.31135963661E+03  0.00000000000E+00 0. -1.
         -1   -1    0    0    0  501 -0.00000000000E+00 -0.00000000000E+00 -0.60113320580E+02  0.60113320580E+02  0.00000000000E+00 0.  1.
         25    2    1    2    0    0  0.12493574644E+02 -0.80069550940E+02  0.16492385699E+03  0.22228841183E+03  0.12508012246E+03 0.  0.
         23    2    1    2    0    0 -0.12493574644E+02  0.80069550940E+02  0.86322459039E+02  0.14918454536E+03  0.90759237794E+02 0.  0.
          5    1    3    3  502    0 -0.32333237877E+02 -0.33742570934E+02  0.14835505367E+03  0.15559785897E+03  0.41800000000E+01 0. -1.
         -5    1    3    3    0  502  0.44826812521E+02 -0.46326980007E+02  0.16568803315E+02  0.66690552859E+02  0.41800000000E+01 0. -1.
        -11    1    4    4    0    0 -0.42553305788E+02  0.68189538082E+02  0.84779845737E+02  0.11682559300E+03  0.00000000000E+00 0.  1.
         11    1    4    4    0    0  0.30059731144E+02  0.11880012859E+02  0.15426133023E+01  0.32358952359E+02  0.00000000000E+00 0. -1.
</event>
<event>
 8    1  0.7005395E-009  0.1112065E+03  0.7561462E-02  0.1258352E+00
          2   -1    0    0  501    0  0.00000000000E+00  0.00000000000E+00  0.20366750124E+03  0.20366750124E+03  0.00000000000E+00 0.  1.
         -2   -1    0    0    0  501 -0.00000000000E+00 -0.00000000000E+00 -0.96453117586E+02  0.96453117586E+02  0.00000000000E+00 0. -1.
         25    2    1    2    0    0  0.70668251457E+02  0.38838140956E+02  0.20538430923E+02  0.15023454673E+03  0.12508472700E+03 0.  0.
         23    2    1    2    0    0 -0.70668251457E+02 -0.38838140956E+02  0.86675952734E+02  0.14988607210E+03  0.91927748093E+02 0.  0.
          5    1    3    3  502    0 -0.18147546565E+02 -0.11754911863E+02  0.40410739056E+02  0.46021860352E+02  0.41800000000E+01 0.  1.
         -5    1    3    3    0  502  0.88815798023E+02  0.50593052819E+02 -0.19872308133E+02  0.10421268638E+03  0.41800000000E+01 0.  1.
        -11    1    4    4    0    0 -0.43048905082E+02 -0.51990068212E+02  0.96493030689E+02  0.11775856824E+03  0.00000000000E+00 0.  1.
         11    1    4    4    0    0 -0.27619346376E+02  0.13151927256E+02 -0.98170779555E+01  0.32127503861E+02  0.00000000000E+00 0. -1.
</event>
<event>
 8    1  0.7005395E-009  0.1752398E+03  0.7561462E-02  0.1172491E+00
         -2   -1    0    0    0  501 -0.00000000000E+00  0.00000000000E+00  0.14505517224E+03  0.14505517224E+03  0.00000000000E+00 0.  1.
          2   -1    0    0  501    0  0.00000000000E+00 -0.00000000000E+00 -0.29962040933E+03  0.29962040933E+03  0.00000000000E+00 0. -1.
         25    2    1    2    0    0  0.86950797031E+02  0.14355561384E+03 -0.13978087403E+03  0.25170260314E+03  0.12508737871E+03 0.  0.
         23    2    1    2    0    0 -0.86950797031E+02 -0.14355561384E+03 -0.14784363059E+02  0.19297297843E+03  0.94081547835E+02 0.  0.
          5    1    3    3  502    0  0.42329383820E+01  0.71321499005E+02 -0.12046378059E+03  0.14012019420E+03  0.41800000000E+01 0.  1.
         -5    1    3    3    0  502  0.82717858649E+02  0.72234114833E+02 -0.19317093438E+02  0.11158240894E+03  0.41800000000E+01 0.  1.
        -11    1    4    4    0    0 -0.11068606112E+02 -0.33905117298E+02 -0.43821612238E+02  0.56501369182E+02  0.00000000000E+00 0. -1.
         11    1    4    4    0    0 -0.75882190919E+02 -0.10965049654E+03  0.29037249178E+02  0.13647160925E+03  0.00000000000E+00 0.  1.
</event>
<event>
 8    1  0.7005395E-009  0.1038011E+03  0.7561462E-02  0.1272500E+00
         -2   -1    0    0    0  501 -0.00000000000E+00  0.00000000000E+00  0.11759599313E+03  0.11759599313E+03  0.00000000000E+00 0.  1.
          2   -1    0    0  501    0  0.00000000000E+00 -0.00000000000E+00 -0.16615613121E+03  0.16615613121E+03  0.00000000000E+00 0. -1.
         25    2    1    2    0    0  0.63411816853E+02  0.15115501317E+02  0.33572961867E+02  0.14499747401E+03  0.12509031459E+03 0.  0.
         23    2    1    2    0    0 -0.63411816853E+02 -0.15115501317E+02 -0.82133099945E+02  0.13875465033E+03  0.90870622239E+02 0.  0.
          5    1    3    3  502    0  0.58199633330E+02  0.39984692288E+02  0.70572024295E+02  0.99919247146E+02  0.41800000000E+01 0. -1.
         -5    1    3    3    0  502  0.52121835230E+01 -0.24869190971E+02 -0.36999062428E+02  0.45078226864E+02  0.41800000000E+01 0. -1.
        -11    1    4    4    0    0 -0.36812173770E+02  0.37257049292E+02 -0.46583989443E+02  0.70094878073E+02  0.00000000000E+00 0.  1.
         11    1    4    4    0    0 -0.26599643082E+02 -0.52372550610E+02 -0.35549110502E+02  0.68659772261E+02  0.00000000000E+00 0. -1.
</event>
<event>
 8    1  0.7005395E-009  0.1049328E+03  0.7561462E-02  0.1270252E+00
          2   -1    0    0  501    0  0.00000000000E+00  0.00000000000E+00  0.22408030731E+03  0.22408030731E+03  0.00000000000E+00 0. -1.
         -2   -1    0    0    0  501 -0.00000000000E+00 -0.00000000000E+00 -0.60966324514E+02  0.60966324514E+02  0.00000000000E+00 0.  1.
         25    2    1    2    0    0  0.12503934816E+01 -0.39007392737E+02  0.67559850146E+02  0.14743078126E+03  0.12509341205E+03 0.  0.
         23    2    1    2    0    0 -0.12503934816E+01  0.39007392737E+02  0.95554132647E+02  0.13761585056E+03  0.91018623855E+02 0.  0.
          5    1    3    3  502    0  0.41989627244E+02  0.17007780461E+02  0.63243250546E+02  0.77907474172E+02  0.41800000000E+01 0.  1.
         -5    1    3    3    0  502 -0.40739233763E+02 -0.56015173198E+02  0.43165996002E+01  0.69523307085E+02  0.41800000000E+01 0.  1.
        -11    1    4    4    0    0  0.42368258523E+02  0.24869047353E+02  0.68763580522E+02  0.84510170114E+02  0.00000000000E+00 0.  1.
         11    1    4    4    0    0 -0.43618652004E+02  0.14138345384E+02  0.26790552125E+02  0.53105680449E+02  0.00000000000E+00 0. -1.
</event>
<event>
 8    1  0.7005395E-009  0.1004360E+03  0.7561462E-02  0.1279382E+00
          1   -1    0    0  501    0  0.00000000000E+00  0.00000000000E+00  0.13054984108E+03  0.13054984108E+03  0.00000000000E+00 0. -1.
         -1   -1    0    0    0  501 -0.00000000000E+00 -0.00000000000E+00 -0.98079065302E+02  0.98079065302E+02  0.00000000000E+00 0.  1.
         25    2    1    2    0    0  0.12551692678E+02 -0.26691992911E+02  0.86781829777E+01  0.12881342068E+03  0.12509028345E+03 0.  0.
         23    2    1    2    0    0 -0.12551692678E+02  0.26691992911E+02  0.23792592802E+02  0.99815485704E+02  0.92341952759E+02 0.  0.
          5    1    3    3  502    0 -0.26987301075E+02 -0.66721692542E+02  0.55302898519E+01  0.72305983022E+02  0.41800000000E+01 0. -1.
         -5    1    3    3    0  502  0.39538993753E+02  0.40029699631E+02  0.31478931258E+01  0.56507437658E+02  0.41800000000E+01 0. -1.
        -11    1    4    4    0    0 -0.25091168665E+02 -0.14719294327E+02 -0.22256886459E+02  0.36627767681E+02  0.00000000000E+00 0.  1.
         11    1    4    4    0    0  0.12539475987E+02  0.41411287238E+02  0.46049479261E+02  0.63187718023E+02  0.00000000000E+00 0. -1.
</event>
<event>
 8    1  0.7005395E-009  0.9266511E+02  0.7561462E-02  0.1296523E+00
         -3   -1    0    0    0  501 -0.00000000000E+00  0.00000000000E+00  0.16358507835E+03  0.16358507835E+03  0.00000000000E+00 0.  1.
          3   -1    0    0  501    0  0.00000000000E+00 -0.00000000000E+00 -0.90380950624E+02  0.90380950624E+02  0.00000000000E+00 0. -1.
         25    2    1    2    0    0 -0.32676634874E+02  0.41555251576E+02  0.58229813599E+02  0.14775886604E+03  0.12508944760E+03 0.  0.
         23    2    1    2    0    0  0.32676634874E+02 -0.41555251576E+02  0.14974314130E+02  0.10620716294E+03  0.90890758470E+02 0.  0.
          5    1    3    3  502    0 -0.10910187374E+02  0.77596761033E+02  0.68562206901E+02  0.10420430954E+03  0.41800000000E+01 0.  1.
         -5    1    3    3    0  502 -0.21766447500E+02 -0.36041509457E+02 -0.10332393302E+02  0.43554556501E+02  0.41800000000E+01 0.  1.
        -11    1    4    4    0    0 -0.45490758008E+00 -0.29174954131E+02  0.49063610297E+02  0.57084347634E+02  0.00000000000E+00 0.  1.
         11    1    4    4    0    0  0.33131542454E+02 -0.12380297445E+02 -0.34089296166E+02  0.49122815303E+02  0.00000000000E+00 0. -1.
</event>
<event>
 8    1  0.7005395E-009  0.1868474E+03  0.7561462E-02  0.1161336E+00
          1   -1    0    0  501    0  0.00000000000E+00  0.00000000000E+00  0.12598966481E+04  0.12598966481E+04  0.00000000000E+00 0. -1.
         -1   -1    0    0    0  501 -0.00000000000E+00 -0.00000000000E+00 -0.73210789306E+02  0.73210789306E+02  0.00000000000E+00 0.  1.
         25    2    1    2    0    0 -0.98947086606E+01  0.15628049371E+03  0.11223539589E+04  0.11401085847E+04  0.12509067830E+03 0.  0.
         23    2    1    2    0    0  0.98947086606E+01 -0.15628049371E+03  0.64331899838E+02  0.19299885268E+03  0.92673975994E+02 0.  0.
          5    1    3    3  502    0  0.35870130773E+02  0.50228897263E+01  0.33954063361E+03  0.34149262067E+03  0.41800000000E+01 0.  1.
         -5    1    3    3    0  502 -0.45764839433E+02  0.15125760399E+03  0.78281332532E+03  0.79861596402E+03  0.41800000000E+01 0.  1.
        -11    1    4    4    0    0  0.39546236402E+02 -0.30555334112E+02  0.31680583715E+01  0.50075641285E+02  0.00000000000E+00 0.  1.
         11    1    4    4    0    0 -0.29651527742E+02 -0.12572515960E+03  0.61163841466E+02  0.14292321140E+03  0.00000000000E+00 0. -1.
</event>
<event>
 8    1  0.7005395E-009  0.1190738E+03  0.7561462E-02  0.1244633E+00
         -2   -1    0    0    0  501 -0.00000000000E+00  0.00000000000E+00  0.16699542607E+02  0.16699542607E+02  0.00000000000E+00 0.  1.
          2   -1    0    0  501    0  0.00000000000E+00 -0.00000000000E+00 -0.10480207088E+04  0.10480207088E+04  0.00000000000E+00 0. -1.
         25    2    1    2    0    0  0.56958926460E+02 -0.51526010212E+02 -0.54851318703E+03  0.56781446802E+03  0.12508918701E+03 0.  0.
         23    2    1    2    0    0 -0.56958926460E+02  0.51526010212E+02 -0.48280797915E+03  0.49690578338E+03  0.88952592960E+02 0.  0.
          5    1    3    3  502    0 -0.24629914738E+02 -0.30013963836E+02 -0.56998845995E+02  0.69092775092E+02  0.41800000000E+01 0.  1.
         -5    1    3    3    0  502  0.81588841197E+02 -0.21512046375E+02 -0.49151434104E+03  0.49872169292E+03  0.41800000000E+01 0.  1.
        -11    1    4    4    0    0 -0.21511779355E+02  0.70989493442E+02 -0.25638191596E+03  0.26689689332E+03  0.00000000000E+00 0.  1.
         11    1    4    4    0    0 -0.35447147105E+02 -0.19463483230E+02 -0.22642606319E+03  0.23000889006E+03  0.00000000000E+00 0. -1.
</event>
<event>
 8    1  0.7005395E-009  0.8722556E+02  0.7561462E-02  0.1309713E+00
          1   -1    0    0  501    0  0.00000000000E+00  0.00000000000E+00  0.78652310714E+03  0.78652310714E+03  0.00000000000E+00 0. -1.
         -1   -1    0    0    0  501 -0.00000000000E+00 -0.00000000000E+00 -0.28310385245E+02  0.28310385245E+02  0.00000000000E+00 0.  1.
         25    2    1    2    0    0 -0.45942910781E+02 -0.37632562339E+01  0.66039497234E+03  0.67371687100E+03  0.12509192473E+03 0.  0.
         23    2    1    2    0    0  0.45942910781E+02  0.37632562339E+01  0.97817749560E+02  0.14111662139E+03  0.90667941162E+02 0.  0.
          5    1    3    3  502    0  0.95075209331E+01 -0.14515051288E+02  0.92300159433E+01  0.20093413411E+02  0.41800000000E+01 0. -1.
         -5    1    3    3    0  502 -0.55450431714E+02  0.10751795054E+02  0.65116495640E+03  0.65362345759E+03  0.41800000000E+01 0. -1.
        -11    1    4    4    0    0  0.64764745838E+02 -0.21697782930E+02  0.54074757138E+02  0.87116849387E+02  0.00000000000E+00 0. -1.
         11    1    4    4    0    0 -0.18821835057E+02  0.25461039163E+02  0.43742992422E+02  0.53999772002E+02  0.00000000000E+00 0.  1.
</event>
<event>
 8    1  0.7005395E-009  0.2007179E+03  0.7561462E-02  0.1149135E+00
         -2   -1    0    0    0  501 -0.00000000000E+00  0.00000000000E+00  0.28543751821E+02  0.28543751821E+02  0.00000000000E+00 0.  1.
          2   -1    0    0  501    0  0.00000000000E+00 -0.00000000000E+00 -0.14960428432E+04  0.14960428432E+04  0.00000000000E+00 0. -1.
         25    2    1    2    0    0  0.11910539978E+03  0.12781248261E+03 -0.69750702379E+03  0.72985315579E+03  0.12508978301E+03 0.  0.
         23    2    1    2    0    0 -0.11910539978E+03 -0.12781248261E+03 -0.76999206754E+03  0.79473343918E+03  0.90505957325E+02 0.  0.
          5    1    3    3  502    0 -0.59439493002E+00  0.74790160107E+02 -0.16077675621E+03  0.17737124652E+03  0.41800000000E+01 0.  1.
         -5    1    3    3    0  502  0.11969979471E+03  0.53022322502E+02 -0.53673026758E+03  0.55248190927E+03  0.41800000000E+01 0.  1.
        -11    1    4    4    0    0  0.13634666429E+02 -0.44862818520E+01 -0.37191021919E+02  0.39864808602E+02  0.00000000000E+00 0.  1.
         11    1    4    4    0    0 -0.13274006621E+03 -0.12332620076E+03 -0.73280104562E+03  0.75486863058E+03  0.00000000000E+00 0. -1.
</event>
<event>
 8    1  0.7005395E-009  0.1210935E+03  0.7561462E-02  0.1241304E+00
          2   -1    0    0  501    0  0.00000000000E+00  0.00000000000E+00  0.45546189142E+03  0.45546189142E+03  0.00000000000E+00 0. -1.
         -2   -1    0    0    0  501 -0.00000000000E+00 -0.00000000000E+00 -0.54215680929E+02  0.54215680929E+02  0.00000000000E+00 0.  1.
         25    2    1    2    0    0 -0.10868768296E+03  0.16276986268E+02  0.26371864554E+03  0.31188574888E+03  0.12508894292E+03 0.  0.
         23    2    1    2    0    0  0.10868768296E+03 -0.16276986268E+02  0.13752756495E+03  0.19779182347E+03  0.90165523353E+02 0.  0.
          5    1    3    3  502    0 -0.54461781288E+02 -0.21967587010E+02  0.22984771433E+03  0.23726800181E+03  0.41800000000E+01 0. -1.
         -5    1    3    3    0  502 -0.54225901668E+02  0.38244573278E+02  0.33870931212E+02  0.74617747072E+02  0.41800000000E+01 0. -1.
        -11    1    4    4    0    0  0.62341785794E+02 -0.29012155648E+02  0.13273663653E+03  0.14948985955E+03  0.00000000000E+00 0. -1.
         11    1    4    4    0    0  0.46345897162E+02  0.12735169380E+02  0.47909284162E+01  0.48301963914E+02  0.00000000000E+00 0.  1.
</event>
<event>
 8    1  0.7005395E-009  0.8706186E+02  0.7561462E-02  0.1310127E+00
         -2   -1    0    0    0  501 -0.00000000000E+00  0.00000000000E+00  0.39538892125E+03  0.39538892125E+03  0.00000000000E+00 0. -1.
          2   -1    0    0  501    0  0.00000000000E+00 -0.00000000000E+00 -0.30913105421E+02  0.30913105421E+02  0.00000000000E+00 0.  1.
         25    2    1    2    0    0 -0.15008160571E+02 -0.13332586964E+02  0.23266539668E+03  0.26492477744E+03  0.12509575583E+03 0.  0.
         23    2    1    2    0    0  0.15008160571E+02  0.13332586964E+02  0.13181041914E+03  0.16137724923E+03  0.90915494919E+02 0.  0.
          5    1    3    3  502    0 -0.54920833933E+02  0.11543273257E+02  0.19934403624E+03  0.20713537202E+03  0.41800000000E+01 0. -1.
         -5    1    3    3    0  502  0.39912673362E+02 -0.24875860221E+02  0.33321360445E+02  0.57789405418E+02  0.41800000000E+01 0. -1.
        -11    1    4    4    0    0 -0.23904573169E+02 -0.92607938534E+01  0.40868153018E+01  0.25959448771E+02  0.00000000000E+00 0.  1.
         11    1    4    4    0    0  0.38912733739E+02  0.22593380817E+02  0.12772360384E+03  0.13541780046E+03  0.00000000000E+00 0. -1.
</event>
<event>
 8    1  0.7005395E-009  0.6583377E+02  0.7561462E-02  0.1374862E+00
         -1   -1    0    0    0  501 -0.00000000000E+00  0.00000000000E+00  0.61069324386E+03  0.61069324386E+03  0.00000000000E+00 0.  1.
          1   -1    0    0  501    0  0.00000000000E+00 -0.00000000000E+00 -0.26391267050E+02  0.26391267050E+02  0.00000000000E+00 0. -1.
         25    2    1    2    0    0  0.16144898864E+02 -0.22054349348E+02  0.47562830895E+03  0.49256207253E+03  0.12509218574E+03 0.  0.
         23    2    1    2    0    0 -0.16144898864E+02  0.22054349348E+02  0.10867366786E+03  0.14452243838E+03  0.91267283435E+02 0.  0.
          5    1    3    3  502    0  0.86875219185E+00  0.40721228607E+01  0.45645284942E+03  0.45649097807E+03  0.41800000000E+01 0. -1.
         -5    1    3    3    0  502  0.15276146673E+02 -0.26126472209E+02  0.19175459531E+02  0.36071094459E+02  0.41800000000E+01 0. -1.
        -11    1    4    4    0    0 -0.36715064627E+02 -0.24622570087E+02  0.47978293839E+02  0.65239432922E+02  0.00000000000E+00 0. -1.
         11    1    4    4    0    0  0.20570165762E+02  0.46676919435E+02  0.60695374020E+02  0.79283005461E+02  0.00000000000E+00 0.  1.
</event>
<event>
 8    1  0.7005395E-009  0.1367129E+03  0.7561462E-02  0.1217822E+00
         -2   -1    0    0    0  501 -0.00000000000E+00  0.00000000000E+00  0.80023687329E+02  0.80023687329E+02  0.00000000000E+00 0. -1.
          2   -1    0    0  501    0  0.00000000000E+00 -0.00000000000E+00 -0.37853046156E+03  0.37853046156E+03  0.00000000000E+00 0.  1.
         25    2    1    2    0    0  0.90779756777E+02  0.85059157873E+02 -0.23415189876E+03  0.29317367819E+03  0.12509064439E+03 0.  0.
         23    2    1    2    0    0 -0.90779756777E+02 -0.85059157873E+02 -0.64354875474E+02  0.16538047070E+03  0.87938191435E+02 0.  0.
          5    1    3    3  502    0  0.10249477566E+03  0.55040418254E+02 -0.94937016677E+02  0.15021696380E+03  0.41800000000E+01 0. -1.
         -5    1    3    3    0  502 -0.11715018880E+02  0.30018739619E+02 -0.13921488208E+03  0.14295671439E+03  0.41800000000E+01 0. -1.
        -11    1    4    4    0    0 -0.25211122200E+02 -0.20391453104E+02 -0.65712593199E+02  0.73277260778E+02  0.00000000000E+00 0.  1.
         11    1    4    4    0    0 -0.65568634577E+02 -0.64667704769E+02  0.13577177241E+01  0.92103209922E+02  0.00000000000E+00 0. -1.
</event>
<event>
 8    1  0.7005395E-009  0.1044634E+03  0.7561462E-02  0.1271180E+00
         -1   -1    0    0    0  501 -0.00000000000E+00  0.00000000000E+00  0.26939537995E+03  0.26939537995E+03  0.00000000000E+00 0.  1.
          1   -1    0    0  501    0  0.00000000000E+00 -0.00000000000E+00 -0.67556990429E+02  0.67556990429E+02  0.00000000000E+00 0. -1.
         25    2    1    2    0    0  0.57736783252E+02 -0.69211324882E+01  0.18331030590E+03  0.22941747862E+03  0.12509305749E+03 0.  0.
         23    2    1    2    0    0 -0.57736783252E+02  0.69211324882E+01  0.18528083624E+02  0.10753489176E+03  0.88538267703E+02 0.  0.
          5    1    3    3  502    0  0.82488783696E+02 -0.50806719874E+01  0.56658692188E+02  0.10028904459E+03  0.41800000000E+01 0.  1.
         -5    1    3    3    0  502 -0.24752000444E+02 -0.18404605008E+01  0.12665161371E+03  0.12912843403E+03  0.41800000000E+01 0.  1.
        -11    1    4    4    0    0 -0.20210711324E+02 -0.37655905636E+02  0.23990524895E+02  0.49010053726E+02  0.00000000000E+00 0.  1.
         11    1    4    4    0    0 -0.37526071928E+02  0.44577038124E+02 -0.54624412712E+01  0.58524838034E+02  0.00000000000E+00 0. -1.
</event>
<event>
 8    1  0.7005395E-009  0.1138541E+03  0.7561462E-02  0.1253595E+00
         -3   -1    0    0    0  501 -0.00000000000E+00  0.00000000000E+00  0.86058480306E+02  0.86058480306E+02  0.00000000000E+00 0.  1.
          3   -1    0    0  501    0  0.00000000000E+00 -0.00000000000E+00 -0.18940082807E+03  0.18940082807E+03  0.00000000000E+00 0. -1.
         25    2    1    2    0    0 -0.44328147461E+02 -0.27958106568E+02 -0.19961361358E+02  0.13708583077E+03  0.12508968251E+03 0.  0.
         23    2    1    2    0    0  0.44328147461E+02  0.27958106568E+02 -0.83380986408E+02  0.13837347761E+03  0.97201800558E+02 0.  0.
          5    1    3    3  502    0 -0.18556088266E+02  0.41129172536E+02 -0.40125533191E+02  0.60526589687E+02  0.41800000000E+01 0. -1.
         -5    1    3    3    0  502 -0.25772059195E+02 -0.69087279105E+02  0.20164171832E+02  0.76559241081E+02  0.41800000000E+01 0. -1.
        -11    1    4    4    0    0  0.51666888423E+02  0.57963274913E+02 -0.70595128504E+02  0.10494227350E+03  0.00000000000E+00 0. -1.
         11    1    4    4    0    0 -0.73387409627E+01 -0.30005168344E+02 -0.12785857903E+02  0.33431204116E+02  0.00000000000E+00 0.  1.
</event>
<event>
 8    1  0.7005395E-009  0.1261640E+03  0.7561462E-02  0.1233261E+00
          3   -1    0    0  501    0  0.00000000000E+00  0.00000000000E+00  0.13018834766E+02  0.13018834766E+02  0.00000000000E+00 0.  1.
         -3   -1    0    0    0  501 -0.00000000000E+00 -0.00000000000E+00 -0.12999892693E+04  0.12999892693E+04  0.00000000000E+00 0. -1.
         25    2    1    2    0    0 -0.17303465712E+01 -0.69916485988E+02 -0.79247994851E+03  0.80533535321E+03  0.12509697531E+03 0.  0.
         23    2    1    2    0    0  0.17303465712E+01  0.69916485988E+02 -0.49449048607E+03  0.50767275090E+03  0.91211140112E+02 0.  0.
          5    1    3    3  502    0  0.31233984211E+02  0.25921938030E+02 -0.18516138571E+03  0.18960411335E+03  0.41800000000E+01 0. -1.
         -5    1    3    3    0  502 -0.32964330782E+02 -0.95838424018E+02 -0.60731856280E+03  0.61573123986E+03  0.41800000000E+01 0. -1.
        -11    1    4    4    0    0  0.42519808031E+02  0.24620142746E+02 -0.29545683001E+03  0.29951431335E+03  0.00000000000E+00 0.  1.
         11    1    4    4    0    0 -0.40789461460E+02  0.45296343242E+02 -0.19903365606E+03  0.20815843754E+03  0.00000000000E+00 0. -1.
</event>
<event>
 8    1  0.7005395E-009  0.2665540E+03  0.7561462E-02  0.1103268E+00
          2   -1    0    0  501    0  0.00000000000E+00  0.00000000000E+00  0.93808575211E+03  0.93808575211E+03  0.00000000000E+00 0. -1.
         -2   -1    0    0    0  501 -0.00000000000E+00 -0.00000000000E+00 -0.81665854990E+02  0.81665854990E+02  0.00000000000E+00 0.  1.
         25    2    1    2    0    0  0.13329392458E+03  0.21194348126E+03  0.35856889492E+03  0.45486982439E+03  0.12509034799E+03 0.  0.
         23    2    1    2    0    0 -0.13329392458E+03 -0.21194348126E+03  0.49785100221E+03  0.56488178271E+03  0.92458090291E+02 0.  0.
          5    1    3    3  502    0  0.25870140534E+02 -0.99403423603E+01  0.14429301147E+02  0.31523827640E+02  0.41800000000E+01 0. -1.
         -5    1    3    3    0  502  0.10742378405E+03  0.22188382362E+03  0.34413959377E+03  0.42334599675E+03  0.41800000000E+01 0. -1.
        -11    1    4    4    0    0 -0.57487213908E+02 -0.14996619944E+03  0.37379578116E+03  0.40683894448E+03  0.00000000000E+00 0. -1.
         11    1    4    4    0    0 -0.75806710673E+02 -0.61977281826E+02  0.12405522105E+03  0.15804283823E+03  0.00000000000E+00 0.  1.
</event>
<event>
 8    1  0.7005395E-009  0.2109266E+03  0.7561462E-02  0.1140834E+00
          1   -1    0    0  501    0  0.00000000000E+00  0.00000000000E+00  0.53599749927E+03  0.53599749927E+03  0.00000000000E+00 0. -1.
         -1   -1    0    0    0  501 -0.00000000000E+00 -0.00000000000E+00 -0.10324178315E+03  0.10324178315E+03  0.00000000000E+00 0.  1.
         25    2    1    2    0    0  0.95839583366E+02 -0.16618800292E+03  0.33273451645E+03  0.40393547510E+03  0.12509169258E+03 0.  0.
         23    2    1    2    0    0 -0.95839583366E+02  0.16618800292E+03  0.10002119967E+03  0.23530380732E+03  0.92520069722E+02 0.  0.
          5    1    3    3  502    0 -0.93770472377E+01  0.15688607339E+02  0.23890370808E+02  0.30369123011E+02  0.41800000000E+01 0.  1.
         -5    1    3    3    0  502  0.10521663060E+03 -0.18187661026E+03  0.30884414564E+03  0.37356635209E+03  0.41800000000E+01 0.  1.
        -11    1    4    4    0    0 -0.52149703037E+02  0.11029056897E+03  0.12496683585E+02  0.12263673280E+03  0.00000000000E+00 0.  1.
         11    1    4    4    0    0 -0.43689880329E+02  0.55897433949E+02  0.87524516084E+02  0.11266707452E+03  0.00000000000E+00 0. -1.
</event>
<event>
 8    1  0.7005395E-009  0.1139257E+03  0.7561462E-02  0.1253468E+00
          2   -1    0    0  501    0  0.00000000000E+00  0.00000000000E+00  0.77796654642E+03  0.77796654642E+03  0.00000000000E+00 0.  1.
         -2   -1    0    0    0  501 -0.00000000000E+00 -0.00000000000E+00 -0.17531899410E+02  0.17531899410E+02  0.00000000000E+00 0. -1.
         25    2    1    2    0    0 -0.34291189399E+02  0.19593972880E+02  0.48855511410E+03  0.50585915160E+03  0.12509025662E+03 0.  0.
         23    2    1    2    0    0  0.34291189399E+02 -0.19593972880E+02  0.27187953291E+03  0.28963929423E+03  0.91720395240E+02 0.  0.
          5    1    3    3  502    0 -0.81112455995E+02  0.53102393111E+01  0.32850438785E+03  0.33843763738E+03  0.41800000000E+01 0. -1.
         -5    1    3    3    0  502  0.46821266596E+02  0.14283733569E+02  0.16005072624E+03  0.16742151421E+03  0.41800000000E+01 0. -1.
        -11    1    4    4    0    0  0.11702345865E+02  0.35715481126E+02  0.13814692825E+03  0.14316813289E+03  0.00000000000E+00 0.  1.
         11    1    4    4    0    0  0.22588843534E+02 -0.55309454006E+02  0.13373260467E+03  0.14647116134E+03  0.00000000000E+00 0. -1.
</event>
<event>
 8    1  0.7005395E-009  0.9423718E+02  0.7561462E-02  0.1292903E+00
         -1   -1    0    0    0  501 -0.00000000000E+00  0.00000000000E+00  0.36609213301E+03  0.36609213301E+03  0.00000000000E+00 0.  1.
          1   -1    0    0  501    0  0.00000000000E+00 -0.00000000000E+00 -0.45479553761E+02  0.45479553761E+02  0.00000000000E+00 0. -1.
         25    2    1    2    0    0  0.48477318294E+02  0.14319822227E+01  0.25985181413E+03  0.29244257842E+03  0.12509034896E+03 0.  0.
         23    2    1    2    0    0 -0.48477318294E+02 -0.14319822227E+01  0.60760765111E+02  0.11912910835E+03  0.90265014910E+02 0.  0.
          5    1    3    3  502    0  0.57640503520E+02  0.29053086629E+02  0.25445950644E+03  0.26255213255E+03  0.41800000000E+01 0. -1.
         -5    1    3    3    0  502 -0.91631852262E+01 -0.27621104407E+02  0.53923076963E+01  0.29890445872E+02  0.41800000000E+01 0. -1.
        -11    1    4    4    0    0 -0.86481717650E+01 -0.38814540969E+02  0.49258562976E+02  0.63306915041E+02  0.00000000000E+00 0. -1.
         11    1    4    4    0    0 -0.39829146529E+02  0.37382558746E+02  0.11502202135E+02  0.55822193307E+02  0.00000000000E+00 0.  1.
</event>
<event>
 8    1  0.7005395E-009  0.9911236E+02  0.7561462E-02  0.1282174E+00
         -1   -1    0    0    0  501 -0.00000000000E+00  0.00000000000E+00  0.33997726226E+02  0.33997726226E+02  0.00000000000E+00 0. -1.
          1   -1    0    0  501    0  0.00000000000E+00 -0.00000000000E+00 -0.40612325934E+03  0.40612325934E+03  0.00000000000E+00 0.  1.
         25    2    1    2    0    0 -0.24317306679E+02  0.24817400129E+02 -0.19118392281E+03  0.23109717850E+03  0.12508948323E+03 0.  0.
         23    2    1    2    0    0  0.24317306679E+02 -0.24817400129E+02 -0.18094161030E+03  0.20902380707E+03  0.98710945846E+02 0.  0.
          5    1    3    3  502    0 -0.46592300639E+01 -0.41715053090E+02 -0.20693511069E+02  0.46984549369E+02  0.41800000000E+01 0. -1.
         -5    1    3    3    0  502 -0.19658076615E+02  0.66532453219E+02 -0.17049041174E+03  0.18411262913E+03  0.41800000000E+01 0. -1.
        -11    1    4    4    0    0  0.48357159305E+02  0.45709787533E+01 -0.15651026522E+03  0.16387425613E+03  0.00000000000E+00 0.  1.
         11    1    4    4    0    0 -0.24039852625E+02 -0.29388378882E+02 -0.24431345082E+02  0.45149550940E+02  0.00000000000E+00 0. -1.
</event>
<event>
 8    1  0.7005395E-009  0.3632238E+03  0.7561462E-02  0.1057315E+00
          1   -1    0    0  501    0  0.00000000000E+00  0.00000000000E+00  0.20432454393E+04  0.20432454393E+04  0.00000000000E+00 0. -1.
         -1   -1    0    0    0  501 -0.00000000000E+00 -0.00000000000E+00 -0.70861474512E+02  0.70861474512E+02  0.00000000000E+00 0.  1.
         25    2    1    2    0    0 -0.11626688437E+03  0.32646023115E+03  0.13114254400E+04  0.13621964375E+04  0.12509268092E+03 0.  0.
         23    2    1    2    0    0  0.11626688437E+03 -0.32646023115E+03  0.66095852475E+03  0.75191047624E+03  0.91700174037E+02 0.  0.
          5    1    3    3  502    0 -0.11433056597E+03  0.13528607892E+03  0.62247101111E+03  0.64719505061E+03  0.41800000000E+01 0.  1.
         -5    1    3    3    0  502 -0.19363184043E+01  0.19117415223E+03  0.68895442889E+03  0.71500138692E+03  0.41800000000E+01 0.  1.
        -11    1    4    4    0    0  0.54984007222E+02 -0.26718112634E+03  0.51885912521E+03  0.58619432541E+03  0.00000000000E+00 0. -1.
         11    1    4    4    0    0  0.61282877149E+02 -0.59279104812E+02  0.14209939953E+03  0.16571615083E+03  0.00000000000E+00 0.  1.
</event>
<event>
 8    1  0.7005395E-009  0.9403593E+02  0.7561462E-02  0.1293362E+00
         -1   -1    0    0    0  501 -0.00000000000E+00  0.00000000000E+00  0.47086157109E+02  0.47086157109E+02  0.00000000000E+00 0.  1.
          1   -1    0    0  501    0  0.00000000000E+00 -0.00000000000E+00 -0.30364257883E+03  0.30364257883E+03  0.00000000000E+00 0. -1.
         25    2    1    2    0    0  0.31746543005E+01 -0.47717522725E+02 -0.15649779493E+03  0.20597415792E+03  0.12508698377E+03 0.  0.
         23    2    1    2    0    0 -0.31746543005E+01  0.47717522725E+02 -0.10005862679E+03  0.14475457802E+03  0.93032890191E+02 0.  0.
          5    1    3    3  502    0  0.52937511966E+02 -0.21578770360E+02 -0.24292143264E+02  0.62254350272E+02  0.41800000000E+01 0.  1.
         -5    1    3    3    0  502 -0.49762857665E+02 -0.26138752365E+02 -0.13220565166E+03  0.14371980764E+03  0.41800000000E+01 0.  1.
        -11    1    4    4    0    0 -0.30107817531E+02  0.24089875995E+02 -0.89630169216E-01  0.38559186136E+02  0.00000000000E+00 0.  1.
         11    1    4    4    0    0  0.26933163230E+02  0.23627646730E+02 -0.99968996621E+02  0.10619539188E+03  0.00000000000E+00 0. -1.
</event>
<event>
 8    1  0.7005395E-009  0.1085623E+03  0.7561462E-02  0.1263256E+00
          1   -1    0    0  501    0  0.00000000000E+00  0.00000000000E+00  0.68649444563E+03  0.68649444563E+03  0.00000000000E+00 0. -1.
         -1   -1    0    0    0  501 -0.00000000000E+00 -0.00000000000E+00 -0.39663802051E+02  0.39663802051E+02  0.00000000000E+00 0.  1.
         25    2    1    2    0    0 -0.82222368986E+02  0.28534614534E+02  0.51733848961E+03  0.53931794876E+03  0.12509993939E+03 0.  0.
         23    2    1    2    0    0  0.82222368986E+02 -0.28534614534E+02  0.12949215397E+03  0.18684029892E+03  0.10279269027E+03 0.  0.
          5    1    3    3  502    0 -0.61191678631E+02  0.58954390979E+02  0.17108050646E+03  0.19106557471E+03  0.41800000000E+01 0. -1.
         -5    1    3    3    0  502 -0.21030690355E+02 -0.30419776445E+02  0.34625798315E+03  0.34825237405E+03  0.41800000000E+01 0. -1.
        -11    1    4    4    0    0  0.14408461711E+02 -0.22544829017E+02  0.11389903565E+03  0.11699941627E+03  0.00000000000E+00 0. -1.
         11    1    4    4    0    0  0.67813907275E+02 -0.59897855167E+01  0.15593118311E+02  0.69840882648E+02  0.00000000000E+00 0.  1.
</event>
<event>
 8    1  0.7005395E-009  0.2542379E+03  0.7561462E-02  0.1110655E+00
          2   -1    0    0  501    0  0.00000000000E+00  0.00000000000E+00  0.13443033942E+04  0.13443033942E+04  0.00000000000E+00 0.  1.
         -2   -1    0    0    0  501 -0.00000000000E+00 -0.00000000000E+00 -0.15569199149E+03  0.15569199149E+03  0.00000000000E+00 0. -1.
         25    2    1    2    0    0  0.20494573826E+03  0.13531735580E+03 -0.68096755153E+01  0.27569093355E+03  0.12508227991E+03 0.  0.
         23    2    1    2    0    0 -0.20494573826E+03 -0.13531735580E+03  0.11954210782E+04  0.12243044521E+04  0.97858545224E+02 0.  0.
          5    1    3    3  502    0  0.19780498265E+03  0.14828721497E+03 -0.28725148179E+02  0.24891467579E+03  0.41800000000E+01 0.  1.
         -5    1    3    3    0  502  0.71407556083E+01 -0.12969859169E+02  0.21915472663E+02  0.26776257759E+02  0.41800000000E+01 0.  1.
        -11    1    4    4    0    0 -0.39536155756E+02 -0.20965676847E+02  0.87472559457E+02  0.98255360544E+02  0.00000000000E+00 0. -1.
         11    1    4    4    0    0 -0.16540958251E+03 -0.11435167895E+03  0.11079485188E+04  0.11260490916E+04  0.00000000000E+00 0.  1.
</event>
<event>
 8    1  0.7005395E-009  0.1078549E+03  0.7561462E-02  0.1264595E+00
         -1   -1    0    0    0  501 -0.00000000000E+00  0.00000000000E+00  0.63228307856E+03  0.63228307856E+03  0.00000000000E+00 0.  1.
          1   -1    0    0  501    0  0.00000000000E+00 -0.00000000000E+00 -0.20368794225E+02  0.20368794225E+02  0.00000000000E+00 0. -1.
         25    2    1    2    0    0 -0.10826194793E+02  0.29043201599E+02  0.29072593954E+03  0.31800859464E+03  0.12508868971E+03 0.  0.
         23    2    1    2    0    0  0.10826194793E+02 -0.29043201599E+02  0.32118834480E+03  0.33464327814E+03  0.88676133874E+02 0.  0.
          5    1    3    3  502    0 -0.58663993581E+02 -0.10544289408E+02  0.91437182255E+02  0.10922855341E+03  0.41800000000E+01 0.  1.
         -5    1    3    3    0  502  0.47837798787E+02  0.39587491007E+02  0.19928875728E+03  0.20878004123E+03  0.41800000000E+01 0.  1.
        -11    1    4    4    0    0  0.49702690980E+02 -0.11198217928E+02  0.18572656265E+03  0.19258793744E+03  0.00000000000E+00 0. -1.
         11    1    4    4    0    0 -0.38876496187E+02 -0.17844983671E+02  0.13546178215E+03  0.14205534070E+03  0.00000000000E+00 0.  1.
</event>
<event>
 8    1  0.7005395E-009  0.1007827E+03  0.7561462E-02  0.1278659E+00
         -4   -1    0    0    0  501 -0.00000000000E+00  0.00000000000E+00  0.88389417937E+02  0.88389417937E+02  0.00000000000E+00 0.  1.
          4   -1    0    0  501    0  0.00000000000E+00 -0.00000000000E+00 -0.21834676292E+03  0.21834676292E+03  0.00000000000E+00 0. -1.
         25    2    1    2    0    0  0.34524474399E+02 -0.19269134877E+02  0.13903074119E+02  0.13192434198E+03  0.12508995821E+03 0.  0.
         23    2    1    2    0    0 -0.34524474399E+02  0.19269134877E+02 -0.14386041910E+03  0.17481183888E+03  0.91104994024E+02 0.  0.
          5    1    3    3  502    0  0.57807504363E+01 -0.70223229810E+02 -0.37196261937E+01  0.70682579888E+02  0.41800000000E+01 0.  1.
         -5    1    3    3    0  502  0.28743723963E+02  0.50954094933E+02  0.17622700312E+02  0.61241762091E+02  0.41800000000E+01 0.  1.
        -11    1    4    4    0    0 -0.35108311741E+02  0.39066010511E+02 -0.32634920716E+02  0.61836759138E+02  0.00000000000E+00 0.  1.
         11    1    4    4    0    0  0.58383734183E+00 -0.19796875634E+02 -0.11122549839E+03  0.11297507974E+03  0.00000000000E+00 0. -1.
</event>
<event>
 8    1  0.7005395E-009  0.1146255E+03  0.7561462E-02  0.1252236E+00
         -1   -1    0    0    0  501 -0.00000000000E+00  0.00000000000E+00  0.12609999584E+03  0.12609999584E+03  0.00000000000E+00 0.  1.
          1   -1    0    0  501    0  0.00000000000E+00 -0.00000000000E+00 -0.19583603804E+03  0.19583603804E+03  0.00000000000E+00 0. -1.
         25    2    1    2    0    0 -0.54344817140E+02  0.85460489119E+02  0.84663580713E+01  0.16116787357E+03  0.12508616991E+03 0.  0.
         23    2    1    2    0    0  0.54344817140E+02 -0.85460489119E+02 -0.78202400274E+02  0.16076816031E+03  0.97334123564E+02 0.  0.
          5    1    3    3  502    0 -0.62848713904E+02  0.34788099293E+02  0.55897685082E+02  0.91116388698E+02  0.41800000000E+01 0.  1.
         -5    1    3    3    0  502  0.85038967641E+01  0.50672389826E+02 -0.47431327011E+02  0.70051484873E+02  0.41800000000E+01 0.  1.
        -11    1    4    4    0    0  0.47170698934E+02 -0.46885922212E+02 -0.96721327948E+02  0.11738134358E+03  0.00000000000E+00 0. -1.
         11    1    4    4    0    0  0.71741182059E+01 -0.38574566907E+02  0.18518927674E+02  0.43386816733E+02  0.00000000000E+00 0.  1.
</event>
<event>
 8    1  0.7005395E-009  0.2028714E+03  0.7561462E-02  0.1147339E+00
          1   -1    0    0  501    0  0.00000000000E+00  0.00000000000E+00  0.30290961448E+03  0.30290961448E+03  0.00000000000E+00 0. -1.
         -1   -1    0    0    0  501 -0.00000000000E+00 -0.00000000000E+00 -0.21388364412E+03  0.21388364412E+03  0.00000000000E+00 0.  1.
         25    2    1    2    0    0 -0.11590498264E+03  0.15602076998E+03  0.17141432989E+03  0.28776156387E+03  0.12508956584E+03 0.  0.
         23    2    1    2    0    0  0.11590498264E+03 -0.15602076998E+03 -0.82388359541E+02  0.22903169473E+03  0.88832593898E+02 0.  0.
          5    1    3    3  502    0 -0.59176940270E+02  0.32471215023E+02  0.12837504377E+03  0.14509967032E+03  0.41800000000E+01 0. -1.
         -5    1    3    3    0  502 -0.56728042368E+02  0.12354955495E+03  0.43039286127E+02  0.14266189355E+03  0.41800000000E+01 0. -1.
        -11    1    4    4    0    0 -0.56832823218E+01 -0.14178842078E+02  0.12273218214E+02  0.19595181703E+02  0.00000000000E+00 0. -1.
         11    1    4    4    0    0  0.12158826496E+03 -0.14184192790E+03 -0.94661577755E+02  0.20943651303E+03  0.00000000000E+00 0.  1.
</event>
<event>
 8    1  0.7005395E-009  0.9507698E+02  0.7561462E-02  0.1291003E+00
          4   -1    0    0  501    0  0.00000000000E+00  0.00000000000E+00  0.84201632457E+02  0.84201632457E+02  0.00000000000E+00 0. -1.
         -4   -1    0    0    0  501 -0.00000000000E+00 -0.00000000000E+00 -0.17982733841E+03  0.17982733841E+03  0.00000000000E+00 0.  1.
         25    2    1    2    0    0 -0.29532565854E+02 -0.46648560291E+02 -0.69924850105E+02  0.15358833697E+03  0.12510648252E+03 0.  0.
         23    2    1    2    0    0  0.29532565854E+02  0.46648560291E+02 -0.25700855846E+02  0.11044063389E+03  0.92132182214E+02 0.  0.
          5    1    3    3  502    0 -0.61121671069E+02  0.12283880346E+02 -0.91804571751E+01  0.63154616494E+02  0.41800000000E+01 0.  1.
         -5    1    3    3    0  502  0.31589105214E+02 -0.58932440636E+02 -0.60744392930E+02  0.90433720481E+02  0.41800000000E+01 0.  1.
        -11    1    4    4    0    0  0.87713124689E+01  0.36550102882E+02  0.31318028265E+02  0.48925094150E+02  0.00000000000E+00 0. -1.
         11    1    4    4    0    0  0.20761253385E+02  0.10098457408E+02 -0.57018884111E+02  0.61515539739E+02  0.00000000000E+00 0.  1.
</event>
<event>
 8    1  0.7005395E-009  0.1438086E+03  0.7561462E-02  0.1208294E+00
         -1   -1    0    0    0  501 -0.00000000000E+00  0.00000000000E+00  0.56063164164E+03  0.56063164164E+03  0.00000000000E+00 0.  1.
          1   -1    0    0  501    0  0.00000000000E+00 -0.00000000000E+00 -0.57323869350E+02  0.57323869350E+02  0.00000000000E+00 0. -1.
         25    2    1    2    0    0 -0.13728060617E+03  0.36204460430E+02  0.28143334478E+03  0.33912947698E+03  0.12508935532E+03 0.  0.
         23    2    1    2    0    0  0.13728060617E+03 -0.36204460430E+02  0.22187442750E+03  0.27882603401E+03  0.91427391273E+02 0.  0.
          5    1    3    3  502    0 -0.86893346221E+02  0.18351691648E+02  0.50910646937E+02  0.10245293834E+03  0.41800000000E+01 0.  1.
         -5    1    3    3    0  502 -0.50387259948E+02  0.17852768782E+02  0.23052269784E+03  0.23667653863E+03  0.41800000000E+01 0.  1.
        -11    1    4    4    0    0  0.11700316133E+03 -0.41477148335E+02  0.11271661034E+03  0.16767566264E+03  0.00000000000E+00 0. -1.
         11    1    4    4    0    0  0.20277444839E+02  0.52726879049E+01  0.10915781717E+03  0.11115037137E+03  0.00000000000E+00 0.  1.
</event>
<event>
 8    1  0.7005395E-009  0.1346164E+03  0.7561462E-02  0.1220762E+00
         -1   -1    0    0    0  501 -0.00000000000E+00  0.00000000000E+00  0.12232777143E+03  0.12232777143E+03  0.00000000000E+00 0.  1.
          1   -1    0    0  501    0  0.00000000000E+00 -0.00000000000E+00 -0.21739510437E+03  0.21739510437E+03  0.00000000000E+00 0. -1.
         25    2    1    2    0    0  0.11122376256E+03  0.47584920905E+02 -0.67789979318E+02  0.18675833915E+03  0.12509254931E+03 0.  0.
         23    2    1    2    0    0 -0.11122376256E+03 -0.47584920905E+02 -0.27277353622E+02  0.15296453665E+03  0.89549122814E+02 0.  0.
          5    1    3    3  502    0  0.21722982887E+02  0.31725987304E+02  0.33093309258E+02  0.50902512449E+02  0.41800000000E+01 0.  1.
         -5    1    3    3    0  502  0.89500779669E+02  0.15858933600E+02 -0.10088328858E+03  0.13585582671E+03  0.41800000000E+01 0.  1.
        -11    1    4    4    0    0 -0.11929226309E+03 -0.34479854092E+02 -0.29893602411E+01  0.12421127423E+03  0.00000000000E+00 0. -1.
         11    1    4    4    0    0  0.80685005364E+01 -0.13105066813E+02 -0.24287993380E+02  0.28753262415E+02  0.00000000000E+00 0.  1.
</event>
<event>
 8    1  0.7005395E-009  0.1106642E+03  0.7561462E-02  0.1259345E+00
         -1   -1    0    0    0  501 -0.00000000000E+00  0.00000000000E+00  0.19854325866E+03  0.19854325866E+03  0.00000000000E+00 0.  1.
          1   -1    0    0  501    0  0.00000000000E+00 -0.00000000000E+00 -0.89341158543E+02  0.89341158543E+02  0.00000000000E+00 0. -1.
         25    2    1    2    0    0  0.14870375999E+02 -0.42765362132E+02 -0.78779796549E+01  0.13326426361E+03  0.12508915665E+03 0.  0.
         23    2    1    2    0    0 -0.14870375999E+02  0.42765362132E+02  0.11708007977E+03  0.15462015359E+03  0.90275370597E+02 0.  0.
          5    1    3    3  502    0  0.68863915160E+02 -0.13298417433E+02  0.44094491745E+01  0.70398880384E+02  0.41800000000E+01 0. -1.
         -5    1    3    3    0  502 -0.53993539161E+02 -0.29466944699E+02 -0.12287428829E+02  0.62865383227E+02  0.41800000000E+01 0. -1.
        -11    1    4    4    0    0 -0.23325129241E+02 -0.17121199898E+02  0.76495370506E+02  0.81784710361E+02  0.00000000000E+00 0.  1.
         11    1    4    4    0    0  0.84547532426E+01  0.59886562030E+02  0.40584709263E+02  0.72835443227E+02  0.00000000000E+00 0. -1.
</event>
<event>
 8    1  0.7005395E-009  0.9347778E+02  0.7561462E-02  0.1294642E+00
          2   -1    0    0  501    0  0.00000000000E+00  0.00000000000E+00  0.80839311439E+02  0.80839311439E+02  0.00000000000E+00 0. -1.
         -2   -1    0    0    0  501 -0.00000000000E+00 -0.00000000000E+00 -0.17404111789E+03  0.17404111789E+03  0.00000000000E+00 0.  1.
         25    2    1    2    0    0 -0.31036023863E+02 -0.31613026119E+02 -0.32721389516E+02  0.13667321428E+03  0.12508501098E+03 0.  0.
         23    2    1    2    0    0  0.31036023863E+02  0.31613026119E+02 -0.60480416931E+02  0.11820721505E+03  0.91391720956E+02 0.  0.
          5    1    3    3  502    0  0.27766579905E+02 -0.54194407434E+02 -0.40227036791E+02  0.73100640529E+02  0.41800000000E+01 0.  1.
         -5    1    3    3    0  502 -0.58802603769E+02  0.22581381315E+02  0.75056472746E+01  0.63572573749E+02  0.41800000000E+01 0.  1.
        -11    1    4    4    0    0  0.42240078819E+02  0.29142192993E+02  0.51556802359E+01  0.51575892719E+02  0.00000000000E+00 0. -1.
         11    1    4    4    0    0 -0.11204054956E+02  0.24708331260E+01 -0.65636097167E+02  0.66631322328E+02  0.00000000000E+00 0.  1.
</event>
<event>
 8    1  0.7005395E-009  0.9974634E+02  0.7561462E-02  0.1280830E+00
          3   -1    0    0  501    0  0.00000000000E+00  0.00000000000E+00  0.61869062832E+02  0.61869062832E+02  0.00000000000E+00 0. -1.
         -3   -1    0    0    0  501 -0.00000000000E+00 -0.00000000000E+00 -0.23371605603E+03  0.23371605603E+03  0.00000000000E+00 0.  1.
         25    2    1    2    0    0 -0.13308597895E+02  0.28438973126E+02 -0.14718707771E+03  0.19569627111E+03  0.12508837160E+03 0.  0.
         23    2    1    2    0    0  0.13308597895E+02 -0.28438973126E+02 -0.24659915487E+02  0.99888847753E+02  0.91562964692E+02 0.  0.
          5    1    3    3  502    0  0.33464814110E+02  0.55564341748E+02 -0.42101130418E+02  0.77442026315E+02  0.41800000000E+01 0. -1.
         -5    1    3    3    0  502 -0.46773412005E+02 -0.27125368622E+02 -0.10508594730E+03  0.11825424480E+03  0.41800000000E+01 0. -1.
        -11    1    4    4    0    0  0.37918730045E+02  0.55264275292E+01  0.15950381658E+02  0.41506459310E+02  0.00000000000E+00 0. -1.
         11    1    4    4    0    0 -0.24610132149E+02 -0.33965400655E+02 -0.40610297145E+02  0.58382388443E+02  0.00000000000E+00 0.  1.
</event>
<event>
 8    1  0.7005395E-009  0.2034324E+03  0.7561462E-02  0.1146875E+00
          2   -1    0    0  501    0  0.00000000000E+00  0.00000000000E+00  0.13501464693E+04  0.13501464693E+04  0.00000000000E+00 0.  1.
         -2   -1    0    0    0  501 -0.00000000000E+00 -0.00000000000E+00 -0.39454684545E+02  0.39454684545E+02  0.00000000000E+00 0. -1.
         25    2    1    2    0    0 -0.58573313116E+02  0.19046811728E+03  0.79742413634E+03  0.83140936906E+03  0.12508936417E+03 0.  0.
         23    2    1    2    0    0  0.58573313116E+02 -0.19046811728E+03  0.51326764839E+03  0.55819178476E+03  0.91790266272E+02 0.  0.
          5    1    3    3  502    0 -0.66517235872E+02  0.16322090748E+03  0.45778927503E+03  0.49056508237E+03  0.41800000000E+01 0. -1.
         -5    1    3    3    0  502  0.79439227565E+01  0.27247209799E+02  0.33963486131E+03  0.34084428669E+03  0.41800000000E+01 0. -1.
        -11    1    4    4    0    0  0.28646381277E+02 -0.14237991156E+03  0.45197555684E+03  0.47473630402E+03  0.00000000000E+00 0.  1.
         11    1    4    4    0    0  0.29926931839E+02 -0.48088205723E+02  0.61292091548E+02  0.83455480738E+02  0.00000000000E+00 0. -1.
</event>
<event>
 8    1  0.7005395E-009  0.1243178E+03  0.7561462E-02  0.1236139E+00
         -1   -1    0    0    0  501 -0.00000000000E+00  0.00000000000E+00  0.14462797000E+03  0.14462797000E+03  0.00000000000E+00 0.  1.
          1   -1    0    0  501    0  0.00000000000E+00 -0.00000000000E+00 -0.13073113503E+03  0.13073113503E+03  0.00000000000E+00 0. -1.
         25    2    1    2    0    0 -0.61731770485E+02 -0.10029151886E+02 -0.48828940172E+02  0.14813483853E+03  0.12509304383E+03 0.  0.
         23    2    1    2    0    0  0.61731770485E+02  0.10029151886E+02  0.62725775134E+02  0.12722426650E+03  0.91324124664E+02 0.  0.
          5    1    3    3  502    0  0.33504374765E+02  0.18454940943E+02 -0.30017370128E+01  0.38595476402E+02  0.41800000000E+01 0.  1.
         -5    1    3    3    0  502 -0.95236145250E+02 -0.28484092828E+02 -0.45827203159E+02  0.10953936213E+03  0.41800000000E+01 0.  1.
        -11    1    4    4    0    0  0.17161121665E+02  0.48713251132E+02  0.30534527592E+02  0.59998685885E+02  0.00000000000E+00 0.  1.
         11    1    4    4    0    0  0.44570648820E+02 -0.38684099247E+02  0.32191247543E+02  0.67225580616E+02  0.00000000000E+00 0. -1.
</event>
<event>
 8    1  0.7005395E-009  0.2025221E+03  0.7561462E-02  0.1147628E+00
          2   -1    0    0  501    0  0.00000000000E+00  0.00000000000E+00  0.84519509049E+03  0.84519509049E+03  0.00000000000E+00 0. -1.
         -2   -1    0    0    0  501 -0.00000000000E+00 -0.00000000000E+00 -0.71572440685E+02  0.71572440685E+02  0.00000000000E+00 0.  1.
         25    2    1    2    0    0  0.15723503500E+03  0.75035630504E+02  0.14559838916E+03  0.25922898297E+03  0.12509025784E+03 0.  0.
         23    2    1    2    0    0 -0.15723503500E+03 -0.75035630504E+02  0.62802426064E+03  0.65753854821E+03  0.87116406896E+02 0.  0.
          5    1    3    3  502    0  0.15987914853E+03  0.22562244611E+02  0.11512879595E+03  0.19834946199E+03  0.41800000000E+01 0.  1.
         -5    1    3    3    0  502 -0.26441135297E+01  0.52473385893E+02  0.30469593214E+02  0.60879520974E+02  0.41800000000E+01 0.  1.
        -11    1    4    4    0    0 -0.70843806260E+02 -0.76702977064E+02  0.40818238635E+03  0.42132535183E+03  0.00000000000E+00 0. -1.
         11    1    4    4    0    0 -0.86391228737E+02  0.16673465599E+01  0.21984187429E+03  0.23621319637E+03  0.00000000000E+00 0.  1.
</event>
<event>
 8    1  0.7005395E-009  0.1367636E+03  0.7561462E-02  0.1217751E+00
         -3   -1    0    0    0  501 -0.00000000000E+00  0.00000000000E+00  0.79855327584E+02  0.79855327584E+02  0.00000000000E+00 0.  1.
          3   -1    0    0  501    0  0.00000000000E+00 -0.00000000000E+00 -0.32712452282E+03  0.32712452282E+03  0.00000000000E+00 0. -1.
         25    2    1    2    0    0  0.70516438304E+02  0.66350168759E+02 -0.22149924172E+03  0.27218561218E+03  0.12509268735E+03 0.  0.
         23    2    1    2    0    0 -0.70516438304E+02 -0.66350168759E+02 -0.25769953516E+02  0.13479423823E+03  0.90169192019E+02 0.  0.
          5    1    3    3  502    0 -0.33902164791E+02  0.29791240893E+02 -0.45233448643E+02  0.64034460157E+02  0.41800000000E+01 0. -1.
         -5    1    3    3    0  502  0.10441860309E+03  0.36558927867E+02 -0.17626579308E+03  0.20815115202E+03  0.41800000000E+01 0. -1.
        -11    1    4    4    0    0 -0.21288205507E+01 -0.46124904326E+02 -0.41137957073E+02  0.61841492448E+02  0.00000000000E+00 0. -1.
         11    1    4    4    0    0 -0.68387617754E+02 -0.20225264433E+02  0.15368003557E+02  0.72952745779E+02  0.00000000000E+00 0.  1.
</event>
<event>
 8    1  0.7005395E-009  0.1053116E+03  0.7561462E-02  0.1269507E+00
         -2   -1    0    0    0  501 -0.00000000000E+00  0.00000000000E+00  0.37017665008E+02  0.37017665008E+02  0.00000000000E+00 0.  1.
          2   -1    0    0  501    0  0.00000000000E+00 -0.00000000000E+00 -0.35077556551E+03  0.35077556551E+03  0.00000000000E+00 0. -1.
         25    2    1    2    0    0 -0.35436264911E+02 -0.24598324582E+02 -0.18779535970E+03  0.22972848723E+03  0.12508906538E+03 0.  0.
         23    2    1    2    0    0  0.35436264911E+02  0.24598324582E+02 -0.12596254080E+03  0.15806474328E+03  0.85188584577E+02 0.  0.
          5    1    3    3  502    0 -0.28610249016E+02 -0.66488802956E+02 -0.57214538220E+02  0.92359531457E+02  0.41800000000E+01 0.  1.
         -5    1    3    3    0  502 -0.68260158955E+01  0.41890478374E+02 -0.13058082148E+03  0.13736895578E+03  0.41800000000E+01 0.  1.
        -11    1    4    4    0    0  0.17261406963E+02 -0.31818476395E+02 -0.49193535266E+02  0.61076800197E+02  0.00000000000E+00 0.  1.
         11    1    4    4    0    0  0.18174857948E+02  0.56416800976E+02 -0.76769005530E+02  0.96987943086E+02  0.00000000000E+00 0. -1.
</event>
<event>
 8    1  0.7005395E-009  0.8123328E+02  0.7561462E-02  0.1325588E+00
          1   -1    0    0  501    0  0.00000000000E+00  0.00000000000E+00  0.12055885346E+03  0.12055885346E+03  0.00000000000E+00 0. -1.
         -1   -1    0    0    0  501 -0.00000000000E+00 -0.00000000000E+00 -0.11027083163E+03  0.11027083163E+03  0.00000000000E+00 0.  1.
         25    2    1    2    0    0 -0.24814347744E+02  0.12201503261E+01 -0.16296188882E+02  0.12857057772E+03  0.12509031563E+03 0.  0.
         23    2    1    2    0    0  0.24814347744E+02 -0.12201503261E+01  0.26584210712E+02  0.10225910736E+03  0.95566543095E+02 0.  0.
          5    1    3    3  502    0 -0.18915082611E+02  0.36412116687E+02  0.42782256989E+02  0.59425722586E+02  0.41800000000E+01 0.  1.
         -5    1    3    3    0  502 -0.58992651332E+01 -0.35191966361E+02 -0.59078445871E+02  0.69144855138E+02  0.41800000000E+01 0.  1.
        -11    1    4    4    0    0 -0.56633562603E+01  0.36423069057E+02 -0.13636150081E+02  0.39302139289E+02  0.00000000000E+00 0.  1.
         11    1    4    4    0    0  0.30477704004E+02 -0.37643219384E+02  0.40220360793E+02  0.62956968076E+02  0.00000000000E+00 0. -1.
</event>
<event>
 8    1  0.7005395E-009  0.2617834E+03  0.7561462E-02  0.1106076E+00
         -2   -1    0    0    0  501 -0.00000000000E+00  0.00000000000E+00  0.20994450362E+03  0.20994450362E+03  0.00000000000E+00 0.  1.
          2   -1    0    0  501    0  0.00000000000E+00 -0.00000000000E+00 -0.42286716710E+03  0.42286716710E+03  0.00000000000E+00 0. -1.
         25    2    1    2    0    0  0.87506278482E+02  0.23804483627E+03 -0.22809738721E+03  0.36331619438E+03  0.12509015228E+03 0.  0.
         23    2    1    2    0    0 -0.87506278482E+02 -0.23804483627E+03  0.15174723725E+02  0.26949547634E+03  0.89860150659E+02 0.  0.
          5    1    3    3  502    0  0.63872621603E+01  0.53158940898E+02 -0.12613761415E+03  0.13709427493E+03  0.41800000000E+01 0. -1.
         -5    1    3    3    0  502  0.81119016321E+02  0.18488589537E+03 -0.10195977306E+03  0.22622191945E+03  0.41800000000E+01 0. -1.
        -11    1    4    4    0    0  0.36364585814E+01 -0.11365635439E+03 -0.58387507985E+01  0.11386431283E+03  0.00000000000E+00 0. -1.
         11    1    4    4    0    0 -0.91142737063E+02 -0.12438848188E+03  0.21013474524E+02  0.15563116351E+03  0.00000000000E+00 0.  1.
</event>
<event>
 8    1  0.7005395E-009  0.2807644E+03  0.7561462E-02  0.1095272E+00
         -2   -1    0    0    0  501 -0.00000000000E+00  0.00000000000E+00  0.59409415176E+02  0.59409415176E+02  0.00000000000E+00 0. -1.
          2   -1    0    0  501    0  0.00000000000E+00 -0.00000000000E+00 -0.15198551544E+04  0.15198551544E+04  0.00000000000E+00 0.  1.
         25    2    1    2    0    0  0.23853501490E+03 -0.12847439937E+03 -0.92892347977E+03  0.97567974234E+03  0.12508998250E+03 0.  0.
         23    2    1    2    0    0 -0.23853501490E+03  0.12847439937E+03 -0.53152225945E+03  0.60358482723E+03  0.91619357898E+02 0.  0.
          5    1    3    3  502    0  0.11498696942E+03 -0.10804468256E+02 -0.24663274606E+03  0.27236725850E+03  0.41800000000E+01 0.  1.
         -5    1    3    3    0  502  0.12354804549E+03 -0.11766993111E+03 -0.68229073370E+03  0.70331248384E+03  0.41800000000E+01 0.  1.
        -11    1    4    4    0    0 -0.14636413448E+03  0.51353781300E+02 -0.37822021779E+03  0.40879114944E+03  0.00000000000E+00 0.  1.
         11    1    4    4    0    0 -0.92170880423E+02  0.77120618069E+02 -0.15330204167E+03  0.19479367779E+03  0.00000000000E+00 0. -1.
</event>
<event>
 8    1  0.7005395E-009  0.2700211E+03  0.7561462E-02  0.1101268E+00
         -2   -1    0    0    0  501 -0.00000000000E+00  0.00000000000E+00  0.13193694152E+03  0.13193694152E+03  0.00000000000E+00 0.  1.
          2   -1    0    0  501    0  0.00000000000E+00 -0.00000000000E+00 -0.73261680587E+03  0.73261680587E+03  0.00000000000E+00 0. -1.
         25    2    1    2    0    0 -0.13775871465E+03 -0.22311969596E+03 -0.13125324677E+03  0.31880240716E+03  0.12509075839E+03 0.  0.
         23    2    1    2    0    0  0.13775871465E+03  0.22311969596E+03 -0.46942661758E+03  0.54575134024E+03  0.93398682488E+02 0.  0.
          5    1    3    3  502    0 -0.11994296337E+02 -0.61932077266E+02 -0.90334634349E+02  0.11025998323E+03  0.41800000000E+01 0.  1.
         -5    1    3    3    0  502 -0.12576441831E+03 -0.16118761870E+03 -0.40918612417E+02  0.20854242392E+03  0.41800000000E+01 0.  1.
        -11    1    4    4    0    0 -0.73890394087E+01  0.29126070897E+02 -0.96167414179E+02  0.10075265485E+03  0.00000000000E+00 0.  1.
         11    1    4    4    0    0  0.14514775406E+03  0.19399362507E+03 -0.37325920340E+03  0.44499868539E+03  0.00000000000E+00 0. -1.
</event>
<event>
 8    1  0.7005395E-009  0.1396730E+03  0.7561462E-02  0.1213770E+00
         -1   -1    0    0    0  501 -0.00000000000E+00  0.00000000000E+00  0.74000475427E+02  0.74000475427E+02  0.00000000000E+00 0.  1.
          1   -1    0    0  501    0  0.00000000000E+00 -0.00000000000E+00 -0.33169857612E+03  0.33169857612E+03  0.00000000000E+00 0. -1.
         25    2    1    2    0    0 -0.90438391229E+02  0.22933084986E+02 -0.22038278183E+03  0.27003916936E+03  0.12509018134E+03 0.  0.
         23    2    1    2    0    0  0.90438391229E+02 -0.22933084986E+02 -0.37315318866E+02  0.13565988219E+03  0.91138036064E+02 0.  0.
          5    1    3    3  502    0 -0.11290539734E+03 -0.53862945463E+01 -0.19580234798E+03  0.22612534752E+03  0.41800000000E+01 0.  1.
         -5    1    3    3    0  502  0.22467006108E+02  0.28319379532E+02 -0.24580433847E+02  0.43913821841E+02  0.41800000000E+01 0.  1.
        -11    1    4    4    0    0  0.98651586644E+02  0.69090944137E+01 -0.33796498181E+02  0.10450872893E+03  0.00000000000E+00 0.  1.
         11    1    4    4    0    0 -0.82131954149E+01 -0.29842179400E+02 -0.35188206847E+01  0.31151153257E+02  0.00000000000E+00 0. -1.
</event>
<event>
 8    1  0.7005395E-009  0.1033139E+03  0.7561462E-02  0.1273478E+00
          2   -1    0    0  501    0  0.00000000000E+00  0.00000000000E+00  0.39214746074E+03  0.39214746074E+03  0.00000000000E+00 0. -1.
         -2   -1    0    0    0  501 -0.00000000000E+00 -0.00000000000E+00 -0.31243039194E+02  0.31243039194E+02  0.00000000000E+00 0.  1.
         25    2    1    2    0    0  0.17309975722E+02 -0.15864033637E+02  0.18592490547E+03  0.22531406209E+03  0.12508818202E+03 0.  0.
         23    2    1    2    0    0 -0.17309975722E+02  0.15864033637E+02  0.17497951608E+03  0.19807643784E+03  0.89806132074E+02 0.  0.
          5    1    3    3  502    0 -0.30431841089E+02  0.41521573656E+02  0.63346148662E+02  0.81733377400E+02  0.41800000000E+01 0.  1.
         -5    1    3    3    0  502  0.47741816811E+02 -0.57385607293E+02  0.12257875680E+03  0.14358068469E+03  0.41800000000E+01 0.  1.
        -11    1    4    4    0    0  0.28028867094E+02  0.20373270723E+02  0.12809843910E+03  0.13270228954E+03  0.00000000000E+00 0.  1.
         11    1    4    4    0    0 -0.45338842816E+02 -0.45092370867E+01  0.46881076985E+02  0.65374148303E+02  0.00000000000E+00 0. -1.
</event>
<event>
 8    1  0.7005395E-009  0.1483492E+03  0.7561462E-02  0.1202516E+00
          3   -1    0    0  501    0  0.00000000000E+00  0.00000000000E+00  0.19194385058E+02  0.19194385058E+02  0.00000000000E+00 0. -1.
         -3   -1    0    0    0  501 -0.00000000000E+00 -0.00000000000E+00 -0.14143642221E+04  0.14143642221E+04  0.00000000000E+00 0.  1.
         25    2    1    2    0    0 -0.10464294151E+03 -0.41185643706E+02 -0.97079898853E+03  0.98526258994E+03  0.12508114386E+03 0.  0.
         23    2    1    2    0    0  0.10464294151E+03  0.41185643706E+02 -0.42437084853E+03  0.44829601724E+03  0.90732020431E+02 0.  0.
          5    1    3    3  502    0  0.24034255281E+02 -0.14373043343E+02 -0.32369625251E+03  0.32493224846E+03  0.41800000000E+01 0.  1.
         -5    1    3    3    0  502 -0.12867719679E+03 -0.26812600363E+02 -0.64710273603E+03  0.66033034148E+03  0.41800000000E+01 0.  1.
        -11    1    4    4    0    0  0.53507059510E+02 -0.20011846755E+02 -0.25165049141E+03  0.25805319074E+03  0.00000000000E+00 0. -1.
         11    1    4    4    0    0  0.51135882001E+02  0.61197490461E+02 -0.17272035713E+03  0.19024282650E+03  0.00000000000E+00 0.  1.
</event>
<event>
 8    1  0.7005395E-009  0.1980861E+03  0.7561462E-02  0.1151364E+00
         -1   -1    0    0    0  501 -0.00000000000E+00  0.00000000000E+00  0.74540987065E+02  0.74540987065E+02  0.00000000000E+00 0.  1.
          1   -1    0    0  501    0  0.00000000000E+00 -0.00000000000E+00 -0.63744960091E+03  0.63744960091E+03  0.00000000000E+00 0. -1.
         25    2    1    2    0    0  0.18427761696E+03  0.19476164567E+02 -0.35950505766E+03  0.42335390320E+03  0.12508828792E+03 0.  0.
         23    2    1    2    0    0 -0.18427761696E+03 -0.19476164567E+02 -0.20340355619E+03  0.28863668477E+03  0.87181236677E+02 0.  0.
          5    1    3    3  502    0  0.22997164195E+02 -0.15459751267E+02 -0.16887711315E+03  0.17118652171E+03  0.41800000000E+01 0.  1.
         -5    1    3    3    0  502  0.16128045277E+03  0.34935915834E+02 -0.19062794451E+03  0.25216738149E+03  0.41800000000E+01 0.  1.
        -11    1    4    4    0    0 -0.44215419219E+02  0.31212352371E+02 -0.38488421025E+02  0.66412143395E+02  0.00000000000E+00 0.  1.
         11    1    4    4    0    0 -0.14006219774E+03 -0.50688516938E+02 -0.16491513516E+03  0.22222454138E+03  0.00000000000E+00 0. -1.
</event>
<event>
 8    1  0.7005395E-009  0.1311010E+03  0.7561462E-02  0.1225831E+00
         -1   -1    0    0    0  501 -0.00000000000E+00  0.00000000000E+00  0.10187318705E+03  0.10187318705E+03  0.00000000000E+00 0.  1.
          1   -1    0    0  501    0  0.00000000000E+00 -0.00000000000E+00 -0.27957179785E+03  0.27957179785E+03  0.00000000000E+00 0. -1.
         25    2    1    2    0    0  0.98635586832E+02 -0.52318243282E+02 -0.16589871384E+03  0.23587161709E+03  0.12508740513E+03 0.  0.
         23    2    1    2    0    0 -0.98635586832E+02  0.52318243282E+02 -0.11799896963E+02  0.14557336781E+03  0.92661698008E+02 0.  0.
          5    1    3    3  502    0  0.10332618689E+03 -0.14043970184E+02 -0.54127512816E+02  0.11756187324E+03  0.41800000000E+01 0. -1.
         -5    1    3    3    0  502 -0.46906000580E+01 -0.38274273098E+02 -0.11177120103E+03  0.11830974385E+03  0.41800000000E+01 0. -1.
        -11    1    4    4    0    0 -0.57352114357E+02  0.70409784787E+01  0.35808691273E+02  0.67978693500E+02  0.00000000000E+00 0.  1.
         11    1    4    4    0    0 -0.41283472475E+02  0.45277264804E+02 -0.47608588236E+02  0.77594674311E+02  0.00000000000E+00 0. -1.
</event>
<event>
 8    1  0.7005395E-009  0.1022290E+03  0.7561462E-02  0.1275677E+00
         -1   -1    0    0    0  501 -0.00000000000E+00  0.00000000000E+00  0.67504184219E+02  0.67504184219E+02  0.00000000000E+00 0.  1.
          1   -1    0    0  501    0  0.00000000000E+00 -0.00000000000E+00 -0.21596749316E+03  0.21596749316E+03  0.00000000000E+00 0. -1.
         25    2    1    2    0    0  0.85934716839E+01  0.50034010116E+02 -0.10283750680E+03  0.16970639711E+03  0.12508980171E+03 0.  0.
         23    2    1    2    0    0 -0.85934716839E+01 -0.50034010116E+02 -0.45625802133E+02  0.11376528026E+03  0.91014148620E+02 0.  0.
          5    1    3    3  502    0  0.52943697273E+02  0.43786096633E+02 -0.10399301578E+03  0.12470876902E+03  0.41800000000E+01 0.  1.
         -5    1    3    3    0  502 -0.44350225589E+02  0.62479134830E+01  0.11555089797E+01  0.44997628090E+02  0.41800000000E+01 0.  1.
        -11    1    4    4    0    0 -0.20975766215E+02  0.14133278120E+02  0.10726149976E+02  0.27473307264E+02  0.00000000000E+00 0.  1.
         11    1    4    4    0    0  0.12382294532E+02 -0.64167288236E+02 -0.56351952109E+02  0.86291972998E+02  0.00000000000E+00 0. -1.
</event>
<event>
 8    1  0.7005395E-009  0.1405651E+03  0.7561462E-02  0.1212571E+00
         -1   -1    0    0    0  501 -0.00000000000E+00  0.00000000000E+00  0.76726873559E+02  0.76726873559E+02  0.00000000000E+00 0.  1.
          1   -1    0    0  501    0  0.00000000000E+00 -0.00000000000E+00 -0.41178176036E+03  0.41178176036E+03  0.00000000000E+00 0. -1.
         25    2    1    2    0    0 -0.10975884628E+03  0.30867424061E+02 -0.64866105160E+02  0.18125752806E+03  0.12508748009E+03 0.  0.
         23    2    1    2    0    0  0.10975884628E+03 -0.30867424061E+02 -0.27018878164E+03  0.30725110586E+03  0.91659490071E+02 0.  0.
          5    1    3    3  502    0 -0.96959839699E+02  0.57569621694E+02 -0.88285818706E+02  0.14327361949E+03  0.41800000000E+01 0.  1.
         -5    1    3    3    0  502 -0.12799006584E+02 -0.26702197633E+02  0.23419713546E+02  0.37983908574E+02  0.41800000000E+01 0.  1.
        -11    1    4    4    0    0  0.48939513956E+02 -0.54398025166E+02 -0.92300397756E+02  0.11778618168E+03  0.00000000000E+00 0.  1.
         11    1    4    4    0    0  0.60819332327E+02  0.23530601105E+02 -0.17788838389E+03  0.18946492418E+03  0.00000000000E+00 0. -1.
</event>
<event>
 8    1  0.7005395E-009  0.1711385E+03  0.7561462E-02  0.1176666E+00
          1   -1    0    0  501    0  0.00000000000E+00  0.00000000000E+00  0.75744550400E+03  0.75744550400E+03  0.00000000000E+00 0. -1.
         -1   -1    0    0    0  501 -0.00000000000E+00 -0.00000000000E+00 -0.43965843796E+02  0.43965843796E+02  0.00000000000E+00 0.  1.
         25    2    1    2    0    0  0.13995014095E+03 -0.50039149214E+02  0.37119476010E+03  0.41895310270E+03  0.12508474698E+03 0.  0.
         23    2    1    2    0    0 -0.13995014095E+03  0.50039149214E+02  0.34228490010E+03  0.38245824510E+03  0.83817647316E+02 0.  0.
          5    1    3    3  502    0  0.33971070273E+01 -0.55624898468E+02  0.84297361901E+02  0.10113944477E+03  0.41800000000E+01 0. -1.
         -5    1    3    3    0  502  0.13655303392E+03  0.55857492543E+01  0.28689739820E+03  0.31781365792E+03  0.41800000000E+01 0. -1.
        -11    1    4    4    0    0 -0.87729129635E+02  0.22252410690E+02  0.28901134452E+03  0.30285165878E+03  0.00000000000E+00 0. -1.
         11    1    4    4    0    0 -0.52221011312E+02  0.27786738524E+02  0.53273555583E+02  0.79606586315E+02  0.00000000000E+00 0.  1.
</event>
<event>
 8    1  0.7005395E-009  0.2408132E+03  0.7561462E-02  0.1119252E+00
          1   -1    0    0  501    0  0.00000000000E+00  0.00000000000E+00  0.75302944042E+03  0.75302944042E+03  0.00000000000E+00 0. -1.
         -1   -1    0    0    0  501 -0.00000000000E+00 -0.00000000000E+00 -0.83981656908E+02  0.83981656908E+02  0.00000000000E+00 0.  1.
         25    2    1    2    0    0  0.16663555991E+03 -0.15282046936E+03  0.32788519875E+03  0.41746562092E+03  0.12508930973E+03 0.  0.
         23    2    1    2    0    0 -0.16663555991E+03  0.15282046936E+03  0.34116258477E+03  0.41954547641E+03  0.92222512720E+02 0.  0.
          5    1    3    3  502    0 -0.84863020737E+01 -0.50494329554E+02  0.99571600852E+02  0.11204316461E+03  0.41800000000E+01 0.  1.
         -5    1    3    3    0  502  0.17512186198E+03 -0.10232613981E+03  0.22831359790E+03  0.30542245631E+03  0.41800000000E+01 0.  1.
        -11    1    4    4    0    0 -0.10735858441E+03  0.82389487339E+02  0.12347545701E+03  0.18319410950E+03  0.00000000000E+00 0. -1.
         11    1    4    4    0    0 -0.59276975498E+02  0.70430982021E+02  0.21768712775E+03  0.23635136691E+03  0.00000000000E+00 0.  1.
</event>
<event>
 8    1  0.7005395E-009  0.9537006E+02  0.7561462E-02  0.1290345E+00
         -2   -1    0    0    0  501 -0.00000000000E+00  0.00000000000E+00  0.24168349399E+02  0.24168349399E+02  0.00000000000E+00 0.  1.
          2   -1    0    0  501    0  0.00000000000E+00 -0.00000000000E+00 -0.72458758158E+03  0.72458758158E+03  0.00000000000E+00 0. -1.
         25    2    1    2    0    0 -0.20752199994E+01  0.51288726514E+02 -0.54463750664E+03  0.56117083557E+03  0.12509137878E+03 0.  0.
         23    2    1    2    0    0  0.20752199994E+01 -0.51288726514E+02 -0.15578172554E+03  0.18758509541E+03  0.91024073754E+02 0.  0.
          5    1    3    3  502    0  0.50576183507E+02  0.59132922402E+02 -0.38603201448E+03  0.39381828482E+03  0.41800000000E+01 0.  1.
         -5    1    3    3    0  502 -0.52651403506E+02 -0.78441958881E+01 -0.15860549216E+03  0.16735255075E+03  0.41800000000E+01 0.  1.
        -11    1    4    4    0    0  0.14524409264E+02 -0.14260216048E+02  0.59466416723E+01  0.21205536385E+02  0.00000000000E+00 0.  1.
         11    1    4    4    0    0 -0.12449189265E+02 -0.37028510466E+02 -0.16172836721E+03  0.16637955902E+03  0.00000000000E+00 0. -1.
</event>
<event>
 8    1  0.7005395E-009  0.1004524E+03  0.7561462E-02  0.1279347E+00
         -1   -1    0    0    0  501 -0.00000000000E+00  0.00000000000E+00  0.55515407416E+02  0.55515407416E+02  0.00000000000E+00 0.  1.
          1   -1    0    0  501    0  0.00000000000E+00 -0.00000000000E+00 -0.27369992938E+03  0.27369992938E+03  0.00000000000E+00 0. -1.
         25    2    1    2    0    0 -0.79190117680E+01 -0.21384825074E+02 -0.20390571611E+03  0.24030342231E+03  0.12509265453E+03 0.  0.
         23    2    1    2    0    0  0.79190117680E+01  0.21384825074E+02 -0.14278805850E+02  0.88911914488E+02  0.84743275548E+02 0.  0.
          5    1    3    3  502    0  0.25496456378E+02  0.40196135625E+02 -0.12941739672E+03  0.13795699903E+03  0.41800000000E+01 0.  1.
         -5    1    3    3    0  502 -0.33415468146E+02 -0.61580960698E+02 -0.74488319389E+02  0.10234642328E+03  0.41800000000E+01 0.  1.
        -11    1    4    4    0    0  0.31372031009E+02 -0.18677789135E+02  0.80660790259E+01  0.37391519994E+02  0.00000000000E+00 0.  1.
         11    1    4    4    0    0 -0.23453019241E+02  0.40062614208E+02 -0.22344884876E+02  0.51520394494E+02  0.00000000000E+00 0. -1.
</event>
<event>
 8    1  0.7005395E-009  0.9670199E+02  0.7561462E-02  0.1287388E+00
          3   -1    0    0  501    0  0.00000000000E+00  0.00000000000E+00  0.23965533951E+03  0.23965533951E+03  0.00000000000E+00 0. -1.
         -3   -1    0    0    0  501 -0.00000000000E+00 -0.00000000000E+00 -0.52580779269E+02  0.52580779269E+02  0.00000000000E+00 0.  1.
         25    2    1    2    0    0  0.15201576306E+02 -0.25515212024E+02  0.10201765681E+03  0.16412534753E+03  0.12508962160E+03 0.  0.
         23    2    1    2    0    0 -0.15201576306E+02  0.25515212024E+02  0.85056903432E+02  0.12811077125E+03  0.91080068746E+02 0.  0.
          5    1    3    3  502    0  0.24873976913E+02  0.34874637881E+02 -0.23302151163E+01  0.43102869943E+02  0.41800000000E+01 0.  1.
         -5    1    3    3    0  502 -0.96724006063E+01 -0.60389849906E+02  0.10434787193E+03  0.12102247758E+03  0.41800000000E+01 0.  1.
        -11    1    4    4    0    0  0.20635829021E+02  0.44102136732E+02  0.22452756788E+02  0.53618673903E+02  0.00000000000E+00 0.  1.
         11    1    4    4    0    0 -0.35837405327E+02 -0.18586924708E+02  0.62604146644E+02  0.74492097350E+02  0.00000000000E+00 0. -1.
</event>
<event>
 8    1  0.7005395E-009  0.1190194E+03  0.7561462E-02  0.1244724E+00
         -1   -1    0    0    0  501 -0.00000000000E+00  0.00000000000E+00  0.22314326003E+03  0.22314326003E+03  0.00000000000E+00 0.  1.
          1   -1    0    0  501    0  0.00000000000E+00 -0.00000000000E+00 -0.76160427987E+02  0.76160427987E+02  0.00000000000E+00 0. -1.
         25    2    1    2    0    0  0.58679475124E+02  0.31677047469E+02  0.84165564858E+02  0.16485699664E+03  0.12508905186E+03 0.  0.
         23    2    1    2    0    0 -0.58679475124E+02 -0.31677047469E+02  0.62817267182E+02  0.13444669138E+03  0.98403189122E+02 0.  0.
          5    1    3    3  502    0  0.91431502195E+02  0.49087627737E+02  0.68258614176E+02  0.12428204054E+03  0.41800000000E+01 0.  1.
         -5    1    3    3    0  502 -0.32752027071E+02 -0.17410580267E+02  0.15906950682E+02  0.40574956100E+02  0.41800000000E+01 0.  1.
        -11    1    4    4    0    0  0.11377126037E+02 -0.23768258498E+02 -0.14282412583E+02  0.29972594450E+02  0.00000000000E+00 0. -1.
         11    1    4    4    0    0 -0.70056601161E+02 -0.79087889715E+01  0.77099679766E+02  0.10447409693E+03  0.00000000000E+00 0.  1.
</event>
<event>
 8    1  0.7005395E-009  0.9056003E+02  0.7561462E-02  0.1301501E+00
          2   -1    0    0  501    0  0.00000000000E+00  0.00000000000E+00  0.81209442723E+02  0.81209442723E+02  0.00000000000E+00 0. -1.
         -2   -1    0    0    0  501 -0.00000000000E+00 -0.00000000000E+00 -0.20922874376E+03  0.20922874376E+03  0.00000000000E+00 0.  1.
         25    2    1    2    0    0 -0.40087087876E+00  0.16816895526E+01  0.97063318929E+01  0.12547933134E+03  0.12509141033E+03 0.  0.
         23    2    1    2    0    0  0.40087087876E+00 -0.16816895526E+01 -0.13772563293E+03  0.16495885514E+03  0.90774914738E+02 0.  0.
          5    1    3    3  502    0 -0.61514232070E+02 -0.74618778427E+01  0.13019503407E+02  0.63455970854E+02  0.41800000000E+01 0. -1.
         -5    1    3    3    0  502  0.61113361191E+02  0.91435673952E+01 -0.33131715142E+01  0.62023360488E+02  0.41800000000E+01 0. -1.
        -11    1    4    4    0    0  0.27870738344E+02 -0.77890177464E+01 -0.13338178421E+03  0.13648497065E+03  0.00000000000E+00 0.  1.
         11    1    4    4    0    0 -0.27469867466E+02  0.61073281939E+01 -0.43438487159E+01  0.28473884489E+02  0.00000000000E+00 0. -1.
</event>
<event>
 8    1  0.7005395E-009  0.7644236E+02  0.7561462E-02  0.1339462E+00
          2   -1    0    0  501    0  0.00000000000E+00  0.00000000000E+00  0.33619941565E+02  0.33619941565E+02  0.00000000000E+00 0. -1.
         -2   -1    0    0    0  501 -0.00000000000E+00 -0.00000000000E+00 -0.41441401538E+03  0.41441401538E+03  0.00000000000E+00 0.  1.
         25    2    1    2    0    0 -0.42981880361E+02 -0.47645767597E+01 -0.18043502784E+03  0.22377326509E+03  0.12509009420E+03 0.  0.
         23    2    1    2    0    0  0.42981880361E+02  0.47645767597E+01 -0.20035904598E+03  0.22426069186E+03  0.90988831055E+02 0.  0.
          5    1    3    3  502    0  0.11422967367E+02 -0.21725005311E+02  0.85603510807E+01  0.26328920408E+02  0.41800000000E+01 0.  1.
         -5    1    3    3    0  502 -0.54404847727E+02  0.16960428551E+02 -0.18899537892E+03  0.19744434468E+03  0.41800000000E+01 0.  1.
        -11    1    4    4    0    0 -0.13703095710E+02 -0.16375661811E+01  0.20631530881E+01  0.13953962007E+02  0.00000000000E+00 0. -1.
         11    1    4    4    0    0  0.56684976070E+02  0.64021429408E+01 -0.20242219906E+03  0.21030672985E+03  0.00000000000E+00 0.  1.
</event>
<event>
 8    1  0.7005395E-009  0.1353112E+03  0.7561462E-02  0.1219781E+00
          2   -1    0    0  501    0  0.00000000000E+00  0.00000000000E+00  0.34269299868E+02  0.34269299868E+02  0.00000000000E+00 0. -1.
         -2   -1    0    0    0  501 -0.00000000000E+00 -0.00000000000E+00 -0.59126358954E+03  0.59126358954E+03  0.00000000000E+00 0.  1.
         25    2    1    2    0    0  0.22884387350E+02  0.77229692206E+02 -0.38585302980E+03  0.41354358678E+03  0.12509043535E+03 0.  0.
         23    2    1    2    0    0 -0.22884387350E+02 -0.77229692206E+02 -0.17114125986E+03  0.21198930262E+03  0.95718405002E+02 0.  0.
          5    1    3    3  502    0  0.67206504713E+02  0.10433879994E+02 -0.19173567197E+03  0.20348371049E+03  0.41800000000E+01 0. -1.
         -5    1    3    3    0  502 -0.44322117363E+02  0.66795812212E+02 -0.19411735783E+03  0.21005987629E+03  0.41800000000E+01 0. -1.
        -11    1    4    4    0    0 -0.14398527354E+02  0.19981912786E+02 -0.18421577020E+02  0.30756282748E+02  0.00000000000E+00 0.  1.
         11    1    4    4    0    0 -0.84858599959E+01 -0.97211604992E+02 -0.15271968285E+03  0.18123301988E+03  0.00000000000E+00 0. -1.
</event>
<event>
 8    1  0.7005395E-009  0.1073025E+03  0.7561462E-02  0.1265648E+00
         -1   -1    0    0    0  501 -0.00000000000E+00  0.00000000000E+00  0.47000146641E+02  0.47000146641E+02  0.00000000000E+00 0.  1.
          1   -1    0    0  501    0  0.00000000000E+00 -0.00000000000E+00 -0.31477243169E+03  0.31477243169E+03  0.00000000000E+00 0. -1.
         25    2    1    2    0    0 -0.33772211630E+02  0.34162085276E+02 -0.11046613072E+03  0.17365793060E+03  0.12508677179E+03 0.  0.
         23    2    1    2    0    0  0.33772211630E+02 -0.34162085276E+02 -0.15730615433E+03  0.18811464773E+03  0.91292300606E+02 0.  0.
          5    1    3    3  502    0  0.27400488820E+01 -0.37226748284E+02 -0.58336405045E+00  0.37565294745E+02  0.41800000000E+01 0.  1.
         -5    1    3    3    0  502 -0.36512260512E+02  0.71388833559E+02 -0.10988276667E+03  0.13609263586E+03  0.41800000000E+01 0.  1.
        -11    1    4    4    0    0 -0.27446996734E+02 -0.19873847267E+02 -0.89252077557E+02  0.95468532948E+02  0.00000000000E+00 0. -1.
         11    1    4    4    0    0  0.61219208364E+02 -0.14288238008E+02 -0.68054076774E+02  0.92646114779E+02  0.00000000000E+00 0.  1.
</event>
<event>
 8    1  0.7005395E-009  0.1148059E+03  0.7561462E-02  0.1251920E+00
          2   -1    0    0  501    0  0.00000000000E+00  0.00000000000E+00  0.58975517259E+02  0.58975517259E+02  0.00000000000E+00 0. -1.
         -2   -1    0    0    0  501 -0.00000000000E+00 -0.00000000000E+00 -0.56287058223E+03  0.56287058223E+03  0.00000000000E+00 0.  1.
         25    2    1    2    0    0  0.30833130675E+02 -0.82476346173E+02 -0.67141274528E+02  0.16705721710E+03  0.12508850232E+03 0.  0.
         23    2    1    2    0    0 -0.30833130675E+02  0.82476346173E+02 -0.43675379044E+03  0.45478888239E+03  0.91247051769E+02 0.  0.
          5    1    3    3  502    0  0.18965969102E+02 -0.88454479634E+02 -0.97856172849E+02  0.13333118883E+03  0.41800000000E+01 0.  1.
         -5    1    3    3    0  502  0.11867161573E+02  0.59781334612E+01  0.30714898321E+02  0.33726028263E+02  0.41800000000E+01 0.  1.
        -11    1    4    4    0    0 -0.61586728057E+02  0.43157347310E+02 -0.22516439936E+03  0.23739100328E+03  0.00000000000E+00 0. -1.
         11    1    4    4    0    0  0.30753597382E+02  0.39318998863E+02 -0.21158939108E+03  0.21739787911E+03  0.00000000000E+00 0.  1.
</event>
<event>
 8    1  0.7005395E-009  0.1055172E+03  0.7561462E-02  0.1269104E+00
         -3   -1    0    0    0  501 -0.00000000000E+00  0.00000000000E+00  0.74544424777E+03  0.74544424777E+03  0.00000000000E+00 0.  1.
          3   -1    0    0  501    0  0.00000000000E+00 -0.00000000000E+00 -0.26364096029E+02  0.26364096029E+02  0.00000000000E+00 0. -1.
         25    2    1    2    0    0 -0.22027832240E+02 -0.80509782709E+02  0.47257076652E+03  0.49592078182E+03  0.12508893623E+03 0.  0.
         23    2    1    2    0    0  0.22027832240E+02  0.80509782709E+02  0.24650938523E+03  0.27588756198E+03  0.91542445609E+02 0.  0.
          5    1    3    3  502    0  0.34920556060E+02 -0.50142857240E+02  0.96260694510E+02  0.11409358034E+03  0.41800000000E+01 0.  1.
         -5    1    3    3    0  502 -0.56948388300E+02 -0.30366925469E+02  0.37631007201E+03  0.38182720147E+03  0.41800000000E+01 0.  1.
        -11    1    4    4    0    0  0.20398494337E+02  0.43265145229E+02  0.30599781553E+02  0.56783078413E+02  0.00000000000E+00 0. -1.
         11    1    4    4    0    0  0.16293379029E+01  0.37244637480E+02  0.21590960367E+03  0.21910448357E+03  0.00000000000E+00 0.  1.
</event>
<event>
 8    1  0.7005395E-009  0.6456822E+02  0.7561462E-02  0.1379603E+00
          4   -1    0    0  501    0  0.00000000000E+00  0.00000000000E+00  0.21173161391E+03  0.21173161391E+03  0.00000000000E+00 0.  1.
         -4   -1    0    0    0  501 -0.00000000000E+00 -0.00000000000E+00 -0.64590204426E+02  0.64590204426E+02  0.00000000000E+00 0. -1.
         25    2    1    2    0    0  0.26007675553E+02 -0.16575175571E+02  0.45608856443E+02  0.13667459959E+03  0.12509453527E+03 0.  0.
         23    2    1    2    0    0 -0.26007675553E+02  0.16575175571E+02  0.10153255304E+03  0.13964721875E+03  0.90781885553E+02 0.  0.
          5    1    3    3  502    0  0.15573122577E+02 -0.25635274744E+02  0.87379735612E+02  0.92479079006E+02  0.41800000000E+01 0.  1.
         -5    1    3    3    0  502  0.10434552976E+02  0.90600991728E+01 -0.41770879170E+02  0.44195520581E+02  0.41800000000E+01 0.  1.
        -11    1    4    4    0    0  0.19850497951E+02  0.30586611716E+02  0.78279820367E+02  0.86355737284E+02  0.00000000000E+00 0.  1.
         11    1    4    4    0    0 -0.45858173504E+02 -0.14011436145E+02  0.23252732675E+02  0.53291481466E+02  0.00000000000E+00 0. -1.
</event>
<event>
 8    1  0.7005395E-009  0.9978326E+02  0.7561462E-02  0.1280752E+00
         -1   -1    0    0    0  501 -0.00000000000E+00  0.00000000000E+00  0.52342177845E+03  0.52342177845E+03  0.00000000000E+00 0. -1.
          1   -1    0    0  501    0  0.00000000000E+00 -0.00000000000E+00 -0.30959803017E+02  0.30959803017E+02  0.00000000000E+00 0.  1.
         25    2    1    2    0    0  0.22849772856E+02  0.58464361060E+02  0.21951636978E+03  0.26033683671E+03  0.12509052048E+03 0.  0.
         23    2    1    2    0    0 -0.22849772856E+02 -0.58464361060E+02  0.27294560566E+03  0.29404474476E+03  0.89570166018E+02 0.  0.
          5    1    3    3  502    0 -0.24719032933E+02  0.14917388640E+02 -0.23333721214E+01  0.29265612900E+02  0.41800000000E+01 0. -1.
         -5    1    3    3    0  502  0.47568805788E+02  0.43546972419E+02  0.22184974190E+03  0.23107122381E+03  0.41800000000E+01 0. -1.
        -11    1    4    4    0    0 -0.20904522035E+01  0.22289833986E+02  0.93968277340E+02  0.96598363525E+02  0.00000000000E+00 0. -1.
         11    1    4    4    0    0 -0.20759320652E+02 -0.80754195046E+02  0.17897732832E+03  0.19744638123E+03  0.00000000000E+00 0.  1.
</event>
<event>
 8    1  0.7005395E-009  0.2290457E+03  0.7561462E-02  0.1127313E+00
          2   -1    0    0  501    0  0.00000000000E+00  0.00000000000E+00  0.16937307579E+04  0.16937307579E+04  0.00000000000E+00 0. -1.
         -2   -1    0    0    0  501 -0.00000000000E+00 -0.00000000000E+00 -0.44041453583E+02  0.44041453583E+02  0.00000000000E+00 0.  1.
         25    2    1    2    0    0 -0.10044223022E+03 -0.19570698756E+03  0.12311409692E+04  0.12568793179E+04  0.12509063538E+03 0.  0.
         23    2    1    2    0    0  0.10044223022E+03  0.19570698756E+03  0.41854833517E+03  0.48089289367E+03  0.87666411560E+02 0.  0.
          5    1    3    3  502    0 -0.70887078302E+02 -0.10927763433E+03  0.39933191599E+03  0.42005955621E+03  0.41800000000E+01 0.  1.
         -5    1    3    3    0  502 -0.29555151914E+02 -0.86429353224E+02  0.83180905320E+03  0.83681976165E+03  0.41800000000E+01 0.  1.
        -11    1    4    4    0    0 -0.32296924681E+01  0.83495546175E+02  0.13371380138E+03  0.15767472157E+03  0.00000000000E+00 0. -1.
         11    1    4    4    0    0  0.10367192268E+03  0.11221144138E+03  0.28483453380E+03  0.32321817209E+03  0.00000000000E+00 0.  1.
</event>
<event>
 8    1  0.7005395E-009  0.4516590E+02  0.7561462E-02  0.1473309E+00
         -1   -1    0    0    0  501 -0.00000000000E+00  0.00000000000E+00  0.11983506048E+03  0.11983506048E+03  0.00000000000E+00 0.  1.
          1   -1    0    0  501    0  0.00000000000E+00 -0.00000000000E+00 -0.10560914732E+03  0.10560914732E+03  0.00000000000E+00 0. -1.
         25    2    1    2    0    0  0.43484810189E+01  0.11431405348E+02 -0.23112961315E+02  0.12779976707E+03  0.12509590388E+03 0.  0.
         23    2    1    2    0    0 -0.43484810189E+01 -0.11431405348E+02  0.37338874481E+02  0.97644440730E+02  0.89390485749E+02 0.  0.
          5    1    3    3  502    0  0.21023985991E+02  0.31948322597E+01 -0.72072295107E+02  0.75260235597E+02  0.41800000000E+01 0. -1.
         -5    1    3    3    0  502 -0.16675504972E+02  0.82365730882E+01  0.48959333792E+02  0.52539531475E+02  0.41800000000E+01 0. -1.
        -11    1    4    4    0    0 -0.52049982592E+01  0.18721600248E+02  0.57942724240E+02  0.61114234145E+02  0.00000000000E+00 0.  1.
         11    1    4    4    0    0  0.85651724031E+00 -0.30153005596E+02 -0.20603849759E+02  0.36530206585E+02  0.00000000000E+00 0. -1.
</event>
<event>
 8    1  0.7005395E-009  0.7140360E+02  0.7561462E-02  0.1355384E+00
         -1   -1    0    0    0  501 -0.00000000000E+00  0.00000000000E+00  0.10081312366E+03  0.10081312366E+03  0.00000000000E+00 0.  1.
          1   -1    0    0  501    0  0.00000000000E+00 -0.00000000000E+00 -0.15815908945E+03  0.15815908945E+03  0.00000000000E+00 0. -1.
         25    2    1    2    0    0 -0.41912373338E+02  0.18475263911E+02 -0.80350741095E+02  0.15556679369E+03  0.12508718276E+03 0.  0.
         23    2    1    2    0    0  0.41912373338E+02 -0.18475263911E+02  0.23004775305E+02  0.10340541941E+03  0.89808010002E+02 0.  0.
          5    1    3    3  502    0 -0.34513606100E+02  0.46985090429E+02 -0.10282935025E+03  0.11827990278E+03  0.41800000000E+01 0.  1.
         -5    1    3    3    0  502 -0.73987672387E+01 -0.28509826518E+02  0.22478609153E+02  0.37286890916E+02  0.41800000000E+01 0.  1.
        -11    1    4    4    0    0  0.20760074990E+02 -0.24978797152E+02  0.55372872192E+02  0.64195607291E+02  0.00000000000E+00 0.  1.
         11    1    4    4    0    0  0.21152298349E+02  0.65035332405E+01 -0.32368096887E+02  0.39209812116E+02  0.00000000000E+00 0. -1.
</event>
<event>
 8    1  0.7005395E-009  0.8301881E+02  0.7561462E-02  0.1320696E+00
         -1   -1    0    0    0  501 -0.00000000000E+00  0.00000000000E+00  0.11235496499E+03  0.11235496499E+03  0.00000000000E+00 0.  1.
          1   -1    0    0  501    0  0.00000000000E+00 -0.00000000000E+00 -0.15764144634E+03  0.15764144634E+03  0.00000000000E+00 0. -1.
         25    2    1    2    0    0  0.34555622207E+02 -0.61935469403E+02 -0.54194339480E+02  0.15365878922E+03  0.12507559185E+03 0.  0.
         23    2    1    2    0    0 -0.34555622207E+02  0.61935469403E+02  0.89078581261E+01  0.11633762212E+03  0.91787793237E+02 0.  0.
          5    1    3    3  502    0 -0.56337937655E+01  0.18200397662E+01 -0.75010461660E+02  0.75359763372E+02  0.41800000000E+01 0. -1.
         -5    1    3    3    0  502  0.40189415973E+02 -0.63755509170E+02  0.20816122181E+02  0.78299025845E+02  0.41800000000E+01 0. -1.
        -11    1    4    4    0    0 -0.10294018606E+02  0.57785161296E+02  0.44083044973E+02  0.73405766388E+02  0.00000000000E+00 0.  1.
         11    1    4    4    0    0 -0.24261603601E+02  0.41503081078E+01 -0.35175186847E+02  0.42931855729E+02  0.00000000000E+00 0. -1.
</event>
<event>
 8    1  0.7005395E-009  0.1210373E+03  0.7561462E-02  0.1241396E+00
         -1   -1    0    0    0  501 -0.00000000000E+00  0.00000000000E+00  0.66380641685E+02  0.66380641685E+02  0.00000000000E+00 0.  1.
          1   -1    0    0  501    0  0.00000000000E+00 -0.00000000000E+00 -0.35847228045E+03  0.35847228045E+03  0.00000000000E+00 0. -1.
         25    2    1    2    0    0 -0.44833436905E+02  0.84020302993E+02 -0.23330220149E+03  0.28132971118E+03  0.12508813210E+03 0.  0.
         23    2    1    2    0    0  0.44833436905E+02 -0.84020302993E+02 -0.58789437278E+02  0.14352321096E+03  0.89851353743E+02 0.  0.
          5    1    3    3  502    0 -0.13786176814E+02  0.84982595112E+02 -0.23462778343E+03  0.24995953533E+03  0.41800000000E+01 0.  1.
         -5    1    3    3    0  502 -0.31047260092E+02 -0.96229211949E+00  0.13255819424E+01  0.31370175849E+02  0.41800000000E+01 0.  1.
        -11    1    4    4    0    0  0.78262499584E+01  0.16043013733E+02  0.58467762165E+01  0.18783324258E+02  0.00000000000E+00 0.  1.
         11    1    4    4    0    0  0.37007186947E+02 -0.10006331673E+03 -0.64636213494E+02  0.12473988670E+03  0.00000000000E+00 0. -1.
</event>
<event>
 8    1  0.7005395E-009  0.9262952E+02  0.7561462E-02  0.1296606E+00
         -2   -1    0    0    0  501 -0.00000000000E+00  0.00000000000E+00  0.38248532083E+02  0.38248532083E+02  0.00000000000E+00 0.  1.
          2   -1    0    0  501    0  0.00000000000E+00 -0.00000000000E+00 -0.36139276470E+03  0.36139276470E+03  0.00000000000E+00 0. -1.
         25    2    1    2    0    0 -0.64650608719E+01  0.75043401282E+01 -0.25256490518E+03  0.28201962962E+03  0.12509167849E+03 0.  0.
         23    2    1    2    0    0  0.64650608719E+01 -0.75043401282E+01 -0.70579327437E+02  0.11762166717E+03  0.93569776065E+02 0.  0.
          5    1    3    3  502    0  0.42939902191E+02 -0.14906015256E+02 -0.20413926334E+03  0.20918015137E+03  0.41800000000E+01 0. -1.
         -5    1    3    3    0  502 -0.49404963063E+02  0.22410355384E+02 -0.48425641849E+02  0.72839478253E+02  0.41800000000E+01 0. -1.
        -11    1    4    4    0    0  0.27304712038E+02  0.31067638845E+02 -0.95023694072E+01  0.42438667594E+02  0.00000000000E+00 0.  1.
         11    1    4    4    0    0 -0.20839651166E+02 -0.38571978973E+02 -0.61076958030E+02  0.75182999573E+02  0.00000000000E+00 0. -1.
</event>
<event>
 8    1  0.7005395E-009  0.1013684E+03  0.7561462E-02  0.1277444E+00
         -3   -1    0    0    0  501 -0.00000000000E+00  0.00000000000E+00  0.22187604150E+03  0.22187604150E+03  0.00000000000E+00 0.  1.
          3   -1    0    0  501    0  0.00000000000E+00 -0.00000000000E+00 -0.56288418432E+02  0.56288418432E+02  0.00000000000E+00 0. -1.
         25    2    1    2    0    0  0.25664280556E+02  0.51647310456E+01  0.91556820908E+02  0.15720380987E+03  0.12508020083E+03 0.  0.
         23    2    1    2    0    0 -0.25664280556E+02 -0.51647310456E+01  0.74030802163E+02  0.12096065006E+03  0.92008637918E+02 0.  0.
          5    1    3    3  502    0  0.32327224131E+02 -0.55692998462E+02  0.33411886960E+02  0.72667641271E+02  0.41800000000E+01 0.  1.
         -5    1    3    3    0  502 -0.66629435751E+01  0.60857729508E+02  0.58144933948E+02  0.84536168601E+02  0.41800000000E+01 0.  1.
        -11    1    4    4    0    0  0.23457094751E+02  0.99027716672E+01 -0.57155692232E+01  0.26095361894E+02  0.00000000000E+00 0. -1.
         11    1    4    4    0    0 -0.49121375307E+02 -0.15067502713E+02  0.79746371386E+02  0.94865288169E+02  0.00000000000E+00 0.  1.
</event>
<event>
 8    1  0.7005395E-009  0.1064514E+03  0.7561462E-02  0.1267286E+00
         -4   -1    0    0    0  501 -0.00000000000E+00  0.00000000000E+00  0.10153506162E+03  0.10153506162E+03  0.00000000000E+00 0.  1.
          4   -1    0    0  501    0  0.00000000000E+00 -0.00000000000E+00 -0.14998957048E+03  0.14998957048E+03  0.00000000000E+00 0. -1.
         25    2    1    2    0    0  0.47350805080E+02 -0.19512782351E+02  0.21374574089E+01  0.13517984284E+03  0.12508466640E+03 0.  0.
         23    2    1    2    0    0 -0.47350805080E+02  0.19512782351E+02 -0.50591966268E+02  0.11634478926E+03  0.91398662574E+02 0.  0.
          5    1    3    3  502    0 -0.18557085497E+02  0.38750094463E+02  0.15982002500E+02  0.46030772826E+02  0.41800000000E+01 0. -1.
         -5    1    3    3    0  502  0.65907890577E+02 -0.58262876814E+02 -0.13844545091E+02  0.89149070010E+02  0.41800000000E+01 0. -1.
        -11    1    4    4    0    0 -0.24285467070E+02  0.42598202677E+02  0.76068513408E+01  0.49621114150E+02  0.00000000000E+00 0.  1.
         11    1    4    4    0    0 -0.23065338010E+02 -0.23085420327E+02 -0.58198817609E+02  0.66723675110E+02  0.00000000000E+00 0. -1.
</event>
<event>
 8    1  0.7005395E-009  0.7869041E+02  0.7561462E-02  0.1332809E+00
          3   -1    0    0  501    0  0.00000000000E+00  0.00000000000E+00  0.11396332249E+03  0.11396332249E+03  0.00000000000E+00 0. -1.
         -3   -1    0    0    0  501 -0.00000000000E+00 -0.00000000000E+00 -0.11802424553E+03  0.11802424553E+03  0.00000000000E+00 0.  1.
         25    2    1    2    0    0 -0.13510308438E+02  0.36882357684E+02 -0.39809264534E+01  0.13117360979E+03  0.12509129221E+03 0.  0.
         23    2    1    2    0    0  0.13510308438E+02 -0.36882357684E+02 -0.79996589601E-01  0.10081395823E+03  0.92847245684E+02 0.  0.
          5    1    3    3  502    0  0.37334291432E+01  0.41551569198E+02 -0.59450647106E+02  0.72748355565E+02  0.41800000000E+01 0. -1.
         -5    1    3    3    0  502 -0.17243737581E+02 -0.46692115139E+01  0.55469720653E+02  0.58425254225E+02  0.41800000000E+01 0. -1.
        -11    1    4    4    0    0 -0.22093396659E+02 -0.53449912840E+02  0.13266704618E+02  0.59338156442E+02  0.00000000000E+00 0. -1.
         11    1    4    4    0    0  0.35603705097E+02  0.16567555155E+02 -0.13346701208E+02  0.41475801784E+02  0.00000000000E+00 0.  1.
</event>
<event>
 8    1  0.7005395E-009  0.1102774E+03  0.7561462E-02  0.1260057E+00
          2   -1    0    0  501    0  0.00000000000E+00  0.00000000000E+00  0.71519374379E+02  0.71519374379E+02  0.00000000000E+00 0. -1.
         -2   -1    0    0    0  501 -0.00000000000E+00 -0.00000000000E+00 -0.24177425009E+03  0.24177425009E+03  0.00000000000E+00 0.  1.
         25    2    1    2    0    0  0.67636253777E+02  0.33216592020E+02 -0.96300057035E+02  0.17492624470E+03  0.12508990883E+03 0.  0.
         23    2    1    2    0    0 -0.67636253777E+02 -0.33216592020E+02 -0.73954818674E+02  0.13836737977E+03  0.89432722019E+02 0.  0.
          5    1    3    3  502    0 -0.24620905468E+02  0.15068039162E+02  0.11916326811E+02  0.31507237818E+02  0.41800000000E+01 0. -1.
         -5    1    3    3    0  502  0.92257159246E+02  0.18148552858E+02 -0.10821638385E+03  0.14341900688E+03  0.41800000000E+01 0. -1.
        -11    1    4    4    0    0  0.35101458801E+01 -0.25461157657E+02 -0.60244620841E+02  0.65498137482E+02  0.00000000000E+00 0.  1.
         11    1    4    4    0    0 -0.71146399658E+02 -0.77554343626E+01 -0.13710197833E+02  0.72869242284E+02  0.00000000000E+00 0. -1.
</event>
<event>
 8    1  0.7005395E-009  0.6537049E+02  0.7561462E-02  0.1376583E+00
         -2   -1    0    0    0  501 -0.00000000000E+00  0.00000000000E+00  0.47269250342E+02  0.47269250342E+02  0.00000000000E+00 0.  1.
          2   -1    0    0  501    0  0.00000000000E+00 -0.00000000000E+00 -0.27866368446E+03  0.27866368446E+03  0.00000000000E+00 0. -1.
         25    2    1    2    0    0 -0.10588553183E+02  0.16091966381E+02 -0.88739240916E+02  0.15457593551E+03  0.12509195866E+03 0.  0.
         23    2    1    2    0    0  0.10588553183E+02 -0.16091966381E+02 -0.14265519321E+03  0.17135699929E+03  0.92960465886E+02 0.  0.
          5    1    3    3  502    0  0.10117721716E+02  0.13227440863E+02  0.29660896947E+02  0.34272068689E+02  0.41800000000E+01 0. -1.
         -5    1    3    3    0  502 -0.20706274899E+02  0.28645255171E+01 -0.11840013786E+03  0.12030386682E+03  0.41800000000E+01 0. -1.
        -11    1    4    4    0    0  0.38662493395E+02 -0.39815612833E+02 -0.65190096547E+02  0.85614368587E+02  0.00000000000E+00 0.  1.
         11    1    4    4    0    0 -0.28073940212E+02  0.23723646452E+02 -0.77465096659E+02  0.85742630706E+02  0.00000000000E+00 0. -1.
</event>
<event>
 8    1  0.7005395E-009  0.9486701E+02  0.7561462E-02  0.1291476E+00
         -1   -1    0    0    0  501 -0.00000000000E+00  0.00000000000E+00  0.30170847887E+02  0.30170847887E+02  0.00000000000E+00 0.  1.
          1   -1    0    0  501    0  0.00000000000E+00 -0.00000000000E+00 -0.68357793934E+03  0.68357793934E+03  0.00000000000E+00 0. -1.
         25    2    1    2    0    0 -0.80691698608E+02  0.21092838275E+02 -0.25760803153E+03  0.29827110229E+03  0.12509074507E+03 0.  0.
         23    2    1    2    0    0  0.80691698608E+02 -0.21092838275E+02 -0.39579905993E+03  0.41547768494E+03  0.94914449860E+02 0.  0.
          5    1    3    3  502    0 -0.37652579142E+02 -0.12926104109E+01 -0.24507838990E+03  0.24799249415E+03  0.41800000000E+01 0.  1.
         -5    1    3    3    0  502 -0.43039119466E+02  0.22385448686E+02 -0.12529641626E+02  0.50278608141E+02  0.41800000000E+01 0.  1.
        -11    1    4    4    0    0  0.56037209592E+02  0.16288168548E+02 -0.33457093774E+03  0.33962212188E+03  0.00000000000E+00 0. -1.
         11    1    4    4    0    0  0.24654489015E+02 -0.37381006823E+02 -0.61228122191E+02  0.75855563057E+02  0.00000000000E+00 0.  1.
</event>
<event>
 8    1  0.7005395E-009  0.1030853E+03  0.7561462E-02  0.1273939E+00
          2   -1    0    0  501    0  0.00000000000E+00  0.00000000000E+00  0.11610568836E+04  0.11610568836E+04  0.00000000000E+00 0. -1.
         -2   -1    0    0    0  501 -0.00000000000E+00 -0.00000000000E+00 -0.19478540800E+02  0.19478540800E+02  0.00000000000E+00 0.  1.
         25    2    1    2    0    0  0.23851605964E+02  0.62664795731E+02  0.89530761680E+03  0.90648778779E+03  0.12509438431E+03 0.  0.
         23    2    1    2    0    0 -0.23851605964E+02 -0.62664795731E+02  0.24627072597E+03  0.27404763657E+03  0.99785073593E+02 0.  0.
          5    1    3    3  502    0  0.57176073749E+02  0.64323309117E+02  0.36167772286E+03  0.37179946089E+03  0.41800000000E+01 0.  1.
         -5    1    3    3    0  502 -0.33324467785E+02 -0.16585133855E+01  0.53362989394E+03  0.53468832690E+03  0.41800000000E+01 0.  1.
        -11    1    4    4    0    0 -0.21918607259E+02  0.17026136241E+01  0.27495974148E+01  0.22155913957E+02  0.00000000000E+00 0.  1.
         11    1    4    4    0    0 -0.19329987045E+01 -0.64367409355E+02  0.24352112855E+03  0.25189172262E+03  0.00000000000E+00 0. -1.
</event>
<event>
 8    1  0.7005395E-009  0.9296077E+02  0.7561462E-02  0.1295836E+00
          1   -1    0    0  501    0  0.00000000000E+00  0.00000000000E+00  0.45979247783E+03  0.45979247783E+03  0.00000000000E+00 0. -1.
         -1   -1    0    0    0  501 -0.00000000000E+00 -0.00000000000E+00 -0.34193119014E+02  0.34193119014E+02  0.00000000000E+00 0.  1.
         25    2    1    2    0    0 -0.52962079277E+02  0.23604861451E+02  0.28454485958E+03  0.31618867326E+03  0.12508928276E+03 0.  0.
         23    2    1    2    0    0  0.52962079277E+02 -0.23604861451E+02  0.14105449923E+03  0.17779692358E+03  0.91395858518E+02 0.  0.
          5    1    3    3  502    0 -0.71434675498E+02  0.35127383781E+01  0.27896652612E+03  0.28801917868E+03  0.41800000000E+01 0.  1.
         -5    1    3    3    0  502  0.18472596221E+02  0.20092123073E+02  0.55783334615E+01  0.28169494581E+02  0.41800000000E+01 0.  1.
        -11    1    4    4    0    0  0.67944079026E+02 -0.22783730403E+02  0.14546379384E+03  0.16215798335E+03  0.00000000000E+00 0. -1.
         11    1    4    4    0    0 -0.14981999749E+02 -0.82113104830E+00 -0.44092946018E+01  0.15638940232E+02  0.00000000000E+00 0.  1.
</event>
<event>
 8    1  0.7005395E-009  0.9792355E+02  0.7561462E-02  0.1284724E+00
         -2   -1    0    0    0  501 -0.00000000000E+00  0.00000000000E+00  0.16182643703E+02  0.16182643703E+02  0.00000000000E+00 0.  1.
          2   -1    0    0  501    0  0.00000000000E+00 -0.00000000000E+00 -0.76252186016E+03  0.76252186016E+03  0.00000000000E+00 0. -1.
         25    2    1    2    0    0  0.14694492376E+02  0.10019035340E+02 -0.43803392263E+03  0.45589258674E+03  0.12509206246E+03 0.  0.
         23    2    1    2    0    0 -0.14694492376E+02 -0.10019035340E+02 -0.30830529383E+03  0.32281191713E+03  0.94016330825E+02 0.  0.
          5    1    3    3  502    0  0.40016157918E+02 -0.33963790396E+02 -0.90937812818E+02  0.10508087434E+03  0.41800000000E+01 0.  1.
         -5    1    3    3    0  502 -0.25321665541E+02  0.43982825737E+02 -0.34709610981E+03  0.35081171239E+03  0.41800000000E+01 0.  1.
        -11    1    4    4    0    0  0.38448349896E+02 -0.17410133529E+01 -0.88218042238E+02  0.96248271223E+02  0.00000000000E+00 0. -1.
         11    1    4    4    0    0 -0.53142842272E+02 -0.82780219876E+01 -0.22008725159E+03  0.22656364591E+03  0.00000000000E+00 0.  1.
</event>
<event>
 8    1  0.7005395E-009  0.1345464E+03  0.7561462E-02  0.1220862E+00
          1   -1    0    0  501    0  0.00000000000E+00  0.00000000000E+00  0.10985659196E+04  0.10985659196E+04  0.00000000000E+00 0. -1.
         -1   -1    0    0    0  501 -0.00000000000E+00 -0.00000000000E+00 -0.45155214144E+02  0.45155214144E+02  0.00000000000E+00 0.  1.
         25    2    1    2    0    0  0.94805526671E+02  0.91593436320E+02  0.91302170835E+03  0.93093149055E+03  0.12508938691E+03 0.  0.
         23    2    1    2    0    0 -0.94805526671E+02 -0.91593436320E+02  0.14038899708E+03  0.21278964317E+03  0.90514729594E+02 0.  0.
          5    1    3    3  502    0  0.39428439262E+02  0.60830941720E+02  0.16561855678E+03  0.18083689900E+03  0.41800000000E+01 0. -1.
         -5    1    3    3    0  502  0.55377087409E+02  0.30762494600E+02  0.74740315157E+03  0.75009459155E+03  0.41800000000E+01 0. -1.
        -11    1    4    4    0    0 -0.29256960416E+02 -0.40105147685E+02  0.14201133596E+00  0.49642852162E+02  0.00000000000E+00 0.  1.
         11    1    4    4    0    0 -0.65548566255E+02 -0.51488288635E+02  0.14024698574E+03  0.16314679100E+03  0.00000000000E+00 0. -1.
</event>
<event>
 8    1  0.7005395E-009  0.1151242E+03  0.7561462E-02  0.1251365E+00
          3   -1    0    0  501    0  0.00000000000E+00  0.00000000000E+00  0.31374709940E+03  0.31374709940E+03  0.00000000000E+00 0. -1.
         -3   -1    0    0    0  501 -0.00000000000E+00 -0.00000000000E+00 -0.59264077075E+02  0.59264077075E+02  0.00000000000E+00 0.  1.
         25    2    1    2    0    0  0.48911351213E+02  0.54361931501E+02  0.18923254324E+03  0.23833545463E+03  0.12508914277E+03 0.  0.
         23    2    1    2    0    0 -0.48911351213E+02 -0.54361931501E+02  0.65250479087E+02  0.13467572185E+03  0.92370910787E+02 0.  0.
          5    1    3    3  502    0  0.59799237018E+01 -0.37607001976E+02  0.82662168396E+02  0.91107368357E+02  0.41800000000E+01 0. -1.
         -5    1    3    3    0  502  0.42931427511E+02  0.91968933477E+02  0.10657037484E+03  0.14722808627E+03  0.41800000000E+01 0. -1.
        -11    1    4    4    0    0  0.90205916485E+01 -0.22503767248E+02  0.64121812960E+02  0.68552151763E+02  0.00000000000E+00 0. -1.
         11    1    4    4    0    0 -0.57931942862E+02 -0.31858164253E+02  0.11286661269E+01  0.66123570083E+02  0.00000000000E+00 0.  1.
</event>
<event>
 8    1  0.7005395E-009  0.2128881E+03  0.7561462E-02  0.1139299E+00
          1   -1    0    0  501    0  0.00000000000E+00  0.00000000000E+00  0.34569841307E+02  0.34569841307E+02  0.00000000000E+00 0. -1.
         -1   -1    0    0    0  501 -0.00000000000E+00 -0.00000000000E+00 -0.15243819241E+04  0.15243819241E+04  0.00000000000E+00 0.  1.
         25    2    1    2    0    0 -0.10735947325E+03 -0.17093397415E+03 -0.80946425786E+03  0.84357845803E+03  0.12509096722E+03 0.  0.
         23    2    1    2    0    0  0.10735947325E+03  0.17093397415E+03 -0.68034782494E+03  0.71537330739E+03  0.90229296805E+02 0.  0.
          5    1    3    3  502    0  0.12611333254E+01 -0.13900338118E+02 -0.30875849907E+01  0.14893469647E+02  0.41800000000E+01 0. -1.
         -5    1    3    3    0  502 -0.10862060658E+03 -0.15703363604E+03 -0.80637667287E+03  0.82868498839E+03  0.41800000000E+01 0. -1.
        -11    1    4    4    0    0  0.57033061855E+02  0.15840316247E+03 -0.54579848893E+03  0.57117451146E+03  0.00000000000E+00 0. -1.
         11    1    4    4    0    0  0.50326411395E+02  0.12530811689E+02 -0.13454933601E+03  0.14419879592E+03  0.00000000000E+00 0.  1.
</event>
<event>
 8    1  0.7005395E-009  0.2281845E+03  0.7561462E-02  0.1127924E+00
         -4   -1    0    0    0  501 -0.00000000000E+00  0.00000000000E+00  0.46723266684E+03  0.46723266684E+03  0.00000000000E+00 0.  1.
          4   -1    0    0  501    0  0.00000000000E+00 -0.00000000000E+00 -0.12762571559E+03  0.12762571559E+03  0.00000000000E+00 0. -1.
         25    2    1    2    0    0 -0.11198969682E+03  0.18764242412E+03  0.14964081898E+03  0.29290152259E+03  0.12509019030E+03 0.  0.
         23    2    1    2    0    0  0.11198969682E+03 -0.18764242412E+03  0.18996613226E+03  0.30195685984E+03  0.85670544946E+02 0.  0.
          5    1    3    3  502    0 -0.77864256941E+02  0.85604024797E+02  0.14440748437E+03  0.18509966373E+03  0.41800000000E+01 0.  1.
         -5    1    3    3    0  502 -0.34125439876E+02  0.10203839933E+03  0.52333346102E+01  0.10780185887E+03  0.41800000000E+01 0.  1.
        -11    1    4    4    0    0 -0.12982886671E+02 -0.18136925030E+02  0.81889569325E+01  0.23760522122E+02  0.00000000000E+00 0.  1.
         11    1    4    4    0    0  0.12497258349E+03 -0.16950549909E+03  0.18177717533E+03  0.27819633771E+03  0.00000000000E+00 0. -1.
</event>
<event>
 8    1  0.7005395E-009  0.1031753E+03  0.7561462E-02  0.1273757E+00
         -1   -1    0    0    0  501 -0.00000000000E+00  0.00000000000E+00  0.21200426901E+02  0.21200426901E+02  0.00000000000E+00 0.  1.
          1   -1    0    0  501    0  0.00000000000E+00 -0.00000000000E+00 -0.61660414102E+03  0.61660414102E+03  0.00000000000E+00 0. -1.
         25    2    1    2    0    0 -0.79941358980E+01  0.22042741948E+02 -0.26754906248E+03  0.29628093970E+03  0.12510038254E+03 0.  0.
         23    2    1    2    0    0  0.79941358980E+01 -0.22042741948E+02 -0.32785465164E+03  0.34152362822E+03  0.92735793268E+02 0.  0.
          5    1    3    3  502    0 -0.63883241066E+02 -0.61650701270E+01 -0.12673245843E+03  0.14211848929E+03  0.41800000000E+01 0.  1.
         -5    1    3    3    0  502  0.55889105168E+02  0.28207812075E+02 -0.14081660405E+03  0.15416245041E+03  0.41800000000E+01 0.  1.
        -11    1    4    4    0    0  0.39068303511E+02 -0.27453155061E+02 -0.28108547081E+03  0.28511234621E+03  0.00000000000E+00 0. -1.
         11    1    4    4    0    0 -0.31074167613E+02  0.54104131136E+01 -0.46769180827E+02  0.56411282011E+02  0.00000000000E+00 0.  1.
</event>
<event>
 8    1  0.7005395E-009  0.1303465E+03  0.7561462E-02  0.1226943E+00
          2   -1    0    0  501    0  0.00000000000E+00  0.00000000000E+00  0.30774980244E+03  0.30774980244E+03  0.00000000000E+00 0. -1.
         -2   -1    0    0    0  501 -0.00000000000E+00 -0.00000000000E+00 -0.89034963756E+02  0.89034963756E+02  0.00000000000E+00 0.  1.
         25    2    1    2    0    0 -0.11178812389E+03  0.13624341199E+02  0.17732713867E+03  0.24448791933E+03  0.12508885351E+03 0.  0.
         23    2    1    2    0    0  0.11178812389E+03 -0.13624341199E+02  0.41387700005E+02  0.15229684686E+03  0.93803947331E+02 0.  0.
          5    1    3    3  502    0 -0.10422670478E+03 -0.54525495810E+01  0.50639230330E+02  0.11608074920E+03  0.41800000000E+01 0.  1.
         -5    1    3    3    0  502 -0.75614191132E+01  0.19076890780E+02  0.12668790834E+03  0.12840717013E+03  0.41800000000E+01 0.  1.
        -11    1    4    4    0    0  0.45118723951E+02  0.31293312185E+02 -0.11460732561E+02  0.56092058523E+02  0.00000000000E+00 0.  1.
         11    1    4    4    0    0  0.66669399941E+02 -0.44917653384E+02  0.52848432567E+02  0.96204788336E+02  0.00000000000E+00 0. -1.
</event>
<event>
 8    1  0.7005395E-009  0.2186277E+03  0.7561462E-02  0.1134910E+00
          1   -1    0    0  501    0  0.00000000000E+00  0.00000000000E+00  0.33410048147E+03  0.33410048147E+03  0.00000000000E+00 0. -1.
         -1   -1    0    0    0  501 -0.00000000000E+00 -0.00000000000E+00 -0.16069980982E+03  0.16069980982E+03  0.00000000000E+00 0.  1.
         25    2    1    2    0    0 -0.81596523541E+02 -0.18741712933E+03  0.85216621589E+02  0.25434763268E+03  0.12509065767E+03 0.  0.
         23    2    1    2    0    0  0.81596523541E+02  0.18741712933E+03  0.88184050063E+02  0.24045265860E+03  0.90872885530E+02 0.  0.
          5    1    3    3  502    0 -0.52100264307E+02 -0.17506258196E+03  0.22832331319E+02  0.18411988730E+03  0.41800000000E+01 0. -1.
         -5    1    3    3    0  502 -0.29496259234E+02 -0.12354547363E+02  0.62384290270E+02  0.70227745385E+02  0.41800000000E+01 0. -1.
        -11    1    4    4    0    0  0.20330690133E+02  0.14814425629E+03  0.46544231074E+02  0.15660914111E+03  0.00000000000E+00 0.  1.
         11    1    4    4    0    0  0.61265833409E+02  0.39272873033E+02  0.41639818989E+02  0.83843517489E+02  0.00000000000E+00 0. -1.
</event>
<event>
 8    1  0.7005395E-009  0.1222044E+03  0.7561462E-02  0.1239504E+00
         -4   -1    0    0    0  501 -0.00000000000E+00  0.00000000000E+00  0.89769601055E+02  0.89769601055E+02  0.00000000000E+00 0.  1.
          4   -1    0    0  501    0  0.00000000000E+00 -0.00000000000E+00 -0.21166083887E+03  0.21166083887E+03  0.00000000000E+00 0. -1.
         25    2    1    2    0    0  0.80577018655E+02 -0.13888290261E+02 -0.91685825018E+02  0.17532574529E+03  0.12508911187E+03 0.  0.
         23    2    1    2    0    0 -0.80577018655E+02  0.13888290261E+02 -0.30205412795E+02  0.12610469464E+03  0.91128955363E+02 0.  0.
          5    1    3    3  502    0  0.31895036093E+02 -0.66225843845E+02 -0.25771810443E+02  0.78005219914E+02  0.41800000000E+01 0.  1.
         -5    1    3    3    0  502  0.48681982562E+02  0.52337553584E+02 -0.65914014575E+02  0.97320525372E+02  0.41800000000E+01 0.  1.
        -11    1    4    4    0    0 -0.83606097471E+02 -0.13801106604E+01  0.88278000104E+01  0.84082187726E+02  0.00000000000E+00 0.  1.
         11    1    4    4    0    0  0.30290788158E+01  0.15268400921E+02 -0.39033212805E+02  0.42022506910E+02  0.00000000000E+00 0. -1.
</event>
<event>
 8    1  0.7005395E-009  0.2106857E+03  0.7561462E-02  0.1141024E+00
          2   -1    0    0  501    0  0.00000000000E+00  0.00000000000E+00  0.44223927029E+03  0.44223927029E+03  0.00000000000E+00 0.  1.
         -2   -1    0    0    0  501 -0.00000000000E+00 -0.00000000000E+00 -0.12798185561E+03  0.12798185561E+03  0.00000000000E+00 0. -1.
         25    2    1    2    0    0  0.42721545506E+02  0.19813453413E+03  0.23282463274E+03  0.33307286140E+03  0.12509115606E+03 0.  0.
         23    2    1    2    0    0 -0.42721545506E+02 -0.19813453413E+03  0.81432781943E+02  0.23714826450E+03  0.92334052848E+02 0.  0.
          5    1    3    3  502    0  0.51753953214E+02  0.15682513110E+03  0.98831786731E+02  0.19250399447E+03  0.41800000000E+01 0. -1.
         -5    1    3    3    0  502 -0.90324077084E+01  0.41309403025E+02  0.13399284601E+03  0.14056886692E+03  0.41800000000E+01 0. -1.
        -11    1    4    4    0    0 -0.54478395491E+02 -0.92157259958E+02  0.73424483975E+01  0.10730688555E+03  0.00000000000E+00 0. -1.
         11    1    4    4    0    0  0.11756849986E+02 -0.10597727417E+03  0.74090333545E+02  0.12984137895E+03  0.00000000000E+00 0.  1.
</event>
<event>
 8    1  0.7005395E-009  0.9450254E+02  0.7561462E-02  0.1292300E+00
          2   -1    0    0  501    0  0.00000000000E+00  0.00000000000E+00  0.10417877599E+03  0.10417877599E+03  0.00000000000E+00 0.  1.
         -2   -1    0    0    0  501 -0.00000000000E+00 -0.00000000000E+00 -0.13791259322E+03  0.13791259322E+03  0.00000000000E+00 0. -1.
         25    2    1    2    0    0  0.20834936197E+02  0.32174130996E+02  0.40218531883E+01  0.13090105365E+03  0.12509852626E+03 0.  0.
         23    2    1    2    0    0 -0.20834936197E+02 -0.32174130996E+02 -0.37755670422E+02  0.11119031556E+03  0.97306353105E+02 0.  0.
          5    1    3    3  502    0 -0.42265824540E+02  0.38047429860E+02  0.27349270681E+02  0.63241298609E+02  0.41800000000E+01 0. -1.
         -5    1    3    3    0  502  0.63100760737E+02 -0.58732988645E+01 -0.23327417492E+02  0.67659755040E+02  0.41800000000E+01 0. -1.
        -11    1    4    4    0    0 -0.14754265426E+02 -0.48687938364E+02  0.17028924382E+02  0.53648746081E+02  0.00000000000E+00 0.  1.
         11    1    4    4    0    0 -0.60806707713E+01  0.16513807368E+02 -0.54784594804E+02  0.57541569484E+02  0.00000000000E+00 0. -1.
</event>
<event>
 8    1  0.7005395E-009  0.1248461E+03  0.7561462E-02  0.1235310E+00
          2   -1    0    0  501    0  0.00000000000E+00  0.00000000000E+00  0.38165182143E+03  0.38165182143E+03  0.00000000000E+00 0. -1.
         -2   -1    0    0    0  501 -0.00000000000E+00 -0.00000000000E+00 -0.65960930594E+02  0.65960930594E+02  0.00000000000E+00 0.  1.
         25    2    1    2    0    0  0.52168586198E+02 -0.77356696572E+02  0.26796302006E+03  0.31009002252E+03  0.12508405995E+03 0.  0.
         23    2    1    2    0    0 -0.52168586198E+02  0.77356696572E+02  0.47727870773E+02  0.13752272951E+03  0.89044548357E+02 0.  0.
          5    1    3    3  502    0  0.37747927968E+02  0.18102879279E+02  0.15890036728E+03  0.16437584806E+03  0.41800000000E+01 0. -1.
         -5    1    3    3    0  502  0.14420658231E+02 -0.95459575851E+02  0.10906265278E+03  0.14571417446E+03  0.41800000000E+01 0. -1.
        -11    1    4    4    0    0 -0.23816836385E+02  0.79073962770E+02  0.64277287190E+02  0.10464942872E+03  0.00000000000E+00 0. -1.
         11    1    4    4    0    0 -0.28351749813E+02 -0.17172661987E+01 -0.16549416417E+02  0.32873300784E+02  0.00000000000E+00 0.  1.
</event>
<event>
 8    1  0.7005395E-009  0.7065778E+02  0.7561462E-02  0.1357870E+00
          2   -1    0    0  501    0  0.00000000000E+00  0.00000000000E+00  0.66642562091E+02  0.66642562091E+02  0.00000000000E+00 0.  1.
         -2   -1    0    0    0  501 -0.00000000000E+00 -0.00000000000E+00 -0.26039052107E+03  0.26039052107E+03  0.00000000000E+00 0. -1.
         25    2    1    2    0    0 -0.59095411195E+02 -0.98624141059E+01 -0.15756100854E+03  0.20991569510E+03  0.12509833253E+03 0.  0.
         23    2    1    2    0    0  0.59095411195E+02  0.98624141059E+01 -0.36186950437E+02  0.11711738806E+03  0.93901290551E+02 0.  0.
          5    1    3    3  502    0 -0.85919055926E+01  0.12563177829E+02 -0.15354477454E+03  0.15435389359E+03  0.41800000000E+01 0. -1.
         -5    1    3    3    0  502 -0.50503505602E+02 -0.22425591935E+02 -0.40162340028E+01  0.55561801512E+02  0.41800000000E+01 0. -1.
        -11    1    4    4    0    0  0.41220029651E+02 -0.10980098176E+02 -0.64723238640E+02  0.77516133937E+02  0.00000000000E+00 0. -1.
         11    1    4    4    0    0  0.17875381543E+02  0.20842512282E+02  0.28536288203E+02  0.39601254121E+02  0.00000000000E+00 0.  1.
</event>
<event>
 8    1  0.7005395E-009  0.1123766E+03  0.7561462E-02  0.1256231E+00
         -2   -1    0    0    0  501 -0.00000000000E+00  0.00000000000E+00  0.11646747920E+03  0.11646747920E+03  0.00000000000E+00 0.  1.
          2   -1    0    0  501    0  0.00000000000E+00 -0.00000000000E+00 -0.30178590258E+03  0.30178590258E+03  0.00000000000E+00 0. -1.
         25    2    1    2    0    0  0.81948239805E+02 -0.40901759185E+02 -0.23400129416E+03  0.28069774762E+03  0.12508457916E+03 0.  0.
         23    2    1    2    0    0 -0.81948239805E+02  0.40901759185E+02  0.48682870775E+02  0.13755563415E+03  0.90349668894E+02 0.  0.
          5    1    3    3  502    0  0.88009891554E+02 -0.16281565225E+01 -0.22219466117E+03  0.23903207266E+03  0.41800000000E+01 0.  1.
         -5    1    3    3    0  502 -0.60616517491E+01 -0.39273602662E+02 -0.11806632981E+02  0.41665674965E+02  0.41800000000E+01 0.  1.
        -11    1    4    4    0    0 -0.71281814874E+02  0.21369322720E+02  0.73241741540E+02  0.10441311119E+03  0.00000000000E+00 0.  1.
         11    1    4    4    0    0 -0.10666424931E+02  0.19532436464E+02 -0.24558870764E+02  0.33142522962E+02  0.00000000000E+00 0. -1.
</event>
<event>
 8    1  0.7005395E-009  0.9802550E+02  0.7561462E-02  0.1284504E+00
          2   -1    0    0  501    0  0.00000000000E+00  0.00000000000E+00  0.37703188102E+03  0.37703188102E+03  0.00000000000E+00 0. -1.
         -2   -1    0    0    0  501 -0.00000000000E+00 -0.00000000000E+00 -0.42947072861E+02  0.42947072861E+02  0.00000000000E+00 0.  1.
         25    2    1    2    0    0  0.41173537612E+02  0.23448891716E+02  0.25877782150E+03  0.29130495328E+03  0.12508998435E+03 0.  0.
         23    2    1    2    0    0 -0.41173537612E+02 -0.23448891716E+02  0.75306986663E+02  0.12867400060E+03  0.92955610202E+02 0.  0.
          5    1    3    3  502    0  0.83696050911E+02  0.59431046124E+01  0.13291332394E+03  0.15723795188E+03  0.41800000000E+01 0.  1.
         -5    1    3    3    0  502 -0.42522513300E+02  0.17505787104E+02  0.12586449755E+03  0.13406700140E+03  0.41800000000E+01 0.  1.
        -11    1    4    4    0    0 -0.16042631004E+01 -0.26154772760E+02  0.84067137911E+02  0.88056399397E+02  0.00000000000E+00 0. -1.
         11    1    4    4    0    0 -0.39569274511E+02  0.27058810439E+01 -0.87601512482E+01  0.40617601203E+02  0.00000000000E+00 0.  1.
</event>
<event>
 8    1  0.7005395E-009  0.1517359E+03  0.7561462E-02  0.1198356E+00
          2   -1    0    0  501    0  0.00000000000E+00  0.00000000000E+00  0.13265015910E+04  0.13265015910E+04  0.00000000000E+00 0. -1.
         -2   -1    0    0    0  501 -0.00000000000E+00 -0.00000000000E+00 -0.19541144533E+02  0.19541144533E+02  0.00000000000E+00 0.  1.
         25    2    1    2    0    0  0.61865537133E+02 -0.92510216715E+02  0.88432189049E+03  0.90003236235E+03  0.12509021709E+03 0.  0.
         23    2    1    2    0    0 -0.61865537133E+02  0.92510216715E+02  0.42263855599E+03  0.44601037319E+03  0.88974260884E+02 0.  0.
          5    1    3    3  502    0  0.31721365759E+02 -0.12093081956E+03  0.62601357347E+03  0.63838935982E+03  0.41800000000E+01 0.  1.
         -5    1    3    3    0  502  0.30144171374E+02  0.28420602850E+02  0.25830831701E+03  0.26164300253E+03  0.41800000000E+01 0.  1.
        -11    1    4    4    0    0 -0.80543640324E+01  0.81395422430E+02  0.31109067142E+03  0.32166363397E+03  0.00000000000E+00 0. -1.
         11    1    4    4    0    0 -0.53811173101E+02  0.11114794285E+02  0.11154788456E+03  0.12434673921E+03  0.00000000000E+00 0.  1.
</event>
<event>
 8    1  0.7005395E-009  0.7864493E+02  0.7561462E-02  0.1332942E+00
          1   -1    0    0  501    0  0.00000000000E+00  0.00000000000E+00  0.14368670836E+03  0.14368670836E+03  0.00000000000E+00 0. -1.
         -1   -1    0    0    0  501 -0.00000000000E+00 -0.00000000000E+00 -0.10994888341E+03  0.10994888341E+03  0.00000000000E+00 0.  1.
         25    2    1    2    0    0 -0.27343682907E+02  0.56686206539E+02  0.23582289413E+02  0.14200102543E+03  0.12508862395E+03 0.  0.
         23    2    1    2    0    0  0.27343682907E+02 -0.56686206539E+02  0.10155535541E+02  0.11163456634E+03  0.91641357985E+02 0.  0.
          5    1    3    3  502    0  0.68214583039E+01  0.17721807062E+01 -0.46109280810E+02  0.46831731707E+02  0.41800000000E+01 0. -1.
         -5    1    3    3    0  502 -0.34165141211E+02  0.54914025833E+02  0.69691570223E+02  0.95169293721E+02  0.41800000000E+01 0. -1.
        -11    1    4    4    0    0 -0.17465120100E+02 -0.13768598013E+02 -0.30284096899E+02  0.37573012075E+02  0.00000000000E+00 0.  1.
         11    1    4    4    0    0  0.44808803006E+02 -0.42917608526E+02  0.40439632440E+02  0.74061554266E+02  0.00000000000E+00 0. -1.
</event>
<event>
 8    1  0.7005395E-009  0.1273461E+03  0.7561462E-02  0.1231448E+00
          4   -1    0    0  501    0  0.00000000000E+00  0.00000000000E+00  0.13883335709E+03  0.13883335709E+03  0.00000000000E+00 0. -1.
         -4   -1    0    0    0  501 -0.00000000000E+00 -0.00000000000E+00 -0.20530580854E+03  0.20530580854E+03  0.00000000000E+00 0.  1.
         25    2    1    2    0    0  0.27582649886E+02  0.89961814003E+02 -0.11970397154E+03  0.19705575424E+03  0.12509196187E+03 0.  0.
         23    2    1    2    0    0 -0.27582649886E+02 -0.89961814003E+02  0.53231520097E+02  0.14708341139E+03  0.99729657672E+02 0.  0.
          5    1    3    3  502    0  0.60058348742E+02  0.37625526282E+02 -0.10716936964E+02  0.71798402625E+02  0.41800000000E+01 0.  1.
         -5    1    3    3    0  502 -0.32475698856E+02  0.52336287722E+02 -0.10898703458E+03  0.12525735162E+03  0.41800000000E+01 0.  1.
        -11    1    4    4    0    0  0.23629560317E+02 -0.73156764610E+01 -0.14423340264E+02  0.28634035469E+02  0.00000000000E+00 0.  1.
         11    1    4    4    0    0 -0.51212210203E+02 -0.82646137542E+02  0.67654860361E+02  0.11844937592E+03  0.00000000000E+00 0. -1.
</event>
<event>
 8    1  0.7005395E-009  0.1385440E+03  0.7561462E-02  0.1215302E+00
         -1   -1    0    0    0  501 -0.00000000000E+00  0.00000000000E+00  0.47662720746E+02  0.47662720746E+02  0.00000000000E+00 0.  1.
          1   -1    0    0  501    0  0.00000000000E+00 -0.00000000000E+00 -0.45492069876E+03  0.45492069876E+03  0.00000000000E+00 0. -1.
         25    2    1    2    0    0 -0.63759582019E+02 -0.72185297222E+02 -0.26454300586E+03  0.30807030540E+03  0.12509320400E+03 0.  0.
         23    2    1    2    0    0  0.63759582019E+02  0.72185297222E+02 -0.14271497215E+03  0.19451311410E+03  0.90508490476E+02 0.  0.
          5    1    3    3  502    0 -0.21144677964E+02 -0.95757072555E+02 -0.11742210234E+03  0.15304227151E+03  0.41800000000E+01 0.  1.
         -5    1    3    3    0  502 -0.42614904054E+02  0.23571775333E+02 -0.14712090352E+03  0.15502803389E+03  0.41800000000E+01 0.  1.
        -11    1    4    4    0    0  0.88499615878E+00  0.66959221046E+02 -0.56116740632E+02  0.87369382969E+02  0.00000000000E+00 0.  1.
         11    1    4    4    0    0  0.62874585860E+02  0.52260761755E+01 -0.86598231520E+02  0.10714373114E+03  0.00000000000E+00 0. -1.
</event>
<event>
 8    1  0.7005395E-009  0.8927888E+02  0.7561462E-02  0.1304607E+00
          1   -1    0    0  501    0  0.00000000000E+00  0.00000000000E+00  0.39121370572E+03  0.39121370572E+03  0.00000000000E+00 0. -1.
         -1   -1    0    0    0  501 -0.00000000000E+00 -0.00000000000E+00 -0.32822504406E+02  0.32822504406E+02  0.00000000000E+00 0.  1.
         25    2    1    2    0    0  0.15902319582E+02  0.83672258830E+01  0.26363639324E+03  0.29236068584E+03  0.12509088115E+03 0.  0.
         23    2    1    2    0    0 -0.15902319582E+02 -0.83672258830E+01  0.94754808068E+02  0.13167552428E+03  0.89649739573E+02 0.  0.
          5    1    3    3  502    0  0.17170540010E+02 -0.57487303951E+02  0.13459164532E+03  0.14741777691E+03  0.41800000000E+01 0.  1.
         -5    1    3    3    0  502 -0.12682204275E+01  0.65854529834E+02  0.12904474792E+03  0.14494290893E+03  0.41800000000E+01 0.  1.
        -11    1    4    4    0    0 -0.31070201727E+02 -0.16527548438E+02 -0.17789097938E+00  0.35193023995E+02  0.00000000000E+00 0.  1.
         11    1    4    4    0    0  0.15167882145E+02  0.81603225548E+01  0.94932699047E+02  0.96482500286E+02  0.00000000000E+00 0. -1.
</event>
<event>
 8    1  0.7005395E-009  0.2963867E+03  0.7561462E-02  0.1087061E+00
         -2   -1    0    0    0  501 -0.00000000000E+00  0.00000000000E+00  0.72172169433E+02  0.72172169433E+02  0.00000000000E+00 0.  1.
          2   -1    0    0  501    0  0.00000000000E+00 -0.00000000000E+00 -0.13588623869E+04  0.13588623869E+04  0.00000000000E+00 0. -1.
         25    2    1    2    0    0 -0.18656892053E+03  0.20465339041E+03 -0.43288623855E+03  0.52889389189E+03  0.12508909239E+03 0.  0.
         23    2    1    2    0    0  0.18656892053E+03 -0.20465339041E+03 -0.85380397889E+03  0.90214066442E+03  0.90474149439E+02 0.  0.
          5    1    3    3  502    0 -0.15519963246E+03  0.83587939724E+02 -0.21984456354E+03  0.28182081914E+03  0.41800000000E+01 0.  1.
         -5    1    3    3    0  502 -0.31369288063E+02  0.12106545069E+03 -0.21304167502E+03  0.24707307275E+03  0.41800000000E+01 0.  1.
        -11    1    4    4    0    0  0.74756323649E+01 -0.61729116355E+02 -0.17763178837E+03  0.18820048120E+03  0.00000000000E+00 0.  1.
         11    1    4    4    0    0  0.17909328816E+03 -0.14292427406E+03 -0.67617219052E+03  0.71394018322E+03  0.00000000000E+00 0. -1.
</event>
<event>
 8    1  0.7005395E-009  0.1513662E+03  0.7561462E-02  0.1198804E+00
          2   -1    0    0  501    0  0.00000000000E+00  0.00000000000E+00  0.10010732924E+04  0.10010732924E+04  0.00000000000E+00 0. -1.
         -2   -1    0    0    0  501 -0.00000000000E+00 -0.00000000000E+00 -0.23282491399E+02  0.23282491399E+02  0.00000000000E+00 0.  1.
         25    2    1    2    0    0 -0.98677046881E+02 -0.36365728174E+02  0.46287042641E+03  0.49087347180E+03  0.12509239746E+03 0.  0.
         23    2    1    2    0    0  0.98677046881E+02  0.36365728174E+02  0.51492037457E+03  0.53348231198E+03  0.91655656022E+02 0.  0.
          5    1    3    3  502    0 -0.25846324552E+02 -0.75945345196E+02  0.23612792018E+03  0.24941851383E+03  0.41800000000E+01 0. -1.
         -5    1    3    3    0  502 -0.72830722328E+02  0.39579617022E+02  0.22674250623E+03  0.24145495797E+03  0.41800000000E+01 0. -1.
        -11    1    4    4    0    0  0.32322152249E+02 -0.31044033786E+02  0.15642598074E+03  0.16271920910E+03  0.00000000000E+00 0. -1.
         11    1    4    4    0    0  0.66354894632E+02  0.67409761960E+02  0.35849439383E+03  0.37076310288E+03  0.00000000000E+00 0.  1.
</event>
<event>
 8    1  0.7005395E-009  0.9418821E+02  0.7561462E-02  0.1293015E+00
          2   -1    0    0  501    0  0.00000000000E+00  0.00000000000E+00  0.26722163042E+03  0.26722163042E+03  0.00000000000E+00 0. -1.
         -2   -1    0    0    0  501 -0.00000000000E+00 -0.00000000000E+00 -0.62507313606E+02  0.62507313606E+02  0.00000000000E+00 0.  1.
         25    2    1    2    0    0  0.59140040227E+02  0.27764192264E+02  0.14785003606E+03  0.20438954174E+03  0.12508819641E+03 0.  0.
         23    2    1    2    0    0 -0.59140040227E+02 -0.27764192264E+02  0.56864280749E+02  0.12533940228E+03  0.90598149035E+02 0.  0.
          5    1    3    3  502    0  0.34498938718E+02  0.58900284791E+02  0.14953131806E+03  0.16442781943E+03  0.41800000000E+01 0. -1.
         -5    1    3    3    0  502  0.24641101509E+02 -0.31136092527E+02 -0.16812819955E+01  0.39961722317E+02  0.41800000000E+01 0. -1.
        -11    1    4    4    0    0 -0.17466308566E+02 -0.33710263940E+02 -0.15991242557E+02  0.41196767693E+02  0.00000000000E+00 0.  1.
         11    1    4    4    0    0 -0.41673731661E+02  0.59460716754E+01  0.72855523306E+02  0.84142634586E+02  0.00000000000E+00 0. -1.
</event>
<event>
 8    1  0.7005395E-009  0.9621450E+02  0.7561462E-02  0.1288464E+00
          1   -1    0    0  501    0  0.00000000000E+00  0.00000000000E+00  0.11890217552E+03  0.11890217552E+03  0.00000000000E+00 0. -1.
         -1   -1    0    0    0  501 -0.00000000000E+00 -0.00000000000E+00 -0.11969639947E+03  0.11969639947E+03  0.00000000000E+00 0.  1.
         25    2    1    2    0    0 -0.30759910256E+02  0.25322644623E+02 -0.28662495569E+02  0.13437649429E+03  0.12509234652E+03 0.  0.
         23    2    1    2    0    0  0.30759910256E+02 -0.25322644623E+02  0.27868271617E+02  0.10422208069E+03  0.92185644933E+02 0.  0.
          5    1    3    3  502    0 -0.38932152836E+02 -0.24450893875E+02 -0.59348191398E+02  0.75188024033E+02  0.41800000000E+01 0. -1.
         -5    1    3    3    0  502  0.81722425797E+01  0.49773538497E+02  0.30685695830E+02  0.59188470261E+02  0.41800000000E+01 0. -1.
        -11    1    4    4    0    0 -0.72702367430E+01 -0.49864449305E+02  0.30467327682E+02  0.58886141857E+02  0.00000000000E+00 0.  1.
         11    1    4    4    0    0  0.38030146999E+02  0.24541804682E+02 -0.25990560650E+01  0.45335938837E+02  0.00000000000E+00 0. -1.
</event>
<event>
 8    1  0.7005395E-009  0.9221041E+02  0.7561462E-02  0.1297585E+00
         -1   -1    0    0    0  501 -0.00000000000E+00  0.00000000000E+00  0.68666027408E+03  0.68666027408E+03  0.00000000000E+00 0.  1.
          1   -1    0    0  501    0  0.00000000000E+00 -0.00000000000E+00 -0.31665129895E+02  0.31665129895E+02  0.00000000000E+00 0. -1.
         25    2    1    2    0    0 -0.13218801560E+02 -0.40178317020E+02  0.13641446710E+03  0.18985682853E+03  0.12509066565E+03 0.  0.
         23    2    1    2    0    0  0.13218801560E+02  0.40178317020E+02  0.51858067709E+03  0.52846857545E+03  0.92542329299E+02 0.  0.
          5    1    3    3  502    0 -0.42503227051E+02 -0.20755701617E+02  0.14572374992E+03  0.15326515308E+03  0.41800000000E+01 0. -1.
         -5    1    3    3    0  502  0.29284425491E+02 -0.19422615403E+02 -0.93092828192E+01  0.36591675447E+02  0.41800000000E+01 0. -1.
        -11    1    4    4    0    0  0.43274070990E+02  0.53383618881E+02  0.33500750983E+03  0.34198316863E+03  0.00000000000E+00 0. -1.
         11    1    4    4    0    0 -0.30055269430E+02 -0.13205301861E+02  0.18357316726E+03  0.18648540681E+03  0.00000000000E+00 0.  1.
</event>
<event>
 8    1  0.7005395E-009  0.1233489E+03  0.7561462E-02  0.1237672E+00
         -2   -1    0    0    0  501 -0.00000000000E+00  0.00000000000E+00  0.84628050071E+02  0.84628050071E+02  0.00000000000E+00 0. -1.
          2   -1    0    0  501    0  0.00000000000E+00 -0.00000000000E+00 -0.22463366399E+03  0.22463366399E+03  0.00000000000E+00 0.  1.
         25    2    1    2    0    0  0.50625100543E+02 -0.66060947043E+02 -0.86859761894E+02  0.17355046258E+03  0.12509274677E+03 0.  0.
         23    2    1    2    0    0 -0.50625100543E+02  0.66060947043E+02 -0.53145852030E+02  0.13571125149E+03  0.93091958100E+02 0.  0.
          5    1    3    3  502    0  0.52706683439E+02 -0.86566667552E+02 -0.10484173421E+03  0.14588023870E+03  0.41800000000E+01 0. -1.
         -5    1    3    3    0  502 -0.20815828954E+01  0.20505720509E+02  0.17981972321E+02  0.27670223878E+02  0.41800000000E+01 0. -1.
        -11    1    4    4    0    0 -0.54147801677E+02  0.87285239767E+02 -0.48980359543E+02  0.11379706995E+03  0.00000000000E+00 0. -1.
         11    1    4    4    0    0  0.35227011333E+01 -0.21224292724E+02 -0.41654924865E+01  0.21914181540E+02  0.00000000000E+00 0.  1.
</event>
<event>
 8    1  0.7005395E-009  0.3560902E+03  0.7561462E-02  0.1060143E+00
          2   -1    0    0  501    0  0.00000000000E+00  0.00000000000E+00  0.34501120574E+03  0.34501120574E+03  0.00000000000E+00 0. -1.
         -2   -1    0    0    0  501 -0.00000000000E+00 -0.00000000000E+00 -0.39969587670E+03  0.39969587670E+03  0.00000000000E+00 0.  1.
         25    2    1    2    0    0 -0.29487785357E+03 -0.18277489604E+03  0.47249702075E+02  0.37180695368E+03  0.12509302662E+03 0.  0.
         23    2    1    2    0    0  0.29487785357E+03  0.18277489604E+03 -0.10193437303E+03  0.37290012876E+03  0.91127813978E+02 0.  0.
          5    1    3    3  502    0  0.64457099561E+01  0.46809742815E+01  0.12233284169E+02  0.15185003741E+02  0.41800000000E+01 0.  1.
         -5    1    3    3    0  502 -0.30132356352E+03 -0.18745587033E+03  0.35016417906E+02  0.35662194994E+03  0.41800000000E+01 0.  1.
        -11    1    4    4    0    0  0.15127517348E+03  0.75706625904E+02 -0.94172554022E+02  0.19360821586E+03  0.00000000000E+00 0.  1.
         11    1    4    4    0    0  0.14360268009E+03  0.10706827014E+03 -0.77618190033E+01  0.17929191290E+03  0.00000000000E+00 0. -1.
</event>
<event>
 8    1  0.7005395E-009  0.1421541E+03  0.7561462E-02  0.1210459E+00
         -2   -1    0    0    0  501 -0.00000000000E+00  0.00000000000E+00  0.50275389630E+02  0.50275389630E+02  0.00000000000E+00 0. -1.
          2   -1    0    0  501    0  0.00000000000E+00 -0.00000000000E+00 -0.46819433950E+03  0.46819433950E+03  0.00000000000E+00 0.  1.
         25    2    1    2    0    0 -0.97028791668E+02  0.43979930155E+02 -0.25469118308E+03  0.30309102340E+03  0.12509096313E+03 0.  0.
         23    2    1    2    0    0  0.97028791668E+02 -0.43979930155E+02 -0.16322776679E+03  0.21537870574E+03  0.91628938458E+02 0.  0.
          5    1    3    3  502    0 -0.86724906349E+01 -0.40150421688E+02 -0.79210723854E+02  0.89325694114E+02  0.41800000000E+01 0.  1.
         -5    1    3    3    0  502 -0.88356301033E+02  0.84130351843E+02 -0.17548045923E+03  0.21376532928E+03  0.41800000000E+01 0.  1.
        -11    1    4    4    0    0  0.12220924974E+02  0.13717212327E+02  0.43694790869E+01  0.18883995042E+02  0.00000000000E+00 0. -1.
         11    1    4    4    0    0  0.84807866694E+02 -0.57697142483E+02 -0.16759724588E+03  0.19649471069E+03  0.00000000000E+00 0.  1.
</event>
<event>
 8    1  0.7005395E-009  0.1768833E+03  0.7561462E-02  0.1170854E+00
         -2   -1    0    0    0  501 -0.00000000000E+00  0.00000000000E+00  0.41888502258E+02  0.41888502258E+02  0.00000000000E+00 0.  1.
          2   -1    0    0  501    0  0.00000000000E+00 -0.00000000000E+00 -0.10128538661E+04  0.10128538661E+04  0.00000000000E+00 0. -1.
         25    2    1    2    0    0 -0.48916986206E+02  0.14894136005E+03 -0.70217585791E+03  0.73025660404E+03  0.12508945614E+03 0.  0.
         23    2    1    2    0    0  0.48916986206E+02 -0.14894136005E+03 -0.26878950590E+03  0.32448576429E+03  0.92015283898E+02 0.  0.
          5    1    3    3  502    0 -0.48290949398E+02  0.28468075399E+02 -0.88431512607E+02  0.10478574298E+03  0.41800000000E+01 0. -1.
         -5    1    3    3    0  502 -0.62603680838E+00  0.12047328465E+03 -0.61374434530E+03  0.62547086105E+03  0.41800000000E+01 0. -1.
        -11    1    4    4    0    0 -0.22252396560E+02 -0.20971572668E+02 -0.79448993648E+02  0.85130010011E+02  0.00000000000E+00 0.  1.
         11    1    4    4    0    0  0.71169382766E+02 -0.12796978738E+03 -0.18934051225E+03  0.23935575427E+03  0.00000000000E+00 0. -1.
</event>
<event>
 8    1  0.7005395E-009  0.1290034E+03  0.7561462E-02  0.1228942E+00
         -2   -1    0    0    0  501 -0.00000000000E+00  0.00000000000E+00  0.65264439321E+02  0.65264439321E+02  0.00000000000E+00 0.  1.
          2   -1    0    0  501    0  0.00000000000E+00 -0.00000000000E+00 -0.47111009995E+03  0.47111009995E+03  0.00000000000E+00 0. -1.
         25    2    1    2    0    0  0.73757438529E+02 -0.66491528952E+02 -0.35730331754E+03  0.39137514962E+03  0.12509022287E+03 0.  0.
         23    2    1    2    0    0 -0.73757438529E+02  0.66491528952E+02 -0.48542343092E+02  0.14499938965E+03  0.93846580999E+02 0.  0.
          5    1    3    3  502    0  0.51345117713E+01 -0.73496524952E+02 -0.27070505800E+03  0.28058297029E+03  0.41800000000E+01 0.  1.
         -5    1    3    3    0  502  0.68622926757E+02  0.70049960007E+01 -0.86598259534E+02  0.11079217933E+03  0.41800000000E+01 0.  1.
        -11    1    4    4    0    0 -0.19772870701E+02  0.56950397438E+02  0.13940554692E+02  0.61876112105E+02  0.00000000000E+00 0.  1.
         11    1    4    4    0    0 -0.53984567828E+02  0.95411315131E+01 -0.62482897784E+02  0.83123277544E+02  0.00000000000E+00 0. -1.
</event>
<event>
 8    1  0.7005395E-009  0.1151614E+03  0.7561462E-02  0.1251300E+00
          3   -1    0    0  501    0  0.00000000000E+00  0.00000000000E+00  0.30141606954E+03  0.30141606954E+03  0.00000000000E+00 0. -1.
         -3   -1    0    0    0  501 -0.00000000000E+00 -0.00000000000E+00 -0.11128842957E+03  0.11128842957E+03  0.00000000000E+00 0.  1.
         25    2    1    2    0    0  0.24036341884E+02 -0.68770884809E+02 -0.43682018649E+02  0.15120523842E+03  0.12509086714E+03 0.  0.
         23    2    1    2    0    0 -0.24036341884E+02  0.68770884809E+02  0.23380965862E+03  0.26149926070E+03  0.91693656009E+02 0.  0.
          5    1    3    3  502    0 -0.42434301964E+02 -0.11916416519E+01  0.76346070577E+01  0.43334162250E+02  0.41800000000E+01 0. -1.
         -5    1    3    3    0  502  0.66470643848E+02 -0.67579243157E+02 -0.51316625707E+02  0.10787107617E+03  0.41800000000E+01 0. -1.
        -11    1    4    4    0    0 -0.37132594024E+02  0.19779895021E+02  0.18963435367E+03  0.19424536514E+03  0.00000000000E+00 0.  1.
         11    1    4    4    0    0  0.13096252140E+02  0.48990989788E+02  0.44175304955E+02  0.67253895563E+02  0.00000000000E+00 0. -1.
</event>
<event>
 8    1  0.7005395E-009  0.1921206E+03  0.7561462E-02  0.1156562E+00
         -2   -1    0    0    0  501 -0.00000000000E+00  0.00000000000E+00  0.83846707619E+02  0.83846707619E+02  0.00000000000E+00 0.  1.
          2   -1    0    0  501    0  0.00000000000E+00 -0.00000000000E+00 -0.57114681260E+03  0.57114681260E+03  0.00000000000E+00 0. -1.
         25    2    1    2    0    0  0.18427519673E+03 -0.25643549589E+02 -0.30617715699E+03  0.37948025164E+03  0.12508345276E+03 0.  0.
         23    2    1    2    0    0 -0.18427519673E+03  0.25643549589E+02 -0.18112294799E+03  0.27551326858E+03  0.92125453106E+02 0.  0.
          5    1    3    3  502    0  0.51540473195E+02  0.23181384768E+02 -0.19749529894E+02  0.60010943235E+02  0.41800000000E+01 0.  1.
         -5    1    3    3    0  502  0.13273472354E+03 -0.48824934357E+02 -0.28642762710E+03  0.31946930840E+03  0.41800000000E+01 0.  1.
        -11    1    4    4    0    0 -0.12171632408E+03  0.15319689155E+02 -0.17228001025E+03  0.21149458233E+03  0.00000000000E+00 0.  1.
         11    1    4    4    0    0 -0.62558872648E+02  0.10323860434E+02 -0.88429377410E+01  0.64018686250E+02  0.00000000000E+00 0. -1.
</event>
<event>
 8    1  0.7005395E-009  0.7535144E+02  0.7561462E-02  0.1342786E+00
         -1   -1    0    0    0  501 -0.00000000000E+00  0.00000000000E+00  0.22846466378E+02  0.22846466378E+02  0.00000000000E+00 0.  1.
          1   -1    0    0  501    0  0.00000000000E+00 -0.00000000000E+00 -0.53994959883E+03  0.53994959883E+03  0.00000000000E+00 0. -1.
         25    2    1    2    0    0 -0.35974789957E+00  0.19557766989E+02 -0.29322979402E+03  0.31939522338E+03  0.12508781295E+03 0.  0.
         23    2    1    2    0    0  0.35974789957E+00 -0.19557766989E+02 -0.22387333844E+03  0.24340084183E+03  0.93498997182E+02 0.  0.
          5    1    3    3  502    0  0.31074190513E+02 -0.74601351240E+01 -0.10921340352E+02  0.34029502012E+02  0.41800000000E+01 0.  1.
         -5    1    3    3    0  502 -0.31433938413E+02  0.27017902113E+02 -0.28230845366E+03  0.28536572136E+03  0.41800000000E+01 0.  1.
        -11    1    4    4    0    0  0.37057191673E+02 -0.14395438831E+02 -0.18679265309E+03  0.19097633194E+03  0.00000000000E+00 0. -1.
         11    1    4    4    0    0 -0.36697443774E+02 -0.51623281574E+01 -0.37080685349E+02  0.52424509893E+02  0.00000000000E+00 0.  1.
</event>
<event>
 8    1  0.7005395E-009  0.9800960E+02  0.7561462E-02  0.1284538E+00
         -1   -1    0    0    0  501 -0.00000000000E+00  0.00000000000E+00  0.73488560939E+02  0.73488560939E+02  0.00000000000E+00 0.  1.
          1   -1    0    0  501    0  0.00000000000E+00 -0.00000000000E+00 -0.18307173681E+03  0.18307173681E+03  0.00000000000E+00 0. -1.
         25    2    1    2    0    0 -0.18628637623E+02  0.22726582247E+02 -0.93266799972E+02  0.15877535119E+03  0.12508953789E+03 0.  0.
         23    2    1    2    0    0  0.18628637623E+02 -0.22726582247E+02 -0.16316375895E+02  0.97784946551E+02  0.91826727968E+02 0.  0.
          5    1    3    3  502    0  0.47501278520E+01 -0.49192693068E+02 -0.20253729511E+02  0.53573974325E+02  0.41800000000E+01 0.  1.
         -5    1    3    3    0  502 -0.23378765475E+02  0.71919275316E+02 -0.73013070461E+02  0.10520137687E+03  0.41800000000E+01 0.  1.
        -11    1    4    4    0    0  0.16262867661E+02 -0.45224703123E+02 -0.41810220376E+02  0.63701249321E+02  0.00000000000E+00 0. -1.
         11    1    4    4    0    0  0.23657699625E+01  0.22498120875E+02  0.25493844481E+02  0.34083697230E+02  0.00000000000E+00 0.  1.
</event>
<event>
 8    1  0.7005395E-009  0.1095867E+03  0.7561462E-02  0.1261337E+00
          2   -1    0    0  501    0  0.00000000000E+00  0.00000000000E+00  0.55598928610E+03  0.55598928610E+03  0.00000000000E+00 0.  1.
         -2   -1    0    0    0  501 -0.00000000000E+00 -0.00000000000E+00 -0.31688442626E+02  0.31688442626E+02  0.00000000000E+00 0. -1.
         25    2    1    2    0    0 -0.14344367112E+02  0.73687435619E+02  0.29487562801E+03  0.32899090605E+03  0.12509109174E+03 0.  0.
         23    2    1    2    0    0  0.14344367112E+02 -0.73687435619E+02  0.22942521546E+03  0.25868682267E+03  0.92991094728E+02 0.  0.
          5    1    3    3  502    0  0.50184540906E+02  0.28940741959E+02  0.71144841574E+02  0.91842885264E+02  0.41800000000E+01 0. -1.
         -5    1    3    3    0  502 -0.64528908019E+02  0.44746693660E+02  0.22373078644E+03  0.23714802079E+03  0.41800000000E+01 0. -1.
        -11    1    4    4    0    0  0.22856653266E+02 -0.28802758965E+02  0.15441415327E+02  0.39880607190E+02  0.00000000000E+00 0. -1.
         11    1    4    4    0    0 -0.85122861537E+01 -0.44884676654E+02  0.21398380013E+03  0.21880621548E+03  0.00000000000E+00 0.  1.
</event>
<event>
 8    1  0.7005395E-009  0.1276657E+03  0.7561462E-02  0.1230961E+00
         -1   -1    0    0    0  501 -0.00000000000E+00  0.00000000000E+00  0.23006865164E+03  0.23006865164E+03  0.00000000000E+00 0.  1.
          1   -1    0    0  501    0  0.00000000000E+00 -0.00000000000E+00 -0.10431945152E+03  0.10431945152E+03  0.00000000000E+00 0. -1.
         25    2    1    2    0    0 -0.46620672488E+02  0.79924028921E+02  0.13319131604E+03  0.20481413552E+03  0.12509023118E+03 0.  0.
         23    2    1    2    0    0  0.46620672488E+02 -0.79924028921E+02 -0.74421159115E+01  0.12957396765E+03  0.90402934134E+02 0.  0.
          5    1    3    3  502    0  0.42067054066E+02  0.39445055615E+02  0.44645404036E+02  0.73049530812E+02  0.41800000000E+01 0.  1.
         -5    1    3    3    0  502 -0.88687726554E+02  0.40478973306E+02  0.88545912000E+02  0.13176460470E+03  0.41800000000E+01 0.  1.
        -11    1    4    4    0    0 -0.23743341569E+01 -0.29613114587E+02  0.36247814873E+02  0.46866598994E+02  0.00000000000E+00 0.  1.
         11    1    4    4    0    0  0.48995006645E+02 -0.50310914335E+02 -0.43689930784E+02  0.82707368652E+02  0.00000000000E+00 0. -1.
</event>
<event>
 8    1  0.7005395E-009  0.8663416E+02  0.7561462E-02  0.1311214E+00
          1   -1    0    0  501    0  0.00000000000E+00  0.00000000000E+00  0.10546394523E+03  0.10546394523E+03  0.00000000000E+00 0. -1.
         -1   -1    0    0    0  501 -0.00000000000E+00 -0.00000000000E+00 -0.14105816394E+03  0.14105816394E+03  0.00000000000E+00 0.  1.
         25    2    1    2    0    0  0.32434587153E+02  0.17819194133E+02 -0.56903733733E+02  0.14232465891E+03  0.12509495392E+03 0.  0.
         23    2    1    2    0    0 -0.32434587153E+02 -0.17819194133E+02  0.21309515029E+02  0.10419745026E+03  0.95044658385E+02 0.  0.
          5    1    3    3  502    0 -0.16052324125E+02 -0.18182340857E+02  0.28491203254E+02  0.37649643979E+02  0.41800000000E+01 0. -1.
         -5    1    3    3    0  502  0.48486911278E+02  0.36001534989E+02 -0.85394936987E+02  0.10467501493E+03  0.41800000000E+01 0. -1.
        -11    1    4    4    0    0  0.80993829859E+01 -0.40752030086E+02  0.36403609478E+02  0.55240843077E+02  0.00000000000E+00 0. -1.
         11    1    4    4    0    0 -0.40533970139E+02  0.22932835953E+02 -0.15094094448E+02  0.48956607187E+02  0.00000000000E+00 0.  1.
</event>
<event>
 8    1  0.7005395E-009  0.9549110E+02  0.7561462E-02  0.1290074E+00
          4   -1    0    0  501    0  0.00000000000E+00  0.00000000000E+00  0.69619278693E+02  0.69619278693E+02  0.00000000000E+00 0. -1.
         -4   -1    0    0    0  501 -0.00000000000E+00 -0.00000000000E+00 -0.23843871333E+03  0.23843871333E+03  0.00000000000E+00 0.  1.
         25    2    1    2    0    0 -0.28181801540E+02 -0.63139637954E+02 -0.91811101708E+02  0.16987204438E+03  0.12508559169E+03 0.  0.
         23    2    1    2    0    0  0.28181801540E+02  0.63139637954E+02 -0.77008332932E+02  0.13818594764E+03  0.91565522799E+02 0.  0.
          5    1    3    3  502    0 -0.22421893925E+02 -0.75132682785E+02 -0.15434926955E+01  0.78533534998E+02  0.41800000000E+01 0. -1.
         -5    1    3    3    0  502 -0.57599076151E+01  0.11993044830E+02 -0.90267609013E+02  0.91338509386E+02  0.41800000000E+01 0. -1.
        -11    1    4    4    0    0  0.77574371454E+01  0.74664606332E+02 -0.85007617983E+02  0.11340756758E+03  0.00000000000E+00 0.  1.
         11    1    4    4    0    0  0.20424364395E+02 -0.11524968378E+02  0.79992850511E+01  0.24778380059E+02  0.00000000000E+00 0. -1.
</event>
<event>
 8    1  0.7005395E-009  0.1147439E+03  0.7561462E-02  0.1252029E+00
          1   -1    0    0  501    0  0.00000000000E+00  0.00000000000E+00  0.32438771757E+03  0.32438771757E+03  0.00000000000E+00 0. -1.
         -1   -1    0    0    0  501 -0.00000000000E+00 -0.00000000000E+00 -0.51687829382E+02  0.51687829382E+02  0.00000000000E+00 0.  1.
         25    2    1    2    0    0 -0.24384890021E+02 -0.65503530817E+02  0.16346615283E+03  0.21737705648E+03  0.12508503568E+03 0.  0.
         23    2    1    2    0    0  0.24384890021E+02  0.65503530817E+02  0.10923373536E+03  0.15869849048E+03  0.91476043464E+02 0.  0.
          5    1    3    3  502    0 -0.58151534100E+02 -0.21128970725E+02  0.14627455756E+03  0.15887653354E+03  0.41800000000E+01 0.  1.
         -5    1    3    3    0  502  0.33766644079E+02 -0.44374560092E+02  0.17191595273E+02  0.58500522935E+02  0.41800000000E+01 0.  1.
        -11    1    4    4    0    0 -0.20174620050E+02  0.63857219005E+02  0.45686851520E+02  0.81068169555E+02  0.00000000000E+00 0.  1.
         11    1    4    4    0    0  0.44559510071E+02  0.16463118120E+01  0.63546883842E+02  0.77630320922E+02  0.00000000000E+00 0. -1.
</event>
<event>
 8    1  0.7005395E-009  0.1189674E+03  0.7561462E-02  0.1244810E+00
          2   -1    0    0  501    0  0.00000000000E+00  0.00000000000E+00  0.93500395502E+03  0.93500395502E+03  0.00000000000E+00 0. -1.
         -2   -1    0    0    0  501 -0.00000000000E+00 -0.00000000000E+00 -0.31148451068E+02  0.31148451068E+02  0.00000000000E+00 0.  1.
         25    2    1    2    0    0  0.51189568635E+02 -0.30301995687E+02  0.81254456956E+03  0.82426640136E+03  0.12509132669E+03 0.  0.
         23    2    1    2    0    0 -0.51189568635E+02  0.30301995687E+02  0.91310934387E+02  0.14188600472E+03  0.90859059633E+02 0.  0.
          5    1    3    3  502    0 -0.10525243135E+02 -0.59834301666E+02  0.53180009690E+03  0.53527538694E+03  0.41800000000E+01 0.  1.
         -5    1    3    3    0  502  0.61714811770E+02  0.29532305979E+02  0.28074447266E+03  0.28899101442E+03  0.41800000000E+01 0.  1.
        -11    1    4    4    0    0 -0.62823038425E+02 -0.12572633241E+02  0.56992182724E+02  0.85749135012E+02  0.00000000000E+00 0. -1.
         11    1    4    4    0    0  0.11633469790E+02  0.42874628928E+02  0.34318751664E+02  0.56136869710E+02  0.00000000000E+00 0.  1.
</event>
<event>
 8    1  0.7005395E-009  0.1206415E+03  0.7561462E-02  0.1242043E+00
          2   -1    0    0  501    0  0.00000000000E+00  0.00000000000E+00  0.92620711187E+03  0.92620711187E+03  0.00000000000E+00 0.  1.
         -2   -1    0    0    0  501 -0.00000000000E+00 -0.00000000000E+00 -0.21164718148E+02  0.21164718148E+02  0.00000000000E+00 0. -1.
         25    2    1    2    0    0 -0.68187310385E+02 -0.53184540197E+02  0.41375825325E+03  0.44082402907E+03  0.12510726542E+03 0.  0.
         23    2    1    2    0    0  0.68187310385E+02  0.53184540197E+02  0.49128414048E+03  0.50654780095E+03  0.88048074087E+02 0.  0.
          5    1    3    3  502    0 -0.59573506493E+02 -0.80241739516E+02  0.39266629250E+03  0.40520615630E+03  0.41800000000E+01 0.  1.
         -5    1    3    3    0  502 -0.86138038926E+01  0.27057199319E+02  0.21091960745E+02  0.35617872769E+02  0.41800000000E+01 0.  1.
        -11    1    4    4    0    0  0.22322537518E+02  0.61960385584E+02  0.38304101180E+03  0.38866155172E+03  0.00000000000E+00 0.  1.
         11    1    4    4    0    0  0.45864772867E+02 -0.87758453869E+01  0.10824312868E+03  0.11788624923E+03  0.00000000000E+00 0. -1.
</event>
<event>
 8    1  0.7005395E-009  0.9869017E+02  0.7561462E-02  0.1283075E+00
          1   -1    0    0  501    0  0.00000000000E+00  0.00000000000E+00  0.80518194966E+02  0.80518194966E+02  0.00000000000E+00 0. -1.
         -1   -1    0    0    0  501 -0.00000000000E+00 -0.00000000000E+00 -0.21913712695E+03  0.21913712695E+03  0.00000000000E+00 0.  1.
         25    2    1    2    0    0 -0.53271629297E+02  0.33624287008E+02 -0.12726765025E+03  0.18924292403E+03  0.12508944933E+03 0.  0.
         23    2    1    2    0    0  0.53271629297E+02 -0.33624287008E+02 -0.11351281742E+02  0.11041239789E+03  0.89964364306E+02 0.  0.
          5    1    3    3  502    0  0.42714844952E+01 -0.15693815358E+02  0.18446521934E+02  0.24945700867E+02  0.41800000000E+01 0. -1.
         -5    1    3    3    0  502 -0.57543113792E+02  0.49318102367E+02 -0.14571417218E+03  0.16429722317E+03  0.41800000000E+01 0. -1.
        -11    1    4    4    0    0 -0.20826988792E+02 -0.20895231027E+02 -0.18606016908E+02  0.34879191604E+02  0.00000000000E+00 0.  1.
         11    1    4    4    0    0  0.74098618089E+02 -0.12729055982E+02  0.72547351659E+01  0.75533206281E+02  0.00000000000E+00 0. -1.
</event>
<event>
 8    1  0.7005395E-009  0.8160155E+02  0.7561462E-02  0.1324567E+00
          1   -1    0    0  501    0  0.00000000000E+00  0.00000000000E+00  0.13673929641E+03  0.13673929641E+03  0.00000000000E+00 0. -1.
         -1   -1    0    0    0  501 -0.00000000000E+00 -0.00000000000E+00 -0.88321132422E+02  0.88321132422E+02  0.00000000000E+00 0.  1.
         25    2    1    2    0    0 -0.22509694158E-02 -0.14058454725E+02  0.14014109574E+02  0.12665428408E+03  0.12508905729E+03 0.  0.
         23    2    1    2    0    0  0.22509694158E-02  0.14058454725E+02  0.34404054415E+02  0.98406144751E+02  0.91118001571E+02 0.  0.
          5    1    3    3  502    0 -0.60009894630E+02 -0.22727441618E+02  0.92095741570E-01  0.64305559150E+02  0.41800000000E+01 0. -1.
         -5    1    3    3    0  502  0.60007643660E+02  0.86689868938E+01  0.13922013832E+02  0.62348724931E+02  0.41800000000E+01 0. -1.
        -11    1    4    4    0    0  0.51182068031E+01  0.25278654484E+02 -0.26079107372E+02  0.36678689381E+02  0.00000000000E+00 0.  1.
         11    1    4    4    0    0 -0.51159558337E+01 -0.11220199760E+02  0.60483161787E+02  0.61727455370E+02  0.00000000000E+00 0. -1.
</event>
<event>
 8    1  0.7005395E-009  0.7009445E+02  0.7561462E-02  0.1359772E+00
         -2   -1    0    0    0  501 -0.00000000000E+00  0.00000000000E+00  0.12389851661E+03  0.12389851661E+03  0.00000000000E+00 0. -1.
          2   -1    0    0  501    0  0.00000000000E+00 -0.00000000000E+00 -0.95401526188E+02  0.95401526188E+02  0.00000000000E+00 0.  1.
         25    2    1    2    0    0  0.60269805399E+01  0.60638961073E+01  0.28915074039E+02  0.12867293018E+03  0.12509015198E+03 0.  0.
         23    2    1    2    0    0 -0.60269805399E+01 -0.60638961073E+01 -0.41808361867E+00  0.90627112618E+02  0.90221967487E+02 0.  0.
          5    1    3    3  502    0  0.33573526879E+02 -0.22230331828E+02  0.63970481243E+02  0.75703792711E+02  0.41800000000E+01 0. -1.
         -5    1    3    3    0  502 -0.27546546339E+02  0.28294227936E+02 -0.35055407205E+02  0.52969137467E+02  0.41800000000E+01 0. -1.
        -11    1    4    4    0    0 -0.30604767562E+02 -0.14691863582E+02 -0.34053512938E+02  0.48084762622E+02  0.00000000000E+00 0.  1.
         11    1    4    4    0    0  0.24577787023E+02  0.86279674744E+01  0.33635429319E+02  0.42542349996E+02  0.00000000000E+00 0. -1.
</event>
<event>
 8    1  0.7005395E-009  0.1360766E+03  0.7561462E-02  0.1218708E+00
          1   -1    0    0  501    0  0.00000000000E+00  0.00000000000E+00  0.21613136102E+04  0.21613136102E+04  0.00000000000E+00 0. -1.
         -1   -1    0    0    0  501 -0.00000000000E+00 -0.00000000000E+00 -0.12994098642E+02  0.12994098642E+02  0.00000000000E+00 0.  1.
         25    2    1    2    0    0 -0.65960667066E+02  0.85939631352E+02  0.16157654470E+04  0.16242179012E+04  0.12509748550E+03 0.  0.
         23    2    1    2    0    0  0.65960667066E+02 -0.85939631352E+02  0.53255406448E+03  0.55008980761E+03  0.85138328638E+02 0.  0.
          5    1    3    3  502    0  0.10553577264E+02 -0.80151693736E+01  0.73669831439E+03  0.73682935592E+03  0.41800000000E+01 0. -1.
         -5    1    3    3    0  502 -0.76514244330E+02  0.93954800726E+02  0.87906713265E+03  0.88738854527E+03  0.41800000000E+01 0. -1.
        -11    1    4    4    0    0 -0.19390428785E+02 -0.27206770236E+02  0.15635637252E+03  0.15988593529E+03  0.00000000000E+00 0.  1.
         11    1    4    4    0    0  0.85351095851E+02 -0.58732861116E+02  0.37619769195E+03  0.39020387231E+03  0.00000000000E+00 0. -1.
</event>
<event>
 8    1  0.7005395E-009  0.1654956E+03  0.7561462E-02  0.1182628E+00
          2   -1    0    0  501    0  0.00000000000E+00  0.00000000000E+00  0.96398152359E+03  0.96398152359E+03  0.00000000000E+00 0. -1.
         -2   -1    0    0    0  501 -0.00000000000E+00 -0.00000000000E+00 -0.39600202980E+02  0.39600202980E+02  0.00000000000E+00 0.  1.
         25    2    1    2    0    0  0.89858686169E+01  0.15414941751E+03  0.60257218302E+03  0.63449337809E+03  0.12508326160E+03 0.  0.
         23    2    1    2    0    0 -0.89858686169E+01 -0.15414941751E+03  0.32180913759E+03  0.36908834848E+03  0.93927095107E+02 0.  0.
          5    1    3    3  502    0 -0.38035782083E+02  0.70677361106E+02  0.13437427916E+03  0.15657563473E+03  0.41800000000E+01 0.  1.
         -5    1    3    3    0  502  0.47021650700E+02  0.83472056406E+02  0.46819790387E+03  0.47791774336E+03  0.41800000000E+01 0.  1.
        -11    1    4    4    0    0 -0.31769193991E+01 -0.12279365096E+03  0.14779473691E+03  0.19217611140E+03  0.00000000000E+00 0.  1.
         11    1    4    4    0    0 -0.58089492178E+01 -0.31355766551E+02  0.17401440068E+03  0.17691223708E+03  0.00000000000E+00 0. -1.
</event>
<event>
 8    1  0.7005395E-009  0.9422753E+02  0.7561462E-02  0.1292925E+00
         -2   -1    0    0    0  501 -0.00000000000E+00  0.00000000000E+00  0.86067367458E+02  0.86067367458E+02  0.00000000000E+00 0.  1.
          2   -1    0    0  501    0  0.00000000000E+00 -0.00000000000E+00 -0.17862435638E+03  0.17862435638E+03  0.00000000000E+00 0. -1.
         25    2    1    2    0    0 -0.11764034066E+02  0.27559499496E+02 -0.10771304520E+03  0.16777188746E+03  0.12508951836E+03 0.  0.
         23    2    1    2    0    0  0.11764034066E+02 -0.27559499496E+02  0.15156056280E+02  0.96919836383E+02  0.90916610873E+02 0.  0.
          5    1    3    3  502    0  0.37895824081E+02  0.22401165325E+02 -0.10902677563E+03  0.11765294682E+03  0.41800000000E+01 0.  1.
         -5    1    3    3    0  502 -0.49659858147E+02  0.51583341718E+01  0.13137304304E+01  0.50118940634E+02  0.41800000000E+01 0.  1.
        -11    1    4    4    0    0 -0.13362416404E+01  0.32568107698E+02 -0.30688929104E+01  0.32739659199E+02  0.00000000000E+00 0.  1.
         11    1    4    4    0    0  0.13100275706E+02 -0.60127607194E+02  0.18224949190E+02  0.64180177185E+02  0.00000000000E+00 0. -1.
</event>
<event>
 8    1  0.7005395E-009  0.1024634E+03  0.7561462E-02  0.1275199E+00
          2   -1    0    0  501    0  0.00000000000E+00  0.00000000000E+00  0.10867463763E+04  0.10867463763E+04  0.00000000000E+00 0. -1.
         -2   -1    0    0    0  501 -0.00000000000E+00 -0.00000000000E+00 -0.13896259827E+02  0.13896259827E+02  0.00000000000E+00 0.  1.
         25    2    1    2    0    0 -0.25530995593E+02  0.52660162436E+01  0.84701028527E+03  0.85659455375E+03  0.12509293947E+03 0.  0.
         23    2    1    2    0    0  0.25530995593E+02 -0.52660162436E+01  0.22583983125E+03  0.24404808242E+03  0.88748377399E+02 0.  0.
          5    1    3    3  502    0 -0.41159239129E+02 -0.45942303104E+02  0.63048340382E+03  0.63350735834E+03  0.41800000000E+01 0. -1.
         -5    1    3    3    0  502  0.15628243536E+02  0.51208319348E+02  0.21652688145E+03  0.22308719541E+03  0.41800000000E+01 0. -1.
        -11    1    4    4    0    0  0.12570857881E+02 -0.45460850327E+02  0.87468793167E+02  0.99375576267E+02  0.00000000000E+00 0. -1.
         11    1    4    4    0    0  0.12960137711E+02  0.40194834083E+02  0.13837103808E+03  0.14467250615E+03  0.00000000000E+00 0.  1.
</event>
<event>
 8    1  0.7005395E-009  0.9484544E+02  0.7561462E-02  0.1291525E+00
          1   -1    0    0  501    0  0.00000000000E+00  0.00000000000E+00  0.59884903060E+03  0.59884903060E+03  0.00000000000E+00 0. -1.
         -1   -1    0    0    0  501 -0.00000000000E+00 -0.00000000000E+00 -0.32018966596E+02  0.32018966596E+02  0.00000000000E+00 0.  1.
         25    2    1    2    0    0  0.46334798883E+02 -0.61901904846E+02  0.22616241518E+03  0.26977062493E+03  0.12509193668E+03 0.  0.
         23    2    1    2    0    0 -0.46334798883E+02  0.61901904846E+02  0.34066764883E+03  0.36109737227E+03  0.91422677132E+02 0.  0.
          5    1    3    3  502    0  0.46812037511E+02 -0.16106828507E+02  0.12520397218E+02  0.51235041983E+02  0.41800000000E+01 0.  1.
         -5    1    3    3    0  502 -0.47723862862E+00 -0.45795076339E+02  0.21364201796E+03  0.21853558294E+03  0.41800000000E+01 0.  1.
        -11    1    4    4    0    0 -0.74215445334E+01  0.53754303647E+02  0.29751105286E+03  0.30241929677E+03  0.00000000000E+00 0. -1.
         11    1    4    4    0    0 -0.38913254349E+02  0.81476011991E+01  0.43156595963E+02  0.58678075500E+02  0.00000000000E+00 0.  1.
</event>
<event>
 8    1  0.7005395E-009  0.1824177E+03  0.7561462E-02  0.1165483E+00
         -1   -1    0    0    0  501 -0.00000000000E+00  0.00000000000E+00  0.58746908814E+02  0.58746908814E+02  0.00000000000E+00 0.  1.
          1   -1    0    0  501    0  0.00000000000E+00 -0.00000000000E+00 -0.77648088423E+03  0.77648088423E+03  0.00000000000E+00 0. -1.
         25    2    1    2    0    0 -0.17828007535E+03  0.37961504160E+02 -0.32695469781E+03  0.39467863237E+03  0.12508791854E+03 0.  0.
         23    2    1    2    0    0  0.17828007535E+03 -0.37961504160E+02 -0.39077927761E+03  0.44054916068E+03  0.90278779898E+02 0.  0.
          5    1    3    3  502    0 -0.69035519749E+02  0.13239963725E+02 -0.24741102034E+03  0.25723702107E+03  0.41800000000E+01 0.  1.
         -5    1    3    3    0  502 -0.10924455560E+03  0.24721540435E+02 -0.79543677471E+02  0.13744161129E+03  0.41800000000E+01 0.  1.
        -11    1    4    4    0    0  0.64134908780E+02 -0.15875414884E+02 -0.57549450669E+02  0.87619944044E+02  0.00000000000E+00 0.  1.
         11    1    4    4    0    0  0.11414516657E+03 -0.22086089276E+02 -0.33322982694E+03  0.35292921663E+03  0.00000000000E+00 0. -1.
</event>
<event>
 8    1  0.7005395E-009  0.1053482E+03  0.7561462E-02  0.1269435E+00
          2   -1    0    0  501    0  0.00000000000E+00  0.00000000000E+00  0.79424679380E+03  0.79424679380E+03  0.00000000000E+00 0. -1.
         -2   -1    0    0    0  501 -0.00000000000E+00 -0.00000000000E+00 -0.18687138223E+02  0.18687138223E+02  0.00000000000E+00 0.  1.
         25    2    1    2    0    0  0.60087450164E+01  0.49431012865E+01  0.62825822614E+03  0.64063756402E+03  0.12509016933E+03 0.  0.
         23    2    1    2    0    0 -0.60087450164E+01 -0.49431012865E+01  0.14730142944E+03  0.17229636800E+03  0.89038126911E+02 0.  0.
          5    1    3    3  502    0  0.52143299910E+02  0.39260286818E+02  0.27254543265E+03  0.28028339070E+03  0.41800000000E+01 0.  1.
         -5    1    3    3    0  502 -0.46134554894E+02 -0.34317185532E+02  0.35571279349E+03  0.36035417332E+03  0.41800000000E+01 0.  1.
        -11    1    4    4    0    0 -0.25246464269E+02 -0.40204325910E+02  0.96393828181E+02  0.10745018330E+03  0.00000000000E+00 0. -1.
         11    1    4    4    0    0  0.19237719253E+02  0.35261224624E+02  0.50907601257E+02  0.64846184697E+02  0.00000000000E+00 0.  1.
</event>
<event>
 8    1  0.7005395E-009  0.1072808E+03  0.7561462E-02  0.1265690E+00
         -2   -1    0    0    0  501 -0.00000000000E+00  0.00000000000E+00  0.10516637881E+03  0.10516637881E+03  0.00000000000E+00 0.  1.
          2   -1    0    0  501    0  0.00000000000E+00 -0.00000000000E+00 -0.27251781282E+03  0.27251781282E+03  0.00000000000E+00 0. -1.
         25    2    1    2    0    0  0.48447118516E+01  0.81527863381E+02  0.22841339672E+02  0.15113062557E+03  0.12509386655E+03 0.  0.
         23    2    1    2    0    0 -0.48447118516E+01 -0.81527863381E+02 -0.19019277368E+03  0.22655356605E+03  0.92103004236E+02 0.  0.
          5    1    3    3  502    0 -0.29428382174E+02  0.50469372571E+02  0.65642215143E+02  0.87974769417E+02  0.41800000000E+01 0.  1.
         -5    1    3    3    0  502  0.34273094025E+02  0.31058490810E+02 -0.42800875472E+02  0.63155856155E+02  0.41800000000E+01 0.  1.
        -11    1    4    4    0    0 -0.29086462647E+02 -0.53078794978E+01 -0.13302760819E+02  0.32421587553E+02  0.00000000000E+00 0.  1.
         11    1    4    4    0    0  0.24241750795E+02 -0.76219983883E+02 -0.17689001286E+03  0.19413197850E+03  0.00000000000E+00 0. -1.
</event>
<event>
 8    1  0.7005395E-009  0.8108126E+02  0.7561462E-02  0.1326011E+00
          4   -1    0    0  501    0  0.00000000000E+00  0.00000000000E+00  0.30985947727E+02  0.30985947727E+02  0.00000000000E+00 0. -1.
         -4   -1    0    0    0  501 -0.00000000000E+00 -0.00000000000E+00 -0.55250990536E+03  0.55250990536E+03  0.00000000000E+00 0.  1.
         25    2    1    2    0    0  0.52903088373E+01 -0.68968030963E+02 -0.23474934579E+03  0.27484307976E+03  0.12508751528E+03 0.  0.
         23    2    1    2    0    0 -0.52903088373E+01  0.68968030963E+02 -0.28677461184E+03  0.30865277333E+03  0.90787002500E+02 0.  0.
          5    1    3    3  502    0  0.65593847298E+00 -0.12992420616E+01 -0.19710967695E+03  0.19715936557E+03  0.41800000000E+01 0. -1.
         -5    1    3    3    0  502  0.46343703643E+01 -0.67668788901E+02 -0.37639668847E+02  0.77683714194E+02  0.41800000000E+01 0. -1.
        -11    1    4    4    0    0  0.24482270189E+02  0.46250352899E+02 -0.63617775728E+02  0.82375348773E+02  0.00000000000E+00 0. -1.
         11    1    4    4    0    0 -0.29772579027E+02  0.22717678064E+02 -0.22315683611E+03  0.22627742455E+03  0.00000000000E+00 0.  1.
</event>
<event>
 8    1  0.7005395E-009  0.1199741E+03  0.7561462E-02  0.1243140E+00
         -2   -1    0    0    0  501 -0.00000000000E+00  0.00000000000E+00  0.84063009417E+02  0.84063009417E+02  0.00000000000E+00 0.  1.
          2   -1    0    0  501    0  0.00000000000E+00 -0.00000000000E+00 -0.23544443162E+03  0.23544443162E+03  0.00000000000E+00 0. -1.
         25    2    1    2    0    0 -0.59809661138E+02  0.19455411909E+02 -0.15729398269E+03  0.21058026547E+03  0.12508773959E+03 0.  0.
         23    2    1    2    0    0  0.59809661138E+02 -0.19455411909E+02  0.59125604894E+01  0.10892717557E+03  0.88738168721E+02 0.  0.
          5    1    3    3  502    0 -0.98612001739E+02  0.67538732044E+01 -0.11334210091E+03  0.15044549155E+03  0.41800000000E+01 0. -1.
         -5    1    3    3    0  502  0.38802340600E+02  0.12701538705E+02 -0.43951881785E+02  0.60134773916E+02  0.41800000000E+01 0. -1.
        -11    1    4    4    0    0  0.67733381516E+02  0.10897995786E+02  0.24041390700E+02  0.72695018746E+02  0.00000000000E+00 0.  1.
         11    1    4    4    0    0 -0.79237203773E+01 -0.30353407695E+02 -0.18128830210E+02  0.36232156823E+02  0.00000000000E+00 0. -1.
</event>
<event>
 8    1  0.7005395E-009  0.1091566E+03  0.7561462E-02  0.1262140E+00
          1   -1    0    0  501    0  0.00000000000E+00  0.00000000000E+00  0.24256967723E+03  0.24256967723E+03  0.00000000000E+00 0. -1.
         -1   -1    0    0    0  501 -0.00000000000E+00 -0.00000000000E+00 -0.63677352187E+02  0.63677352187E+02  0.00000000000E+00 0.  1.
         25    2    1    2    0    0 -0.39769063364E+01 -0.94080723959E+01  0.17114695699E+03  0.21223775329E+03  0.12509698407E+03 0.  0.
         23    2    1    2    0    0  0.39769063364E+01  0.94080723959E+01  0.77453680477E+01  0.94009276125E+02  0.93131228174E+02 0.  0.
          5    1    3    3  502    0 -0.22987411968E+02 -0.63662454501E+02  0.95734825372E+02  0.11731989776E+03  0.41800000000E+01 0.  1.
         -5    1    3    3    0  502  0.19010505631E+02  0.54254382105E+02  0.75412131619E+02  0.94917855524E+02  0.41800000000E+01 0.  1.
        -11    1    4    4    0    0 -0.22674556945E+02  0.43816309511E+02 -0.21249224520E+01  0.49381371055E+02  0.00000000000E+00 0.  1.
         11    1    4    4    0    0  0.26651463282E+02 -0.34408237115E+02  0.98702904997E+01  0.44627905070E+02  0.00000000000E+00 0. -1.
</event>
<event>
 8    1  0.7005395E-009  0.9620672E+02  0.7561462E-02  0.1288481E+00
         -1   -1    0    0    0  501 -0.00000000000E+00  0.00000000000E+00  0.80675733185E+02  0.80675733185E+02  0.00000000000E+00 0.  1.
          1   -1    0    0  501    0  0.00000000000E+00 -0.00000000000E+00 -0.18163156621E+03  0.18163156621E+03  0.00000000000E+00 0. -1.
         25    2    1    2    0    0  0.71055326576E+01 -0.38143927317E+02 -0.98445448546E+02  0.16384155117E+03  0.12508836783E+03 0.  0.
         23    2    1    2    0    0 -0.71055326576E+01  0.38143927317E+02 -0.25103844827E+01  0.98465748226E+02  0.90464102040E+02 0.  0.
          5    1    3    3  502    0  0.47926356258E+02  0.18239489309E+02 -0.73627164183E+02  0.89822304023E+02  0.41800000000E+01 0.  1.
         -5    1    3    3    0  502 -0.40820823600E+02 -0.56383416626E+02 -0.24818284364E+02  0.74019247149E+02  0.41800000000E+01 0.  1.
        -11    1    4    4    0    0  0.26374281834E+02  0.13297639214E+02  0.32577113134E+02  0.43973835983E+02  0.00000000000E+00 0.  1.
         11    1    4    4    0    0 -0.33479814492E+02  0.24846288103E+02 -0.35087497617E+02  0.54491912243E+02  0.00000000000E+00 0. -1.
</event>
<event>
 8    1  0.7005395E-009  0.8555672E+02  0.7561462E-02  0.1313983E+00
         -1   -1    0    0    0  501 -0.00000000000E+00  0.00000000000E+00  0.73104755451E+02  0.73104755451E+02  0.00000000000E+00 0.  1.
          1   -1    0    0  501    0  0.00000000000E+00 -0.00000000000E+00 -0.19343842836E+03  0.19343842836E+03  0.00000000000E+00 0. -1.
         25    2    1    2    0    0  0.23486778609E+02 -0.21535297969E+01 -0.11631765334E+03  0.17243483757E+03  0.12509080809E+03 0.  0.
         23    2    1    2    0    0 -0.23486778609E+02  0.21535297969E+01 -0.40160195619E+01  0.94108346241E+02  0.91016404889E+02 0.  0.
          5    1    3    3  502    0 -0.41432689854E+02  0.52328724317E+01 -0.36546162275E+01  0.42129317134E+02  0.41800000000E+01 0. -1.
         -5    1    3    3    0  502  0.64919468463E+02 -0.73864022286E+01 -0.11266303712E+03  0.13030552044E+03  0.41800000000E+01 0. -1.
        -11    1    4    4    0    0  0.18216976212E+02  0.10662632930E+02 -0.35407163539E+02  0.41221562235E+02  0.00000000000E+00 0. -1.
         11    1    4    4    0    0 -0.41703754820E+02 -0.85091031327E+01  0.31391143977E+02  0.52886784005E+02  0.00000000000E+00 0.  1.
</event>
<event>
 8    1  0.7005395E-009  0.1140069E+03  0.7561462E-02  0.1253325E+00
         -2   -1    0    0    0  501 -0.00000000000E+00  0.00000000000E+00  0.80646114407E+02  0.80646114407E+02  0.00000000000E+00 0.  1.
          2   -1    0    0  501    0  0.00000000000E+00 -0.00000000000E+00 -0.19483806649E+03  0.19483806649E+03  0.00000000000E+00 0. -1.
         25    2    1    2    0    0  0.37645623672E+02 -0.11599136044E+02 -0.14639580315E+02  0.13196220759E+03  0.12509186217E+03 0.  0.
         23    2    1    2    0    0 -0.37645623672E+02  0.11599136044E+02 -0.99552371764E+02  0.14352197330E+03  0.95583205422E+02 0.  0.
          5    1    3    3  502    0  0.52043670443E+02 -0.57160800413E+02  0.99633669675E+01  0.78055376614E+02  0.41800000000E+01 0.  1.
         -5    1    3    3    0  502 -0.14398046772E+02  0.45561664369E+02 -0.24602947283E+02  0.53906830976E+02  0.41800000000E+01 0.  1.
        -11    1    4    4    0    0 -0.46794018152E+02 -0.32899913963E+02 -0.63977399778E+02  0.85820697713E+02  0.00000000000E+00 0.  1.
         11    1    4    4    0    0  0.91483944798E+01  0.44499050007E+02 -0.35574971987E+02  0.57701275592E+02  0.00000000000E+00 0. -1.
</event>
<event>
 8    1  0.7005395E-009  0.1165134E+03  0.7561462E-02  0.1248962E+00
         -1   -1    0    0    0  501 -0.00000000000E+00  0.00000000000E+00  0.14921426340E+02  0.14921426340E+02  0.00000000000E+00 0.  1.
          1   -1    0    0  501    0  0.00000000000E+00 -0.00000000000E+00 -0.11497225699E+04  0.11497225699E+04  0.00000000000E+00 0. -1.
         25    2    1    2    0    0 -0.50113984722E+02  0.36934760119E+02 -0.81065687605E+03  0.82261041414E+03  0.12509090613E+03 0.  0.
         23    2    1    2    0    0  0.50113984722E+02 -0.36934760119E+02 -0.32414426750E+03  0.34203358209E+03  0.89676513953E+02 0.  0.
          5    1    3    3  502    0 -0.10396668902E+02  0.79138273151E+02 -0.40479550452E+03  0.41261099099E+03  0.41800000000E+01 0.  1.
         -5    1    3    3    0  502 -0.39717315820E+02 -0.42203513032E+02 -0.40586137153E+03  0.40999942315E+03  0.41800000000E+01 0.  1.
        -11    1    4    4    0    0  0.30991358574E+02  0.18679251106E+02 -0.21527985390E+03  0.21829978063E+03  0.00000000000E+00 0. -1.
         11    1    4    4    0    0  0.19122626149E+02 -0.55614011225E+02 -0.10886441360E+03  0.12373380146E+03  0.00000000000E+00 0.  1.
</event>
<event>
 8    1  0.7005395E-009  0.1054712E+03  0.7561462E-02  0.1269194E+00
          2   -1    0    0  501    0  0.00000000000E+00  0.00000000000E+00  0.72250110192E+02  0.72250110192E+02  0.00000000000E+00 0. -1.
         -2   -1    0    0    0  501 -0.00000000000E+00 -0.00000000000E+00 -0.31757048153E+03  0.31757048153E+03  0.00000000000E+00 0.  1.
         25    2    1    2    0    0  0.31377065150E+02  0.52467965053E+02 -0.22468874316E+02  0.14102953607E+03  0.12508825747E+03 0.  0.
         23    2    1    2    0    0 -0.31377065150E+02 -0.52467965053E+02 -0.22285149702E+03  0.24879105564E+03  0.92178045494E+02 0.  0.
          5    1    3    3  502    0 -0.28871145221E+02  0.51217252368E+02 -0.47443347043E+02  0.75664347914E+02  0.41800000000E+01 0. -1.
         -5    1    3    3    0  502  0.60248210371E+02  0.12507126853E+01  0.24974472727E+02  0.65365188160E+02  0.41800000000E+01 0. -1.
        -11    1    4    4    0    0 -0.67433247453E+00 -0.59981326866E+02 -0.67696368100E+02  0.90448949971E+02  0.00000000000E+00 0.  1.
         11    1    4    4    0    0 -0.30702732676E+02  0.75133618128E+01 -0.15515512892E+03  0.15834210567E+03  0.00000000000E+00 0. -1.
</event>
<event>
 8    1  0.7005395E-009  0.1127006E+03  0.7561462E-02  0.1255649E+00
          2   -1    0    0  501    0  0.00000000000E+00  0.00000000000E+00  0.94256770710E+02  0.94256770710E+02  0.00000000000E+00 0. -1.
         -2   -1    0    0    0  501 -0.00000000000E+00 -0.00000000000E+00 -0.14648716855E+03  0.14648716855E+03  0.00000000000E+00 0.  1.
         25    2    1    2    0    0  0.49850633366E+01 -0.45919880544E+02 -0.25631837190E+02  0.13578546391E+03  0.12508882782E+03 0.  0.
         23    2    1    2    0    0 -0.49850633366E+01  0.45919880544E+02 -0.26598560645E+02  0.10495847535E+03  0.90417431028E+02 0.  0.
          5    1    3    3  502    0  0.52539063636E+02  0.95122153962E+01 -0.31943236436E+02  0.62359267182E+02  0.41800000000E+01 0.  1.
         -5    1    3    3    0  502 -0.47554000299E+02 -0.55432095941E+02  0.63113992460E+01  0.73426196723E+02  0.41800000000E+01 0.  1.
        -11    1    4    4    0    0 -0.37846477168E+02 -0.49092228698E+01  0.15750635612E+01  0.38196035507E+02  0.00000000000E+00 0. -1.
         11    1    4    4    0    0  0.32861413831E+02  0.50829103414E+02 -0.28173624206E+02  0.66762439843E+02  0.00000000000E+00 0.  1.
</event>
<event>
 8    1  0.7005395E-009  0.1042923E+03  0.7561462E-02  0.1271520E+00
         -2   -1    0    0    0  501 -0.00000000000E+00  0.00000000000E+00  0.31214507106E+03  0.31214507106E+03  0.00000000000E+00 0. -1.
          2   -1    0    0  501    0  0.00000000000E+00 -0.00000000000E+00 -0.53955144488E+02  0.53955144488E+02  0.00000000000E+00 0.  1.
         25    2    1    2    0    0  0.59918477805E+02 -0.27224248513E+02  0.17884877684E+03  0.22796596467E+03  0.12510080888E+03 0.  0.
         23    2    1    2    0    0 -0.59918477805E+02  0.27224248513E+02  0.79341149729E+02  0.13813425087E+03  0.91949276963E+02 0.  0.
          5    1    3    3  502    0 -0.11183293404E+02  0.16741994691E+02  0.12882382063E+03  0.13045462659E+03  0.41800000000E+01 0.  1.
         -5    1    3    3    0  502  0.71101771208E+02 -0.43966243203E+02  0.50024956209E+02  0.97511338080E+02  0.41800000000E+01 0.  1.
        -11    1    4    4    0    0 -0.64545558783E+02  0.49643381984E+02  0.35817729628E+02  0.88957879297E+02  0.00000000000E+00 0.  1.
         11    1    4    4    0    0  0.46270809778E+01 -0.22419133471E+02  0.43523420101E+02  0.49176371575E+02  0.00000000000E+00 0. -1.
</event>
<event>
 8    1  0.7005395E-009  0.1018686E+03  0.7561462E-02  0.1276415E+00
          3   -1    0    0  501    0  0.00000000000E+00  0.00000000000E+00  0.66742084264E+03  0.66742084264E+03  0.00000000000E+00 0. -1.
         -3   -1    0    0    0  501 -0.00000000000E+00 -0.00000000000E+00 -0.18626332865E+02  0.18626332865E+02  0.00000000000E+00 0.  1.
         25    2    1    2    0    0  0.39010707634E+01 -0.13268925050E+02  0.39125986675E+03  0.41100307967E+03  0.12509182803E+03 0.  0.
         23    2    1    2    0    0 -0.39010707634E+01  0.13268925050E+02  0.25753464302E+03  0.27504409584E+03  0.95571332380E+02 0.  0.
          5    1    3    3  502    0  0.63186140037E+02  0.52203689446E+01  0.20465155736E+03  0.21428829384E+03  0.41800000000E+01 0. -1.
         -5    1    3    3    0  502 -0.59285069274E+02 -0.18489293995E+02  0.18660830939E+03  0.19671478583E+03  0.41800000000E+01 0. -1.
        -11    1    4    4    0    0 -0.94028576013E+01 -0.31488243999E+02  0.35092148669E+02  0.48076835789E+02  0.00000000000E+00 0.  1.
         11    1    4    4    0    0  0.55017868379E+01  0.44757169049E+02  0.22244249435E+03  0.22696726005E+03  0.00000000000E+00 0. -1.
</event>
<event>
 8    1  0.7005395E-009  0.1022165E+03  0.7561462E-02  0.1275703E+00
          1   -1    0    0  501    0  0.00000000000E+00  0.00000000000E+00  0.10048161247E+03  0.10048161247E+03  0.00000000000E+00 0. -1.
         -1   -1    0    0    0  501 -0.00000000000E+00 -0.00000000000E+00 -0.13739408983E+03  0.13739408983E+03  0.00000000000E+00 0.  1.
         25    2    1    2    0    0  0.15736664266E+02  0.41742727507E+02 -0.32567537219E+02  0.13673819609E+03  0.12508633774E+03 0.  0.
         23    2    1    2    0    0 -0.15736664266E+02 -0.41742727507E+02 -0.43449401373E+01  0.10113750620E+03  0.90663216103E+02 0.  0.
          5    1    3    3  502    0  0.12370756005E+02 -0.29753595871E+02 -0.53016625519E+02  0.62181565217E+02  0.41800000000E+01 0.  1.
         -5    1    3    3    0  502  0.33659082605E+01  0.71496323378E+02  0.20449088301E+02  0.74556630875E+02  0.41800000000E+01 0.  1.
        -11    1    4    4    0    0 -0.28810974675E+02  0.21318356202E+02  0.45339284066E+01  0.36126182744E+02  0.00000000000E+00 0. -1.
         11    1    4    4    0    0  0.13074310409E+02 -0.63061083709E+02 -0.88788685440E+01  0.65011323458E+02  0.00000000000E+00 0.  1.
</event>
<event>
 8    1  0.7005395E-009  0.1365732E+03  0.7561462E-02  0.1218016E+00
          3   -1    0    0  501    0  0.00000000000E+00  0.00000000000E+00  0.11699191351E+04  0.11699191351E+04  0.00000000000E+00 0. -1.
         -3   -1    0    0    0  501 -0.00000000000E+00 -0.00000000000E+00 -0.29583542559E+02  0.29583542559E+02  0.00000000000E+00 0.  1.
         25    2    1    2    0    0  0.84065646222E+02  0.49638643600E+02  0.96819796120E+03  0.98111464744E+03  0.12509049340E+03 0.  0.
         23    2    1    2    0    0 -0.84065646222E+02 -0.49638643600E+02  0.17213763133E+03  0.21838803020E+03  0.92363086804E+02 0.  0.
          5    1    3    3  502    0  0.10903757957E+03  0.27200078288E+02  0.54017718375E+03  0.55175891498E+03  0.41800000000E+01 0. -1.
         -5    1    3    3    0  502 -0.24971933345E+02  0.22438565312E+02  0.42802077745E+03  0.42935573246E+03  0.41800000000E+01 0. -1.
        -11    1    4    4    0    0  0.89282710730E+01 -0.30678563241E+02  0.79863525528E+02  0.86017852663E+02  0.00000000000E+00 0. -1.
         11    1    4    4    0    0 -0.92993917295E+02 -0.18960080358E+02  0.92274105798E+02  0.13237017754E+03  0.00000000000E+00 0.  1.
</event>
<event>
 8    1  0.7005395E-009  0.1097410E+03  0.7561462E-02  0.1261050E+00
         -2   -1    0    0    0  501 -0.00000000000E+00  0.00000000000E+00  0.17398601963E+03  0.17398601963E+03  0.00000000000E+00 0. -1.
          2   -1    0    0  501    0  0.00000000000E+00 -0.00000000000E+00 -0.80488717947E+02  0.80488717947E+02  0.00000000000E+00 0.  1.
         25    2    1    2    0    0 -0.26685571454E+02  0.12002107850E+02  0.11035430605E+02  0.12894102919E+03  0.12509131850E+03 0.  0.
         23    2    1    2    0    0  0.26685571454E+02 -0.12002107850E+02  0.82461871074E+02  0.12553370838E+03  0.90014340198E+02 0.  0.
          5    1    3    3  502    0  0.50117510276E+02 -0.16583036034E+01  0.56542764262E+01  0.50635541362E+02  0.41800000000E+01 0.  1.
         -5    1    3    3    0  502 -0.76803081730E+02  0.13660411454E+02  0.53811541793E+01  0.78305487833E+02  0.41800000000E+01 0.  1.
        -11    1    4    4    0    0  0.11375879339E+02  0.37520750346E+02  0.18928415387E+02  0.43537366093E+02  0.00000000000E+00 0. -1.
         11    1    4    4    0    0  0.15309692115E+02 -0.49522858196E+02  0.63533455687E+02  0.81996342285E+02  0.00000000000E+00 0.  1.
</event>
<event>
 8    1  0.7005395E-009  0.1023569E+03  0.7561462E-02  0.1275416E+00
         -1   -1    0    0    0  501 -0.00000000000E+00  0.00000000000E+00  0.42966924096E+02  0.42966924096E+02  0.00000000000E+00 0.  1.
          1   -1    0    0  501    0  0.00000000000E+00 -0.00000000000E+00 -0.54652764216E+03  0.54652764216E+03  0.00000000000E+00 0. -1.
         25    2    1    2    0    0 -0.34464578730E+02  0.45317072537E+02 -0.45990278412E+03  0.47999949026E+03  0.12508994985E+03 0.  0.
         23    2    1    2    0    0  0.34464578730E+02 -0.45317072537E+02 -0.43657933944E+02  0.10949507600E+03  0.82714643335E+02 0.  0.
          5    1    3    3  502    0 -0.64329203928E+02  0.23241937685E+02 -0.12112013964E+03  0.13916175758E+03  0.41800000000E+01 0. -1.
         -5    1    3    3    0  502  0.29864625198E+02  0.22075134851E+02 -0.33878264448E+03  0.34083773268E+03  0.41800000000E+01 0. -1.
        -11    1    4    4    0    0  0.55246310560E+02 -0.76205083496E+01 -0.14894946287E+02  0.57724227174E+02  0.00000000000E+00 0.  1.
         11    1    4    4    0    0 -0.20781731830E+02 -0.37696564187E+02 -0.28762987657E+02  0.51770848828E+02  0.00000000000E+00 0. -1.
</event>
<event>
 8    1  0.7005395E-009  0.1446162E+03  0.7561462E-02  0.1207249E+00
         -2   -1    0    0    0  501 -0.00000000000E+00  0.00000000000E+00  0.23521364616E+02  0.23521364616E+02  0.00000000000E+00 0. -1.
          2   -1    0    0  501    0  0.00000000000E+00 -0.00000000000E+00 -0.16844901650E+04  0.16844901650E+04  0.00000000000E+00 0.  1.
         25    2    1    2    0    0  0.86496123613E+02  0.83733464902E+02 -0.13657509240E+04  0.13767422588E+04  0.12510311047E+03 0.  0.
         23    2    1    2    0    0 -0.86496123613E+02 -0.83733464902E+02 -0.29521787642E+03  0.33126927084E+03  0.89960339594E+02 0.  0.
          5    1    3    3  502    0  0.24982612033E+01  0.80252579069E+02 -0.44956826789E+03  0.45670101560E+03  0.41800000000E+01 0.  1.
         -5    1    3    3    0  502  0.83997862410E+02  0.34808858332E+01 -0.91618265610E+03  0.92004124320E+03  0.41800000000E+01 0.  1.
        -11    1    4    4    0    0 -0.65023721530E+01 -0.23885127952E+02 -0.62675112982E+01  0.25535502321E+02  0.00000000000E+00 0. -1.
         11    1    4    4    0    0 -0.79993751460E+02 -0.59848336949E+02 -0.28895036512E+03  0.30573376851E+03  0.00000000000E+00 0.  1.
</event>
<event>
 8    1  0.7005395E-009  0.1863263E+03  0.7561462E-02  0.1161817E+00
          2   -1    0    0  501    0  0.00000000000E+00  0.00000000000E+00  0.15664822700E+03  0.15664822700E+03  0.00000000000E+00 0.  1.
         -2   -1    0    0    0  501 -0.00000000000E+00 -0.00000000000E+00 -0.32480795663E+03  0.32480795663E+03  0.00000000000E+00 0. -1.
         25    2    1    2    0    0 -0.13603372982E+03  0.94353600949E+02 -0.19639875874E+03  0.28570335884E+03  0.12508460800E+03 0.  0.
         23    2    1    2    0    0  0.13603372982E+03 -0.94353600949E+02  0.28239029110E+02  0.19575282478E+03  0.10056812608E+03 0.  0.
          5    1    3    3  502    0 -0.12284495450E+03  0.12384671424E+03 -0.15852742323E+03  0.23574839934E+03  0.41800000000E+01 0.  1.
         -5    1    3    3    0  502 -0.13188775324E+02 -0.29493113291E+02 -0.37871335509E+02  0.49954959507E+02  0.41800000000E+01 0.  1.
        -11    1    4    4    0    0  0.12479082970E+03 -0.87653931414E+02 -0.12454181926E+02  0.15300676298E+03  0.00000000000E+00 0. -1.
         11    1    4    4    0    0  0.11242900122E+02 -0.66996695343E+01  0.40693211036E+02  0.42746061800E+02  0.00000000000E+00 0.  1.
</event>
<event>
 8    1  0.7005395E-009  0.1348681E+03  0.7561462E-02  0.1220406E+00
          1   -1    0    0  501    0  0.00000000000E+00  0.00000000000E+00  0.87117258487E+03  0.87117258487E+03  0.00000000000E+00 0. -1.
         -1   -1    0    0    0  501 -0.00000000000E+00 -0.00000000000E+00 -0.30098683171E+02  0.30098683171E+02  0.00000000000E+00 0.  1.
         25    2    1    2    0    0 -0.11273781914E+03 -0.43732509666E+02  0.41203804591E+03  0.44726344705E+03  0.12508753543E+03 0.  0.
         23    2    1    2    0    0  0.11273781914E+03  0.43732509666E+02  0.42903585579E+03  0.45400782099E+03  0.86191575596E+02 0.  0.
          5    1    3    3  502    0 -0.56845829132E+02 -0.42277107067E+02  0.66660802569E+02  0.97364968396E+02  0.41800000000E+01 0. -1.
         -5    1    3    3    0  502 -0.55891990013E+02 -0.14554025992E+01  0.34537724334E+03  0.34989847865E+03  0.41800000000E+01 0. -1.
        -11    1    4    4    0    0 -0.60109487349E+01  0.20940715700E+02  0.12365651271E+03  0.12556105374E+03  0.00000000000E+00 0. -1.
         11    1    4    4    0    0  0.11874876788E+03  0.22791793966E+02  0.30537934308E+03  0.32844676726E+03  0.00000000000E+00 0.  1.
</event>
<event>
 8    1  0.7005395E-009  0.1202085E+03  0.7561462E-02  0.1242753E+00
         -2   -1    0    0    0  501 -0.00000000000E+00  0.00000000000E+00  0.13215579018E+03  0.13215579018E+03  0.00000000000E+00 0.  1.
          2   -1    0    0  501    0  0.00000000000E+00 -0.00000000000E+00 -0.13799621348E+03  0.13799621348E+03  0.00000000000E+00 0. -1.
         25    2    1    2    0    0 -0.76698520242E+02  0.14217379196E+02 -0.21048512689E+02  0.14890323297E+03  0.12507732018E+03 0.  0.
         23    2    1    2    0    0  0.76698520242E+02 -0.14217379196E+02  0.15208089384E+02  0.12124877069E+03  0.91570636851E+02 0.  0.
          5    1    3    3  502    0 -0.18587619517E+01 -0.46424546402E+02 -0.23962479309E+02  0.52443935009E+02  0.41800000000E+01 0.  1.
         -5    1    3    3    0  502 -0.74839758290E+02  0.60641925598E+02  0.29139666205E+01  0.96459297958E+02  0.41800000000E+01 0.  1.
        -11    1    4    4    0    0  0.86389067987E+02 -0.10727547452E+02  0.38949948790E+02  0.95369019355E+02  0.00000000000E+00 0.  1.
         11    1    4    4    0    0 -0.96905477457E+01 -0.34898317440E+01 -0.23741859407E+02  0.25879751338E+02  0.00000000000E+00 0. -1.
</event>
<event>
 8    1  0.7005395E-009  0.1158461E+03  0.7561462E-02  0.1250111E+00
          2   -1    0    0  501    0  0.00000000000E+00  0.00000000000E+00  0.34158358901E+03  0.34158358901E+03  0.00000000000E+00 0. -1.
         -2   -1    0    0    0  501 -0.00000000000E+00 -0.00000000000E+00 -0.72502895398E+02  0.72502895398E+02  0.00000000000E+00 0.  1.
         25    2    1    2    0    0 -0.43906559481E+02  0.40541944641E+02  0.26772868829E+03  0.30149247083E+03  0.12509046402E+03 0.  0.
         23    2    1    2    0    0  0.43906559481E+02 -0.40541944641E+02  0.13520053157E+01  0.11259401358E+03  0.95415662940E+02 0.  0.
          5    1    3    3  502    0 -0.27064570564E+01 -0.34305488063E+02  0.21410237221E+02  0.40743859401E+02  0.41800000000E+01 0. -1.
         -5    1    3    3    0  502 -0.41200102424E+02  0.74847432704E+02  0.24631845107E+03  0.26074861143E+03  0.41800000000E+01 0. -1.
        -11    1    4    4    0    0  0.18355631940E+02 -0.70072887170E+02 -0.66175086958E+01  0.72738780314E+02  0.00000000000E+00 0.  1.
         11    1    4    4    0    0  0.25550927540E+02  0.29530942529E+02  0.79695140115E+01  0.39855233262E+02  0.00000000000E+00 0. -1.
</event>
<event>
 8    1  0.7005395E-009  0.1772066E+03  0.7561462E-02  0.1170534E+00
          1   -1    0    0  501    0  0.00000000000E+00  0.00000000000E+00  0.19554887002E+03  0.19554887002E+03  0.00000000000E+00 0. -1.
         -1   -1    0    0    0  501 -0.00000000000E+00 -0.00000000000E+00 -0.19660020439E+03  0.19660020439E+03  0.00000000000E+00 0.  1.
         25    2    1    2    0    0  0.10482434671E+03 -0.12451906688E+03  0.34988875541E+01  0.20531340594E+03  0.12509280861E+03 0.  0.
         23    2    1    2    0    0 -0.10482434671E+03  0.12451906688E+03 -0.45502219318E+01  0.18683566847E+03  0.91617251714E+02 0.  0.
          5    1    3    3  502    0  0.76198410619E+02 -0.52697052642E+02 -0.55401233387E+02  0.10802752519E+03  0.41800000000E+01 0.  1.
         -5    1    3    3    0  502  0.28625936090E+02 -0.71822014241E+02  0.58900120941E+02  0.97285880752E+02  0.41800000000E+01 0.  1.
        -11    1    4    4    0    0  0.34623309641E+01 -0.10563330882E+02 -0.79631070409E+01  0.13674164281E+02  0.00000000000E+00 0.  1.
         11    1    4    4    0    0 -0.10828667767E+03  0.13508239776E+03  0.34128851090E+01  0.17316150419E+03  0.00000000000E+00 0. -1.
</event>
<event>
 8    1  0.7005395E-009  0.1813435E+03  0.7561462E-02  0.1166509E+00
         -2   -1    0    0    0  501 -0.00000000000E+00  0.00000000000E+00  0.37181163772E+03  0.37181163772E+03  0.00000000000E+00 0.  1.
          2   -1    0    0  501    0  0.00000000000E+00 -0.00000000000E+00 -0.11971504549E+03  0.11971504549E+03  0.00000000000E+00 0. -1.
         25    2    1    2    0    0  0.15910295736E+03  0.30093075609E+02  0.22573488203E+03  0.30466783504E+03  0.12508760333E+03 0.  0.
         23    2    1    2    0    0 -0.15910295736E+03 -0.30093075609E+02  0.26361710195E+02  0.18685884817E+03  0.89453592068E+02 0.  0.
          5    1    3    3  502    0  0.13189010802E+03  0.60129413813E+02  0.11012116966E+03  0.18208429753E+03  0.41800000000E+01 0. -1.
         -5    1    3    3    0  502  0.27212849334E+02 -0.30036338204E+02  0.11561371237E+03  0.12258353751E+03  0.41800000000E+01 0. -1.
        -11    1    4    4    0    0 -0.10815733454E+03 -0.53731241698E+02 -0.79749136988E+01  0.12103162643E+03  0.00000000000E+00 0. -1.
         11    1    4    4    0    0 -0.50945622820E+02  0.23638166088E+02  0.34336623894E+02  0.65827221732E+02  0.00000000000E+00 0.  1.
</event>
<event>
 8    1  0.7005395E-009  0.1068653E+03  0.7561462E-02  0.1266487E+00
          2   -1    0    0  501    0  0.00000000000E+00  0.00000000000E+00  0.26762706805E+03  0.26762706805E+03  0.00000000000E+00 0. -1.
         -2   -1    0    0    0  501 -0.00000000000E+00 -0.00000000000E+00 -0.43118123731E+02  0.43118123731E+02  0.00000000000E+00 0.  1.
         25    2    1    2    0    0  0.93254218232E+00 -0.46444088535E+00  0.11888955154E+03  0.17257734387E+03  0.12508848393E+03 0.  0.
         23    2    1    2    0    0 -0.93254218232E+00  0.46444088535E+00  0.10561939278E+03  0.13816784791E+03  0.89071952515E+02 0.  0.
          5    1    3    3  502    0  0.11468692451E+02 -0.61475626031E+02  0.53180678223E+02  0.82197569542E+02  0.41800000000E+01 0.  1.
         -5    1    3    3    0  502 -0.10536150268E+02  0.61011185145E+02  0.65708873320E+02  0.90379774332E+02  0.41800000000E+01 0.  1.
        -11    1    4    4    0    0 -0.26668496450E+02 -0.35731821381E+02  0.55811024917E+02  0.71434181345E+02  0.00000000000E+00 0. -1.
         11    1    4    4    0    0  0.25735954268E+02  0.36196262267E+02  0.49808367865E+02  0.66733666568E+02  0.00000000000E+00 0.  1.
</event>
<event>
 8    1  0.7005395E-009  0.6883131E+02  0.7561462E-02  0.1364113E+00
          4   -1    0    0  501    0  0.00000000000E+00  0.00000000000E+00  0.43300882978E+02  0.43300882978E+02  0.00000000000E+00 0. -1.
         -4   -1    0    0    0  501 -0.00000000000E+00 -0.00000000000E+00 -0.35569114256E+03  0.35569114256E+03  0.00000000000E+00 0.  1.
         25    2    1    2    0    0 -0.23546013651E+00  0.22883283301E+02 -0.26098524746E+03  0.29031725729E+03  0.12508841029E+03 0.  0.
         23    2    1    2    0    0  0.23546013651E+00 -0.22883283301E+02 -0.51405012123E+02  0.10867476825E+03  0.92973275126E+02 0.  0.
          5    1    3    3  502    0  0.14355886632E+02 -0.31127748893E+02 -0.21505806814E+03  0.21781293190E+03  0.41800000000E+01 0. -1.
         -5    1    3    3    0  502 -0.14591346768E+02  0.54011032193E+02 -0.45927179328E+02  0.72504325389E+02  0.41800000000E+01 0. -1.
        -11    1    4    4    0    0  0.64214342750E+01 -0.33840305151E+02 -0.74666480959E+02  0.82228246058E+02  0.00000000000E+00 0.  1.
         11    1    4    4    0    0 -0.61859741385E+01  0.10957021851E+02  0.23261468836E+02  0.26446522197E+02  0.00000000000E+00 0. -1.
</event>
<event>
 8    1  0.7005395E-009  0.1851850E+03  0.7561462E-02  0.1162877E+00
          2   -1    0    0  501    0  0.00000000000E+00  0.00000000000E+00  0.91367036527E+03  0.91367036527E+03  0.00000000000E+00 0. -1.
         -2   -1    0    0    0  501 -0.00000000000E+00 -0.00000000000E+00 -0.56774126382E+02  0.56774126382E+02  0.00000000000E+00 0.  1.
         25    2    1    2    0    0  0.12149594857E+03 -0.11483334429E+03  0.67252772024E+03  0.70419419113E+03  0.12509181366E+03 0.  0.
         23    2    1    2    0    0 -0.12149594857E+03  0.11483334429E+03  0.18436851865E+03  0.26625030052E+03  0.94601846615E+02 0.  0.
          5    1    3    3  502    0  0.87883241727E+02 -0.11465229439E+03  0.33335171555E+03  0.36333104938E+03  0.41800000000E+01 0.  1.
         -5    1    3    3    0  502  0.33612706840E+02 -0.18104989816E+00  0.33917600470E+03  0.34086314175E+03  0.41800000000E+01 0.  1.
        -11    1    4    4    0    0 -0.85583875234E+01  0.69912459018E+02  0.72002493484E+02  0.10072416289E+03  0.00000000000E+00 0.  1.
         11    1    4    4    0    0 -0.11293756104E+03  0.44920885273E+02  0.11236602516E+03  0.16552613763E+03  0.00000000000E+00 0. -1.
</event>
<event>
 8    1  0.7005395E-009  0.8593202E+02  0.7561462E-02  0.1313013E+00
          1   -1    0    0  501    0  0.00000000000E+00  0.00000000000E+00  0.38230731667E+03  0.38230731667E+03  0.00000000000E+00 0. -1.
         -1   -1    0    0    0  501 -0.00000000000E+00 -0.00000000000E+00 -0.36995768343E+02  0.36995768343E+02  0.00000000000E+00 0.  1.
         25    2    1    2    0    0 -0.14232601713E+02  0.17180355095E+02  0.11891059853E+03  0.17402441894E+03  0.12508811451E+03 0.  0.
         23    2    1    2    0    0  0.14232601713E+02 -0.17180355095E+02  0.22640094980E+03  0.24527866607E+03  0.91686980582E+02 0.  0.
          5    1    3    3  502    0  0.40009019942E+02 -0.17813015394E+02  0.95652858925E+02  0.10528516997E+03  0.41800000000E+01 0. -1.
         -5    1    3    3    0  502 -0.54241621655E+02  0.34993370489E+02  0.23257739601E+02  0.68739248972E+02  0.41800000000E+01 0. -1.
        -11    1    4    4    0    0  0.30346802441E+02 -0.29940197808E+02  0.21949300871E+03  0.22359455435E+03  0.00000000000E+00 0. -1.
         11    1    4    4    0    0 -0.16114200728E+02  0.12759842713E+02  0.69079410917E+01  0.21684111725E+02  0.00000000000E+00 0.  1.
</event>
<event>
 8    1  0.7005395E-009  0.1185572E+03  0.7561462E-02  0.1245496E+00
          1   -1    0    0  501    0  0.00000000000E+00  0.00000000000E+00  0.12433362308E+04  0.12433362308E+04  0.00000000000E+00 0. -1.
         -1   -1    0    0    0  501 -0.00000000000E+00 -0.00000000000E+00 -0.17276726486E+02  0.17276726486E+02  0.00000000000E+00 0.  1.
         25    2    1    2    0    0  0.32170907510E+02  0.84468881124E+02  0.81959417428E+03  0.83399694453E+03  0.12508530608E+03 0.  0.
         23    2    1    2    0    0 -0.32170907510E+02 -0.84468881124E+02  0.40646533000E+03  0.42661601272E+03  0.92828867565E+02 0.  0.
          5    1    3    3  502    0  0.32870121353E+02  0.43532372733E+01  0.49441715149E+02  0.59677057144E+02  0.41800000000E+01 0.  1.
         -5    1    3    3    0  502 -0.69921384232E+00  0.80115643851E+02  0.77015245913E+03  0.77431988738E+03  0.41800000000E+01 0.  1.
        -11    1    4    4    0    0 -0.47163977530E+02 -0.94370216423E+02  0.38175164533E+03  0.39606122915E+03  0.00000000000E+00 0. -1.
         11    1    4    4    0    0  0.14993070020E+02  0.99013352984E+01  0.24713684667E+02  0.30554783572E+02  0.00000000000E+00 0.  1.
</event>
<event>
 8    1  0.7005395E-009  0.1556120E+03  0.7561462E-02  0.1193742E+00
         -1   -1    0    0    0  501 -0.00000000000E+00  0.00000000000E+00  0.28248240697E+02  0.28248240697E+02  0.00000000000E+00 0.  1.
          1   -1    0    0  501    0  0.00000000000E+00 -0.00000000000E+00 -0.90257870831E+03  0.90257870831E+03  0.00000000000E+00 0. -1.
         25    2    1    2    0    0 -0.57075206265E+02 -0.10132118661E+03 -0.41400643696E+03  0.44785265337E+03  0.12508839779E+03 0.  0.
         23    2    1    2    0    0  0.57075206265E+02  0.10132118661E+03 -0.46032403065E+03  0.48297429563E+03  0.88557297965E+02 0.  0.
          5    1    3    3  502    0  0.37888989447E+02 -0.37632760142E+02 -0.17225051780E+03  0.18038712105E+03  0.41800000000E+01 0.  1.
         -5    1    3    3    0  502 -0.94964195712E+02 -0.63688426464E+02 -0.24175591916E+03  0.26746553233E+03  0.41800000000E+01 0.  1.
        -11    1    4    4    0    0  0.49344294957E+01  0.89677935386E+02 -0.23969689361E+03  0.25597086064E+03  0.00000000000E+00 0.  1.
         11    1    4    4    0    0  0.52140776769E+02  0.11643251220E+02 -0.22062713704E+03  0.22700343499E+03  0.00000000000E+00 0. -1.
</event>
<event>
 8    1  0.7005395E-009  0.9349230E+02  0.7561462E-02  0.1294608E+00
         -2   -1    0    0    0  501 -0.00000000000E+00  0.00000000000E+00  0.11805170478E+03  0.11805170478E+03  0.00000000000E+00 0.  1.
          2   -1    0    0  501    0  0.00000000000E+00 -0.00000000000E+00 -0.19328736996E+03  0.19328736996E+03  0.00000000000E+00 0. -1.
         25    2    1    2    0    0  0.78668609949E+00  0.79758063273E+02 -0.10947964445E+03  0.18438074876E+03  0.12509396640E+03 0.  0.
         23    2    1    2    0    0 -0.78668609949E+00 -0.79758063273E+02  0.34243979273E+02  0.12695832598E+03  0.92648793234E+02 0.  0.
          5    1    3    3  502    0  0.19682268626E+01  0.63556050920E+02  0.93208828961E+01  0.64401838355E+02  0.41800000000E+01 0. -1.
         -5    1    3    3    0  502 -0.11815407632E+01  0.16202012352E+02 -0.11880052735E+03  0.11997891040E+03  0.41800000000E+01 0. -1.
        -11    1    4    4    0    0  0.14306700496E+02  0.87038796652E+01  0.33231238118E+02  0.37212288120E+02  0.00000000000E+00 0.  1.
         11    1    4    4    0    0 -0.15093386595E+02 -0.88461942938E+02  0.10127411553E+01  0.89746037862E+02  0.00000000000E+00 0. -1.
</event>
<event>
 8    1  0.7005395E-009  0.1615008E+03  0.7561462E-02  0.1187013E+00
          2   -1    0    0  501    0  0.00000000000E+00  0.00000000000E+00  0.10664312445E+03  0.10664312445E+03  0.00000000000E+00 0. -1.
         -2   -1    0    0    0  501 -0.00000000000E+00 -0.00000000000E+00 -0.25231383330E+03  0.25231383330E+03  0.00000000000E+00 0.  1.
         25    2    1    2    0    0  0.19126322577E+02  0.12145591629E+03 -0.70558710483E+02  0.18905668848E+03  0.12508614639E+03 0.  0.
         23    2    1    2    0    0 -0.19126322577E+02 -0.12145591629E+03 -0.75111998362E+02  0.16990026926E+03  0.90038510537E+02 0.  0.
          5    1    3    3  502    0  0.63392104539E+02  0.25626253972E+02 -0.38875785244E+02  0.78765873886E+02  0.41800000000E+01 0. -1.
         -5    1    3    3    0  502 -0.44265781963E+02  0.95829662320E+02 -0.31682925239E+02  0.11029081460E+03  0.41800000000E+01 0. -1.
        -11    1    4    4    0    0  0.25681564120E+02 -0.91305628194E+02 -0.64923088179E+02  0.11494027951E+03  0.00000000000E+00 0.  1.
         11    1    4    4    0    0 -0.44807886697E+02 -0.30150288098E+02 -0.10188910183E+02  0.54959989750E+02  0.00000000000E+00 0. -1.
</event>
<event>
 8    1  0.7005395E-009  0.1468354E+03  0.7561462E-02  0.1204416E+00
          1   -1    0    0  501    0  0.00000000000E+00  0.00000000000E+00  0.74032618930E+03  0.74032618930E+03  0.00000000000E+00 0. -1.
         -1   -1    0    0    0  501 -0.00000000000E+00 -0.00000000000E+00 -0.46274877341E+02  0.46274877341E+02  0.00000000000E+00 0.  1.
         25    2    1    2    0    0  0.13744623605E+03  0.27914592951E+01  0.23884145198E+03  0.30264216248E+03  0.12509108394E+03 0.  0.
         23    2    1    2    0    0 -0.13744623605E+03 -0.27914592951E+01  0.45520985998E+03  0.48395890415E+03  0.90005245631E+02 0.  0.
          5    1    3    3  502    0  0.76390462706E+02 -0.15306288095E+01  0.25504079969E+02  0.80658391455E+02  0.41800000000E+01 0.  1.
         -5    1    3    3    0  502  0.61055773342E+02  0.43220881046E+01  0.21333737201E+03  0.22198377103E+03  0.41800000000E+01 0.  1.
        -11    1    4    4    0    0 -0.39455890899E+02  0.33041040651E+02  0.85356632524E+02  0.99670619591E+02  0.00000000000E+00 0.  1.
         11    1    4    4    0    0 -0.97990345149E+02 -0.35832499946E+02  0.36985322745E+03  0.38428828456E+03  0.00000000000E+00 0. -1.
</event>
<event>
 8    1  0.7005395E-009  0.1548495E+03  0.7561462E-02  0.1194638E+00
          1   -1    0    0  501    0  0.00000000000E+00  0.00000000000E+00  0.43922384234E+03  0.43922384234E+03  0.00000000000E+00 0. -1.
         -1   -1    0    0    0  501 -0.00000000000E+00 -0.00000000000E+00 -0.73852971712E+02  0.73852971712E+02  0.00000000000E+00 0.  1.
         25    2    1    2    0    0  0.11596209258E+03  0.83333705091E+02  0.17787848553E+03  0.26015418094E+03  0.12509088267E+03 0.  0.
         23    2    1    2    0    0 -0.11596209258E+03 -0.83333705091E+02  0.18749238510E+03  0.25292263311E+03  0.91786439892E+02 0.  0.
          5    1    3    3  502    0  0.11061545084E+03  0.84587003207E+02  0.19616929811E+03  0.24060466537E+03  0.41800000000E+01 0.  1.
         -5    1    3    3    0  502  0.53466417405E+01 -0.12532981165E+01 -0.18290812584E+02  0.19549515571E+02  0.41800000000E+01 0.  1.
        -11    1    4    4    0    0 -0.39706359469E+02  0.11929298025E+02  0.20924804363E+02  0.46440828710E+02  0.00000000000E+00 0.  1.
         11    1    4    4    0    0 -0.76255733113E+02 -0.95263003116E+02  0.16656758073E+03  0.20648180440E+03  0.00000000000E+00 0. -1.
</event>
<event>
 8    1  0.7005395E-009  0.2714538E+03  0.7561462E-02  0.1100450E+00
          2   -1    0    0  501    0  0.00000000000E+00  0.00000000000E+00  0.15180507027E+04  0.15180507027E+04  0.00000000000E+00 0. -1.
         -2   -1    0    0    0  501 -0.00000000000E+00 -0.00000000000E+00 -0.77445972877E+02  0.77445972877E+02  0.00000000000E+00 0.  1.
         25    2    1    2    0    0 -0.25213589261E+03  0.79821286598E+02  0.11694214521E+04  0.12054618909E+04  0.12509153354E+03 0.  0.
         23    2    1    2    0    0  0.25213589261E+03 -0.79821286598E+02  0.27118327770E+03  0.39003478460E+03  0.92966751907E+02 0.  0.
          5    1    3    3  502    0 -0.91040338869E+02  0.60382915206E+02  0.70648305908E+03  0.71489175748E+03  0.41800000000E+01 0. -1.
         -5    1    3    3    0  502 -0.16109555374E+03  0.19438371392E+02  0.46293839300E+03  0.49057013345E+03  0.41800000000E+01 0. -1.
        -11    1    4    4    0    0  0.46566392019E+02 -0.41038018714E+02  0.10861166695E+03  0.12509613121E+03  0.00000000000E+00 0. -1.
         11    1    4    4    0    0  0.20556950059E+03 -0.38783267884E+02  0.16257161075E+03  0.26493865339E+03  0.00000000000E+00 0.  1.
</event>
<event>
 8    1  0.7005395E-009  0.1710611E+03  0.7561462E-02  0.1176746E+00
          3   -1    0    0  501    0  0.00000000000E+00  0.00000000000E+00  0.57696357077E+03  0.57696357077E+03  0.00000000000E+00 0. -1.
         -3   -1    0    0    0  501 -0.00000000000E+00 -0.00000000000E+00 -0.71909739724E+02  0.71909739724E+02  0.00000000000E+00 0.  1.
         25    2    1    2    0    0  0.20682326587E+02  0.15814528383E+03  0.15975046256E+03  0.25807869473E+03  0.12508682168E+03 0.  0.
         23    2    1    2    0    0 -0.20682326587E+02 -0.15814528383E+03  0.34530336848E+03  0.39079461576E+03  0.89712462842E+02 0.  0.
          5    1    3    3  502    0 -0.39703623317E+00  0.28030709481E+02  0.11557432724E+03  0.11899905810E+03  0.41800000000E+01 0.  1.
         -5    1    3    3    0  502  0.21079362820E+02  0.13011457435E+03  0.44176135320E+02  0.13907963663E+03  0.41800000000E+01 0.  1.
        -11    1    4    4    0    0  0.26746001582E+01  0.10913730803E+02  0.33583098115E+02  0.35413097648E+02  0.00000000000E+00 0.  1.
         11    1    4    4    0    0 -0.23356926745E+02 -0.16905901463E+03  0.31172027037E+03  0.35538151811E+03  0.00000000000E+00 0. -1.
</event>
<event>
 8    1  0.7005395E-009  0.9385138E+02  0.7561462E-02  0.1293784E+00
          1   -1    0    0  501    0  0.00000000000E+00  0.00000000000E+00  0.75968643359E+03  0.75968643359E+03  0.00000000000E+00 0. -1.
         -1   -1    0    0    0  501 -0.00000000000E+00 -0.00000000000E+00 -0.23123130954E+02  0.23123130954E+02  0.00000000000E+00 0.  1.
         25    2    1    2    0    0 -0.49286150866E+02  0.49769912761E+02  0.34654827786E+03  0.37503491243E+03  0.12509719329E+03 0.  0.
         23    2    1    2    0    0  0.49286150866E+02 -0.49769912761E+02  0.39001502478E+03  0.40777465212E+03  0.96240731881E+02 0.  0.
          5    1    3    3  502    0 -0.31412336767E+02  0.38552475027E+02  0.34974406743E+03  0.35328658810E+03  0.41800000000E+01 0.  1.
         -5    1    3    3    0  502 -0.17873814099E+02  0.11217437735E+02 -0.31957895733E+01  0.21748324321E+02  0.41800000000E+01 0.  1.
        -11    1    4    4    0    0  0.70078713329E+02 -0.60774211138E+02  0.34123521209E+03  0.35361843952E+03  0.00000000000E+00 0. -1.
         11    1    4    4    0    0 -0.20792562463E+02  0.11004298377E+02  0.48779812688E+02  0.54156212593E+02  0.00000000000E+00 0.  1.
</event>
<event>
 8    1  0.7005395E-009  0.9275569E+02  0.7561462E-02  0.1296312E+00
         -4   -1    0    0    0  501 -0.00000000000E+00  0.00000000000E+00  0.18158289393E+03  0.18158289393E+03  0.00000000000E+00 0.  1.
          4   -1    0    0  501    0  0.00000000000E+00 -0.00000000000E+00 -0.73117880259E+02  0.73117880259E+02  0.00000000000E+00 0. -1.
         25    2    1    2    0    0 -0.33420553285E+02  0.12377305680E+02  0.42006488082E+02  0.13668648474E+03  0.12509404060E+03 0.  0.
         23    2    1    2    0    0  0.33420553285E+02 -0.12377305680E+02  0.66458525590E+02  0.11801428945E+03  0.90777231794E+02 0.  0.
          5    1    3    3  502    0 -0.66765785430E+02 -0.11516320839E+02  0.61023704007E+02  0.91277930522E+02  0.41800000000E+01 0. -1.
         -5    1    3    3    0  502  0.33345232145E+02  0.23893626519E+02 -0.19017215925E+02  0.45408554222E+02  0.41800000000E+01 0. -1.
        -11    1    4    4    0    0  0.83169370297E+00  0.26020295572E+02  0.62251740954E+02  0.67476119834E+02  0.00000000000E+00 0.  1.
         11    1    4    4    0    0  0.32588859582E+02 -0.38397601251E+02  0.42067846353E+01  0.50538169612E+02  0.00000000000E+00 0. -1.
</event>
<event>
 8    1  0.7005395E-009  0.1221544E+03  0.7561462E-02  0.1239585E+00
          1   -1    0    0  501    0  0.00000000000E+00  0.00000000000E+00  0.48451300390E+02  0.48451300390E+02  0.00000000000E+00 0. -1.
         -1   -1    0    0    0  501 -0.00000000000E+00 -0.00000000000E+00 -0.36981329148E+03  0.36981329148E+03  0.00000000000E+00 0.  1.
         25    2    1    2    0    0 -0.68128125221E+02 -0.24786228040E+02 -0.13109938669E+03  0.19516627752E+03  0.12508808155E+03 0.  0.
         23    2    1    2    0    0  0.68128125221E+02  0.24786228040E+02 -0.19026260440E+03  0.22309831435E+03  0.91198687951E+02 0.  0.
          5    1    3    3  502    0  0.18813061959E+02  0.22427831876E+02  0.15756936056E+01  0.29612398641E+02  0.41800000000E+01 0. -1.
         -5    1    3    3    0  502 -0.86941187180E+02 -0.47214059916E+02 -0.13267508030E+03  0.16555387888E+03  0.41800000000E+01 0. -1.
        -11    1    4    4    0    0  0.79180954119E+02 -0.94472429494E+01 -0.14262631723E+03  0.16340483549E+03  0.00000000000E+00 0.  1.
         11    1    4    4    0    0 -0.11052828899E+02  0.34233470989E+02 -0.47636287175E+02  0.59693478860E+02  0.00000000000E+00 0. -1.
</event>
<event>
 8    1  0.7005395E-009  0.2204450E+03  0.7561462E-02  0.1133552E+00
          2   -1    0    0  501    0  0.00000000000E+00  0.00000000000E+00  0.24968552466E+04  0.24968552466E+04  0.00000000000E+00 0. -1.
         -2   -1    0    0    0  501 -0.00000000000E+00 -0.00000000000E+00 -0.19890089287E+02  0.19890089287E+02  0.00000000000E+00 0.  1.
         25    2    1    2    0    0  0.18458981257E+03 -0.60073517244E+02  0.13264484618E+04  0.13463999378E+04  0.12508015144E+03 0.  0.
         23    2    1    2    0    0 -0.18458981257E+03  0.60073517244E+02  0.11505166956E+04  0.11703453981E+04  0.91309680848E+02 0.  0.
          5    1    3    3  502    0  0.19739024130E+02 -0.58047158973E+02  0.49091660113E+03  0.49474810096E+03  0.41800000000E+01 0. -1.
         -5    1    3    3    0  502  0.16485078844E+03 -0.20263582710E+01  0.83553186063E+03  0.85165183679E+03  0.41800000000E+01 0. -1.
        -11    1    4    4    0    0 -0.71256966029E+02 -0.22015917285E+02  0.40249139847E+03  0.40934286566E+03  0.00000000000E+00 0.  1.
         11    1    4    4    0    0 -0.11333284655E+03  0.82089434529E+02  0.74802529709E+03  0.76100253249E+03  0.00000000000E+00 0. -1.
</event>
<event>
 8    1  0.7005395E-009  0.7007446E+02  0.7561462E-02  0.1359840E+00
          2   -1    0    0  501    0  0.00000000000E+00  0.00000000000E+00  0.10819558708E+03  0.10819558708E+03  0.00000000000E+00 0. -1.
         -2   -1    0    0    0  501 -0.00000000000E+00 -0.00000000000E+00 -0.15700554328E+03  0.15700554328E+03  0.00000000000E+00 0.  1.
         25    2    1    2    0    0  0.10310843358E+02 -0.39371510543E+02 -0.88712983526E+02  0.15865397166E+03  0.12507861506E+03 0.  0.
         23    2    1    2    0    0 -0.10310843358E+02  0.39371510543E+02  0.39903027326E+02  0.10654715869E+03  0.90020087219E+02 0.  0.
          5    1    3    3  502    0  0.30748465773E+02 -0.17144755263E+01 -0.10733940756E+03  0.11174805766E+03  0.41800000000E+01 0.  1.
         -5    1    3    3    0  502 -0.20437622415E+02 -0.37657035017E+02  0.18626424039E+02  0.46905914006E+02  0.41800000000E+01 0.  1.
        -11    1    4    4    0    0 -0.29572375484E+02  0.35794692529E+02  0.61714038425E+02  0.77229579461E+02  0.00000000000E+00 0. -1.
         11    1    4    4    0    0  0.19261532126E+02  0.35768180145E+01 -0.21811011099E+02  0.29317579233E+02  0.00000000000E+00 0.  1.
</event>
<event>
 8    1  0.7005395E-009  0.1000503E+03  0.7561462E-02  0.1280190E+00
         -2   -1    0    0    0  501 -0.00000000000E+00  0.00000000000E+00  0.12788515004E+03  0.12788515004E+03  0.00000000000E+00 0.  1.
          2   -1    0    0  501    0  0.00000000000E+00 -0.00000000000E+00 -0.11055246814E+03  0.11055246814E+03  0.00000000000E+00 0. -1.
         25    2    1    2    0    0 -0.39028674557E+02  0.73384051578E+01 -0.10547713318E+02  0.13166735234E+03  0.12509175748E+03 0.  0.
         23    2    1    2    0    0  0.39028674557E+02 -0.73384051578E+01  0.27880395218E+02  0.10677026584E+03  0.95107747324E+02 0.  0.
          5    1    3    3  502    0 -0.60530889813E+02  0.41655751416E+02  0.24889244964E+02  0.77692581129E+02  0.41800000000E+01 0. -1.
         -5    1    3    3    0  502  0.21502215256E+02 -0.34317346258E+02 -0.35436958282E+02  0.53974771212E+02  0.41800000000E+01 0. -1.
        -11    1    4    4    0    0  0.32874831981E+02  0.32056851709E+02  0.44155852056E+02  0.63703497471E+02  0.00000000000E+00 0.  1.
         11    1    4    4    0    0  0.61538425755E+01 -0.39395256867E+02 -0.16275456837E+02  0.43066768364E+02  0.00000000000E+00 0. -1.
</event>
<event>
 8    1  0.7005395E-009  0.7404677E+02  0.7561462E-02  0.1346849E+00
         -1   -1    0    0    0  501 -0.00000000000E+00  0.00000000000E+00  0.24532006930E+02  0.24532006930E+02  0.00000000000E+00 0.  1.
          1   -1    0    0  501    0  0.00000000000E+00 -0.00000000000E+00 -0.57310089607E+03  0.57310089607E+03  0.00000000000E+00 0. -1.
         25    2    1    2    0    0  0.21129069804E+02 -0.40875359559E+02 -0.26531297950E+03  0.29691130664E+03  0.12509242307E+03 0.  0.
         23    2    1    2    0    0 -0.21129069804E+02  0.40875359559E+02 -0.28325590964E+03  0.30072159636E+03  0.89901810663E+02 0.  0.
          5    1    3    3  502    0 -0.91364541292E+01 -0.18117256936E+02  0.70601549388E+01  0.21886707855E+02  0.41800000000E+01 0.  1.
         -5    1    3    3    0  502  0.30265523934E+02 -0.22758102623E+02 -0.27237313444E+03  0.27502459879E+03  0.41800000000E+01 0.  1.
        -11    1    4    4    0    0  0.11650429774E+02 -0.18263865215E+02 -0.22070627222E+02  0.30925941740E+02  0.00000000000E+00 0.  1.
         11    1    4    4    0    0 -0.32779499578E+02  0.59139224774E+02 -0.26118528242E+03  0.26979565462E+03  0.00000000000E+00 0. -1.
</event>
<event>
 8    1  0.7005395E-009  0.2129767E+03  0.7561462E-02  0.1139230E+00
          2   -1    0    0  501    0  0.00000000000E+00  0.00000000000E+00  0.10504870278E+04  0.10504870278E+04  0.00000000000E+00 0. -1.
         -2   -1    0    0    0  501 -0.00000000000E+00 -0.00000000000E+00 -0.53019812619E+02  0.53019812619E+02  0.00000000000E+00 0.  1.
         25    2    1    2    0    0 -0.91610147844E+02 -0.15935358470E+03  0.28272393837E+03  0.35967477706E+03  0.12508851177E+03 0.  0.
         23    2    1    2    0    0  0.91610147844E+02  0.15935358470E+03  0.71474327677E+03  0.74383206333E+03  0.92963447646E+02 0.  0.
          5    1    3    3  502    0  0.31517208472E+02 -0.33244135945E+02  0.61175141846E+02  0.76540037787E+02  0.41800000000E+01 0. -1.
         -5    1    3    3    0  502 -0.12312735632E+03 -0.12610944875E+03  0.22154879653E+03  0.28313473927E+03  0.41800000000E+01 0. -1.
        -11    1    4    4    0    0  0.23755868969E+02  0.12567760212E+03  0.50075589530E+03  0.51683234000E+03  0.00000000000E+00 0.  1.
         11    1    4    4    0    0  0.67854278875E+02  0.33675982575E+02  0.21398738147E+03  0.22699972333E+03  0.00000000000E+00 0. -1.
</event>
<event>
 8    1  0.7005395E-009  0.8358025E+02  0.7561462E-02  0.1319188E+00
         -2   -1    0    0    0  501 -0.00000000000E+00  0.00000000000E+00  0.15330370321E+02  0.15330370321E+02  0.00000000000E+00 0.  1.
          2   -1    0    0  501    0  0.00000000000E+00 -0.00000000000E+00 -0.10732214376E+04  0.10732214376E+04  0.00000000000E+00 0. -1.
         25    2    1    2    0    0  0.37361404972E+02 -0.45552380432E+02 -0.74210023215E+03  0.75487196907E+03  0.12509213078E+03 0.  0.
         23    2    1    2    0    0 -0.37361404972E+02  0.45552380432E+02 -0.31579083515E+03  0.33367983887E+03  0.90263444219E+02 0.  0.
          5    1    3    3  502    0  0.26849040232E+02 -0.47341873822E+01 -0.27265903603E+02  0.38783828986E+02  0.41800000000E+01 0.  1.
         -5    1    3    3    0  502  0.10512364740E+02 -0.40818193050E+02 -0.71483432855E+03  0.71608814009E+03  0.41800000000E+01 0.  1.
        -11    1    4    4    0    0 -0.24644529071E+02  0.67498843465E+02 -0.28432000470E+03  0.29325980249E+03  0.00000000000E+00 0. -1.
         11    1    4    4    0    0 -0.12716875901E+02 -0.21946463032E+02 -0.31470830447E+02  0.40420036385E+02  0.00000000000E+00 0.  1.
</event>
<event>
 8    1  0.7005395E-009  0.1135431E+03  0.7561462E-02  0.1254146E+00
          2   -1    0    0  501    0  0.00000000000E+00  0.00000000000E+00  0.26107862624E+03  0.26107862624E+03  0.00000000000E+00 0.  1.
         -2   -1    0    0    0  501 -0.00000000000E+00 -0.00000000000E+00 -0.11216304639E+03  0.11216304639E+03  0.00000000000E+00 0. -1.
         25    2    1    2    0    0  0.72845150654E+02  0.24115596622E+02 -0.34050581161E+02  0.15064993519E+03  0.12509189790E+03 0.  0.
         23    2    1    2    0    0 -0.72845150654E+02 -0.24115596622E+02  0.18296616102E+03  0.22259173744E+03  0.10090831248E+03 0.  0.
          5    1    3    3  502    0  0.86515566309E+02  0.20320962593E+02 -0.69072000164E+02  0.11263346901E+03  0.41800000000E+01 0.  1.
         -5    1    3    3    0  502 -0.13670415655E+02  0.37946340287E+01  0.35021419003E+02  0.38016466177E+02  0.41800000000E+01 0.  1.
        -11    1    4    4    0    0 -0.78928366331E+02  0.17851521002E+02  0.93983877744E+02  0.12402150253E+03  0.00000000000E+00 0. -1.
         11    1    4    4    0    0  0.60832156776E+01 -0.41967117624E+02  0.88982283272E+02  0.98570234913E+02  0.00000000000E+00 0.  1.
</event>
<event>
 8    1  0.7005395E-009  0.1419174E+03  0.7561462E-02  0.1210772E+00
          2   -1    0    0  501    0  0.00000000000E+00  0.00000000000E+00  0.99378481830E+02  0.99378481830E+02  0.00000000000E+00 0. -1.
         -2   -1    0    0    0  501 -0.00000000000E+00 -0.00000000000E+00 -0.30622707058E+03  0.30622707058E+03  0.00000000000E+00 0.  1.
         25    2    1    2    0    0 -0.94437351791E+02  0.66394631460E+02 -0.19437452314E+03  0.25836542757E+03  0.12507828914E+03 0.  0.
         23    2    1    2    0    0  0.94437351791E+02 -0.66394631460E+02 -0.12474065611E+02  0.14724012484E+03  0.90539447488E+02 0.  0.
          5    1    3    3  502    0 -0.81847939091E+02 -0.13841298759E+01 -0.16312456834E+03  0.18255984812E+03  0.41800000000E+01 0. -1.
         -5    1    3    3    0  502 -0.12589412700E+02  0.67778761336E+02 -0.31249954802E+02  0.75805579449E+02  0.41800000000E+01 0. -1.
        -11    1    4    4    0    0  0.40604609281E+02  0.75889702837E+01  0.25092936575E+02  0.48332000070E+02  0.00000000000E+00 0. -1.
         11    1    4    4    0    0  0.53832742510E+02 -0.73983601744E+02 -0.37567002186E+02  0.98908124775E+02  0.00000000000E+00 0.  1.
</event>
<event>
 8    1  0.7005395E-009  0.8603112E+02  0.7561462E-02  0.1312758E+00
          1   -1    0    0  501    0  0.00000000000E+00  0.00000000000E+00  0.23203422810E+03  0.23203422810E+03  0.00000000000E+00 0. -1.
         -1   -1    0    0    0  501 -0.00000000000E+00 -0.00000000000E+00 -0.71484583427E+02  0.71484583427E+02  0.00000000000E+00 0.  1.
         25    2    1    2    0    0 -0.52420241768E+01  0.19138336451E+02  0.16773348136E+03  0.21017746520E+03  0.12508513649E+03 0.  0.
         23    2    1    2    0    0  0.52420241768E+01 -0.19138336451E+02 -0.71838366903E+01  0.93341346323E+02  0.90924389930E+02 0.  0.
          5    1    3    3  502    0  0.13142667089E+01 -0.36780174625E+02  0.43258855219E+01  0.37292012925E+02  0.41800000000E+01 0. -1.
         -5    1    3    3    0  502 -0.65562908857E+01  0.55918511076E+02  0.16340759584E+03  0.17288545228E+03  0.41800000000E+01 0. -1.
        -11    1    4    4    0    0 -0.91652751672E+01  0.27901751296E+02  0.21496206516E+02  0.36395011867E+02  0.00000000000E+00 0. -1.
         11    1    4    4    0    0  0.14407299344E+02 -0.47040087747E+02 -0.28680043206E+02  0.56946334456E+02  0.00000000000E+00 0.  1.
</event>
<event>
 8    1  0.7005395E-009  0.7945056E+02  0.7561462E-02  0.1330618E+00
          1   -1    0    0  501    0  0.00000000000E+00  0.00000000000E+00  0.11496281469E+03  0.11496281469E+03  0.00000000000E+00 0. -1.
         -1   -1    0    0    0  501 -0.00000000000E+00 -0.00000000000E+00 -0.12729290899E+03  0.12729290899E+03  0.00000000000E+00 0.  1.
         25    2    1    2    0    0  0.23759372002E+02 -0.16008797114E+02  0.34863664484E+02  0.13297972462E+03  0.12508933893E+03 0.  0.
         23    2    1    2    0    0 -0.23759372002E+02  0.16008797114E+02 -0.47193758775E+02  0.10927599906E+03  0.94303784446E+02 0.  0.
          5    1    3    3  502    0 -0.44800197969E+01  0.31354162776E+02 -0.32669191821E+02  0.45693572798E+02  0.41800000000E+01 0. -1.
         -5    1    3    3    0  502  0.28239391799E+02 -0.47362959890E+02  0.67532856305E+02  0.87286151819E+02  0.41800000000E+01 0. -1.
        -11    1    4    4    0    0  0.46971140507E+01  0.36363795816E+02 -0.61400030535E+02  0.71514699721E+02  0.00000000000E+00 0.  1.
         11    1    4    4    0    0 -0.28456486053E+02 -0.20354998702E+02  0.14206271760E+02  0.37761299341E+02  0.00000000000E+00 0. -1.
</event>
<event>
 8    1  0.7005395E-009  0.1137442E+03  0.7561462E-02  0.1253789E+00
          1   -1    0    0  501    0  0.00000000000E+00  0.00000000000E+00  0.27011881317E+02  0.27011881317E+02  0.00000000000E+00 0. -1.
         -1   -1    0    0    0  501 -0.00000000000E+00 -0.00000000000E+00 -0.50138246545E+03  0.50138246545E+03  0.00000000000E+00 0.  1.
         25    2    1    2    0    0 -0.14390698081E+02  0.41889001054E+02 -0.26930123642E+03  0.30022162673E+03  0.12509232040E+03 0.  0.
         23    2    1    2    0    0  0.14390698081E+02 -0.41889001054E+02 -0.20506934771E+03  0.22817272003E+03  0.89708261569E+02 0.  0.
          5    1    3    3  502    0 -0.30577028786E+00  0.85995682594E+02 -0.18077175170E+03  0.20022799387E+03  0.41800000000E+01 0.  1.
         -5    1    3    3    0  502 -0.14084927793E+02 -0.44106681540E+02 -0.88529484722E+02  0.99993632860E+02  0.41800000000E+01 0.  1.
        -11    1    4    4    0    0 -0.77880491590E+01 -0.63475670461E+02 -0.10052318834E+03  0.11914162095E+03  0.00000000000E+00 0. -1.
         11    1    4    4    0    0  0.22178747240E+02  0.21586669407E+02 -0.10454615938E+03  0.10903109908E+03  0.00000000000E+00 0.  1.
</event>
<event>
 8    1  0.7005395E-009  0.1246259E+03  0.7561462E-02  0.1235655E+00
         -2   -1    0    0    0  501 -0.00000000000E+00  0.00000000000E+00  0.11957770555E+03  0.11957770555E+03  0.00000000000E+00 0.  1.
          2   -1    0    0  501    0  0.00000000000E+00 -0.00000000000E+00 -0.19948333399E+03  0.19948333399E+03  0.00000000000E+00 0. -1.
         25    2    1    2    0    0 -0.34093585237E+02 -0.77427862176E+02 -0.11610755156E+03  0.19048697838E+03  0.12508748542E+03 0.  0.
         23    2    1    2    0    0  0.34093585237E+02  0.77427862176E+02  0.36201923124E+02  0.12857406116E+03  0.89795676785E+02 0.  0.
          5    1    3    3  502    0  0.40178237964E+02 -0.33281011716E+02 -0.82465392305E+02  0.97672564595E+02  0.41800000000E+01 0.  1.
         -5    1    3    3    0  502 -0.74271823201E+02 -0.44146850460E+02 -0.33642159259E+02  0.92814413788E+02  0.41800000000E+01 0.  1.
        -11    1    4    4    0    0 -0.59562821544E-01  0.76235991262E+02  0.50590072325E+02  0.91494728423E+02  0.00000000000E+00 0.  1.
         11    1    4    4    0    0  0.34153148059E+02  0.11918709143E+01 -0.14388149201E+02  0.37079332735E+02  0.00000000000E+00 0. -1.
</event>
<event>
 8    1  0.7005395E-009  0.9448951E+02  0.7561462E-02  0.1292330E+00
          2   -1    0    0  501    0  0.00000000000E+00  0.00000000000E+00  0.84019807625E+02  0.84019807625E+02  0.00000000000E+00 0. -1.
         -2   -1    0    0    0  501 -0.00000000000E+00 -0.00000000000E+00 -0.16195665957E+03  0.16195665957E+03  0.00000000000E+00 0.  1.
         25    2    1    2    0    0 -0.24454564595E+02 -0.33871507187E+02 -0.28108901030E+02  0.13484417108E+03  0.12509010923E+03 0.  0.
         23    2    1    2    0    0  0.24454564595E+02  0.33871507187E+02 -0.49827950915E+02  0.11113229612E+03  0.90123569721E+02 0.  0.
          5    1    3    3  502    0 -0.54342518319E+02 -0.31941206634E+02 -0.62625827831E+02  0.88954014468E+02  0.41800000000E+01 0. -1.
         -5    1    3    3    0  502  0.29887953724E+02 -0.19303005529E+01  0.34516926800E+02  0.45890156611E+02  0.41800000000E+01 0. -1.
        -11    1    4    4    0    0  0.56254768552E+02  0.13672078220E+02 -0.14946988323E+02  0.59790778282E+02  0.00000000000E+00 0. -1.
         11    1    4    4    0    0 -0.31800203957E+02  0.20199428967E+02 -0.34880962592E+02  0.51341517835E+02  0.00000000000E+00 0.  1.
</event>
<event>
 8    1  0.7005395E-009  0.1101431E+03  0.7561462E-02  0.1260305E+00
          2   -1    0    0  501    0  0.00000000000E+00  0.00000000000E+00  0.51886247587E+02  0.51886247587E+02  0.00000000000E+00 0. -1.
         -2   -1    0    0    0  501 -0.00000000000E+00 -0.00000000000E+00 -0.27126596462E+03  0.27126596462E+03  0.00000000000E+00 0.  1.
         25    2    1    2    0    0  0.51340410497E+02 -0.74032048931E+01 -0.12587295136E+03  0.18489163058E+03  0.12510103909E+03 0.  0.
         23    2    1    2    0    0 -0.51340410497E+02  0.74032048931E+01 -0.93506765676E+02  0.13826058163E+03  0.87646038205E+02 0.  0.
          5    1    3    3  502    0  0.85590382359E+02 -0.24541362240E+02 -0.56489584738E+02  0.10552979483E+03  0.41800000000E+01 0.  1.
         -5    1    3    3    0  502 -0.34249971862E+02  0.17138157347E+02 -0.69383366622E+02  0.79361835750E+02  0.41800000000E+01 0.  1.
        -11    1    4    4    0    0 -0.51155485665E+02 -0.27255715801E+02 -0.28499373198E+02  0.64590804533E+02  0.00000000000E+00 0.  1.
         11    1    4    4    0    0 -0.18492483157E+00  0.34658920694E+02 -0.65007392478E+02  0.73669777098E+02  0.00000000000E+00 0. -1.
</event>
<event>
 8    1  0.7005395E-009  0.9058618E+02  0.7561462E-02  0.1301438E+00
         -1   -1    0    0    0  501 -0.00000000000E+00  0.00000000000E+00  0.22938172915E+02  0.22938172915E+02  0.00000000000E+00 0.  1.
          1   -1    0    0  501    0  0.00000000000E+00 -0.00000000000E+00 -0.73962249531E+03  0.73962249531E+03  0.00000000000E+00 0. -1.
         25    2    1    2    0    0  0.39348461063E+02 -0.34685963247E+02 -0.54465252008E+03  0.56128892992E+03  0.12508987883E+03 0.  0.
         23    2    1    2    0    0 -0.39348461063E+02  0.34685963247E+02 -0.17203180231E+03  0.20127173831E+03  0.90354602533E+02 0.  0.
          5    1    3    3  502    0  0.35865223740E+01 -0.54477387400E+02 -0.94132199101E+02  0.10889899994E+03  0.41800000000E+01 0.  1.
         -5    1    3    3    0  502  0.35761938689E+02  0.19791424153E+02 -0.45052032098E+03  0.45238992998E+03  0.41800000000E+01 0.  1.
        -11    1    4    4    0    0 -0.51745490119E+02  0.36074740324E+01 -0.15555407069E+03  0.16397462768E+03  0.00000000000E+00 0. -1.
         11    1    4    4    0    0  0.12397029056E+02  0.31078489215E+02 -0.16477731629E+02  0.37297110624E+02  0.00000000000E+00 0.  1.
</event>
<event>
 8    1  0.7005395E-009  0.9533379E+02  0.7561462E-02  0.1290426E+00
          2   -1    0    0  501    0  0.00000000000E+00  0.00000000000E+00  0.62513655591E+03  0.62513655591E+03  0.00000000000E+00 0. -1.
         -2   -1    0    0    0  501 -0.00000000000E+00 -0.00000000000E+00 -0.25513927153E+02  0.25513927153E+02  0.00000000000E+00 0.  1.
         25    2    1    2    0    0 -0.30966951332E+02  0.36175971167E+02  0.44966621786E+03  0.46916550983E+03  0.12509562409E+03 0.  0.
         23    2    1    2    0    0  0.30966951332E+02 -0.36175971167E+02  0.14995641090E+03  0.18148497324E+03  0.90455609969E+02 0.  0.
          5    1    3    3  502    0 -0.62030453374E+02  0.28567617125E+02  0.12167993425E+03  0.13959715145E+03  0.41800000000E+01 0. -1.
         -5    1    3    3    0  502  0.31063502042E+02  0.76083540419E+01  0.32798628361E+03  0.32956835838E+03  0.41800000000E+01 0. -1.
        -11    1    4    4    0    0 -0.24953706205E+01 -0.52640701593E+02  0.42376298856E+02  0.67624115842E+02  0.00000000000E+00 0.  1.
         11    1    4    4    0    0  0.33462321953E+02  0.16464730426E+02  0.10758011205E+03  0.11386085739E+03  0.00000000000E+00 0. -1.
</event>
<event>
 8    1  0.7005395E-009  0.1590395E+03  0.7561462E-02  0.1189785E+00
         -1   -1    0    0    0  501 -0.00000000000E+00  0.00000000000E+00  0.14582453301E+03  0.14582453301E+03  0.00000000000E+00 0.  1.
          1   -1    0    0  501    0  0.00000000000E+00 -0.00000000000E+00 -0.18467178597E+03  0.18467178597E+03  0.00000000000E+00 0. -1.
         25    2    1    2    0    0  0.62778128691E+02 -0.10318350953E+03 -0.41377139356E+02  0.17873559691E+03  0.12508563411E+03 0.  0.
         23    2    1    2    0    0 -0.62778128691E+02  0.10318350953E+03  0.25298863962E+01  0.15176072207E+03  0.91853069397E+02 0.  0.
          5    1    3    3  502    0 -0.22872133876E+02 -0.74968556710E+02 -0.40793419344E+02  0.88458998779E+02  0.41800000000E+01 0. -1.
         -5    1    3    3    0  502  0.85650262568E+02 -0.28214952821E+02 -0.58372001146E+00  0.90276598129E+02  0.41800000000E+01 0. -1.
        -11    1    4    4    0    0  0.12400358235E+02  0.62725331242E+02 -0.12291475705E+02  0.65110033318E+02  0.00000000000E+00 0.  1.
         11    1    4    4    0    0 -0.75178486927E+02  0.40458178290E+02  0.14821362101E+02  0.86650688754E+02  0.00000000000E+00 0. -1.
</event>
<event>
 8    1  0.7005395E-009  0.1179774E+03  0.7561462E-02  0.1246471E+00
          4   -1    0    0  501    0  0.00000000000E+00  0.00000000000E+00  0.35598632589E+03  0.35598632589E+03  0.00000000000E+00 0. -1.
         -4   -1    0    0    0  501 -0.00000000000E+00 -0.00000000000E+00 -0.53997609355E+02  0.53997609355E+02  0.00000000000E+00 0.  1.
         25    2    1    2    0    0  0.45382942411E+02  0.72081009634E+02  0.15912509288E+03  0.21960027826E+03  0.12509278003E+03 0.  0.
         23    2    1    2    0    0 -0.45382942411E+02 -0.72081009634E+02  0.14286362366E+03  0.19038365699E+03  0.92631735770E+02 0.  0.
          5    1    3    3  502    0  0.15919447632E+02  0.10496282533E+03  0.12187340052E+03  0.16168247174E+03  0.41800000000E+01 0. -1.
         -5    1    3    3    0  502  0.29463494779E+02 -0.32881815696E+02  0.37251692354E+02  0.57917806513E+02  0.41800000000E+01 0. -1.
        -11    1    4    4    0    0 -0.10065808977E+02 -0.20633476766E+02 -0.10174750523E+02  0.25111479886E+02  0.00000000000E+00 0.  1.
         11    1    4    4    0    0 -0.35317133434E+02 -0.51447532868E+02  0.15303837418E+03  0.16527217710E+03  0.00000000000E+00 0. -1.
</event>
<event>
 8    1  0.7005395E-009  0.1292120E+03  0.7561462E-02  0.1228630E+00
         -1   -1    0    0    0  501 -0.00000000000E+00  0.00000000000E+00  0.19716628252E+03  0.19716628252E+03  0.00000000000E+00 0.  1.
          1   -1    0    0  501    0  0.00000000000E+00 -0.00000000000E+00 -0.99473999354E+02  0.99473999354E+02  0.00000000000E+00 0. -1.
         25    2    1    2    0    0 -0.35201755799E+02 -0.79880700429E+02  0.32150068311E+02  0.15588957704E+03  0.12509134033E+03 0.  0.
         23    2    1    2    0    0  0.35201755799E+02  0.79880700429E+02  0.65542214853E+02  0.14075070483E+03  0.88853188296E+02 0.  0.
          5    1    3    3  502    0 -0.73631511057E+02 -0.49888017887E+02 -0.12178386255E+02  0.89867676286E+02  0.41800000000E+01 0. -1.
         -5    1    3    3    0  502  0.38429755258E+02 -0.29992682541E+02  0.44328454567E+02  0.66021900756E+02  0.41800000000E+01 0. -1.
        -11    1    4    4    0    0  0.25109254396E+02  0.97211931584E+02  0.66899771506E+02  0.12064913479E+03  0.00000000000E+00 0.  1.
         11    1    4    4    0    0  0.10092501403E+02 -0.17331231156E+02 -0.13575566533E+01  0.20101570038E+02  0.00000000000E+00 0. -1.
</event>
<event>
 8    1  0.7005395E-009  0.1288087E+03  0.7561462E-02  0.1229234E+00
          1   -1    0    0  501    0  0.00000000000E+00  0.00000000000E+00  0.23327283651E+03  0.23327283651E+03  0.00000000000E+00 0. -1.
         -1   -1    0    0    0  501 -0.00000000000E+00 -0.00000000000E+00 -0.10463733691E+03  0.10463733691E+03  0.00000000000E+00 0.  1.
         25    2    1    2    0    0 -0.74084164121E+02  0.21524381280E+02 -0.18994878445E+02  0.14818591123E+03  0.12508595651E+03 0.  0.
         23    2    1    2    0    0  0.74084164121E+02 -0.21524381280E+02  0.14763037805E+03  0.18972426219E+03  0.90822930911E+02 0.  0.
          5    1    3    3  502    0  0.35043792988E+02  0.11886547191E+02 -0.70890430350E+01  0.37908895556E+02  0.41800000000E+01 0. -1.
         -5    1    3    3    0  502 -0.10912795711E+03  0.96378340881E+01 -0.11905835410E+02  0.11027701567E+03  0.41800000000E+01 0. -1.
        -11    1    4    4    0    0 -0.88291864159E+01  0.17124016300E+02  0.43818787219E+01  0.19758221786E+02  0.00000000000E+00 0.  1.
         11    1    4    4    0    0  0.82913350537E+02 -0.38648397579E+02  0.14324849933E+03  0.16996604041E+03  0.00000000000E+00 0. -1.
</event>
<event>
 8    1  0.7005395E-009  0.1307421E+03  0.7561462E-02  0.1226359E+00
          2   -1    0    0  501    0  0.00000000000E+00  0.00000000000E+00  0.98716332087E+03  0.98716332087E+03  0.00000000000E+00 0. -1.
         -2   -1    0    0    0  501 -0.00000000000E+00 -0.00000000000E+00 -0.28824709978E+02  0.28824709978E+02  0.00000000000E+00 0.  1.
         25    2    1    2    0    0 -0.65212949342E+02 -0.31853911086E+02  0.82879868130E+03  0.84132157844E+03  0.12508934332E+03 0.  0.
         23    2    1    2    0    0  0.65212949342E+02  0.31853911086E+02  0.12953992960E+03  0.17466645241E+03  0.91980301287E+02 0.  0.
          5    1    3    3  502    0 -0.83123417918E+02 -0.65568688348E+02  0.62992048573E+03  0.63876916506E+03  0.41800000000E+01 0.  1.
         -5    1    3    3    0  502  0.17910468576E+02  0.33714777262E+02  0.19887819557E+03  0.20255241337E+03  0.41800000000E+01 0.  1.
        -11    1    4    4    0    0  0.30022878045E+02 -0.32210200879E+02  0.50927688153E+02  0.67323841746E+02  0.00000000000E+00 0.  1.
         11    1    4    4    0    0  0.35190071297E+02  0.64064111965E+02  0.78612241444E+02  0.10734261067E+03  0.00000000000E+00 0. -1.
</event>
<event>
 8    1  0.7005395E-009  0.1427407E+03  0.7561462E-02  0.1209688E+00
          2   -1    0    0  501    0  0.00000000000E+00  0.00000000000E+00  0.57796622678E+03  0.57796622678E+03  0.00000000000E+00 0. -1.
         -2   -1    0    0    0  501 -0.00000000000E+00 -0.00000000000E+00 -0.44559766102E+02  0.44559766102E+02  0.00000000000E+00 0.  1.
         25    2    1    2    0    0 -0.10216659574E+03  0.33734545141E+02  0.19222433947E+03  0.25332542676E+03  0.12509013685E+03 0.  0.
         23    2    1    2    0    0  0.10216659574E+03 -0.33734545141E+02  0.34118212121E+03  0.36920056612E+03  0.91256700411E+02 0.  0.
          5    1    3    3  502    0 -0.67750249986E+02  0.69472062726E+02  0.65445809292E+02  0.11711998218E+03  0.41800000000E+01 0.  1.
         -5    1    3    3    0  502 -0.34416345759E+02 -0.35737517585E+02  0.12677853017E+03  0.13620544458E+03  0.41800000000E+01 0.  1.
        -11    1    4    4    0    0  0.10193442635E+03 -0.55994202354E+02  0.25638526562E+03  0.28153042891E+03  0.00000000000E+00 0. -1.
         11    1    4    4    0    0  0.23216939717E+00  0.22259657213E+02  0.84796855589E+02  0.87670137217E+02  0.00000000000E+00 0.  1.
</event>
<event>
 8    1  0.7005395E-009  0.1380031E+03  0.7561462E-02  0.1216041E+00
          3   -1    0    0  501    0  0.00000000000E+00  0.00000000000E+00  0.11956890560E+03  0.11956890560E+03  0.00000000000E+00 0. -1.
         -3   -1    0    0    0  501 -0.00000000000E+00 -0.00000000000E+00 -0.21567026303E+03  0.21567026303E+03  0.00000000000E+00 0.  1.
         25    2    1    2    0    0  0.81381970203E+02  0.72451985178E+02 -0.99333669891E+02  0.19335796465E+03  0.12509120388E+03 0.  0.
         23    2    1    2    0    0 -0.81381970203E+02 -0.72451985178E+02  0.32323124579E+01  0.14188120398E+03  0.90815818936E+02 0.  0.
          5    1    3    3  502    0 -0.19846465517E+02  0.10801551741E+02 -0.66412745727E+02  0.70275749078E+02  0.41800000000E+01 0.  1.
         -5    1    3    3    0  502  0.10122843572E+03  0.61650433437E+02 -0.32920924165E+02  0.12308221557E+03  0.41800000000E+01 0.  1.
        -11    1    4    4    0    0 -0.93896917510E+02 -0.76670315967E+02 -0.11889144438E+02  0.12180443434E+03  0.00000000000E+00 0.  1.
         11    1    4    4    0    0  0.12514947307E+02  0.42183307892E+01  0.15121456896E+02  0.20076769646E+02  0.00000000000E+00 0. -1.
</event>
<event>
 8    1  0.7005395E-009  0.1236231E+03  0.7561462E-02  0.1237237E+00
         -2   -1    0    0    0  501 -0.00000000000E+00  0.00000000000E+00  0.31191215325E+03  0.31191215325E+03  0.00000000000E+00 0. -1.
          2   -1    0    0  501    0  0.00000000000E+00 -0.00000000000E+00 -0.10075715609E+03  0.10075715609E+03  0.00000000000E+00 0.  1.
         25    2    1    2    0    0 -0.76012640139E+02  0.89276587512E+02  0.23547090685E+02  0.17307052216E+03  0.12510279622E+03 0.  0.
         23    2    1    2    0    0  0.76012640139E+02 -0.89276587512E+02  0.18760790648E+03  0.23959878718E+03  0.91992508977E+02 0.  0.
          5    1    3    3  502    0 -0.30781869914E+02  0.17365205081E+02 -0.49491189906E+02  0.60958380402E+02  0.41800000000E+01 0. -1.
         -5    1    3    3    0  502 -0.45230770225E+02  0.71911382431E+02  0.73038280591E+02  0.11211214176E+03  0.41800000000E+01 0. -1.
        -11    1    4    4    0    0  0.17875621997E+02  0.24091708032E+01 -0.48095228766E+01  0.18667444283E+02  0.00000000000E+00 0.  1.
         11    1    4    4    0    0  0.58137018141E+02 -0.91685758316E+02  0.19241742935E+03  0.22093134290E+03  0.00000000000E+00 0. -1.
</event>
<event>
 8    1  0.7005395E-009  0.1097445E+03  0.7561462E-02  0.1261044E+00
         -1   -1    0    0    0  501 -0.00000000000E+00  0.00000000000E+00  0.28053856373E+02  0.28053856373E+02  0.00000000000E+00 0.  1.
          1   -1    0    0  501    0  0.00000000000E+00 -0.00000000000E+00 -0.53039870279E+03  0.53039870279E+03  0.00000000000E+00 0. -1.
         25    2    1    2    0    0  0.16371505912E+02 -0.39749728381E+02 -0.36669277383E+03  0.38982169190E+03  0.12509713819E+03 0.  0.
         23    2    1    2    0    0 -0.16371505912E+02  0.39749728381E+02 -0.13565207258E+03  0.16863086726E+03  0.90481033841E+02 0.  0.
          5    1    3    3  502    0 -0.37284275002E+02  0.24914681790E+02 -0.17057618189E+03  0.17642155412E+03  0.41800000000E+01 0. -1.
         -5    1    3    3    0  502  0.53655780913E+02 -0.64664410171E+02 -0.19611659195E+03  0.21340013778E+03  0.41800000000E+01 0. -1.
        -11    1    4    4    0    0  0.83415485578E+01  0.58630892422E+02 -0.49995337904E+02  0.77502882467E+02  0.00000000000E+00 0.  1.
         11    1    4    4    0    0 -0.24713054469E+02 -0.18881164042E+02 -0.85656734677E+02  0.91127984792E+02  0.00000000000E+00 0. -1.
</event>
<event>
 8    1  0.7005395E-009  0.1470603E+03  0.7561462E-02  0.1204133E+00
          1   -1    0    0  501    0  0.00000000000E+00  0.00000000000E+00  0.50467206038E+03  0.50467206038E+03  0.00000000000E+00 0. -1.
         -1   -1    0    0    0  501 -0.00000000000E+00 -0.00000000000E+00 -0.45459295197E+02  0.45459295197E+02  0.00000000000E+00 0.  1.
         25    2    1    2    0    0  0.39451400096E+02 -0.90799533456E+02  0.21280971174E+03  0.26596349102E+03  0.12509051484E+03 0.  0.
         23    2    1    2    0    0 -0.39451400096E+02  0.90799533456E+02  0.24640305344E+03  0.28416786455E+03  0.10117283356E+03 0.  0.
          5    1    3    3  502    0  0.11557147418E+02  0.29716280762E+02  0.69660367951E+02  0.76724600109E+02  0.41800000000E+01 0.  1.
         -5    1    3    3    0  502  0.27894252678E+02 -0.12051581422E+03  0.14314934379E+03  0.18923889092E+03  0.41800000000E+01 0.  1.
        -11    1    4    4    0    0 -0.71683933856E+02  0.67039983765E+02  0.14450665428E+03  0.17468577197E+03  0.00000000000E+00 0.  1.
         11    1    4    4    0    0  0.32232533760E+02  0.23759549690E+02  0.10189639916E+03  0.10948209258E+03  0.00000000000E+00 0. -1.
</event>
<event>
 8    1  0.7005395E-009  0.1456367E+03  0.7561462E-02  0.1205939E+00
         -1   -1    0    0    0  501 -0.00000000000E+00  0.00000000000E+00  0.29896459593E+03  0.29896459593E+03  0.00000000000E+00 0.  1.
          1   -1    0    0  501    0  0.00000000000E+00 -0.00000000000E+00 -0.86582010083E+02  0.86582010083E+02  0.00000000000E+00 0. -1.
         25    2    1    2    0    0  0.39576089517E+01 -0.10564918014E+03  0.16846714133E+03  0.23496086077E+03  0.12509203192E+03 0.  0.
         23    2    1    2    0    0 -0.39576089517E+01  0.10564918014E+03  0.43915444515E+02  0.15058574524E+03  0.97826828990E+02 0.  0.
          5    1    3    3  502    0 -0.47465103539E+02 -0.10987097310E+02  0.87120504264E+02  0.99905490462E+02  0.41800000000E+01 0.  1.
         -5    1    3    3    0  502  0.51422712491E+02 -0.94662082833E+02  0.81346637065E+02  0.13505537030E+03  0.41800000000E+01 0.  1.
        -11    1    4    4    0    0 -0.48652862627E+01 -0.14047254883E+02 -0.11389185470E+02  0.18727250888E+02  0.00000000000E+00 0. -1.
         11    1    4    4    0    0  0.90767731100E+00  0.11969643503E+03  0.55304629985E+02  0.13185849436E+03  0.00000000000E+00 0.  1.
</event>
<event>
 8    1  0.7005395E-009  0.1167622E+03  0.7561462E-02  0.1248536E+00
         -2   -1    0    0    0  501 -0.00000000000E+00  0.00000000000E+00  0.18325469667E+02  0.18325469667E+02  0.00000000000E+00 0.  1.
          2   -1    0    0  501    0  0.00000000000E+00 -0.00000000000E+00 -0.97249928033E+03  0.97249928033E+03  0.00000000000E+00 0. -1.
         25    2    1    2    0    0  0.33803518937E+02  0.60978487347E+02 -0.65231528542E+03  0.66785075890E+03  0.12509336818E+03 0.  0.
         23    2    1    2    0    0 -0.33803518937E+02 -0.60978487347E+02 -0.30185852524E+03  0.32297399110E+03  0.91282943914E+02 0.  0.
          5    1    3    3  502    0  0.96098134882E+01  0.85701702275E+02 -0.59144240639E+03  0.59771123694E+03  0.41800000000E+01 0. -1.
         -5    1    3    3    0  502  0.24193705449E+02 -0.24723214928E+02 -0.60872879031E+02  0.70139521963E+02  0.41800000000E+01 0. -1.
        -11    1    4    4    0    0  0.87496132464E+01 -0.68561642481E+02 -0.21699643855E+03  0.22773824645E+03  0.00000000000E+00 0. -1.
         11    1    4    4    0    0 -0.42553132184E+02  0.75831551339E+01 -0.84862086691E+02  0.95235744644E+02  0.00000000000E+00 0.  1.
</event>
<event>
 8    1  0.7005395E-009  0.1117879E+03  0.7561462E-02  0.1257294E+00
         -1   -1    0    0    0  501 -0.00000000000E+00  0.00000000000E+00  0.59632898914E+03  0.59632898914E+03  0.00000000000E+00 0. -1.
          1   -1    0    0  501    0  0.00000000000E+00 -0.00000000000E+00 -0.40094069352E+02  0.40094069352E+02  0.00000000000E+00 0.  1.
         25    2    1    2    0    0  0.18472899492E+02 -0.89001069119E+02  0.17225489983E+03  0.23147757044E+03  0.12509067424E+03 0.  0.
         23    2    1    2    0    0 -0.18472899492E+02  0.89001069119E+02  0.38398001996E+03  0.40494548805E+03  0.90982164425E+02 0.  0.
          5    1    3    3  502    0 -0.52131660443E+01  0.64800994729E+01  0.11932748356E+03  0.11968997252E+03  0.41800000000E+01 0. -1.
         -5    1    3    3    0  502  0.23686065537E+02 -0.95481168592E+02  0.52927416271E+02  0.11178759792E+03  0.41800000000E+01 0. -1.
        -11    1    4    4    0    0  0.24113910913E+02  0.58922535268E+02  0.29520516935E+03  0.30199244672E+03  0.00000000000E+00 0. -1.
         11    1    4    4    0    0 -0.42586810405E+02  0.30078533851E+02  0.88774850604E+02  0.10295304133E+03  0.00000000000E+00 0.  1.
</event>
<event>
 8    1  0.7005395E-009  0.1325045E+03  0.7561462E-02  0.1223786E+00
         -2   -1    0    0    0  501 -0.00000000000E+00  0.00000000000E+00  0.85284075244E+02  0.85284075244E+02  0.00000000000E+00 0. -1.
          2   -1    0    0  501    0  0.00000000000E+00 -0.00000000000E+00 -0.25936939064E+03  0.25936939064E+03  0.00000000000E+00 0.  1.
         25    2    1    2    0    0 -0.98508247710E+02 -0.24514212926E+02 -0.10748705585E+03  0.19366408368E+03  0.12508992218E+03 0.  0.
         23    2    1    2    0    0  0.98508247710E+02  0.24514212926E+02 -0.66598259550E+02  0.15098938220E+03  0.89764379689E+02 0.  0.
          5    1    3    3  502    0 -0.78738910881E+02  0.26259028621E+02 -0.11127725311E+03  0.13888647209E+03  0.41800000000E+01 0.  1.
         -5    1    3    3    0  502 -0.19769336829E+02 -0.50773241547E+02  0.37901972648E+01  0.54777611587E+02  0.41800000000E+01 0.  1.
        -11    1    4    4    0    0  0.20180244710E+01  0.30512190925E+02  0.46023984081E+01  0.30923264525E+02  0.00000000000E+00 0. -1.
         11    1    4    4    0    0  0.96490223239E+02 -0.59979779983E+01 -0.71200657958E+02  0.12006611768E+03  0.00000000000E+00 0.  1.
</event>
<event>
 8    1  0.7005395E-009  0.1176220E+03  0.7561462E-02  0.1247072E+00
          2   -1    0    0  501    0  0.00000000000E+00  0.00000000000E+00  0.39133970557E+03  0.39133970557E+03  0.00000000000E+00 0. -1.
         -2   -1    0    0    0  501 -0.00000000000E+00 -0.00000000000E+00 -0.40783760707E+02  0.40783760707E+02  0.00000000000E+00 0.  1.
         25    2    1    2    0    0  0.12819344371E+02  0.52405844735E+02  0.19347849965E+03  0.23662712810E+03  0.12509100596E+03 0.  0.
         23    2    1    2    0    0 -0.12819344371E+02 -0.52405844735E+02  0.15707744521E+03  0.19549633818E+03  0.10312510022E+03 0.  0.
          5    1    3    3  502    0  0.14713909919E+02 -0.35009578238E+02  0.10684051741E+03  0.11346602255E+03  0.41800000000E+01 0.  1.
         -5    1    3    3    0  502 -0.18945655479E+01  0.87415422974E+02  0.86637982239E+02  0.12316110554E+03  0.41800000000E+01 0.  1.
        -11    1    4    4    0    0  0.22301065430E+02 -0.67639411148E+02  0.67691283281E+02  0.98257505016E+02  0.00000000000E+00 0.  1.
         11    1    4    4    0    0 -0.35120409800E+02  0.15233566413E+02  0.89386161932E+02  0.97238833164E+02  0.00000000000E+00 0. -1.
</event>
<event>
 8    1  0.7005395E-009  0.1576891E+03  0.7561462E-02  0.1191331E+00
         -1   -1    0    0    0  501 -0.00000000000E+00  0.00000000000E+00  0.65604749499E+02  0.65604749499E+02  0.00000000000E+00 0.  1.
          1   -1    0    0  501    0  0.00000000000E+00 -0.00000000000E+00 -0.46695106138E+03  0.46695106138E+03  0.00000000000E+00 0. -1.
         25    2    1    2    0    0  0.13206030585E+03 -0.84579094720E+01 -0.23052789686E+03  0.29377243418E+03  0.12509065209E+03 0.  0.
         23    2    1    2    0    0 -0.13206030585E+03  0.84579094720E+01 -0.17081841503E+03  0.23878337670E+03  0.10162238662E+03 0.  0.
          5    1    3    3  502    0 -0.18874690838E+02  0.74652817345E+01 -0.40579320413E+01  0.21116903136E+02  0.41800000000E+01 0. -1.
         -5    1    3    3    0  502  0.15093499669E+03 -0.15923191207E+02 -0.22646996482E+03  0.27265553104E+03  0.41800000000E+01 0. -1.
        -11    1    4    4    0    0 -0.81508453468E+02  0.31352128490E+02 -0.15994553478E+03  0.18223380050E+03  0.00000000000E+00 0. -1.
         11    1    4    4    0    0 -0.50551852386E+02 -0.22894219018E+02 -0.10872880247E+02  0.56549576206E+02  0.00000000000E+00 0.  1.
</event>
<event>
 8    1  0.7005395E-009  0.1140508E+03  0.7561462E-02  0.1253247E+00
         -1   -1    0    0    0  501 -0.00000000000E+00  0.00000000000E+00  0.63094184675E+02  0.63094184675E+02  0.00000000000E+00 0.  1.
          1   -1    0    0  501    0  0.00000000000E+00 -0.00000000000E+00 -0.46266032688E+03  0.46266032688E+03  0.00000000000E+00 0. -1.
         25    2    1    2    0    0 -0.21492134300E+02  0.99674437436E+02 -0.86164660837E+02  0.18294544298E+03  0.12509109087E+03 0.  0.
         23    2    1    2    0    0  0.21492134300E+02 -0.99674437436E+02 -0.31340148137E+03  0.34280906857E+03  0.94343328638E+02 0.  0.
          5    1    3    3  502    0 -0.27212811928E+02  0.11009332610E+03 -0.19556958738E+02  0.11515652226E+03  0.41800000000E+01 0. -1.
         -5    1    3    3    0  502  0.57206776275E+01 -0.10418888660E+02 -0.66607702099E+02  0.67788920720E+02  0.41800000000E+01 0. -1.
        -11    1    4    4    0    0  0.56471335270E+01 -0.19913964335E+02 -0.18067314941E+01  0.20777881781E+02  0.00000000000E+00 0.  1.
         11    1    4    4    0    0  0.15845000773E+02 -0.79760473101E+02 -0.31159474987E+03  0.32203118679E+03  0.00000000000E+00 0. -1.
</event>
<event>
 8    1  0.7005395E-009  0.1058635E+03  0.7561462E-02  0.1268428E+00
         -2   -1    0    0    0  501 -0.00000000000E+00  0.00000000000E+00  0.11006457499E+03  0.11006457499E+03  0.00000000000E+00 0. -1.
          2   -1    0    0  501    0  0.00000000000E+00 -0.00000000000E+00 -0.20641376943E+03  0.20641376943E+03  0.00000000000E+00 0.  1.
         25    2    1    2    0    0 -0.71731718775E+02 -0.46657330928E+01 -0.13101704611E+03  0.19488735032E+03  0.12509358257E+03 0.  0.
         23    2    1    2    0    0  0.71731718775E+02  0.46657330928E+01  0.34667851669E+02  0.12159099410E+03  0.91734951695E+02 0.  0.
          5    1    3    3  502    0 -0.83335861252E+02 -0.80369814794E+01 -0.24119442192E+02  0.87227740619E+02  0.41800000000E+01 0.  1.
         -5    1    3    3    0  502  0.11604142477E+02  0.33712483866E+01 -0.10689760392E+03  0.10765960970E+03  0.41800000000E+01 0.  1.
        -11    1    4    4    0    0  0.48123825528E+02  0.46601463518E+02  0.10735148539E+02  0.67844251043E+02  0.00000000000E+00 0.  1.
         11    1    4    4    0    0  0.23607893248E+02 -0.41935730425E+02  0.23932703130E+02  0.53746743055E+02  0.00000000000E+00 0. -1.
</event>
<event>
 8    1  0.7005395E-009  0.1107127E+03  0.7561462E-02  0.1259256E+00
         -1   -1    0    0    0  501 -0.00000000000E+00  0.00000000000E+00  0.40006258537E+02  0.40006258537E+02  0.00000000000E+00 0.  1.
          1   -1    0    0  501    0  0.00000000000E+00 -0.00000000000E+00 -0.61128319861E+03  0.61128319861E+03  0.00000000000E+00 0. -1.
         25    2    1    2    0    0  0.65566417161E+02  0.69126064008E+02 -0.18189830581E+03  0.24044238864E+03  0.12509268889E+03 0.  0.
         23    2    1    2    0    0 -0.65566417161E+02 -0.69126064008E+02 -0.38937863426E+03  0.41084706850E+03  0.90012360787E+02 0.  0.
          5    1    3    3  502    0 -0.30608374748E+01  0.22423157376E+02 -0.14945817033E+03  0.15121965411E+03  0.41800000000E+01 0. -1.
         -5    1    3    3    0  502  0.68627254635E+02  0.46702906633E+02 -0.32440135486E+02  0.89222734531E+02  0.41800000000E+01 0. -1.
        -11    1    4    4    0    0 -0.25049195459E+02  0.95428386159E+01 -0.27881596927E+02  0.38677013965E+02  0.00000000000E+00 0.  1.
         11    1    4    4    0    0 -0.40517221701E+02 -0.78668902624E+02 -0.36149703733E+03  0.37217005453E+03  0.00000000000E+00 0. -1.
</event>
<event>
 8    1  0.7005395E-009  0.1126408E+03  0.7561462E-02  0.1255756E+00
          1   -1    0    0  501    0  0.00000000000E+00  0.00000000000E+00  0.62867395327E+03  0.62867395327E+03  0.00000000000E+00 0. -1.
         -1   -1    0    0    0  501 -0.00000000000E+00 -0.00000000000E+00 -0.21350284528E+02  0.21350284528E+02  0.00000000000E+00 0.  1.
         25    2    1    2    0    0 -0.19742600152E+01  0.35397087742E+02  0.32017901225E+03  0.34556950061E+03  0.12508728291E+03 0.  0.
         23    2    1    2    0    0  0.19742600152E+01 -0.35397087742E+02  0.28714465650E+03  0.30445473719E+03  0.94782813410E+02 0.  0.
          5    1    3    3  502    0 -0.57423164035E+02  0.40792842379E+02  0.13764635356E+03  0.15467859195E+03  0.41800000000E+01 0.  1.
         -5    1    3    3    0  502  0.55448904020E+02 -0.53957546372E+01  0.18253265869E+03  0.19089090867E+03  0.41800000000E+01 0.  1.
        -11    1    4    4    0    0  0.32877622173E+02  0.17758044135E+02  0.14177807057E+03  0.14661960123E+03  0.00000000000E+00 0.  1.
         11    1    4    4    0    0 -0.30903362158E+02 -0.53155131878E+02  0.14536658593E+03  0.15783513595E+03  0.00000000000E+00 0. -1.
</event>
<event>
 8    1  0.7005395E-009  0.6374709E+02  0.7561462E-02  0.1382747E+00
          4   -1    0    0  501    0  0.00000000000E+00  0.00000000000E+00  0.80140109518E+02  0.80140109518E+02  0.00000000000E+00 0. -1.
         -4   -1    0    0    0  501 -0.00000000000E+00 -0.00000000000E+00 -0.17657893951E+03  0.17657893951E+03  0.00000000000E+00 0.  1.
         25    2    1    2    0    0 -0.35403316067E+02 -0.37976432328E+02 -0.50159744915E+02  0.14442718854E+03  0.12509040162E+03 0.  0.
         23    2    1    2    0    0  0.35403316067E+02  0.37976432328E+02 -0.46279085076E+02  0.11229186049E+03  0.88159537293E+02 0.  0.
          5    1    3    3  502    0 -0.50162866632E+01 -0.43571630043E+02 -0.86178635163E+02  0.96787807264E+02  0.41800000000E+01 0.  1.
         -5    1    3    3    0  502 -0.30387029404E+02  0.55951977147E+01  0.36018890248E+02  0.47639381274E+02  0.41800000000E+01 0.  1.
        -11    1    4    4    0    0  0.16462838277E+02  0.22001213270E+02 -0.71704694811E+02  0.76789593614E+02  0.00000000000E+00 0.  1.
         11    1    4    4    0    0  0.18940477790E+02  0.15975219058E+02  0.25425609735E+02  0.35502266875E+02  0.00000000000E+00 0. -1.
</event>
<event>
 8    1  0.7005395E-009  0.1140655E+03  0.7561462E-02  0.1253221E+00
         -2   -1    0    0    0  501 -0.00000000000E+00  0.00000000000E+00  0.45308015060E+03  0.45308015060E+03  0.00000000000E+00 0. -1.
          2   -1    0    0  501    0  0.00000000000E+00 -0.00000000000E+00 -0.55243565427E+02  0.55243565427E+02  0.00000000000E+00 0.  1.
         25    2    1    2    0    0  0.10757018072E+03  0.62903445794E+01  0.24436949181E+03  0.29491426805E+03  0.12508822789E+03 0.  0.
         23    2    1    2    0    0 -0.10757018072E+03 -0.62903445794E+01  0.15346709336E+03  0.21340944797E+03  0.10188489350E+03 0.  0.
          5    1    3    3  502    0  0.70160547944E+02 -0.10749942774E+02  0.24341115686E+03  0.25358337375E+03  0.41800000000E+01 0. -1.
         -5    1    3    3    0  502  0.37409632778E+02  0.17040287353E+02  0.95833494529E+00  0.41330894299E+02  0.41800000000E+01 0. -1.
        -11    1    4    4    0    0 -0.68992538928E+02 -0.24283602071E+02  0.23772238454E+02  0.76907626919E+02  0.00000000000E+00 0.  1.
         11    1    4    4    0    0 -0.38577641795E+02  0.17993257492E+02  0.12969485491E+03  0.13650182105E+03  0.00000000000E+00 0. -1.
</event>
<event>
 8    1  0.7005395E-009  0.8237648E+02  0.7561462E-02  0.1322439E+00
          1   -1    0    0  501    0  0.00000000000E+00  0.00000000000E+00  0.11606880108E+03  0.11606880108E+03  0.00000000000E+00 0. -1.
         -1   -1    0    0    0  501 -0.00000000000E+00 -0.00000000000E+00 -0.24271425696E+03  0.24271425696E+03  0.00000000000E+00 0.  1.
         25    2    1    2    0    0  0.15132607396E+02  0.37764591614E+02  0.61369509479E+02  0.14514746227E+03  0.12508560638E+03 0.  0.
         23    2    1    2    0    0 -0.15132607396E+02 -0.37764591614E+02 -0.18801496535E+03  0.21363559577E+03  0.92926747479E+02 0.  0.
          5    1    3    3  502    0  0.70553701018E+01  0.50015493674E+02  0.95302778869E+02  0.10794174315E+03  0.41800000000E+01 0.  1.
         -5    1    3    3    0  502  0.80772372946E+01 -0.12250902060E+02 -0.33933269390E+02  0.37205719118E+02  0.41800000000E+01 0.  1.
        -11    1    4    4    0    0  0.78295709267E+01  0.28041816990E+02 -0.35224864371E+02  0.45699417402E+02  0.00000000000E+00 0. -1.
         11    1    4    4    0    0 -0.22962178323E+02 -0.65806408603E+02 -0.15279010098E+03  0.16793617837E+03  0.00000000000E+00 0.  1.
</event>
<event>
 8    1  0.7005395E-009  0.8518501E+02  0.7561462E-02  0.1314949E+00
          2   -1    0    0  501    0  0.00000000000E+00  0.00000000000E+00  0.59050254978E+02  0.59050254978E+02  0.00000000000E+00 0. -1.
         -2   -1    0    0    0  501 -0.00000000000E+00 -0.00000000000E+00 -0.23780952464E+03  0.23780952464E+03  0.00000000000E+00 0.  1.
         25    2    1    2    0    0  0.14925978393E+02 -0.41533802981E+02 -0.11570605958E+03  0.17601352525E+03  0.12508008325E+03 0.  0.
         23    2    1    2    0    0 -0.14925978393E+02  0.41533802981E+02 -0.63053210079E+02  0.12084625436E+03  0.93167957322E+02 0.  0.
          5    1    3    3  502    0 -0.15714095561E+02 -0.52071709745E+02 -0.12952280345E+03  0.14054189684E+03  0.41800000000E+01 0. -1.
         -5    1    3    3    0  502  0.30640073953E+02  0.10537906764E+02  0.13816743868E+02  0.35471628408E+02  0.41800000000E+01 0. -1.
        -11    1    4    4    0    0 -0.32718495039E+02  0.52780814208E+02 -0.88845037877E+01  0.62731560427E+02  0.00000000000E+00 0. -1.
         11    1    4    4    0    0  0.17792516647E+02 -0.11247011226E+02 -0.54168706291E+02  0.58114693937E+02  0.00000000000E+00 0.  1.
</event>
<event>
 8    1  0.7005395E-009  0.3533761E+03  0.7561462E-02  0.1061238E+00
         -1   -1    0    0    0  501 -0.00000000000E+00  0.00000000000E+00  0.19165080204E+03  0.19165080204E+03  0.00000000000E+00 0.  1.
          1   -1    0    0  501    0  0.00000000000E+00 -0.00000000000E+00 -0.73179023612E+03  0.73179023612E+03  0.00000000000E+00 0. -1.
         25    2    1    2    0    0  0.33503075955E+03 -0.58230643812E+02 -0.41154940687E+03  0.54832064814E+03  0.12508477588E+03 0.  0.
         23    2    1    2    0    0 -0.33503075955E+03  0.58230643812E+02 -0.12859002720E+03  0.37512039002E+03  0.92431023949E+02 0.  0.
          5    1    3    3  502    0  0.14656469594E+03  0.27518817601E+02 -0.12419768189E+03  0.19411602717E+03  0.41800000000E+01 0. -1.
         -5    1    3    3    0  502  0.18846606361E+03 -0.85749461413E+02 -0.28735172498E+03  0.35420462097E+03  0.41800000000E+01 0. -1.
        -11    1    4    4    0    0 -0.13452422009E+03 -0.18483516552E+02 -0.30910255457E+02  0.13926180405E+03  0.00000000000E+00 0.  1.
         11    1    4    4    0    0 -0.20050653946E+03  0.76714160364E+02 -0.97679771744E+02  0.23585858597E+03  0.00000000000E+00 0. -1.
</event>
<event>
 8    1  0.7005395E-009  0.9939394E+02  0.7561462E-02  0.1281576E+00
          4   -1    0    0  501    0  0.00000000000E+00  0.00000000000E+00  0.87123680810E+02  0.87123680810E+02  0.00000000000E+00 0. -1.
         -4   -1    0    0    0  501 -0.00000000000E+00 -0.00000000000E+00 -0.14277211148E+03  0.14277211148E+03  0.00000000000E+00 0.  1.
         25    2    1    2    0    0 -0.16325494080E+02 -0.19273700178E+02 -0.20419932434E+02  0.12924665316E+03  0.12509886665E+03 0.  0.
         23    2    1    2    0    0  0.16325494080E+02  0.19273700178E+02 -0.35228498232E+02  0.10064913913E+03  0.90836142832E+02 0.  0.
          5    1    3    3  502    0 -0.64211692698E+02 -0.35614114606E+02 -0.26367860826E+02  0.78129655847E+02  0.41800000000E+01 0. -1.
         -5    1    3    3    0  502  0.47886198618E+02  0.16340414427E+02  0.59479283921E+01  0.51116997309E+02  0.41800000000E+01 0. -1.
        -11    1    4    4    0    0 -0.13860973982E+01 -0.25906999057E+02  0.15681830365E+02  0.30315238243E+02  0.00000000000E+00 0. -1.
         11    1    4    4    0    0  0.17711591478E+02  0.45180699236E+02 -0.50910328597E+02  0.70333900887E+02  0.00000000000E+00 0.  1.
</event>
<event>
 8    1  0.7005395E-009  0.1366464E+03  0.7561462E-02  0.1217914E+00
          2   -1    0    0  501    0  0.00000000000E+00  0.00000000000E+00  0.13814616114E+04  0.13814616114E+04  0.00000000000E+00 0. -1.
         -2   -1    0    0    0  501 -0.00000000000E+00 -0.00000000000E+00 -0.16284455730E+02  0.16284455730E+02  0.00000000000E+00 0.  1.
         25    2    1    2    0    0  0.84712919280E+02  0.36166060346E+02  0.94920116668E+03  0.96182851855E+03  0.12508789569E+03 0.  0.
         23    2    1    2    0    0 -0.84712919280E+02 -0.36166060346E+02  0.41597598895E+03  0.43591754855E+03  0.92216176088E+02 0.  0.
          5    1    3    3  502    0 -0.17272812871E+02 -0.25508488166E+02  0.31350451024E+03  0.31504219301E+03  0.41800000000E+01 0.  1.
         -5    1    3    3    0  502  0.10198573215E+03  0.61674548512E+02  0.63569665644E+03  0.64678632554E+03  0.41800000000E+01 0.  1.
        -11    1    4    4    0    0 -0.59507961115E+02  0.18858052059E+02  0.28319979710E+03  0.28999818730E+03  0.00000000000E+00 0. -1.
         11    1    4    4    0    0 -0.25204958166E+02 -0.55024112405E+02  0.13277619186E+03  0.14591936125E+03  0.00000000000E+00 0.  1.
</event>
<event>
 8    1  0.7005395E-009  0.1666122E+03  0.7561462E-02  0.1181428E+00
          2   -1    0    0  501    0  0.00000000000E+00  0.00000000000E+00  0.30737004672E+03  0.30737004672E+03  0.00000000000E+00 0.  1.
         -2   -1    0    0    0  501 -0.00000000000E+00 -0.00000000000E+00 -0.11888724146E+03  0.11888724146E+03  0.00000000000E+00 0. -1.
         25    2    1    2    0    0 -0.43095363861E+02 -0.14638308975E+03  0.58063630864E+02  0.20567719034E+03  0.12508597862E+03 0.  0.
         23    2    1    2    0    0  0.43095363861E+02  0.14638308975E+03  0.13041917440E+03  0.22058009784E+03  0.91439592966E+02 0.  0.
          5    1    3    3  502    0 -0.62381756373E+02 -0.83410072894E+02  0.84896236007E+02  0.13443796739E+03  0.41800000000E+01 0. -1.
         -5    1    3    3    0  502  0.19286392512E+02 -0.62973016852E+02 -0.26832605143E+02  0.71239222949E+02  0.41800000000E+01 0. -1.
        -11    1    4    4    0    0  0.24401308619E+02  0.14160995163E+03  0.13857875469E+03  0.19963184494E+03  0.00000000000E+00 0.  1.
         11    1    4    4    0    0  0.18694055243E+02  0.47731381179E+01 -0.81595802938E+01  0.20948252898E+02  0.00000000000E+00 0. -1.
</event>
<event>
 8    1  0.7005395E-009  0.2200183E+03  0.7561462E-02  0.1133869E+00
         -1   -1    0    0    0  501 -0.00000000000E+00  0.00000000000E+00  0.26766014730E+03  0.26766014730E+03  0.00000000000E+00 0.  1.
          1   -1    0    0  501    0  0.00000000000E+00 -0.00000000000E+00 -0.19490224272E+03  0.19490224272E+03  0.00000000000E+00 0. -1.
         25    2    1    2    0    0  0.19989951041E+03  0.14543565188E+02  0.24300684418E+02  0.23750392242E+03  0.12508501249E+03 0.  0.
         23    2    1    2    0    0 -0.19989951041E+03 -0.14543565188E+02  0.48457220159E+02  0.22505846760E+03  0.90176948847E+02 0.  0.
          5    1    3    3  502    0  0.13647457825E+03  0.68611792120E+02  0.15352132086E+02  0.15357750123E+03  0.41800000000E+01 0. -1.
         -5    1    3    3    0  502  0.63424932164E+02 -0.54068226932E+02  0.89485523321E+01  0.83926421182E+02  0.41800000000E+01 0. -1.
        -11    1    4    4    0    0 -0.76096145068E+02 -0.23530771273E+02  0.60959290401E+02  0.10030132390E+03  0.00000000000E+00 0.  1.
         11    1    4    4    0    0 -0.12380336534E+03  0.89872060844E+01 -0.12502070242E+02  0.12475714370E+03  0.00000000000E+00 0. -1.
</event>
<event>
 8    1  0.7005395E-009  0.1025945E+03  0.7561462E-02  0.1274933E+00
         -1   -1    0    0    0  501 -0.00000000000E+00  0.00000000000E+00  0.21558947600E+02  0.21558947600E+02  0.00000000000E+00 0.  1.
          1   -1    0    0  501    0  0.00000000000E+00 -0.00000000000E+00 -0.58812034669E+03  0.58812034669E+03  0.00000000000E+00 0. -1.
         25    2    1    2    0    0 -0.17248543360E+02 -0.18880133346E+02 -0.29641669622E+03  0.32274542170E+03  0.12509107782E+03 0.  0.
         23    2    1    2    0    0  0.17248543360E+02  0.18880133346E+02 -0.27014470287E+03  0.28693387258E+03  0.93267974484E+02 0.  0.
          5    1    3    3  502    0 -0.13071796900E+02  0.52138927431E+02 -0.15993957739E+03  0.16878234636E+03  0.41800000000E+01 0. -1.
         -5    1    3    3    0  502 -0.41767464596E+01 -0.71019060777E+02 -0.13647711883E+03  0.15396307534E+03  0.41800000000E+01 0. -1.
        -11    1    4    4    0    0 -0.30055870577E+02  0.11258006686E+02 -0.37287468877E+02  0.49198103682E+02  0.00000000000E+00 0.  1.
         11    1    4    4    0    0  0.47304413937E+02  0.76221266600E+01 -0.23285723399E+03  0.23773576890E+03  0.00000000000E+00 0. -1.
</event>
<event>
 8    1  0.7005395E-009  0.1532897E+03  0.7561462E-02  0.1196488E+00
          1   -1    0    0  501    0  0.00000000000E+00  0.00000000000E+00  0.77055804950E+03  0.77055804950E+03  0.00000000000E+00 0. -1.
         -1   -1    0    0    0  501 -0.00000000000E+00 -0.00000000000E+00 -0.31949323855E+02  0.31949323855E+02  0.00000000000E+00 0.  1.
         25    2    1    2    0    0 -0.95024311573E+02 -0.58092256913E+02  0.44920483046E+03  0.47941215326E+03  0.12508678142E+03 0.  0.
         23    2    1    2    0    0  0.95024311573E+02  0.58092256913E+02  0.28940389519E+03  0.32309522010E+03  0.90728036428E+02 0.  0.
          5    1    3    3  502    0  0.19412545935E+02 -0.46395165363E+02  0.17219668126E+03  0.17943948212E+03  0.41800000000E+01 0.  1.
         -5    1    3    3    0  502 -0.11443685751E+03 -0.11697091550E+02  0.27700814920E+03  0.29997267114E+03  0.41800000000E+01 0.  1.
        -11    1    4    4    0    0 -0.10288354046E+02  0.30425707739E+02  0.94893462350E+02  0.10018155078E+03  0.00000000000E+00 0. -1.
         11    1    4    4    0    0  0.10531266562E+03  0.27666549174E+02  0.19451043284E+03  0.22291366931E+03  0.00000000000E+00 0.  1.
</event>
<event>
 8    1  0.7005395E-009  0.1099951E+03  0.7561462E-02  0.1260579E+00
         -2   -1    0    0    0  501 -0.00000000000E+00  0.00000000000E+00  0.47094614484E+02  0.47094614484E+02  0.00000000000E+00 0. -1.
          2   -1    0    0  501    0  0.00000000000E+00 -0.00000000000E+00 -0.57692305262E+03  0.57692305262E+03  0.00000000000E+00 0.  1.
         25    2    1    2    0    0 -0.63440426840E+02 -0.83997781557E+02 -0.40528754276E+03  0.43701798384E+03  0.12508561395E+03 0.  0.
         23    2    1    2    0    0  0.63440426840E+02  0.83997781557E+02 -0.12454089537E+03  0.18699968326E+03  0.91532135646E+02 0.  0.
          5    1    3    3  502    0  0.55670474560E+01 -0.28904888262E+01 -0.24145320381E+03  0.24157083635E+03  0.41800000000E+01 0.  1.
         -5    1    3    3    0  502 -0.69007474296E+02 -0.81107292731E+02 -0.16383433895E+03  0.19544714749E+03  0.41800000000E+01 0.  1.
        -11    1    4    4    0    0  0.38575958525E+02  0.41641707942E+02 -0.40793689536E+01  0.56910259774E+02  0.00000000000E+00 0. -1.
         11    1    4    4    0    0  0.24864468315E+02  0.42356073615E+02 -0.12046152642E+03  0.13008942349E+03  0.00000000000E+00 0.  1.
</event>
<event>
 8    1  0.7005395E-009  0.1072494E+03  0.7561462E-02  0.1265750E+00
          2   -1    0    0  501    0  0.00000000000E+00  0.00000000000E+00  0.10919468045E+03  0.10919468045E+03  0.00000000000E+00 0.  1.
         -2   -1    0    0    0  501 -0.00000000000E+00 -0.00000000000E+00 -0.12441985982E+03  0.12441985982E+03  0.00000000000E+00 0. -1.
         25    2    1    2    0    0  0.30743695795E+02 -0.29184088763E+02  0.55661529709E+01  0.13220137807E+03  0.12509730787E+03 0.  0.
         23    2    1    2    0    0 -0.30743695795E+02  0.29184088763E+02 -0.20791332343E+02  0.10141316220E+03  0.89752237295E+02 0.  0.
          5    1    3    3  502    0 -0.40265219413E+02 -0.12658975994E+02  0.33465463210E+02  0.54027281955E+02  0.41800000000E+01 0. -1.
         -5    1    3    3    0  502  0.71008915208E+02 -0.16525112769E+02 -0.27899310239E+02  0.78174096112E+02  0.41800000000E+01 0. -1.
        -11    1    4    4    0    0  0.84099230202E+01 -0.28290588702E+02 -0.91634198744E+01  0.30903923345E+02  0.00000000000E+00 0.  1.
         11    1    4    4    0    0 -0.39153618815E+02  0.57474677465E+02 -0.11627912469E+02  0.70509238859E+02  0.00000000000E+00 0. -1.
</event>
<event>
 8    1  0.7005395E-009  0.1179649E+03  0.7561462E-02  0.1246493E+00
         -2   -1    0    0    0  501 -0.00000000000E+00  0.00000000000E+00  0.37729836504E+02  0.37729836504E+02  0.00000000000E+00 0. -1.
          2   -1    0    0  501    0  0.00000000000E+00 -0.00000000000E+00 -0.39491087140E+03  0.39491087140E+03  0.00000000000E+00 0.  1.
         25    2    1    2    0    0  0.34329472661E+02  0.19319867130E+02 -0.24906305841E+03  0.28148191169E+03  0.12509152484E+03 0.  0.
         23    2    1    2    0    0 -0.34329472661E+02 -0.19319867130E+02 -0.10811797649E+03  0.15115879622E+03  0.98018951606E+02 0.  0.
          5    1    3    3  502    0  0.72427723647E+02  0.44008835487E+02 -0.14771785177E+03  0.17035430398E+03  0.41800000000E+01 0.  1.
         -5    1    3    3    0  502 -0.38098250986E+02 -0.24688968357E+02 -0.10134520664E+03  0.11112760771E+03  0.41800000000E+01 0.  1.
        -11    1    4    4    0    0 -0.55771208649E+02  0.21182604495E+02 -0.57107046169E+02  0.82585381088E+02  0.00000000000E+00 0. -1.
         11    1    4    4    0    0  0.21441735989E+02 -0.40502471626E+02 -0.51010930323E+02  0.68573415129E+02  0.00000000000E+00 0.  1.
</event>
<event>
 8    1  0.7005395E-009  0.1043032E+03  0.7561462E-02  0.1271499E+00
          2   -1    0    0  501    0  0.00000000000E+00  0.00000000000E+00  0.10529498989E+03  0.10529498989E+03  0.00000000000E+00 0. -1.
         -2   -1    0    0    0  501 -0.00000000000E+00 -0.00000000000E+00 -0.14982078818E+03  0.14982078818E+03  0.00000000000E+00 0.  1.
         25    2    1    2    0    0 -0.35077508781E+02  0.34551759741E+02  0.15145147280E+02  0.13527743715E+03  0.12508538601E+03 0.  0.
         23    2    1    2    0    0  0.35077508781E+02 -0.34551759741E+02 -0.59670945565E+02  0.11983834092E+03  0.91522404291E+02 0.  0.
          5    1    3    3  502    0 -0.65926159372E+02 -0.12037779554E+02 -0.18845286712E+02  0.69740833501E+02  0.41800000000E+01 0.  1.
         -5    1    3    3    0  502  0.30848650591E+02  0.46589539296E+02  0.33990433992E+02  0.65536603650E+02  0.41800000000E+01 0.  1.
        -11    1    4    4    0    0  0.52343207032E+02 -0.41517164600E+02 -0.71440610909E+02  0.97812305800E+02  0.00000000000E+00 0.  1.
         11    1    4    4    0    0 -0.17265698252E+02  0.69654048587E+01  0.11769665344E+02  0.22026035124E+02  0.00000000000E+00 0. -1.
</event>
<event>
 8    1  0.7005395E-009  0.1688956E+03  0.7561462E-02  0.1179004E+00
          1   -1    0    0  501    0  0.00000000000E+00  0.00000000000E+00  0.85654705452E+02  0.85654705452E+02  0.00000000000E+00 0. -1.
         -1   -1    0    0    0  501 -0.00000000000E+00 -0.00000000000E+00 -0.48047148434E+03  0.48047148434E+03  0.00000000000E+00 0.  1.
         25    2    1    2    0    0 -0.31691117136E+02 -0.14313560566E+03 -0.83695911830E+02  0.21010840610E+03  0.12509359754E+03 0.  0.
         23    2    1    2    0    0  0.31691117136E+02  0.14313560566E+03 -0.31112086705E+03  0.35601778369E+03  0.91980105854E+02 0.  0.
          5    1    3    3  502    0  0.26793560156E+01  0.21260652953E+02 -0.22381607934E+02  0.31266644949E+02  0.41800000000E+01 0.  1.
         -5    1    3    3    0  502 -0.34370473152E+02 -0.16439625861E+03 -0.61314303897E+02  0.17884176115E+03  0.41800000000E+01 0.  1.
        -11    1    4    4    0    0  0.94583431496E+00  0.47295122945E+02 -0.20242064706E+03  0.20787458145E+03  0.00000000000E+00 0.  1.
         11    1    4    4    0    0  0.30745282821E+02  0.95840482712E+02 -0.10870021999E+03  0.14814320224E+03  0.00000000000E+00 0. -1.
</event>
<event>
 8    1  0.7005395E-009  0.6733628E+02  0.7561462E-02  0.1369393E+00
         -1   -1    0    0    0  501 -0.00000000000E+00  0.00000000000E+00  0.13530036173E+03  0.13530036173E+03  0.00000000000E+00 0.  1.
          1   -1    0    0  501    0  0.00000000000E+00 -0.00000000000E+00 -0.19748979299E+03  0.19748979299E+03  0.00000000000E+00 0. -1.
         25    2    1    2    0    0 -0.26302806359E+02 -0.60364286885E+01 -0.15313606120E+03  0.19956490255E+03  0.12508885240E+03 0.  0.
         23    2    1    2    0    0  0.26302806359E+02  0.60364286885E+01  0.90946629943E+02  0.13322525218E+03  0.93538239376E+02 0.  0.
          5    1    3    3  502    0  0.18986093714E+02 -0.15527870780E+02 -0.15101963513E+03  0.15305550993E+03  0.41800000000E+01 0. -1.
         -5    1    3    3    0  502 -0.45288900073E+02  0.94914420915E+01 -0.21164260790E+01  0.46509392623E+02  0.41800000000E+01 0. -1.
        -11    1    4    4    0    0  0.44626500987E+02  0.27222818492E+01  0.10214155823E+03  0.11149813149E+03  0.00000000000E+00 0.  1.
         11    1    4    4    0    0 -0.18323694628E+02  0.33141468393E+01 -0.11194928282E+02  0.21727120686E+02  0.00000000000E+00 0. -1.
</event>
<event>
 8    1  0.7005395E-009  0.1583484E+03  0.7561462E-02  0.1190574E+00
         -2   -1    0    0    0  501 -0.00000000000E+00  0.00000000000E+00  0.88749544131E+02  0.88749544131E+02  0.00000000000E+00 0.  1.
          2   -1    0    0  501    0  0.00000000000E+00 -0.00000000000E+00 -0.38925668055E+03  0.38925668055E+03  0.00000000000E+00 0. -1.
         25    2    1    2    0    0  0.10522327293E+03 -0.61570696544E+02 -0.27106486665E+03  0.32247140970E+03  0.12509500511E+03 0.  0.
         23    2    1    2    0    0 -0.10522327293E+03  0.61570696544E+02 -0.29442269773E+02  0.15553481498E+03  0.91985561822E+02 0.  0.
          5    1    3    3  502    0  0.89689071351E+02 -0.99154712269E+02 -0.20514078678E+03  0.24489998221E+03  0.41800000000E+01 0. -1.
         -5    1    3    3    0  502  0.15534201575E+02  0.37584015725E+02 -0.65924079864E+02  0.77571427488E+02  0.41800000000E+01 0. -1.
        -11    1    4    4    0    0 -0.75892295278E+02  0.23104967878E+01  0.12903025571E+02  0.77016017470E+02  0.00000000000E+00 0.  1.
         11    1    4    4    0    0 -0.29330977648E+02  0.59260199756E+02 -0.42345295344E+02  0.78518797512E+02  0.00000000000E+00 0. -1.
</event>
<event>
 8    1  0.7005395E-009  0.2319904E+03  0.7561462E-02  0.1125247E+00
         -1   -1    0    0    0  501 -0.00000000000E+00  0.00000000000E+00  0.73317841869E+02  0.73317841869E+02  0.00000000000E+00 0.  1.
          1   -1    0    0  501    0  0.00000000000E+00 -0.00000000000E+00 -0.76372508416E+03  0.76372508416E+03  0.00000000000E+00 0. -1.
         25    2    1    2    0    0 -0.53750484781E+02  0.20362719992E+03 -0.36026860179E+03  0.43565403229E+03  0.12509124372E+03 0.  0.
         23    2    1    2    0    0  0.53750484781E+02 -0.20362719992E+03 -0.33013864050E+03  0.40138889374E+03  0.88138362271E+02 0.  0.
          5    1    3    3  502    0  0.35416170744E+02  0.21088782946E+02 -0.69749240310E+02  0.81126264798E+02  0.41800000000E+01 0. -1.
         -5    1    3    3    0  502 -0.89166655524E+02  0.18253841697E+03 -0.29051936148E+03  0.35452776750E+03  0.41800000000E+01 0. -1.
        -11    1    4    4    0    0 -0.87861838545E+01 -0.83156073477E+02 -0.74699619343E+02  0.11212565591E+03  0.00000000000E+00 0.  1.
         11    1    4    4    0    0  0.62536668635E+02 -0.12047112644E+03 -0.25543902116E+03  0.28926323783E+03  0.00000000000E+00 0. -1.
</event>
<event>
 8    1  0.7005395E-009  0.3019887E+03  0.7561462E-02  0.1084251E+00
          1   -1    0    0  501    0  0.00000000000E+00  0.00000000000E+00  0.29144112520E+03  0.29144112520E+03  0.00000000000E+00 0.  1.
         -1   -1    0    0    0  501 -0.00000000000E+00 -0.00000000000E+00 -0.35850256790E+03  0.35850256790E+03  0.00000000000E+00 0. -1.
         25    2    1    2    0    0  0.29556529976E+03 -0.87296230080E+01  0.37881414186E+02  0.32328999703E+03  0.12508544239E+03 0.  0.
         23    2    1    2    0    0 -0.29556529976E+03  0.87296230080E+01 -0.10494285689E+03  0.32665369607E+03  0.90854725837E+02 0.  0.
          5    1    3    3  502    0  0.93093361880E+02 -0.31489717316E+02  0.64711536941E+02  0.11774137648E+03  0.41800000000E+01 0. -1.
         -5    1    3    3    0  502  0.20247193788E+03  0.22760094308E+02 -0.26830122755E+02  0.20554862055E+03  0.41800000000E+01 0. -1.
        -11    1    4    4    0    0 -0.22585349698E+03  0.32479862752E+02 -0.47051726660E+02  0.23297769971E+03  0.00000000000E+00 0.  1.
         11    1    4    4    0    0 -0.69711802779E+02 -0.23750239744E+02 -0.57891130231E+02  0.93675996359E+02  0.00000000000E+00 0. -1.
</event>
<event>
 8    1  0.7005395E-009  0.1096540E+03  0.7561462E-02  0.1261212E+00
          2   -1    0    0  501    0  0.00000000000E+00  0.00000000000E+00  0.74326470584E+03  0.74326470584E+03  0.00000000000E+00 0.  1.
         -2   -1    0    0    0  501 -0.00000000000E+00 -0.00000000000E+00 -0.16788708404E+02  0.16788708404E+02  0.00000000000E+00 0. -1.
         25    2    1    2    0    0  0.20049770581E+02 -0.22621143570E+02  0.48395980471E+03  0.50077897644E+03  0.12509508876E+03 0.  0.
         23    2    1    2    0    0 -0.20049770581E+02  0.22621143570E+02  0.24251619273E+03  0.25927443781E+03  0.86576099052E+02 0.  0.
          5    1    3    3  502    0 -0.52476807157E+02 -0.13961686051E+02  0.17521915221E+03  0.18348833115E+03  0.41800000000E+01 0.  1.
         -5    1    3    3    0  502  0.72526577738E+02 -0.86594575192E+01  0.30874065250E+03  0.31729064529E+03  0.41800000000E+01 0.  1.
        -11    1    4    4    0    0  0.34303613784E+02  0.11700001583E+02  0.98363118536E+02  0.10482810236E+03  0.00000000000E+00 0.  1.
         11    1    4    4    0    0 -0.54353384365E+02  0.10921141987E+02  0.14415307419E+03  0.15444633545E+03  0.00000000000E+00 0. -1.
</event>
<event>
 8    1  0.7005395E-009  0.1415061E+03  0.7561462E-02  0.1211317E+00
          1   -1    0    0  501    0  0.00000000000E+00  0.00000000000E+00  0.77428344347E+03  0.77428344347E+03  0.00000000000E+00 0. -1.
         -1   -1    0    0    0  501 -0.00000000000E+00 -0.00000000000E+00 -0.36036773143E+02  0.36036773143E+02  0.00000000000E+00 0.  1.
         25    2    1    2    0    0  0.11086661839E+03  0.58285791974E+02  0.44685630396E+03  0.48064212229E+03  0.12509057801E+03 0.  0.
         23    2    1    2    0    0 -0.11086661839E+03 -0.58285791974E+02  0.29139036637E+03  0.32967809433E+03  0.89948094182E+02 0.  0.
          5    1    3    3  502    0  0.54875100977E+02 -0.39963913606E+01  0.34179026119E+03  0.34621568840E+03  0.41800000000E+01 0.  1.
         -5    1    3    3    0  502  0.55991517415E+02  0.62282183335E+02  0.10506604277E+03  0.13442643388E+03  0.41800000000E+01 0.  1.
        -11    1    4    4    0    0 -0.12094453082E+03 -0.57363045218E+02  0.29007767215E+03  0.31947324516E+03  0.00000000000E+00 0. -1.
         11    1    4    4    0    0  0.10077912427E+02 -0.92274675688E+00  0.13126942193E+01  0.10204849170E+02  0.00000000000E+00 0.  1.
</event>
<event>
 8    1  0.7005395E-009  0.8188492E+02  0.7561462E-02  0.1323786E+00
         -1   -1    0    0    0  501 -0.00000000000E+00  0.00000000000E+00  0.15803239453E+03  0.15803239453E+03  0.00000000000E+00 0. -1.
          1   -1    0    0  501    0  0.00000000000E+00 -0.00000000000E+00 -0.90818317757E+02  0.90818317757E+02  0.00000000000E+00 0.  1.
         25    2    1    2    0    0 -0.14872081770E+02 -0.41420809837E+02  0.68337055156E+02  0.14918042790E+03  0.12509190485E+03 0.  0.
         23    2    1    2    0    0  0.14872081770E+02  0.41420809837E+02 -0.11229783792E+01  0.99670284386E+02  0.89420591619E+02 0.  0.
          5    1    3    3  502    0  0.14171873748E+01  0.10133374831E+02 -0.32696326285E+02  0.34513995104E+02  0.41800000000E+01 0. -1.
         -5    1    3    3    0  502 -0.16289269144E+02 -0.51554184668E+02  0.10103338144E+03  0.11466643280E+03  0.41800000000E+01 0. -1.
        -11    1    4    4    0    0  0.32627139170E+02 -0.17449183209E+02 -0.78202476824E+01  0.37817462619E+02  0.00000000000E+00 0.  1.
         11    1    4    4    0    0 -0.17755057401E+02  0.58869993046E+02  0.66972693032E+01  0.61852821768E+02  0.00000000000E+00 0. -1.
</event>
<event>
 8    1  0.7005395E-009  0.1125137E+03  0.7561462E-02  0.1255985E+00
          3   -1    0    0  501    0  0.00000000000E+00  0.00000000000E+00  0.33709376661E+02  0.33709376661E+02  0.00000000000E+00 0. -1.
         -3   -1    0    0    0  501 -0.00000000000E+00 -0.00000000000E+00 -0.81605267403E+03  0.81605267403E+03  0.00000000000E+00 0.  1.
         25    2    1    2    0    0  0.18657070837E+02  0.30036126367E+02 -0.72195666510E+03  0.73356552898E+03  0.12508678529E+03 0.  0.
         23    2    1    2    0    0 -0.18657070837E+02 -0.30036126367E+02 -0.60386632278E+02  0.11619652171E+03  0.92762228958E+02 0.  0.
          5    1    3    3  502    0  0.70023077561E+01  0.78065100955E+02 -0.50094103796E+03  0.50705284558E+03  0.41800000000E+01 0. -1.
         -5    1    3    3    0  502  0.11654763081E+02 -0.48028974588E+02 -0.22101562713E+03  0.22651268340E+03  0.41800000000E+01 0. -1.
        -11    1    4    4    0    0 -0.38211776704E+02  0.20062543303E+02 -0.39492729308E+02  0.58500608465E+02  0.00000000000E+00 0.  1.
         11    1    4    4    0    0  0.19554705867E+02 -0.50098669670E+02 -0.20893902970E+02  0.57695913248E+02  0.00000000000E+00 0. -1.
</event>
<event>
 8    1  0.7005395E-009  0.1925045E+03  0.7561462E-02  0.1156222E+00
         -1   -1    0    0    0  501 -0.00000000000E+00  0.00000000000E+00  0.27063703215E+03  0.27063703215E+03  0.00000000000E+00 0.  1.
          1   -1    0    0  501    0  0.00000000000E+00 -0.00000000000E+00 -0.52412470070E+03  0.52412470070E+03  0.00000000000E+00 0. -1.
         25    2    1    2    0    0 -0.14418597932E+03  0.99270532285E+02 -0.46098875920E+03  0.50872562124E+03  0.12508751488E+03 0.  0.
         23    2    1    2    0    0  0.14418597932E+03 -0.99270532285E+02  0.20750109066E+03  0.28603611161E+03  0.90087287172E+02 0.  0.
          5    1    3    3  502    0 -0.16170481327E+03  0.82843919304E+02 -0.34224622552E+03  0.38750679076E+03  0.41800000000E+01 0. -1.
         -5    1    3    3    0  502  0.17518833951E+02  0.16426612981E+02 -0.11874253368E+03  0.12121883048E+03  0.41800000000E+01 0. -1.
        -11    1    4    4    0    0  0.99202864940E+02 -0.87786325723E+02  0.19866150283E+03  0.23877612967E+03  0.00000000000E+00 0.  1.
         11    1    4    4    0    0  0.44983114383E+02 -0.11484206563E+02  0.88395878284E+01  0.47259981940E+02  0.00000000000E+00 0. -1.
</event>
<event>
 8    1  0.7005395E-009  0.1535542E+03  0.7561462E-02  0.1196172E+00
          2   -1    0    0  501    0  0.00000000000E+00  0.00000000000E+00  0.35110344515E+03  0.35110344515E+03  0.00000000000E+00 0. -1.
         -2   -1    0    0    0  501 -0.00000000000E+00 -0.00000000000E+00 -0.76644627804E+02  0.76644627804E+02  0.00000000000E+00 0.  1.
         25    2    1    2    0    0  0.10011713668E+03  0.65649367825E+02  0.17564099396E+03  0.24663742779E+03  0.12508789499E+03 0.  0.
         23    2    1    2    0    0 -0.10011713668E+03 -0.65649367825E+02  0.98817823385E+02  0.18111064517E+03  0.93288922279E+02 0.  0.
          5    1    3    3  502    0  0.55385088432E+02  0.90717817251E+02  0.16132209814E+03  0.19323437100E+03  0.41800000000E+01 0.  1.
         -5    1    3    3    0  502  0.44732048252E+02 -0.25068449425E+02  0.14318895829E+02  0.53403056796E+02  0.41800000000E+01 0.  1.
        -11    1    4    4    0    0 -0.18122446264E+02 -0.64804847654E+02  0.28452335814E+02  0.73059063444E+02  0.00000000000E+00 0.  1.
         11    1    4    4    0    0 -0.81994690421E+02 -0.84452017175E+00  0.70365487572E+02  0.10805158172E+03  0.00000000000E+00 0. -1.
</event>
<event>
 8    1  0.7005395E-009  0.1410446E+03  0.7561462E-02  0.1211930E+00
         -2   -1    0    0    0  501 -0.00000000000E+00  0.00000000000E+00  0.13927309899E+03  0.13927309899E+03  0.00000000000E+00 0.  1.
          2   -1    0    0  501    0  0.00000000000E+00 -0.00000000000E+00 -0.24613071961E+03  0.24613071961E+03  0.00000000000E+00 0. -1.
         25    2    1    2    0    0  0.12125511044E+03  0.38641538920E+02  0.25672979964E+02  0.18028304950E+03  0.12508759211E+03 0.  0.
         23    2    1    2    0    0 -0.12125511044E+03 -0.38641538920E+02 -0.13253060059E+03  0.20512076910E+03  0.91182232288E+02 0.  0.
          5    1    3    3  502    0  0.13120792211E+03  0.46638622023E+02  0.53619117421E+02  0.14927545693E+03  0.41800000000E+01 0.  1.
         -5    1    3    3    0  502 -0.99528116688E+01 -0.79970831030E+01 -0.27946137457E+02  0.31007592571E+02  0.41800000000E+01 0.  1.
        -11    1    4    4    0    0 -0.10167131936E+03 -0.22907142514E+02 -0.44056650847E+02  0.11314938286E+03  0.00000000000E+00 0.  1.
         11    1    4    4    0    0 -0.19583791084E+02 -0.15734396406E+02 -0.88473949746E+02  0.91971386241E+02  0.00000000000E+00 0. -1.
</event>
<event>
 8    1  0.7005395E-009  0.1500343E+03  0.7561462E-02  0.1200431E+00
         -2   -1    0    0    0  501 -0.00000000000E+00  0.00000000000E+00  0.24059624275E+03  0.24059624275E+03  0.00000000000E+00 0.  1.
          2   -1    0    0  501    0  0.00000000000E+00 -0.00000000000E+00 -0.14405022923E+03  0.14405022923E+03  0.00000000000E+00 0. -1.
         25    2    1    2    0    0 -0.11156882037E+03  0.65918568602E+02  0.13249664416E+03  0.22359926066E+03  0.12509360211E+03 0.  0.
         23    2    1    2    0    0  0.11156882037E+03 -0.65918568602E+02 -0.35950630639E+02  0.16104721132E+03  0.88605288021E+02 0.  0.
          5    1    3    3  502    0 -0.33091405723E+02  0.55320134154E+02 -0.50878497180E+01  0.64797507593E+02  0.41800000000E+01 0. -1.
         -5    1    3    3    0  502 -0.78477414645E+02  0.10598434448E+02  0.13758449387E+03  0.15880175307E+03  0.41800000000E+01 0. -1.
        -11    1    4    4    0    0  0.96096726563E+02 -0.82353799154E+01 -0.14205553964E+02  0.97489487135E+02  0.00000000000E+00 0. -1.
         11    1    4    4    0    0  0.15472093805E+02 -0.57683188687E+02 -0.21745076675E+02  0.63557724184E+02  0.00000000000E+00 0.  1.
</event>
<event>
 8    1  0.7005395E-009  0.8295332E+02  0.7561462E-02  0.1320873E+00
         -2   -1    0    0    0  501 -0.00000000000E+00  0.00000000000E+00  0.13799210568E+03  0.13799210568E+03  0.00000000000E+00 0.  1.
          2   -1    0    0  501    0  0.00000000000E+00 -0.00000000000E+00 -0.12040457054E+03  0.12040457054E+03  0.00000000000E+00 0. -1.
         25    2    1    2    0    0  0.17534069201E+02  0.30608301929E+02 -0.50496395995E+02  0.13943566306E+03  0.12509239143E+03 0.  0.
         23    2    1    2    0    0 -0.17534069201E+02 -0.30608301929E+02  0.68083931130E+02  0.11896101316E+03  0.90950476874E+02 0.  0.
          5    1    3    3  502    0 -0.31054756021E+02  0.33610719954E+02  0.22838602973E+02  0.51314252924E+02  0.41800000000E+01 0. -1.
         -5    1    3    3    0  502  0.48588825223E+02 -0.30024180245E+01 -0.73334998968E+02  0.88121410135E+02  0.41800000000E+01 0. -1.
        -11    1    4    4    0    0  0.28029109750E+01 -0.45689702450E+02  0.79067604591E+02  0.91362417413E+02  0.00000000000E+00 0.  1.
         11    1    4    4    0    0 -0.20336980177E+02  0.15081400521E+02 -0.10983673461E+02  0.27598595744E+02  0.00000000000E+00 0. -1.
</event>
<event>
 8    1  0.7005395E-009  0.1129217E+03  0.7561462E-02  0.1255253E+00
         -1   -1    0    0    0  501 -0.00000000000E+00  0.00000000000E+00  0.12665925690E+03  0.12665925690E+03  0.00000000000E+00 0.  1.
          1   -1    0    0  501    0  0.00000000000E+00 -0.00000000000E+00 -0.16230737758E+03  0.16230737758E+03  0.00000000000E+00 0. -1.
         25    2    1    2    0    0  0.54110750758E+02 -0.29012257434E+02 -0.88088365373E+02  0.16485568228E+03  0.12509257147E+03 0.  0.
         23    2    1    2    0    0 -0.54110750758E+02  0.29012257434E+02  0.52440244696E+02  0.12411095220E+03  0.94254255937E+02 0.  0.
          5    1    3    3  502    0  0.26302065493E+02  0.43161451741E+02 -0.45312205707E+01  0.50918699173E+02  0.41800000000E+01 0. -1.
         -5    1    3    3    0  502  0.27808685265E+02 -0.72173709174E+02 -0.83557144802E+02  0.11393698311E+03  0.41800000000E+01 0. -1.
        -11    1    4    4    0    0 -0.82532847163E+01  0.47509186801E+02 -0.48132901126E+01  0.48460368352E+02  0.00000000000E+00 0. -1.
         11    1    4    4    0    0 -0.45857466042E+02 -0.18496929368E+02  0.57253534808E+02  0.75650583844E+02  0.00000000000E+00 0.  1.
</event>
<event>
 8    1  0.7005395E-009  0.1274150E+03  0.7561462E-02  0.1231343E+00
          2   -1    0    0  501    0  0.00000000000E+00  0.00000000000E+00  0.24676218627E+03  0.24676218627E+03  0.00000000000E+00 0. -1.
         -2   -1    0    0    0  501 -0.00000000000E+00 -0.00000000000E+00 -0.15275050187E+03  0.15275050187E+03  0.00000000000E+00 0.  1.
         25    2    1    2    0    0  0.99832849563E+02  0.68349720611E+02 -0.59456263125E+02  0.18390346082E+03  0.12508858268E+03 0.  0.
         23    2    1    2    0    0 -0.99832849563E+02 -0.68349720611E+02  0.15346794753E+03  0.21560922731E+03  0.91085925505E+02 0.  0.
          5    1    3    3  502    0  0.32247950313E+02  0.22108563248E+02 -0.88558290084E+02  0.96895624312E+02  0.41800000000E+01 0. -1.
         -5    1    3    3    0  502  0.67584899249E+02  0.46241157363E+02  0.29102026958E+02  0.87007836509E+02  0.41800000000E+01 0. -1.
        -11    1    4    4    0    0 -0.44615221084E+02 -0.64143830348E+02  0.13720525816E+03  0.15789310242E+03  0.00000000000E+00 0.  1.
         11    1    4    4    0    0 -0.55217628479E+02 -0.42058902631E+01  0.16262689369E+02  0.57716124898E+02  0.00000000000E+00 0. -1.
</event>
<event>
 8    1  0.7005395E-009  0.1108637E+03  0.7561462E-02  0.1258979E+00
         -2   -1    0    0    0  501 -0.00000000000E+00  0.00000000000E+00  0.67108588194E+02  0.67108588194E+02  0.00000000000E+00 0.  1.
          2   -1    0    0  501    0  0.00000000000E+00 -0.00000000000E+00 -0.26015240052E+03  0.26015240052E+03  0.00000000000E+00 0. -1.
         25    2    1    2    0    0  0.44931426636E+02 -0.60365612633E+02 -0.10353515149E+03  0.17896854031E+03  0.12508945015E+03 0.  0.
         23    2    1    2    0    0 -0.44931426636E+02  0.60365612633E+02 -0.89508660838E+02  0.14829244841E+03  0.91192157563E+02 0.  0.
          5    1    3    3  502    0  0.21603431393E+02 -0.97881935931E+02 -0.82357329722E+02  0.12979901305E+03  0.41800000000E+01 0. -1.
         -5    1    3    3    0  502  0.23327995244E+02  0.37516323298E+02 -0.21177821763E+02  0.49169527256E+02  0.41800000000E+01 0. -1.
        -11    1    4    4    0    0 -0.40281312796E+02  0.42456583330E+02 -0.16935939288E+01  0.58549243284E+02  0.00000000000E+00 0.  1.
         11    1    4    4    0    0 -0.46501138401E+01  0.17909029302E+02 -0.87815066909E+02  0.89743205122E+02  0.00000000000E+00 0. -1.
</event>
<event>
 8    1  0.7005395E-009  0.7033930E+02  0.7561462E-02  0.1358943E+00
         -2   -1    0    0    0  501 -0.00000000000E+00  0.00000000000E+00  0.15543059993E+03  0.15543059993E+03  0.00000000000E+00 0.  1.
          2   -1    0    0  501    0  0.00000000000E+00 -0.00000000000E+00 -0.85480913308E+02  0.85480913308E+02  0.00000000000E+00 0. -1.
         25    2    1    2    0    0  0.20153348068E+02 -0.26808604934E+02  0.64206119161E+02  0.14455329079E+03  0.12509344269E+03 0.  0.
         23    2    1    2    0    0 -0.20153348068E+02  0.26808604934E+02  0.57435674656E+01  0.96358222454E+02  0.90150206491E+02 0.  0.
          5    1    3    3  502    0 -0.21217312737E+02 -0.27640151318E+02 -0.27021963742E+02  0.44292338493E+02  0.41800000000E+01 0. -1.
         -5    1    3    3    0  502  0.41370660806E+02  0.83154638419E+00  0.91228082904E+02  0.10026095230E+03  0.41800000000E+01 0. -1.
        -11    1    4    4    0    0 -0.38473430057E+02  0.11599668954E+02  0.38640832370E+02  0.55748283081E+02  0.00000000000E+00 0.  1.
         11    1    4    4    0    0  0.18320081989E+02  0.15208935980E+02 -0.32897264904E+02  0.40609939373E+02  0.00000000000E+00 0. -1.
</event>
<event>
 8    1  0.7005395E-009  0.9110266E+02  0.7561462E-02  0.1300203E+00
         -2   -1    0    0    0  501 -0.00000000000E+00  0.00000000000E+00  0.18973156808E+03  0.18973156808E+03  0.00000000000E+00 0.  1.
          2   -1    0    0  501    0  0.00000000000E+00 -0.00000000000E+00 -0.73704846122E+02  0.73704846122E+02  0.00000000000E+00 0. -1.
         25    2    1    2    0    0  0.45017234917E+02 -0.12693449832E+02  0.59419459493E+02  0.14617044090E+03  0.12508976984E+03 0.  0.
         23    2    1    2    0    0 -0.45017234917E+02  0.12693449832E+02  0.56607262467E+02  0.11726597331E+03  0.91428940840E+02 0.  0.
          5    1    3    3  502    0  0.45195889254E+02 -0.44427276174E+02 -0.14911937473E+02  0.65240244887E+02  0.41800000000E+01 0. -1.
         -5    1    3    3    0  502 -0.17865433686E+00  0.31733826342E+02  0.74331396965E+02  0.80930196011E+02  0.41800000000E+01 0. -1.
        -11    1    4    4    0    0 -0.61086920928E+02 -0.67503945939E+01  0.73127790805E+01  0.61892297368E+02  0.00000000000E+00 0. -1.
         11    1    4    4    0    0  0.16069686011E+02  0.19443844426E+02  0.49294483387E+02  0.55373675938E+02  0.00000000000E+00 0.  1.
</event>
<event>
 8    1  0.7005395E-009  0.1147384E+03  0.7561462E-02  0.1252038E+00
          2   -1    0    0  501    0  0.00000000000E+00  0.00000000000E+00  0.30298436440E+03  0.30298436440E+03  0.00000000000E+00 0. -1.
         -2   -1    0    0    0  501 -0.00000000000E+00 -0.00000000000E+00 -0.64332057619E+02  0.64332057619E+02  0.00000000000E+00 0.  1.
         25    2    1    2    0    0 -0.72683358150E+02 -0.53242334751E+02  0.12904596550E+03  0.20104407099E+03  0.12509292748E+03 0.  0.
         23    2    1    2    0    0  0.72683358150E+02  0.53242334751E+02  0.10960634128E+03  0.16627235103E+03  0.86690990915E+02 0.  0.
          5    1    3    3  502    0 -0.42730552301E+02 -0.63491889786E+02  0.94119150365E+01  0.77221607813E+02  0.41800000000E+01 0. -1.
         -5    1    3    3    0  502 -0.29952805849E+02  0.10249555035E+02  0.11963405046E+03  0.12382246317E+03  0.41800000000E+01 0. -1.
        -11    1    4    4    0    0 -0.23641247144E+01  0.45378253034E+02  0.21500515812E+02  0.50269743527E+02  0.00000000000E+00 0.  1.
         11    1    4    4    0    0  0.75047482864E+02  0.78640817167E+01  0.88105825467E+02  0.11600260750E+03  0.00000000000E+00 0. -1.
</event>
<event>
 8    1  0.7005395E-009  0.1249246E+03  0.7561462E-02  0.1235187E+00
          2   -1    0    0  501    0  0.00000000000E+00  0.00000000000E+00  0.34169980116E+03  0.34169980116E+03  0.00000000000E+00 0. -1.
         -2   -1    0    0    0  501 -0.00000000000E+00 -0.00000000000E+00 -0.75479948886E+02  0.75479948886E+02  0.00000000000E+00 0.  1.
         25    2    1    2    0    0 -0.46260356142E+02 -0.91843421593E+02  0.21381368793E+03  0.26821501837E+03  0.12509104001E+03 0.  0.
         23    2    1    2    0    0  0.46260356142E+02  0.91843421593E+02  0.52406164344E+02  0.14896473168E+03  0.94174575035E+02 0.  0.
          5    1    3    3  502    0 -0.53598190130E+02 -0.99892849403E+01  0.20998189026E+02  0.58574295908E+02  0.41800000000E+01 0. -1.
         -5    1    3    3    0  502  0.73378339873E+01 -0.81854136653E+02  0.19281549890E+03  0.20964072246E+03  0.41800000000E+01 0. -1.
        -11    1    4    4    0    0  0.49975869647E+02  0.49389056191E+02 -0.12452603044E+02  0.71357786828E+02  0.00000000000E+00 0.  1.
         11    1    4    4    0    0 -0.37155135043E+01  0.42454365402E+02  0.64858767388E+02  0.77606944853E+02  0.00000000000E+00 0. -1.
</event>
<event>
 8    1  0.7005395E-009  0.1173801E+03  0.7561462E-02  0.1247483E+00
          1   -1    0    0  501    0  0.00000000000E+00  0.00000000000E+00  0.69058902273E+02  0.69058902273E+02  0.00000000000E+00 0. -1.
         -1   -1    0    0    0  501 -0.00000000000E+00 -0.00000000000E+00 -0.22016382059E+03  0.22016382059E+03  0.00000000000E+00 0.  1.
         25    2    1    2    0    0  0.49030365591E+02  0.31511216322E+02 -0.89489092159E+02  0.16447562514E+03  0.12508796962E+03 0.  0.
         23    2    1    2    0    0 -0.49030365591E+02 -0.31511216322E+02 -0.61615826154E+02  0.12474709772E+03  0.91478931201E+02 0.  0.
          5    1    3    3  502    0  0.73831826855E+02 -0.18350110694E+02 -0.74705411456E+02  0.10670630778E+03  0.41800000000E+01 0.  1.
         -5    1    3    3    0  502 -0.24801461264E+02  0.49861327016E+02 -0.14783680704E+02  0.57769317356E+02  0.41800000000E+01 0.  1.
        -11    1    4    4    0    0  0.20513996603E+02  0.88190604171E+01 -0.32110466562E+02  0.39111148617E+02  0.00000000000E+00 0. -1.
         11    1    4    4    0    0 -0.69544362194E+02 -0.40330276739E+02 -0.29505359592E+02  0.85635949107E+02  0.00000000000E+00 0.  1.
</event>
<event>
 8    1  0.7005395E-009  0.1077351E+03  0.7561462E-02  0.1264822E+00
          1   -1    0    0  501    0  0.00000000000E+00  0.00000000000E+00  0.11689151903E+04  0.11689151903E+04  0.00000000000E+00 0. -1.
         -1   -1    0    0    0  501 -0.00000000000E+00 -0.00000000000E+00 -0.10258348383E+02  0.10258348383E+02  0.00000000000E+00 0.  1.
         25    2    1    2    0    0 -0.22170814684E+01 -0.18309482394E+02  0.76467668978E+03  0.77505781961E+03  0.12507610184E+03 0.  0.
         23    2    1    2    0    0  0.22170814684E+01  0.18309482394E+02  0.39398015210E+03  0.40411571904E+03  0.88028413186E+02 0.  0.
          5    1    3    3  502    0 -0.71309127269E+01  0.53514511483E+02  0.34775453306E+03  0.35194508168E+03  0.41800000000E+01 0.  1.
         -5    1    3    3    0  502  0.49138312585E+01 -0.71823993877E+02  0.41692215672E+03  0.42311273793E+03  0.41800000000E+01 0.  1.
        -11    1    4    4    0    0 -0.12849267139E+02 -0.33168582106E+02  0.13254332538E+03  0.13723334729E+03  0.00000000000E+00 0.  1.
         11    1    4    4    0    0  0.15066348608E+02  0.51478064500E+02  0.26143682672E+03  0.26688237175E+03  0.00000000000E+00 0. -1.
</event>
<event>
 8    1  0.7005395E-009  0.1021150E+03  0.7561462E-02  0.1275910E+00
         -3   -1    0    0    0  501 -0.00000000000E+00  0.00000000000E+00  0.58614193996E+03  0.58614193996E+03  0.00000000000E+00 0.  1.
          3   -1    0    0  501    0  0.00000000000E+00 -0.00000000000E+00 -0.25441343035E+02  0.25441343035E+02  0.00000000000E+00 0. -1.
         25    2    1    2    0    0  0.16780559456E+02  0.30686467622E+02  0.41934840704E+03  0.43900321576E+03  0.12508992964E+03 0.  0.
         23    2    1    2    0    0 -0.16780559456E+02 -0.30686467622E+02  0.14135218989E+03  0.17258006723E+03  0.92629323373E+02 0.  0.
          5    1    3    3  502    0 -0.82754119497E+01 -0.42607755568E+02  0.23480195465E+03  0.23881652703E+03  0.41800000000E+01 0.  1.
         -5    1    3    3    0  502  0.25055971405E+02  0.73294223190E+02  0.18454645239E+03  0.20018668873E+03  0.41800000000E+01 0.  1.
        -11    1    4    4    0    0 -0.34639671276E+02 -0.47323202289E+02  0.47098541223E+02  0.75217450677E+02  0.00000000000E+00 0. -1.
         11    1    4    4    0    0  0.17859111821E+02  0.16636734667E+02  0.94253648670E+02  0.97362616558E+02  0.00000000000E+00 0.  1.
</event>
<event>
 8    1  0.7005395E-009  0.1017041E+03  0.7561462E-02  0.1276753E+00
         -1   -1    0    0    0  501 -0.00000000000E+00  0.00000000000E+00  0.12334527433E+03  0.12334527433E+03  0.00000000000E+00 0.  1.
          1   -1    0    0  501    0  0.00000000000E+00 -0.00000000000E+00 -0.10933832303E+03  0.10933832303E+03  0.00000000000E+00 0. -1.
         25    2    1    2    0    0 -0.12032199992E+02  0.30622157284E+02  0.35313111838E+02  0.13407729970E+03  0.12508883273E+03 0.  0.
         23    2    1    2    0    0  0.12032199992E+02 -0.30622157284E+02 -0.21306160535E+02  0.98606297657E+02  0.90480711246E+02 0.  0.
          5    1    3    3  502    0  0.39103477086E+02 -0.16186042979E+02  0.47292702526E+02  0.63601430956E+02  0.41800000000E+01 0.  1.
         -5    1    3    3    0  502 -0.51135677077E+02  0.46808200263E+02 -0.11979590687E+02  0.70475868743E+02  0.41800000000E+01 0.  1.
        -11    1    4    4    0    0  0.34890464691E+02  0.16847046565E+02  0.60939004207E+01  0.39221207613E+02  0.00000000000E+00 0. -1.
         11    1    4    4    0    0 -0.22858264699E+02 -0.47469203849E+02 -0.27400060956E+02  0.59385090044E+02  0.00000000000E+00 0.  1.
</event>
<event>
 8    1  0.7005395E-009  0.8923880E+02  0.7561462E-02  0.1304706E+00
         -1   -1    0    0    0  501 -0.00000000000E+00  0.00000000000E+00  0.62540215264E+02  0.62540215264E+02  0.00000000000E+00 0.  1.
          1   -1    0    0  501    0  0.00000000000E+00 -0.00000000000E+00 -0.27492022267E+03  0.27492022267E+03  0.00000000000E+00 0. -1.
         25    2    1    2    0    0 -0.28031796301E+02 -0.55258923598E+02 -0.60613848044E+02  0.15218374110E+03  0.12508605934E+03 0.  0.
         23    2    1    2    0    0  0.28031796301E+02  0.55258923598E+02 -0.15176615936E+03  0.18527669683E+03  0.86343251154E+02 0.  0.
          5    1    3    3  502    0  0.42178917578E+00  0.14068459468E+02 -0.74432262274E+02  0.75866550766E+02  0.41800000000E+01 0.  1.
         -5    1    3    3    0  502 -0.28453585477E+02 -0.69327383066E+02  0.13818414230E+02  0.76317190338E+02  0.41800000000E+01 0.  1.
        -11    1    4    4    0    0  0.64765911396E+01  0.64831578288E+02 -0.53752958901E+02  0.84465734868E+02  0.00000000000E+00 0.  1.
         11    1    4    4    0    0  0.21555205162E+02 -0.95726546897E+01 -0.98013200460E+02  0.10081096196E+03  0.00000000000E+00 0. -1.
</event>
<event>
 8    1  0.7005395E-009  0.1200302E+03  0.7561462E-02  0.1243047E+00
          1   -1    0    0  501    0  0.00000000000E+00  0.00000000000E+00  0.34486739728E+03  0.34486739728E+03  0.00000000000E+00 0. -1.
         -1   -1    0    0    0  501 -0.00000000000E+00 -0.00000000000E+00 -0.51387868205E+02  0.51387868205E+02  0.00000000000E+00 0.  1.
         25    2    1    2    0    0 -0.67018623301E+02 -0.23417105183E+02  0.11088808460E+03  0.18161530499E+03  0.12509234595E+03 0.  0.
         23    2    1    2    0    0  0.67018623301E+02  0.23417105183E+02  0.18259144448E+03  0.21463996050E+03  0.87697322439E+02 0.  0.
          5    1    3    3  502    0  0.26964951729E+02 -0.25640055458E+02  0.17140798979E+01  0.37482416351E+02  0.41800000000E+01 0.  1.
         -5    1    3    3    0  502 -0.93983575030E+02  0.22229502744E+01  0.10917400470E+03  0.14413288863E+03  0.41800000000E+01 0.  1.
        -11    1    4    4    0    0  0.21533649418E+02 -0.30903003956E+02  0.37374385358E+02  0.53061647087E+02  0.00000000000E+00 0.  1.
         11    1    4    4    0    0  0.45484973884E+02  0.54320109139E+02  0.14521705912E+03  0.16157831341E+03  0.00000000000E+00 0. -1.
</event>
<event>
 8    1  0.7005395E-009  0.8392652E+02  0.7561462E-02  0.1318264E+00
          2   -1    0    0  501    0  0.00000000000E+00  0.00000000000E+00  0.31007904619E+03  0.31007904619E+03  0.00000000000E+00 0. -1.
         -2   -1    0    0    0  501 -0.00000000000E+00 -0.00000000000E+00 -0.61561700479E+02  0.61561700479E+02  0.00000000000E+00 0.  1.
         25    2    1    2    0    0  0.53498634935E+02  0.32924728704E+02  0.21756592863E+03  0.25870552178E+03  0.12508985570E+03 0.  0.
         23    2    1    2    0    0 -0.53498634935E+02 -0.32924728704E+02  0.30951417082E+02  0.11293522489E+03  0.88601541190E+02 0.  0.
          5    1    3    3  502    0  0.58080676177E+02  0.45948876934E+02  0.22873486599E+03  0.24046158853E+03  0.41800000000E+01 0.  1.
         -5    1    3    3    0  502 -0.45820412419E+01 -0.13024148229E+02 -0.11168937358E+02  0.18243933259E+02  0.41800000000E+01 0.  1.
        -11    1    4    4    0    0  0.65851804755E+00  0.10076735952E+02  0.41741464602E+02  0.42945594892E+02  0.00000000000E+00 0. -1.
         11    1    4    4    0    0 -0.54157152982E+02 -0.43001464656E+02 -0.10790047520E+02  0.69989629998E+02  0.00000000000E+00 0.  1.
</event>
<event>
 8    1  0.7005395E-009  0.2780642E+03  0.7561462E-02  0.1096751E+00
         -1   -1    0    0    0  501 -0.00000000000E+00  0.00000000000E+00  0.18670681886E+03  0.18670681886E+03  0.00000000000E+00 0.  1.
          1   -1    0    0  501    0  0.00000000000E+00 -0.00000000000E+00 -0.49752297720E+03  0.49752297720E+03  0.00000000000E+00 0. -1.
         25    2    1    2    0    0 -0.25595899529E+03  0.61608041975E+02 -0.28098286528E+03  0.40485799499E+03  0.12509223563E+03 0.  0.
         23    2    1    2    0    0  0.25595899529E+03 -0.61608041975E+02 -0.29833293054E+02  0.27937180107E+03  0.88589049852E+02 0.  0.
          5    1    3    3  502    0 -0.10570738953E+03 -0.23943386153E+02 -0.59065540208E+02  0.12350525649E+03  0.41800000000E+01 0. -1.
         -5    1    3    3    0  502 -0.15025160576E+03  0.85551428128E+02 -0.22191732508E+03  0.28135273849E+03  0.41800000000E+01 0. -1.
        -11    1    4    4    0    0  0.13258674500E+03 -0.72049213091E+02 -0.36942099685E+02  0.15535460336E+03  0.00000000000E+00 0. -1.
         11    1    4    4    0    0  0.12337225029E+03  0.10441171116E+02  0.71088066308E+01  0.12401719771E+03  0.00000000000E+00 0.  1.
</event>
<event>
 8    1  0.7005395E-009  0.1064474E+03  0.7561462E-02  0.1267294E+00
          4   -1    0    0  501    0  0.00000000000E+00  0.00000000000E+00  0.13513664115E+03  0.13513664115E+03  0.00000000000E+00 0. -1.
         -4   -1    0    0    0  501 -0.00000000000E+00 -0.00000000000E+00 -0.11328762406E+03  0.11328762406E+03  0.00000000000E+00 0.  1.
         25    2    1    2    0    0  0.20811434910E+02  0.49602013224E+02  0.27627323639E+02  0.13893706080E+03  0.12508701897E+03 0.  0.
         23    2    1    2    0    0 -0.20811434910E+02 -0.49602013224E+02 -0.57783065500E+01  0.10948720441E+03  0.95187097673E+02 0.  0.
          5    1    3    3  502    0  0.54307658800E+02  0.13546905242E+02  0.58195726264E+02  0.80852058733E+02  0.41800000000E+01 0. -1.
         -5    1    3    3    0  502 -0.33496223890E+02  0.36055107982E+02 -0.30568402625E+02  0.58085002071E+02  0.41800000000E+01 0. -1.
        -11    1    4    4    0    0  0.18354568489E+02  0.20227104523E+02 -0.10554714599E+02  0.29281870536E+02  0.00000000000E+00 0.  1.
         11    1    4    4    0    0 -0.39166003399E+02 -0.69829117746E+02  0.47764080491E+01  0.80205333871E+02  0.00000000000E+00 0. -1.
</event>
<event>
 8    1  0.7005395E-009  0.1124246E+03  0.7561462E-02  0.1256145E+00
          2   -1    0    0  501    0  0.00000000000E+00  0.00000000000E+00  0.10585040605E+03  0.10585040605E+03  0.00000000000E+00 0.  1.
         -2   -1    0    0    0  501 -0.00000000000E+00 -0.00000000000E+00 -0.12975216728E+03  0.12975216728E+03  0.00000000000E+00 0. -1.
         25    2    1    2    0    0 -0.47072115078E+01  0.34797220797E+02 -0.32405932797E+02  0.13390523106E+03  0.12508981577E+03 0.  0.
         23    2    1    2    0    0  0.47072115078E+01 -0.34797220797E+02  0.85041715730E+01  0.10169734228E+03  0.95063263548E+02 0.  0.
          5    1    3    3  502    0  0.59639211759E+02  0.13535772518E+02 -0.83096927336E+01  0.61859325168E+02  0.41800000000E+01 0.  1.
         -5    1    3    3    0  502 -0.64346423267E+02  0.21261448279E+02 -0.24096240063E+02  0.72045905889E+02  0.41800000000E+01 0.  1.
        -11    1    4    4    0    0 -0.27948935708E+02 -0.51783023996E+02 -0.11268609968E+02  0.59913321991E+02  0.00000000000E+00 0. -1.
         11    1    4    4    0    0  0.32656147216E+02  0.16985803198E+02  0.19772781541E+02  0.41784020285E+02  0.00000000000E+00 0.  1.
</event>
<event>
 8    1  0.7005395E-009  0.1325360E+03  0.7561462E-02  0.1223741E+00
          1   -1    0    0  501    0  0.00000000000E+00  0.00000000000E+00  0.31585122694E+03  0.31585122694E+03  0.00000000000E+00 0. -1.
         -1   -1    0    0    0  501 -0.00000000000E+00 -0.00000000000E+00 -0.72466427239E+02  0.72466427239E+02  0.00000000000E+00 0.  1.
         25    2    1    2    0    0 -0.96654423571E+02 -0.12239891286E+01  0.77996860066E+02  0.17628029936E+03  0.12509059924E+03 0.  0.
         23    2    1    2    0    0  0.96654423571E+02  0.12239891286E+01  0.16538793964E+03  0.21203735482E+03  0.90901559483E+02 0.  0.
          5    1    3    3  502    0 -0.55654524801E+02  0.59092128776E+02  0.60045526665E+02  0.10105564550E+03  0.41800000000E+01 0.  1.
         -5    1    3    3    0  502 -0.40999898770E+02 -0.60316117905E+02  0.17951333401E+02  0.75224653865E+02  0.41800000000E+01 0.  1.
        -11    1    4    4    0    0  0.76192620574E+02 -0.22465460208E+02  0.53299725618E+02  0.95660195919E+02  0.00000000000E+00 0.  1.
         11    1    4    4    0    0  0.20461802997E+02  0.23689449337E+02  0.11208821402E+03  0.11637715890E+03  0.00000000000E+00 0. -1.
</event>
<event>
 8    1  0.7005395E-009  0.2270811E+03  0.7561462E-02  0.1128711E+00
         -2   -1    0    0    0  501 -0.00000000000E+00  0.00000000000E+00  0.19306753978E+03  0.19306753978E+03  0.00000000000E+00 0.  1.
          2   -1    0    0  501    0  0.00000000000E+00 -0.00000000000E+00 -0.31461968023E+03  0.31461968023E+03  0.00000000000E+00 0. -1.
         25    2    1    2    0    0  0.21336978600E+03 -0.55520112116E+02 -0.44488498107E+02  0.25736336747E+03  0.12509007963E+03 0.  0.
         23    2    1    2    0    0 -0.21336978600E+03  0.55520112116E+02 -0.77063642350E+02  0.25032385254E+03  0.90078175770E+02 0.  0.
          5    1    3    3  502    0  0.41361898705E+02  0.17478364673E+02  0.32122182165E+02  0.55367922872E+02  0.41800000000E+01 0.  1.
         -5    1    3    3    0  502  0.17200788730E+03 -0.72998476789E+02 -0.76610680272E+02  0.20199544460E+03  0.41800000000E+01 0.  1.
        -11    1    4    4    0    0 -0.12382359469E+03  0.18219800191E+02  0.20115874588E+01  0.12517304104E+03  0.00000000000E+00 0.  1.
         11    1    4    4    0    0 -0.89546191319E+02  0.37300311925E+02 -0.79075229809E+02  0.12515081150E+03  0.00000000000E+00 0. -1.
</event>
<event>
 8    1  0.7005395E-009  0.2353023E+03  0.7561462E-02  0.1122962E+00
          1   -1    0    0  501    0  0.00000000000E+00  0.00000000000E+00  0.35023359704E+03  0.35023359704E+03  0.00000000000E+00 0. -1.
         -1   -1    0    0    0  501 -0.00000000000E+00 -0.00000000000E+00 -0.17520580432E+03  0.17520580432E+03  0.00000000000E+00 0.  1.
         25    2    1    2    0    0  0.20991388527E+02 -0.21913538932E+03  0.59414587757E+02  0.26007513967E+03  0.12509207725E+03 0.  0.
         23    2    1    2    0    0 -0.20991388527E+02  0.21913538932E+03  0.11561320496E+03  0.26536426169E+03  0.92686681754E+02 0.  0.
          5    1    3    3  502    0 -0.42737273117E+02 -0.86262958182E+02 -0.10467282593E+02  0.96926822256E+02  0.41800000000E+01 0. -1.
         -5    1    3    3    0  502  0.63728661644E+02 -0.13287243114E+03  0.69881870350E+02  0.16314831741E+03  0.41800000000E+01 0. -1.
        -11    1    4    4    0    0  0.13936486288E+02  0.13508034738E+03  0.27248863909E+02  0.13850424716E+03  0.00000000000E+00 0. -1.
         11    1    4    4    0    0 -0.34927874815E+02  0.84055041938E+02  0.88364341056E+02  0.12686001452E+03  0.00000000000E+00 0.  1.
</event>
<event>
 8    1  0.7005395E-009  0.1512686E+03  0.7561462E-02  0.1198923E+00
         -2   -1    0    0    0  501 -0.00000000000E+00  0.00000000000E+00  0.33621183271E+02  0.33621183271E+02  0.00000000000E+00 0.  1.
          2   -1    0    0  501    0  0.00000000000E+00 -0.00000000000E+00 -0.90417058985E+03  0.90417058985E+03  0.00000000000E+00 0. -1.
         25    2    1    2    0    0  0.45180469061E+02 -0.12556950138E+03 -0.53573686488E+03  0.56610133609E+03  0.12509100634E+03 0.  0.
         23    2    1    2    0    0 -0.45180469061E+02  0.12556950138E+03 -0.33481254170E+03  0.37169043703E+03  0.90804011146E+02 0.  0.
          5    1    3    3  502    0 -0.20693853318E+02 -0.89786655408E+02 -0.40470580180E+03  0.41508328979E+03  0.41800000000E+01 0. -1.
         -5    1    3    3    0  502  0.65874322379E+02 -0.35782845977E+02 -0.13103106308E+03  0.15101804630E+03  0.41800000000E+01 0. -1.
        -11    1    4    4    0    0 -0.31965106978E+02  0.56661498372E+02 -0.61530186882E+02  0.89544722679E+02  0.00000000000E+00 0. -1.
         11    1    4    4    0    0 -0.13215362083E+02  0.68908003013E+02 -0.27328235482E+03  0.28214571435E+03  0.00000000000E+00 0.  1.
</event>
<event>
 8    1  0.7005395E-009  0.1459437E+03  0.7561462E-02  0.1205548E+00
         -1   -1    0    0    0  501 -0.00000000000E+00  0.00000000000E+00  0.86185611254E+02  0.86185611254E+02  0.00000000000E+00 0.  1.
          1   -1    0    0  501    0  0.00000000000E+00 -0.00000000000E+00 -0.32473821720E+03  0.32473821720E+03  0.00000000000E+00 0. -1.
         25    2    1    2    0    0  0.22938357072E+02 -0.98381465508E+02 -0.22226136974E+03  0.27432274939E+03  0.12509106032E+03 0.  0.
         23    2    1    2    0    0 -0.22938357072E+02  0.98381465508E+02 -0.16291236203E+02  0.13660107906E+03  0.90495134916E+02 0.  0.
          5    1    3    3  502    0  0.53952864670E+01 -0.12538748532E+03 -0.15381870871E+03  0.19856686063E+03  0.41800000000E+01 0. -1.
         -5    1    3    3    0  502  0.17543070605E+02  0.27006019816E+02 -0.68442661032E+02  0.75755888759E+02  0.41800000000E+01 0. -1.
        -11    1    4    4    0    0  0.31315654925E+02  0.15915444358E+02 -0.14134873371E+02  0.37865106070E+02  0.00000000000E+00 0. -1.
         11    1    4    4    0    0 -0.54254011997E+02  0.82466021150E+02 -0.21563628314E+01  0.98735972992E+02  0.00000000000E+00 0.  1.
</event>
<event>
 8    1  0.7005395E-009  0.1849048E+03  0.7561462E-02  0.1163139E+00
         -1   -1    0    0    0  501 -0.00000000000E+00  0.00000000000E+00  0.93766468182E+02  0.93766468182E+02  0.00000000000E+00 0.  1.
          1   -1    0    0  501    0  0.00000000000E+00 -0.00000000000E+00 -0.37119597312E+03  0.37119597312E+03  0.00000000000E+00 0. -1.
         25    2    1    2    0    0  0.12641025970E+03 -0.82687864364E+02 -0.15005615705E+03  0.24695123970E+03  0.12510486742E+03 0.  0.
         23    2    1    2    0    0 -0.12641025970E+03  0.82687864364E+02 -0.12737334789E+03  0.21801120160E+03  0.92130763592E+02 0.  0.
          5    1    3    3  502    0  0.35232131303E+02 -0.96992214355E+02 -0.87688110851E+02  0.13548236013E+03  0.41800000000E+01 0. -1.
         -5    1    3    3    0  502  0.91178128397E+02  0.14304349991E+02 -0.62368046202E+02  0.11146887957E+03  0.41800000000E+01 0. -1.
        -11    1    4    4    0    0 -0.16765320164E+02  0.59839411041E+02 -0.64517363096E+02  0.89578575646E+02  0.00000000000E+00 0. -1.
         11    1    4    4    0    0 -0.10964493954E+03  0.22848453324E+02 -0.62855984791E+02  0.12843262595E+03  0.00000000000E+00 0.  1.
</event>
<event>
 8    1  0.7005395E-009  0.1029182E+03  0.7561462E-02  0.1274276E+00
         -2   -1    0    0    0  501 -0.00000000000E+00  0.00000000000E+00  0.58660833091E+03  0.58660833091E+03  0.00000000000E+00 0.  1.
          2   -1    0    0  501    0  0.00000000000E+00 -0.00000000000E+00 -0.26719935297E+02  0.26719935297E+02  0.00000000000E+00 0. -1.
         25    2    1    2    0    0  0.42115744484E+02 -0.23660609073E+02  0.40860441656E+03  0.43004526145E+03  0.12509115598E+03 0.  0.
         23    2    1    2    0    0 -0.42115744484E+02  0.23660609073E+02  0.15128397905E+03  0.18328300476E+03  0.91500039134E+02 0.  0.
          5    1    3    3  502    0  0.70334509913E+02  0.99841144097E+01  0.34732928621E+03  0.35454439960E+03  0.41800000000E+01 0.  1.
         -5    1    3    3    0  502 -0.28218765429E+02 -0.33644723482E+02  0.61275130347E+02  0.75500861847E+02  0.41800000000E+01 0.  1.
        -11    1    4    4    0    0 -0.35620759362E+02  0.51142229977E+02  0.13929954077E+03  0.15260644889E+03  0.00000000000E+00 0.  1.
         11    1    4    4    0    0 -0.64949851215E+01 -0.27481620904E+02  0.11984438285E+02  0.30676555873E+02  0.00000000000E+00 0. -1.
</event>
<event>
 8    1  0.7005395E-009  0.8974513E+02  0.7561462E-02  0.1303470E+00
         -3   -1    0    0    0  501 -0.00000000000E+00  0.00000000000E+00  0.18494780718E+03  0.18494780718E+03  0.00000000000E+00 0.  1.
          3   -1    0    0  501    0  0.00000000000E+00 -0.00000000000E+00 -0.10308567580E+03  0.10308567580E+03  0.00000000000E+00 0. -1.
         25    2    1    2    0    0 -0.49574470867E+02  0.53067444790E+02  0.88896336659E+02  0.16977368517E+03  0.12508702430E+03 0.  0.
         23    2    1    2    0    0  0.49574470867E+02 -0.53067444790E+02 -0.70342052820E+01  0.11825979781E+03  0.93070499494E+02 0.  0.
          5    1    3    3  502    0 -0.57956871664E+02  0.53070823228E+02  0.11651982436E+03  0.14060530971E+03  0.41800000000E+01 0.  1.
         -5    1    3    3    0  502  0.83824007972E+01 -0.33784382745E-02 -0.27623487697E+02  0.29168375462E+02  0.41800000000E+01 0.  1.
        -11    1    4    4    0    0  0.76617976193E+01 -0.48687921155E+02 -0.41018713302E+02  0.64122941683E+02  0.00000000000E+00 0. -1.
         11    1    4    4    0    0  0.41912673247E+02 -0.43795236348E+01  0.33984508020E+02  0.54136856127E+02  0.00000000000E+00 0.  1.
</event>
<event>
 8    1  0.7005395E-009  0.1089852E+03  0.7561462E-02  0.1262461E+00
          2   -1    0    0  501    0  0.00000000000E+00  0.00000000000E+00  0.12305936935E+04  0.12305936935E+04  0.00000000000E+00 0. -1.
         -2   -1    0    0    0  501 -0.00000000000E+00 -0.00000000000E+00 -0.15822368851E+02  0.15822368851E+02  0.00000000000E+00 0.  1.
         25    2    1    2    0    0  0.25602413563E+02 -0.65578787973E+02  0.89978808384E+03  0.91116530865E+03  0.12509021883E+03 0.  0.
         23    2    1    2    0    0 -0.25602413563E+02  0.65578787973E+02  0.31498324077E+03  0.33525075366E+03  0.90678359351E+02 0.  0.
          5    1    3    3  502    0  0.52694256900E+02 -0.53554727931E+02  0.84812765443E+03  0.85145920878E+03  0.41800000000E+01 0.  1.
         -5    1    3    3    0  502 -0.27091843337E+02 -0.12024060042E+02  0.51660429408E+02  0.59706099871E+02  0.41800000000E+01 0.  1.
        -11    1    4    4    0    0 -0.52511740696E+02  0.13579091138E+02  0.18288433557E+03  0.19075784342E+03  0.00000000000E+00 0.  1.
         11    1    4    4    0    0  0.26909327133E+02  0.51999696835E+02  0.13209890519E+03  0.14449291024E+03  0.00000000000E+00 0. -1.
</event>
<event>
 8    1  0.7005395E-009  0.1129330E+03  0.7561462E-02  0.1255233E+00
         -1   -1    0    0    0  501 -0.00000000000E+00  0.00000000000E+00  0.16614195919E+03  0.16614195919E+03  0.00000000000E+00 0.  1.
          1   -1    0    0  501    0  0.00000000000E+00 -0.00000000000E+00 -0.87645156693E+02  0.87645156693E+02  0.00000000000E+00 0. -1.
         25    2    1    2    0    0 -0.83075110154E+00  0.49086791465E+02  0.50175491537E+02  0.14343970679E+03  0.12508863373E+03 0.  0.
         23    2    1    2    0    0  0.83075110154E+00 -0.49086791465E+02  0.28321310957E+02  0.11034740909E+03  0.94679727477E+02 0.  0.
          5    1    3    3  502    0 -0.33136086864E+02  0.72423759407E+02  0.68003411998E+00  0.79756730285E+02  0.41800000000E+01 0. -1.
         -5    1    3    3    0  502  0.32305335762E+02 -0.23336967943E+02  0.49495457417E+02  0.63682976504E+02  0.41800000000E+01 0. -1.
        -11    1    4    4    0    0 -0.67994279064E+01 -0.76899910692E+02  0.15291065440E+02  0.78699715161E+02  0.00000000000E+00 0.  1.
         11    1    4    4    0    0  0.76301790079E+01  0.27813119227E+02  0.13030245517E+02  0.31647693930E+02  0.00000000000E+00 0. -1.
</event>
<event>
 8    1  0.7005395E-009  0.1297662E+03  0.7561462E-02  0.1227803E+00
         -1   -1    0    0    0  501 -0.00000000000E+00  0.00000000000E+00  0.27651803640E+03  0.27651803640E+03  0.00000000000E+00 0.  1.
          1   -1    0    0  501    0  0.00000000000E+00 -0.00000000000E+00 -0.90169493878E+02  0.90169493878E+02  0.00000000000E+00 0. -1.
         25    2    1    2    0    0  0.82808606918E+01 -0.87422053532E+02  0.18476158310E+03  0.23978243426E+03  0.12509030776E+03 0.  0.
         23    2    1    2    0    0 -0.82808606918E+01  0.87422053532E+02  0.15869594225E+01  0.12690509601E+03  0.91603476225E+02 0.  0.
          5    1    3    3  502    0  0.52955514550E+02 -0.59994779558E+02  0.16531735876E+03  0.18371434784E+03  0.41800000000E+01 0. -1.
         -5    1    3    3    0  502 -0.44674653858E+02 -0.27427273974E+02  0.19444224340E+02  0.56068086423E+02  0.41800000000E+01 0. -1.
        -11    1    4    4    0    0  0.35133993845E+02  0.75991869153E+01 -0.16213909038E+01  0.35982969218E+02  0.00000000000E+00 0.  1.
         11    1    4    4    0    0 -0.43414854537E+02  0.79822866617E+02  0.32083503263E+01  0.90922126796E+02  0.00000000000E+00 0. -1.
</event>
<event>
 8    1  0.7005395E-009  0.1354238E+03  0.7561462E-02  0.1219623E+00
          2   -1    0    0  501    0  0.00000000000E+00  0.00000000000E+00  0.16660227494E+03  0.16660227494E+03  0.00000000000E+00 0. -1.
         -2   -1    0    0    0  501 -0.00000000000E+00 -0.00000000000E+00 -0.14079588246E+03  0.14079588246E+03  0.00000000000E+00 0.  1.
         25    2    1    2    0    0  0.85367182900E+02  0.65397446373E+02  0.68947033578E+01  0.16509902952E+03  0.12508305524E+03 0.  0.
         23    2    1    2    0    0 -0.85367182900E+02 -0.65397446373E+02  0.18911689122E+02  0.14229912788E+03  0.91252440518E+02 0.  0.
          5    1    3    3  502    0  0.29272482883E+01  0.45289792224E+02  0.51805022284E+02  0.68999759391E+02  0.41800000000E+01 0. -1.
         -5    1    3    3    0  502  0.82439934612E+02  0.20107654149E+02 -0.44910318926E+02  0.96099270133E+02  0.41800000000E+01 0. -1.
        -11    1    4    4    0    0 -0.43800427876E+02 -0.84029655114E+02  0.19490976540E+02  0.96743778029E+02  0.00000000000E+00 0. -1.
         11    1    4    4    0    0 -0.41566755024E+02  0.18632208741E+02 -0.57928741844E+00  0.45555349847E+02  0.00000000000E+00 0.  1.
</event>
<event>
 8    1  0.7005395E-009  0.1178065E+03  0.7561462E-02  0.1246760E+00
         -1   -1    0    0    0  501 -0.00000000000E+00  0.00000000000E+00  0.16792971483E+02  0.16792971483E+02  0.00000000000E+00 0.  1.
          1   -1    0    0  501    0  0.00000000000E+00 -0.00000000000E+00 -0.88101503452E+03  0.88101503452E+03  0.00000000000E+00 0. -1.
         25    2    1    2    0    0 -0.19192011414E+02 -0.49520285052E+02 -0.42499314896E+03  0.44619133964E+03  0.12508774111E+03 0.  0.
         23    2    1    2    0    0  0.19192011414E+02  0.49520285052E+02 -0.43922891407E+03  0.45161666636E+03  0.90636540309E+02 0.  0.
          5    1    3    3  502    0 -0.65691694109E+02 -0.54012715469E+02 -0.22005054584E+03  0.23595017955E+03  0.41800000000E+01 0. -1.
         -5    1    3    3    0  502  0.46499682695E+02  0.44924304172E+01 -0.20494260312E+03  0.21024116009E+03  0.41800000000E+01 0. -1.
        -11    1    4    4    0    0 -0.11318080542E+02 -0.22587732838E+02 -0.77620030193E+02  0.81628265381E+02  0.00000000000E+00 0.  1.
         11    1    4    4    0    0  0.30510091956E+02  0.72108017890E+02 -0.36160888388E+03  0.36998840098E+03  0.00000000000E+00 0. -1.
</event>
<event>
 8    1  0.7005395E-009  0.1094854E+03  0.7561462E-02  0.1261526E+00
         -4   -1    0    0    0  501 -0.00000000000E+00  0.00000000000E+00  0.12895400910E+03  0.12895400910E+03  0.00000000000E+00 0.  1.
          4   -1    0    0  501    0  0.00000000000E+00 -0.00000000000E+00 -0.10167393005E+03  0.10167393005E+03  0.00000000000E+00 0. -1.
         25    2    1    2    0    0 -0.12374556881E+02  0.75938787022E+01  0.70543430374E+01  0.12612674644E+03  0.12508955097E+03 0.  0.
         23    2    1    2    0    0  0.12374556881E+02 -0.75938787022E+01  0.20225736008E+02  0.10450119271E+03  0.10149198111E+03 0.  0.
          5    1    3    3  502    0 -0.39266966266E+02 -0.48572778770E+02  0.11129233071E+02  0.63580985412E+02  0.41800000000E+01 0.  1.
         -5    1    3    3    0  502  0.26892409385E+02  0.56166657472E+02 -0.40748900333E+01  0.62545761031E+02  0.41800000000E+01 0.  1.
        -11    1    4    4    0    0 -0.35118267407E+02  0.18580394083E+02  0.29501177675E+02  0.49485788204E+02  0.00000000000E+00 0.  1.
         11    1    4    4    0    0  0.47492824288E+02 -0.26174272785E+02 -0.92754416669E+01  0.55015404504E+02  0.00000000000E+00 0. -1.
</event>
<event>
 8    1  0.7005395E-009  0.4430051E+02  0.7561462E-02  0.1478756E+00
         -3   -1    0    0    0  501 -0.00000000000E+00  0.00000000000E+00  0.34117543534E+02  0.34117543534E+02  0.00000000000E+00 0.  1.
          3   -1    0    0  501    0  0.00000000000E+00 -0.00000000000E+00 -0.34354111774E+03  0.34354111774E+03  0.00000000000E+00 0. -1.
         25    2    1    2    0    0 -0.43117089705E+01  0.41052547628E+01 -0.17213678386E+03  0.21286535386E+03  0.12508054431E+03 0.  0.
         23    2    1    2    0    0  0.43117089705E+01 -0.41052547628E+01 -0.13728679034E+03  0.16479330741E+03  0.90960031965E+02 0.  0.
          5    1    3    3  502    0  0.12141392160E+02 -0.45877015702E+01 -0.18773343311E+03  0.18822798601E+03  0.41800000000E+01 0. -1.
         -5    1    3    3    0  502 -0.16453101130E+02  0.86929563330E+01  0.15596649251E+02  0.24637367848E+02  0.41800000000E+01 0. -1.
        -11    1    4    4    0    0 -0.10396662949E+02 -0.26858167663E+02 -0.43537185711E+01  0.29127420691E+02  0.00000000000E+00 0.  1.
         11    1    4    4    0    0  0.14708371920E+02  0.22752912900E+02 -0.13293307177E+03  0.13566588672E+03  0.00000000000E+00 0. -1.
</event>
<event>
 8    1  0.7005395E-009  0.1681666E+03  0.7561462E-02  0.1179773E+00
          1   -1    0    0  501    0  0.00000000000E+00  0.00000000000E+00  0.71548039295E+03  0.71548039295E+03  0.00000000000E+00 0. -1.
         -1   -1    0    0    0  501 -0.00000000000E+00 -0.00000000000E+00 -0.97209097843E+02  0.97209097843E+02  0.00000000000E+00 0.  1.
         25    2    1    2    0    0  0.13613938342E+03  0.84775328227E+01  0.62079523643E+03  0.64779683387E+03  0.12509281397E+03 0.  0.
         23    2    1    2    0    0 -0.13613938342E+03 -0.84775328227E+01 -0.25239413255E+01  0.16489265693E+03  0.92614349588E+02 0.  0.
          5    1    3    3  502    0  0.13524113218E+03 -0.26942258285E+02  0.37790780940E+03  0.40230316171E+03  0.41800000000E+01 0. -1.
         -5    1    3    3    0  502  0.89825123173E+00  0.35419791108E+02  0.24288742704E+03  0.24549367216E+03  0.41800000000E+01 0. -1.
        -11    1    4    4    0    0 -0.21358174477E+00 -0.25682963046E+02 -0.10275663232E+02  0.27663142678E+02  0.00000000000E+00 0.  1.
         11    1    4    4    0    0 -0.13592580167E+03  0.17205430223E+02  0.77517219064E+01  0.13722951425E+03  0.00000000000E+00 0. -1.
</event>
<event>
 8    1  0.7005395E-009  0.1375545E+03  0.7561462E-02  0.1216658E+00
         -1   -1    0    0    0  501 -0.00000000000E+00  0.00000000000E+00  0.24588123967E+03  0.24588123967E+03  0.00000000000E+00 0.  1.
          1   -1    0    0  501    0  0.00000000000E+00 -0.00000000000E+00 -0.22047634039E+03  0.22047634039E+03  0.00000000000E+00 0. -1.
         25    2    1    2    0    0  0.10884658245E+03  0.66741366029E+02 -0.14871516746E+03  0.23252060624E+03  0.12509053858E+03 0.  0.
         23    2    1    2    0    0 -0.10884658245E+03 -0.66741366029E+02  0.17412006674E+03  0.23383697383E+03  0.89777192195E+02 0.  0.
          5    1    3    3  502    0  0.99555094630E+02  0.30837456631E+02 -0.30677515425E+02  0.10872326315E+03  0.41800000000E+01 0.  1.
         -5    1    3    3    0  502  0.92914878166E+01  0.35903909398E+02 -0.11803765204E+03  0.12379734308E+03  0.41800000000E+01 0.  1.
        -11    1    4    4    0    0 -0.68638844032E+01 -0.20288212707E+02  0.93152910426E+02  0.95583414905E+02  0.00000000000E+00 0.  1.
         11    1    4    4    0    0 -0.10198269804E+03 -0.46453153323E+02  0.80967156315E+02  0.13825355893E+03  0.00000000000E+00 0. -1.
</event>
<event>
 8    1  0.7005395E-009  0.1617534E+03  0.7561462E-02  0.1186731E+00
         -2   -1    0    0    0  501 -0.00000000000E+00  0.00000000000E+00  0.18631070453E+02  0.18631070453E+02  0.00000000000E+00 0.  1.
          2   -1    0    0  501    0  0.00000000000E+00 -0.00000000000E+00 -0.14321325740E+04  0.14321325740E+04  0.00000000000E+00 0. -1.
         25    2    1    2    0    0 -0.98721089792E+02  0.71293000652E+02 -0.76066877487E+03  0.78044256956E+03  0.12508026945E+03 0.  0.
         23    2    1    2    0    0  0.98721089792E+02 -0.71293000652E+02 -0.65283272863E+03  0.67032107485E+03  0.91165927317E+02 0.  0.
          5    1    3    3  502    0  0.12053448757E+02 -0.22774724976E+02 -0.71780397088E+02  0.76379784830E+02  0.41800000000E+01 0. -1.
         -5    1    3    3    0  502 -0.11077453855E+03  0.94067725628E+02 -0.68888837778E+03  0.70406278473E+03  0.41800000000E+01 0. -1.
        -11    1    4    4    0    0  0.10510004436E+03 -0.28700389720E+02 -0.47873375892E+03  0.49097428001E+03  0.00000000000E+00 0.  1.
         11    1    4    4    0    0 -0.63789545669E+01 -0.42592610932E+02 -0.17409896970E+03  0.17934679484E+03  0.00000000000E+00 0. -1.
</event>
<event>
 8    1  0.7005395E-009  0.1031946E+03  0.7561462E-02  0.1273718E+00
          1   -1    0    0  501    0  0.00000000000E+00  0.00000000000E+00  0.32252215174E+03  0.32252215174E+03  0.00000000000E+00 0. -1.
         -1   -1    0    0    0  501 -0.00000000000E+00 -0.00000000000E+00 -0.47363849871E+02  0.47363849871E+02  0.00000000000E+00 0.  1.
         25    2    1    2    0    0 -0.39511768291E+02 -0.42463772513E+02  0.13209173032E+03  0.19093840138E+03  0.12507955905E+03 0.  0.
         23    2    1    2    0    0  0.39511768291E+02  0.42463772513E+02  0.14306657156E+03  0.17894760024E+03  0.90497778561E+02 0.  0.
          5    1    3    3  502    0  0.16529399593E+02 -0.56469117103E+02  0.15868058411E+02  0.61083957919E+02  0.41800000000E+01 0.  1.
         -5    1    3    3    0  502 -0.56041167884E+02  0.14005344589E+02  0.11622367190E+03  0.12985444346E+03  0.41800000000E+01 0.  1.
        -11    1    4    4    0    0  0.45421960786E+02 -0.11869471538E+01  0.22736764378E+02  0.50808698267E+02  0.00000000000E+00 0.  1.
         11    1    4    4    0    0 -0.59101924947E+01  0.43650719667E+02  0.12032980718E+03  0.12813890197E+03  0.00000000000E+00 0. -1.
</event>
<event>
 8    1  0.7005395E-009  0.1327756E+03  0.7561462E-02  0.1223394E+00
          1   -1    0    0  501    0  0.00000000000E+00  0.00000000000E+00  0.46737333294E+02  0.46737333294E+02  0.00000000000E+00 0. -1.
         -1   -1    0    0    0  501 -0.00000000000E+00 -0.00000000000E+00 -0.48626398735E+03  0.48626398735E+03  0.00000000000E+00 0.  1.
         25    2    1    2    0    0 -0.75806854937E+02  0.69753769550E+02 -0.25740863484E+03  0.30416195983E+03  0.12507207882E+03 0.  0.
         23    2    1    2    0    0  0.75806854937E+02 -0.69753769550E+02 -0.18211801922E+03  0.22883936081E+03  0.92672609276E+02 0.  0.
          5    1    3    3  502    0 -0.78680790490E+02  0.10210090759E+03 -0.19724416831E+03  0.23566500897E+03  0.41800000000E+01 0. -1.
         -5    1    3    3    0  502  0.28739355524E+01 -0.32347138036E+02 -0.60164466525E+02  0.68496950859E+02  0.41800000000E+01 0. -1.
        -11    1    4    4    0    0  0.35796113737E+02 -0.24189927224E+02 -0.15763066060E+03  0.16344399499E+03  0.00000000000E+00 0.  1.
         11    1    4    4    0    0  0.40010741200E+02 -0.45563842327E+02 -0.24487358628E+02  0.65395365826E+02  0.00000000000E+00 0. -1.
</event>
<event>
 8    1  0.7005395E-009  0.1505002E+03  0.7561462E-02  0.1199860E+00
          1   -1    0    0  501    0  0.00000000000E+00  0.00000000000E+00  0.84963666642E+03  0.84963666642E+03  0.00000000000E+00 0. -1.
         -1   -1    0    0    0  501 -0.00000000000E+00 -0.00000000000E+00 -0.44735944931E+02  0.44735944931E+02  0.00000000000E+00 0.  1.
         25    2    1    2    0    0 -0.10594938059E+03  0.20753104435E+02  0.69222581040E+03  0.71167474049E+03  0.12509356926E+03 0.  0.
         23    2    1    2    0    0  0.10594938059E+03 -0.20753104435E+02  0.11267491109E+03  0.18269787087E+03  0.95010072302E+02 0.  0.
          5    1    3    3  502    0 -0.90215909917E+02 -0.40662187222E+02  0.48139283086E+03  0.49147619869E+03  0.41800000000E+01 0.  1.
         -5    1    3    3    0  502 -0.15733470673E+02  0.61415291657E+02  0.21083297954E+03  0.22019854180E+03  0.41800000000E+01 0.  1.
        -11    1    4    4    0    0  0.24257683161E+02  0.32758424714E+02  0.12120816098E+02  0.42526036319E+02  0.00000000000E+00 0.  1.
         11    1    4    4    0    0  0.81691697429E+02 -0.53511529149E+02  0.10055409499E+03  0.14017183455E+03  0.00000000000E+00 0. -1.
</event>
<event>
 8    1  0.7005395E-009  0.1447046E+03  0.7561462E-02  0.1207135E+00
          2   -1    0    0  501    0  0.00000000000E+00  0.00000000000E+00  0.26620462726E+03  0.26620462726E+03  0.00000000000E+00 0. -1.
         -2   -1    0    0    0  501 -0.00000000000E+00 -0.00000000000E+00 -0.91374017365E+02  0.91374017365E+02  0.00000000000E+00 0.  1.
         25    2    1    2    0    0 -0.30777743358E+02  0.10107501993E+03  0.13172293726E+03  0.21014750815E+03  0.12509042266E+03 0.  0.
         23    2    1    2    0    0  0.30777743358E+02 -0.10107501993E+03  0.43107672638E+02  0.14743113648E+03  0.93350090651E+02 0.  0.
          5    1    3    3  502    0 -0.75573444054E+02  0.59692772213E+02  0.51501404633E+02  0.10929061982E+03  0.41800000000E+01 0. -1.
         -5    1    3    3    0  502  0.44795700696E+02  0.41382247714E+02  0.80221532629E+02  0.10085688833E+03  0.41800000000E+01 0. -1.
        -11    1    4    4    0    0 -0.25560411091E+02 -0.48518007932E+02  0.44109967608E+02  0.70377702088E+02  0.00000000000E+00 0. -1.
         11    1    4    4    0    0  0.56338154449E+02 -0.52557011995E+02 -0.10022949706E+01  0.77053434393E+02  0.00000000000E+00 0.  1.
</event>
<event>
 8    1  0.7005395E-009  0.2268591E+03  0.7561462E-02  0.1128870E+00
          1   -1    0    0  501    0  0.00000000000E+00  0.00000000000E+00  0.66612096097E+03  0.66612096097E+03  0.00000000000E+00 0. -1.
         -1   -1    0    0    0  501 -0.00000000000E+00 -0.00000000000E+00 -0.11252698751E+03  0.11252698751E+03  0.00000000000E+00 0.  1.
         25    2    1    2    0    0 -0.20633990720E+03  0.59391008474E+02  0.98741223081E+02  0.26739575771E+03  0.12508882011E+03 0.  0.
         23    2    1    2    0    0  0.20633990720E+03 -0.59391008474E+02  0.45485275038E+03  0.51125219077E+03  0.91565980849E+02 0.  0.
          5    1    3    3  502    0 -0.54785645341E+01 -0.18756222342E+02 -0.13736028100E+02  0.24247915660E+02  0.41800000000E+01 0. -1.
         -5    1    3    3    0  502 -0.20086134267E+03  0.78147230816E+02  0.11247725118E+03  0.24314784205E+03  0.41800000000E+01 0. -1.
        -11    1    4    4    0    0  0.14601312728E+03 -0.23275244108E+02  0.21229852798E+03  0.25871265007E+03  0.00000000000E+00 0.  1.
         11    1    4    4    0    0  0.60326779925E+02 -0.36115764366E+02  0.24255422241E+03  0.25253954070E+03  0.00000000000E+00 0. -1.
</event>
<event>
 8    1  0.7005395E-009  0.1030346E+03  0.7561462E-02  0.1274041E+00
          2   -1    0    0  501    0  0.00000000000E+00  0.00000000000E+00  0.88663407890E+03  0.88663407890E+03  0.00000000000E+00 0. -1.
         -2   -1    0    0    0  501 -0.00000000000E+00 -0.00000000000E+00 -0.18672459271E+02  0.18672459271E+02  0.00000000000E+00 0.  1.
         25    2    1    2    0    0  0.18746595326E+02 -0.51312014949E+02  0.63948369828E+03  0.65388961085E+03  0.12509142692E+03 0.  0.
         23    2    1    2    0    0 -0.18746595326E+02  0.51312014949E+02  0.22847792135E+03  0.25141692732E+03  0.89576520855E+02 0.  0.
          5    1    3    3  502    0  0.54850608988E+02 -0.43669120756E+01  0.13380168869E+03  0.14473432048E+03  0.41800000000E+01 0. -1.
         -5    1    3    3    0  502 -0.36104013662E+02 -0.46945102873E+02  0.50568200959E+03  0.50915529037E+03  0.41800000000E+01 0. -1.
        -11    1    4    4    0    0  0.26407683652E+02  0.34244622849E+02  0.48054310576E+02  0.64647325659E+02  0.00000000000E+00 0.  1.
         11    1    4    4    0    0 -0.45154278979E+02  0.17067392100E+02  0.18042361077E+03  0.18676960166E+03  0.00000000000E+00 0. -1.
</event>
<event>
 8    1  0.7005395E-009  0.5528950E+02  0.7561462E-02  0.1418735E+00
          2   -1    0    0  501    0  0.00000000000E+00  0.00000000000E+00  0.21011294078E+03  0.21011294078E+03  0.00000000000E+00 0. -1.
         -2   -1    0    0    0  501 -0.00000000000E+00 -0.00000000000E+00 -0.62088634901E+02  0.62088634901E+02  0.00000000000E+00 0.  1.
         25    2    1    2    0    0 -0.18619628271E+02 -0.38070784410E+01  0.40063877546E+02  0.13271662590E+03  0.12508958431E+03 0.  0.
         23    2    1    2    0    0  0.18619628271E+02  0.38070784410E+01  0.10796042833E+03  0.13948494978E+03  0.86252030273E+02 0.  0.
          5    1    3    3  502    0  0.14600018852E+02 -0.12352462484E+02 -0.40539537535E+02  0.45018555990E+02  0.41800000000E+01 0. -1.
         -5    1    3    3    0  502 -0.33219647122E+02  0.85453840426E+01  0.80603415081E+02  0.87698069911E+02  0.41800000000E+01 0. -1.
        -11    1    4    4    0    0 -0.15332039578E+02  0.14245013949E+02 -0.46216257520E+01  0.21432481999E+02  0.00000000000E+00 0.  1.
         11    1    4    4    0    0  0.33951667849E+02 -0.10437935508E+02  0.11258205409E+03  0.11805246778E+03  0.00000000000E+00 0. -1.
</event>
<event>
 8    1  0.7005395E-009  0.1600810E+03  0.7561462E-02  0.1188605E+00
          4   -1    0    0  501    0  0.00000000000E+00  0.00000000000E+00  0.17474521161E+03  0.17474521161E+03  0.00000000000E+00 0. -1.
         -4   -1    0    0    0  501 -0.00000000000E+00 -0.00000000000E+00 -0.19542765322E+03  0.19542765322E+03  0.00000000000E+00 0.  1.
         25    2    1    2    0    0 -0.61216957183E+02  0.11317654086E+03 -0.84782241009E+02  0.19847245494E+03  0.12508733641E+03 0.  0.
         23    2    1    2    0    0  0.61216957183E+02 -0.11317654086E+03  0.64099799394E+02  0.17170040989E+03  0.93892498244E+02 0.  0.
          5    1    3    3  502    0  0.80438817547E+01 -0.13670085582E+02  0.15457870311E+02  0.22538709547E+02  0.41800000000E+01 0.  1.
         -5    1    3    3    0  502 -0.69260838938E+02  0.12684662644E+03 -0.10024011132E+03  0.17593374539E+03  0.41800000000E+01 0.  1.
        -11    1    4    4    0    0  0.62996172206E+02 -0.20162621170E+02  0.29810699545E+02  0.72551545899E+02  0.00000000000E+00 0.  1.
         11    1    4    4    0    0 -0.17792150226E+01 -0.93013919692E+02  0.34289099850E+02  0.99148863993E+02  0.00000000000E+00 0. -1.
</event>
<event>
 8    1  0.7005395E-009  0.1120813E+03  0.7561462E-02  0.1256764E+00
          2   -1    0    0  501    0  0.00000000000E+00  0.00000000000E+00  0.61777589505E+02  0.61777589505E+02  0.00000000000E+00 0. -1.
         -2   -1    0    0    0  501 -0.00000000000E+00 -0.00000000000E+00 -0.56390476244E+03  0.56390476244E+03  0.00000000000E+00 0.  1.
         25    2    1    2    0    0 -0.41075752777E+02  0.13475050233E+02 -0.50564754342E+03  0.52268064409E+03  0.12508726194E+03 0.  0.
         23    2    1    2    0    0  0.41075752777E+02 -0.13475050233E+02  0.35203704806E+01  0.10300170785E+03  0.93424645398E+02 0.  0.
          5    1    3    3  502    0  0.86684304342E+01  0.60436330251E+02 -0.18749593470E+03  0.19723054943E+03  0.41800000000E+01 0. -1.
         -5    1    3    3    0  502 -0.49744183211E+02 -0.46961280018E+02 -0.31815160872E+03  0.32545009466E+03  0.41800000000E+01 0. -1.
        -11    1    4    4    0    0  0.30396008810E+02  0.34093093610E+02  0.22210733385E+02  0.50789497546E+02  0.00000000000E+00 0. -1.
         11    1    4    4    0    0  0.10679743967E+02 -0.47568143843E+02 -0.18690362904E+02  0.52212210309E+02  0.00000000000E+00 0.  1.
</event>
<event>
 8    1  0.7005395E-009  0.1421713E+03  0.7561462E-02  0.1210437E+00
          1   -1    0    0  501    0  0.00000000000E+00  0.00000000000E+00  0.53341911769E+02  0.53341911769E+02  0.00000000000E+00 0. -1.
         -1   -1    0    0    0  501 -0.00000000000E+00 -0.00000000000E+00 -0.48880540481E+03  0.48880540481E+03  0.00000000000E+00 0.  1.
         25    2    1    2    0    0 -0.46017796915E+02  0.89232265117E+02 -0.34399757310E+03  0.37955513906E+03  0.12509092099E+03 0.  0.
         23    2    1    2    0    0  0.46017796915E+02 -0.89232265117E+02 -0.91465919937E+02  0.16259217752E+03  0.89387733555E+02 0.  0.
          5    1    3    3  502    0 -0.19069378387E+02 -0.29528671417E+02 -0.49596137658E+02  0.60933019770E+02  0.41800000000E+01 0.  1.
         -5    1    3    3    0  502 -0.26948418528E+02  0.11876093653E+03 -0.29440143545E+03  0.31862211929E+03  0.41800000000E+01 0.  1.
        -11    1    4    4    0    0  0.54600296878E+02 -0.21280693618E+02 -0.16139367790E+02  0.60782723966E+02  0.00000000000E+00 0.  1.
         11    1    4    4    0    0 -0.85824999633E+01 -0.67951571499E+02 -0.75326552147E+02  0.10180945355E+03  0.00000000000E+00 0. -1.
</event>
<event>
 8    1  0.7005395E-009  0.1156662E+03  0.7561462E-02  0.1250423E+00
         -1   -1    0    0    0  501 -0.00000000000E+00  0.00000000000E+00  0.30695583120E+02  0.30695583120E+02  0.00000000000E+00 0.  1.
          1   -1    0    0  501    0  0.00000000000E+00 -0.00000000000E+00 -0.73185831341E+03  0.73185831341E+03  0.00000000000E+00 0. -1.
         25    2    1    2    0    0  0.96731358243E+02  0.16439103218E+02 -0.29781730416E+03  0.33759298306E+03  0.12508667305E+03 0.  0.
         23    2    1    2    0    0 -0.96731358243E+02 -0.16439103218E+02 -0.40334542613E+03  0.42496091347E+03  0.90978268894E+02 0.  0.
          5    1    3    3  502    0  0.57161174040E+02 -0.35777917933E+02 -0.24252685145E+03  0.25176219991E+03  0.41800000000E+01 0. -1.
         -5    1    3    3    0  502  0.39570184203E+02  0.52217021151E+02 -0.55290452702E+02  0.85830783148E+02  0.41800000000E+01 0. -1.
        -11    1    4    4    0    0 -0.22415675137E+02 -0.37958175173E+01 -0.10668238419E+02  0.25113383552E+02  0.00000000000E+00 0.  1.
         11    1    4    4    0    0 -0.74315683106E+02 -0.12643285701E+02 -0.39267718771E+03  0.39984752991E+03  0.00000000000E+00 0. -1.
</event>
<event>
 8    1  0.7005395E-009  0.1278279E+03  0.7561462E-02  0.1230715E+00
          3   -1    0    0  501    0  0.00000000000E+00  0.00000000000E+00  0.81296616937E+02  0.81296616937E+02  0.00000000000E+00 0. -1.
         -3   -1    0    0    0  501 -0.00000000000E+00 -0.00000000000E+00 -0.27746725025E+03  0.27746725025E+03  0.00000000000E+00 0.  1.
         25    2    1    2    0    0  0.51777254203E+01  0.10244669869E+03 -0.69930426609E+02  0.17624066279E+03  0.12509345204E+03 0.  0.
         23    2    1    2    0    0 -0.51777254203E+01 -0.10244669869E+03 -0.12624020670E+03  0.18252320439E+03  0.82800938637E+02 0.  0.
          5    1    3    3  502    0 -0.52834513595E+02  0.41529951354E+02 -0.62194792764E+02  0.91661809568E+02  0.41800000000E+01 0. -1.
         -5    1    3    3    0  502  0.58012239015E+02  0.60916747339E+02 -0.77356338446E+01  0.84578853226E+02  0.41800000000E+01 0. -1.
        -11    1    4    4    0    0  0.59733404373E+01 -0.19178756104E+02  0.10018505707E+02  0.22447181076E+02  0.00000000000E+00 0. -1.
         11    1    4    4    0    0 -0.11151065858E+02 -0.83267942589E+02 -0.13625871241E+03  0.16007602331E+03  0.00000000000E+00 0.  1.
</event>
<event>
 8    1  0.7005395E-009  0.6208875E+02  0.7561462E-02  0.1389270E+00
         -1   -1    0    0    0  501 -0.00000000000E+00  0.00000000000E+00  0.16871429725E+03  0.16871429725E+03  0.00000000000E+00 0.  1.
          1   -1    0    0  501    0  0.00000000000E+00 -0.00000000000E+00 -0.79416882404E+02  0.79416882404E+02  0.00000000000E+00 0. -1.
         25    2    1    2    0    0  0.10537322012E+02  0.40756407661E+02  0.51644188213E+02  0.14173081933E+03  0.12509349724E+03 0.  0.
         23    2    1    2    0    0 -0.10537322012E+02 -0.40756407661E+02  0.37653226632E+02  0.10640036032E+03  0.90172896590E+02 0.  0.
          5    1    3    3  502    0  0.15729114825E+02  0.33100457756E+02 -0.37154208518E+02  0.52354111275E+02  0.41800000000E+01 0. -1.
         -5    1    3    3    0  502 -0.51917928129E+01  0.76559499057E+01  0.88798396731E+02  0.89376708060E+02  0.41800000000E+01 0. -1.
        -11    1    4    4    0    0  0.26900498487E+02 -0.24283166436E+02 -0.15429398393E+02  0.39387502152E+02  0.00000000000E+00 0. -1.
         11    1    4    4    0    0 -0.37437820499E+02 -0.16473241225E+02  0.53082625025E+02  0.67012858167E+02  0.00000000000E+00 0.  1.
</event>
<event>
 8    1  0.7005395E-009  0.1316836E+03  0.7561462E-02  0.1224979E+00
          1   -1    0    0  501    0  0.00000000000E+00  0.00000000000E+00  0.48487414215E+03  0.48487414215E+03  0.00000000000E+00 0. -1.
         -1   -1    0    0    0  501 -0.00000000000E+00 -0.00000000000E+00 -0.50397257290E+02  0.50397257290E+02  0.00000000000E+00 0.  1.
         25    2    1    2    0    0 -0.38649032601E+02 -0.10023702134E+03  0.17551614966E+03  0.24082143204E+03  0.12509130734E+03 0.  0.
         23    2    1    2    0    0  0.38649032601E+02  0.10023702134E+03  0.25896073520E+03  0.29444996739E+03  0.89993959549E+02 0.  0.
          5    1    3    3  502    0 -0.54892756925E+02 -0.54494630507E+02  0.17578987632E+03  0.19210005865E+03  0.41800000000E+01 0. -1.
         -5    1    3    3    0  502  0.16243724324E+02 -0.45742390836E+02 -0.27372665748E+00  0.48721373396E+02  0.41800000000E+01 0. -1.
        -11    1    4    4    0    0 -0.16614284068E+02  0.74304624968E+02  0.17304819376E+03  0.18905789877E+03  0.00000000000E+00 0.  1.
         11    1    4    4    0    0  0.55263316668E+02  0.25932396376E+02  0.85912541441E+02  0.10539206862E+03  0.00000000000E+00 0. -1.
</event>
<event>
 8    1  0.7005395E-009  0.7384541E+02  0.7561462E-02  0.1347484E+00
         -1   -1    0    0    0  501 -0.00000000000E+00  0.00000000000E+00  0.15413720178E+02  0.15413720178E+02  0.00000000000E+00 0.  1.
          1   -1    0    0  501    0  0.00000000000E+00 -0.00000000000E+00 -0.11962504232E+04  0.11962504232E+04  0.00000000000E+00 0. -1.
         25    2    1    2    0    0  0.82826876516E+01 -0.28959811862E+02 -0.98572507334E+03  0.99408620864E+03  0.12508475684E+03 0.  0.
         23    2    1    2    0    0 -0.82826876516E+01  0.28959811862E+02 -0.19511162972E+03  0.21757793477E+03  0.91456744029E+02 0.  0.
          5    1    3    3  502    0 -0.46396491098E+00  0.12333655261E+02 -0.76880748473E+01  0.15129878069E+02  0.41800000000E+01 0.  1.
         -5    1    3    3    0  502  0.87466525626E+01 -0.41293467123E+02 -0.97803699849E+03  0.97895633058E+03  0.41800000000E+01 0.  1.
        -11    1    4    4    0    0  0.32983984358E+02 -0.11030252572E+02 -0.10586214833E+03  0.11142891970E+03  0.00000000000E+00 0. -1.
         11    1    4    4    0    0 -0.41266672010E+02  0.39990064435E+02 -0.89249481395E+02  0.10614901508E+03  0.00000000000E+00 0.  1.
</event>
<event>
 8    1  0.7005395E-009  0.1109972E+03  0.7561462E-02  0.1258734E+00
          1   -1    0    0  501    0  0.00000000000E+00  0.00000000000E+00  0.15642067062E+02  0.15642067062E+02  0.00000000000E+00 0. -1.
         -1   -1    0    0    0  501 -0.00000000000E+00 -0.00000000000E+00 -0.95312797030E+03  0.95312797030E+03  0.00000000000E+00 0.  1.
         25    2    1    2    0    0  0.94587546936E+01 -0.44565051688E+02 -0.65549269046E+03  0.66887458663E+03  0.12508810305E+03 0.  0.
         23    2    1    2    0    0 -0.94587546936E+01  0.44565051688E+02 -0.28199321278E+03  0.29989545073E+03  0.91332346087E+02 0.  0.
          5    1    3    3  502    0  0.40345323299E+01  0.43954916320E+02 -0.22089525990E+03  0.22530091070E+03  0.41800000000E+01 0. -1.
         -5    1    3    3    0  502  0.54242223637E+01 -0.88519968009E+02 -0.43459743056E+03  0.44357367593E+03  0.41800000000E+01 0. -1.
        -11    1    4    4    0    0  0.32542627602E+02  0.88111407452E+01 -0.43115085307E+02  0.54731795087E+02  0.00000000000E+00 0. -1.
         11    1    4    4    0    0 -0.42001382296E+02  0.35753910943E+02 -0.23887812747E+03  0.24516365564E+03  0.00000000000E+00 0.  1.
</event>
<event>
 8    1  0.7005395E-009  0.8988959E+02  0.7561462E-02  0.1303119E+00
         -1   -1    0    0    0  501 -0.00000000000E+00  0.00000000000E+00  0.31976116410E+03  0.31976116410E+03  0.00000000000E+00 0.  1.
          1   -1    0    0  501    0  0.00000000000E+00 -0.00000000000E+00 -0.53085517256E+02  0.53085517256E+02  0.00000000000E+00 0. -1.
         25    2    1    2    0    0  0.67018503937E+02  0.19172171025E+02  0.11966890030E+03  0.18662043671E+03  0.12508992639E+03 0.  0.
         23    2    1    2    0    0 -0.67018503937E+02 -0.19172171025E+02  0.14700674654E+03  0.18622624465E+03  0.90610036172E+02 0.  0.
          5    1    3    3  502    0  0.80283075703E+01  0.11632615869E+02  0.12582620354E+03  0.12668653192E+03  0.41800000000E+01 0.  1.
         -5    1    3    3    0  502  0.58990196366E+02  0.75395551560E+01 -0.61573032357E+01  0.59933904782E+02  0.41800000000E+01 0.  1.
        -11    1    4    4    0    0 -0.27467720815E+02  0.31077029223E+02  0.95491853378E+02  0.10411028524E+03  0.00000000000E+00 0. -1.
         11    1    4    4    0    0 -0.39550783121E+02 -0.50249200248E+02  0.51514893163E+02  0.82115959403E+02  0.00000000000E+00 0.  1.
</event>
<event>
 8    1  0.7005395E-009  0.1305060E+03  0.7561462E-02  0.1226707E+00
          1   -1    0    0  501    0  0.00000000000E+00  0.00000000000E+00  0.31416756147E+03  0.31416756147E+03  0.00000000000E+00 0. -1.
         -1   -1    0    0    0  501 -0.00000000000E+00 -0.00000000000E+00 -0.10218197767E+03  0.10218197767E+03  0.00000000000E+00 0.  1.
         25    2    1    2    0    0 -0.92316095526E+02  0.51977196990E+02  0.22057660872E+03  0.27481878842E+03  0.12508971042E+03 0.  0.
         23    2    1    2    0    0  0.92316095526E+02 -0.51977196990E+02 -0.85910249210E+01  0.14153075072E+03  0.93451897729E+02 0.  0.
          5    1    3    3  502    0 -0.99480802221E+02 -0.12825920023E+01  0.92704211122E+02  0.13605005775E+03  0.41800000000E+01 0.  1.
         -5    1    3    3    0  502  0.71647066949E+01  0.53259788992E+02  0.12787239760E+03  0.13876873068E+03  0.41800000000E+01 0.  1.
        -11    1    4    4    0    0  0.74157709762E+02 -0.32690162809E+02  0.36775247545E+02  0.88996806086E+02  0.00000000000E+00 0. -1.
         11    1    4    4    0    0  0.18158385764E+02 -0.19287034181E+02 -0.45366272466E+02  0.52533944631E+02  0.00000000000E+00 0.  1.
</event>
<event>
 8    1  0.7005395E-009  0.9551476E+02  0.7561462E-02  0.1290021E+00
          1   -1    0    0  501    0  0.00000000000E+00  0.00000000000E+00  0.10781232894E+03  0.10781232894E+03  0.00000000000E+00 0. -1.
         -1   -1    0    0    0  501 -0.00000000000E+00 -0.00000000000E+00 -0.14566400846E+03  0.14566400846E+03  0.00000000000E+00 0.  1.
         25    2    1    2    0    0  0.20093163649E+02 -0.23677080412E+02  0.31785635802E+02  0.13275353500E+03  0.12509530386E+03 0.  0.
         23    2    1    2    0    0 -0.20093163649E+02  0.23677080412E+02 -0.69637315325E+02  0.12072280241E+03  0.93596474147E+02 0.  0.
          5    1    3    3  502    0  0.20759057187E+02 -0.68401102682E+02  0.46620643453E+02  0.85443584308E+02  0.41800000000E+01 0. -1.
         -5    1    3    3    0  502 -0.66589353880E+00  0.44724022270E+02 -0.14835007651E+02  0.47309950689E+02  0.41800000000E+01 0. -1.
        -11    1    4    4    0    0  0.25002468558E+02  0.40849430011E+01 -0.66834878511E+02  0.71475248715E+02  0.00000000000E+00 0.  1.
         11    1    4    4    0    0 -0.45095632206E+02  0.19592137411E+02 -0.28024368140E+01  0.49247553690E+02  0.00000000000E+00 0. -1.
</event>
<event>
 8    1  0.7005395E-009  0.9138924E+02  0.7561462E-02  0.1299522E+00
          3   -1    0    0  501    0  0.00000000000E+00  0.00000000000E+00  0.35751117361E+02  0.35751117361E+02  0.00000000000E+00 0. -1.
         -3   -1    0    0    0  501 -0.00000000000E+00 -0.00000000000E+00 -0.47631351182E+03  0.47631351182E+03  0.00000000000E+00 0.  1.
         25    2    1    2    0    0 -0.49137973886E+02  0.40223276755E+02 -0.17403664164E+03  0.22353675593E+03  0.12508987229E+03 0.  0.
         23    2    1    2    0    0  0.49137973886E+02 -0.40223276755E+02 -0.26652575282E+03  0.28852787325E+03  0.90442823120E+02 0.  0.
          5    1    3    3  502    0 -0.47900061348E+01  0.24082592644E+02  0.14715077815E+02  0.28929592848E+02  0.41800000000E+01 0.  1.
         -5    1    3    3    0  502 -0.44347967752E+02  0.16140684110E+02 -0.18875171945E+03  0.19460716308E+03  0.41800000000E+01 0.  1.
        -11    1    4    4    0    0 -0.58743263033E+00  0.26928004046E+02 -0.67183330293E+02  0.72381367410E+02  0.00000000000E+00 0.  1.
         11    1    4    4    0    0  0.49725406517E+02 -0.67151280801E+02 -0.19934242253E+03  0.21614650584E+03  0.00000000000E+00 0. -1.
</event>
<event>
 8    1  0.7005395E-009  0.6762656E+02  0.7561462E-02  0.1368355E+00
          2   -1    0    0  501    0  0.00000000000E+00  0.00000000000E+00  0.13266431250E+03  0.13266431250E+03  0.00000000000E+00 0.  1.
         -2   -1    0    0    0  501 -0.00000000000E+00 -0.00000000000E+00 -0.87643257931E+02  0.87643257931E+02  0.00000000000E+00 0. -1.
         25    2    1    2    0    0  0.13817631588E+02 -0.10237517796E+02  0.33848810466E+02  0.13072103458E+03  0.12508602320E+03 0.  0.
         23    2    1    2    0    0 -0.13817631588E+02  0.10237517796E+02  0.11172244101E+02  0.89586535847E+02  0.87207767163E+02 0.  0.
          5    1    3    3  502    0 -0.16469446910E+02 -0.46371221328E+02  0.59144673272E+02  0.77052564042E+02  0.41800000000E+01 0. -1.
         -5    1    3    3    0  502  0.30287078498E+02  0.36133703533E+02 -0.25295862807E+02  0.53668470540E+02  0.41800000000E+01 0. -1.
        -11    1    4    4    0    0 -0.58138544901E+01  0.22859914564E+02 -0.34352573488E+02  0.41671043941E+02  0.00000000000E+00 0. -1.
         11    1    4    4    0    0 -0.80037770980E+01 -0.12622396768E+02  0.45524817589E+02  0.47915491906E+02  0.00000000000E+00 0.  1.
</event>
<event>
 8    1  0.7005395E-009  0.1671050E+03  0.7561462E-02  0.1180901E+00
         -2   -1    0    0    0  501 -0.00000000000E+00  0.00000000000E+00  0.23387804881E+02  0.23387804881E+02  0.00000000000E+00 0. -1.
          2   -1    0    0  501    0  0.00000000000E+00 -0.00000000000E+00 -0.14694077399E+04  0.14694077399E+04  0.00000000000E+00 0.  1.
         25    2    1    2    0    0  0.12215355028E+03 -0.48013432677E+02 -0.10472358525E+04  0.10628155386E+04  0.12508860391E+03 0.  0.
         23    2    1    2    0    0 -0.12215355028E+03  0.48013432677E+02 -0.39878408254E+03  0.42998000618E+03  0.92883161331E+02 0.  0.
          5    1    3    3  502    0  0.21687722586E+02 -0.74160961992E+02 -0.45735495666E+03  0.46385475569E+03  0.41800000000E+01 0.  1.
         -5    1    3    3    0  502  0.10046582769E+03  0.26147529315E+02 -0.58988089580E+03  0.59896078290E+03  0.41800000000E+01 0.  1.
        -11    1    4    4    0    0 -0.45712894298E+02  0.60134914209E+02 -0.26358687260E+03  0.27419685632E+03  0.00000000000E+00 0. -1.
         11    1    4    4    0    0 -0.76440655977E+02 -0.12121481533E+02 -0.13519720995E+03  0.15578314985E+03  0.00000000000E+00 0.  1.
</event>
<event>
 8    1  0.7005395E-009  0.1344873E+03  0.7561462E-02  0.1220945E+00
          2   -1    0    0  501    0  0.00000000000E+00  0.00000000000E+00  0.32695157606E+03  0.32695157606E+03  0.00000000000E+00 0. -1.
         -2   -1    0    0    0  501 -0.00000000000E+00 -0.00000000000E+00 -0.66878383934E+02  0.66878383934E+02  0.00000000000E+00 0.  1.
         25    2    1    2    0    0 -0.78174111589E+02 -0.52661920732E+02  0.18603904242E+03  0.24319250029E+03  0.12509035644E+03 0.  0.
         23    2    1    2    0    0  0.78174111589E+02  0.52661920732E+02  0.74034149705E+02  0.15063745970E+03  0.91247571614E+02 0.  0.
          5    1    3    3  502    0 -0.10687763721E+03 -0.40325579926E+02  0.10113466081E+03  0.15262592752E+03  0.41800000000E+01 0. -1.
         -5    1    3    3    0  502  0.28703525623E+02 -0.12336340807E+02  0.84904381610E+02  0.90566572775E+02  0.41800000000E+01 0. -1.
        -11    1    4    4    0    0 -0.15121189423E+02  0.18262787651E+02  0.38165542672E+02  0.44930929546E+02  0.00000000000E+00 0.  1.
         11    1    4    4    0    0  0.93295301012E+02  0.34399133081E+02  0.35868607033E+02  0.10570653016E+03  0.00000000000E+00 0. -1.
</event>
<event>
 8    1  0.7005395E-009  0.1300815E+03  0.7561462E-02  0.1227335E+00
         -1   -1    0    0    0  501 -0.00000000000E+00  0.00000000000E+00  0.41562224247E+02  0.41562224247E+02  0.00000000000E+00 0.  1.
          1   -1    0    0  501    0  0.00000000000E+00 -0.00000000000E+00 -0.53929674109E+03  0.53929674109E+03  0.00000000000E+00 0. -1.
         25    2    1    2    0    0 -0.45690427984E+01 -0.92944481864E+02 -0.35050062185E+03  0.38360835617E+03  0.12508050267E+03 0.  0.
         23    2    1    2    0    0  0.45690427984E+01  0.92944481864E+02 -0.14723389500E+03  0.19725060917E+03  0.92576617567E+02 0.  0.
          5    1    3    3  502    0  0.60020127513E+02 -0.45133690669E+02 -0.15919503677E+03  0.17606816258E+03  0.41800000000E+01 0. -1.
         -5    1    3    3    0  502 -0.64589170311E+02 -0.47810791195E+02 -0.19130558507E+03  0.20754019359E+03  0.41800000000E+01 0. -1.
        -11    1    4    4    0    0 -0.21451406787E+02  0.47419470540E+02 -0.13314279533E+03  0.14295374423E+03  0.00000000000E+00 0.  1.
         11    1    4    4    0    0  0.26020449585E+02  0.45525011324E+02 -0.14091099664E+02  0.54296864941E+02  0.00000000000E+00 0. -1.
</event>
<event>
 8    1  0.7005395E-009  0.1706297E+03  0.7561462E-02  0.1177193E+00
         -1   -1    0    0    0  501 -0.00000000000E+00  0.00000000000E+00  0.66830495854E+02  0.66830495854E+02  0.00000000000E+00 0.  1.
          1   -1    0    0  501    0  0.00000000000E+00 -0.00000000000E+00 -0.59908702156E+03  0.59908702156E+03  0.00000000000E+00 0. -1.
         25    2    1    2    0    0 -0.11782081393E+03  0.11133744464E+03 -0.34488554476E+03  0.40108680559E+03  0.12508723299E+03 0.  0.
         23    2    1    2    0    0  0.11782081393E+03 -0.11133744464E+03 -0.18737098095E+03  0.26483071183E+03  0.93539567299E+02 0.  0.
          5    1    3    3  502    0 -0.11530707253E+03  0.89725724579E+02 -0.16743053641E+03  0.22225409681E+03  0.41800000000E+01 0. -1.
         -5    1    3    3    0  502 -0.25137413980E+01  0.21611720063E+02 -0.17745500835E+03  0.17883270878E+03  0.41800000000E+01 0. -1.
        -11    1    4    4    0    0  0.92494568510E+02 -0.11474826967E+03 -0.18846563123E+03  0.23925238714E+03  0.00000000000E+00 0. -1.
         11    1    4    4    0    0  0.25326245420E+02  0.34108250301E+01  0.10946502852E+01  0.25578324686E+02  0.00000000000E+00 0.  1.
</event>
<event>
 8    1  0.7005395E-009  0.1410118E+03  0.7561462E-02  0.1211974E+00
         -1   -1    0    0    0  501 -0.00000000000E+00  0.00000000000E+00  0.17200788228E+03  0.17200788228E+03  0.00000000000E+00 0.  1.
          1   -1    0    0  501    0  0.00000000000E+00 -0.00000000000E+00 -0.12872970099E+03  0.12872970099E+03  0.00000000000E+00 0. -1.
         25    2    1    2    0    0 -0.42775271999E+01 -0.10084569758E+03  0.13431659041E+02  0.16129401291E+03  0.12508875720E+03 0.  0.
         23    2    1    2    0    0  0.42775271999E+01  0.10084569758E+03  0.29846522246E+02  0.13944357036E+03  0.91463339467E+02 0.  0.
          5    1    3    3  502    0  0.49243119132E+02 -0.17545286357E+02 -0.20845041875E+02  0.56433235119E+02  0.41800000000E+01 0.  1.
         -5    1    3    3    0  502 -0.53520646332E+02 -0.83300411219E+02  0.34276700916E+02  0.10486077779E+03  0.41800000000E+01 0.  1.
        -11    1    4    4    0    0  0.14034474832E+02 -0.11234194392E+02  0.19411119808E+02  0.26456855060E+02  0.00000000000E+00 0.  1.
         11    1    4    4    0    0 -0.97569476324E+01  0.11207989197E+03  0.10435402439E+02  0.11298671530E+03  0.00000000000E+00 0. -1.
</event>
<event>
 8    1  0.7005395E-009  0.9387659E+02  0.7561462E-02  0.1293727E+00
         -2   -1    0    0    0  501 -0.00000000000E+00  0.00000000000E+00  0.72443250152E+02  0.72443250152E+02  0.00000000000E+00 0.  1.
          2   -1    0    0  501    0  0.00000000000E+00 -0.00000000000E+00 -0.19753732457E+03  0.19753732457E+03  0.00000000000E+00 0. -1.
         25    2    1    2    0    0  0.36294108911E+02  0.33449856632E+02 -0.81400831452E+02  0.15719225852E+03  0.12508859072E+03 0.  0.
         23    2    1    2    0    0 -0.36294108911E+02 -0.33449856632E+02 -0.43693242965E+02  0.11278831620E+03  0.91520213831E+02 0.  0.
          5    1    3    3  502    0  0.35776832303E+02  0.54749351381E+02  0.72367880570E+01  0.65934184667E+02  0.41800000000E+01 0.  1.
         -5    1    3    3    0  502  0.51727660795E+00 -0.21299494749E+02 -0.88637619509E+02  0.91258073856E+02  0.41800000000E+01 0.  1.
        -11    1    4    4    0    0 -0.41180964063E+02  0.20730914746E+02 -0.34574950793E+02  0.57628724172E+02  0.00000000000E+00 0. -1.
         11    1    4    4    0    0  0.48868551512E+01 -0.54180771378E+02 -0.91182921719E+01  0.55159592027E+02  0.00000000000E+00 0.  1.
</event>
<event>
 8    1  0.7005395E-009  0.1062877E+03  0.7561462E-02  0.1267603E+00
          1   -1    0    0  501    0  0.00000000000E+00  0.00000000000E+00  0.16495602074E+04  0.16495602074E+04  0.00000000000E+00 0. -1.
         -1   -1    0    0    0  501 -0.00000000000E+00 -0.00000000000E+00 -0.14538181118E+02  0.14538181118E+02  0.00000000000E+00 0.  1.
         25    2    1    2    0    0  0.50023940902E+02  0.39617672713E+02  0.13621086669E+04  0.13693280287E+04  0.12508906789E+03 0.  0.
         23    2    1    2    0    0 -0.50023940902E+02 -0.39617672713E+02  0.27291335933E+03  0.29477035984E+03  0.91301197584E+02 0.  0.
          5    1    3    3  502    0  0.69263317918E+02  0.52624675608E+02  0.54794289362E+03  0.55482037702E+03  0.41800000000E+01 0.  1.
         -5    1    3    3    0  502 -0.19239377016E+02 -0.13007002895E+02  0.81416577330E+03  0.81450765163E+03  0.41800000000E+01 0.  1.
        -11    1    4    4    0    0 -0.10106164506E+02 -0.57334383969E+02  0.21180290222E+03  0.21965845200E+03  0.00000000000E+00 0. -1.
         11    1    4    4    0    0 -0.39917776396E+02  0.17716711256E+02  0.61110457114E+02  0.75111907837E+02  0.00000000000E+00 0.  1.
</event>
<event>
 8    1  0.7005395E-009  0.2364094E+03  0.7561462E-02  0.1122208E+00
          2   -1    0    0  501    0  0.00000000000E+00  0.00000000000E+00  0.45219270404E+02  0.45219270404E+02  0.00000000000E+00 0. -1.
         -2   -1    0    0    0  501 -0.00000000000E+00 -0.00000000000E+00 -0.12610999777E+04  0.12610999777E+04  0.00000000000E+00 0.  1.
         25    2    1    2    0    0 -0.16001540968E+03 -0.13942576669E+03 -0.62300512548E+03  0.66994409104E+03  0.12508086578E+03 0.  0.
         23    2    1    2    0    0  0.16001540968E+03  0.13942576669E+03 -0.59287558185E+03  0.63637515710E+03  0.91800921953E+02 0.  0.
          5    1    3    3  502    0 -0.15773011511E+03 -0.70487006561E+02 -0.49767748924E+03  0.52682783052E+03  0.41800000000E+01 0.  1.
         -5    1    3    3    0  502 -0.22852945694E+01 -0.68938760131E+02 -0.12532763624E+03  0.14311626052E+03  0.41800000000E+01 0.  1.
        -11    1    4    4    0    0  0.96480413263E+02  0.13668718583E+03 -0.41382311779E+03  0.44636468244E+03  0.00000000000E+00 0.  1.
         11    1    4    4    0    0  0.63534996421E+02  0.27385808596E+01 -0.17905246406E+03  0.19001047466E+03  0.00000000000E+00 0. -1.
</event>
<event>
 8    1  0.7005395E-009  0.3932409E+03  0.7561462E-02  0.1046146E+00
          1   -1    0    0  501    0  0.00000000000E+00  0.00000000000E+00  0.19343975196E+03  0.19343975196E+03  0.00000000000E+00 0. -1.
         -1   -1    0    0    0  501 -0.00000000000E+00 -0.00000000000E+00 -0.82916464263E+03  0.82916464263E+03  0.00000000000E+00 0.  1.
         25    2    1    2    0    0  0.37933668607E+03 -0.20521773812E+02 -0.40346343551E+03  0.56811219761E+03  0.12510499865E+03 0.  0.
         23    2    1    2    0    0 -0.37933668607E+03  0.20521773812E+02 -0.23226145516E+03  0.45449219698E+03  0.91106031407E+02 0.  0.
          5    1    3    3  502    0  0.21585740182E+03  0.50358475378E+02 -0.21992287676E+03  0.31227221792E+03  0.41800000000E+01 0.  1.
         -5    1    3    3    0  502  0.16347928425E+03 -0.70880249190E+02 -0.18354055874E+03  0.25583997969E+03  0.41800000000E+01 0.  1.
        -11    1    4    4    0    0 -0.26844097407E+03  0.47045141977E+02 -0.13271452937E+03  0.30312860018E+03  0.00000000000E+00 0.  1.
         11    1    4    4    0    0 -0.11089571200E+03 -0.26523368165E+02 -0.99546925797E+02  0.15136359679E+03  0.00000000000E+00 0. -1.
</event>
<event>
 8    1  0.7005395E-009  0.1964981E+03  0.7561462E-02  0.1152728E+00
          1   -1    0    0  501    0  0.00000000000E+00  0.00000000000E+00  0.16532855671E+03  0.16532855671E+03  0.00000000000E+00 0. -1.
         -1   -1    0    0    0  501 -0.00000000000E+00 -0.00000000000E+00 -0.32098032068E+03  0.32098032068E+03  0.00000000000E+00 0.  1.
         25    2    1    2    0    0 -0.84028057398E+02  0.16472881587E+03  0.80215755719E+01  0.22340248852E+03  0.12509208206E+03 0.  0.
         23    2    1    2    0    0  0.84028057398E+02 -0.16472881587E+03 -0.16367333954E+03  0.26290638888E+03  0.90191518603E+02 0.  0.
          5    1    3    3  502    0 -0.59444303818E+02  0.84362211976E+02  0.64764263968E+02  0.12191181384E+03  0.41800000000E+01 0. -1.
         -5    1    3    3    0  502 -0.24583753581E+02  0.80366603892E+02 -0.56742688396E+02  0.10149067468E+03  0.41800000000E+01 0. -1.
        -11    1    4    4    0    0  0.72580893959E+02 -0.45236177176E+02 -0.62682775788E+02  0.10603503324E+03  0.00000000000E+00 0.  1.
         11    1    4    4    0    0  0.11447163439E+02 -0.11949263869E+03 -0.10099056376E+03  0.15687135564E+03  0.00000000000E+00 0. -1.
</event>
<event>
 8    1  0.7005395E-009  0.1200165E+03  0.7561462E-02  0.1243070E+00
          2   -1    0    0  501    0  0.00000000000E+00  0.00000000000E+00  0.11968643744E+04  0.11968643744E+04  0.00000000000E+00 0. -1.
         -2   -1    0    0    0  501 -0.00000000000E+00 -0.00000000000E+00 -0.20483942283E+02  0.20483942283E+02  0.00000000000E+00 0.  1.
         25    2    1    2    0    0 -0.21145549814E+02  0.61855881248E+02  0.98741078644E+03  0.99744713681E+03  0.12508974877E+03 0.  0.
         23    2    1    2    0    0  0.21145549814E+02 -0.61855881248E+02  0.18896964570E+03  0.21990117988E+03  0.91508019307E+02 0.  0.
          5    1    3    3  502    0 -0.69015208047E+02  0.23078153777E+02  0.38172847291E+03  0.38862552612E+03  0.41800000000E+01 0.  1.
         -5    1    3    3    0  502  0.47869658233E+02  0.38777727472E+02  0.60568231353E+03  0.60882161069E+03  0.41800000000E+01 0.  1.
        -11    1    4    4    0    0  0.50301310057E+02 -0.19445596673E+02  0.13477044114E+03  0.14515999734E+03  0.00000000000E+00 0. -1.
         11    1    4    4    0    0 -0.29155760243E+02 -0.42410284576E+02  0.54199204558E+02  0.74741182542E+02  0.00000000000E+00 0.  1.
</event>
<event>
 8    1  0.7005395E-009  0.1052585E+03  0.7561462E-02  0.1269611E+00
         -3   -1    0    0    0  501 -0.00000000000E+00  0.00000000000E+00  0.72669150729E+02  0.72669150729E+02  0.00000000000E+00 0.  1.
          3   -1    0    0  501    0  0.00000000000E+00 -0.00000000000E+00 -0.34627986538E+03  0.34627986538E+03  0.00000000000E+00 0. -1.
         25    2    1    2    0    0  0.86964323143E+01  0.16132657449E+02 -0.28966371795E+03  0.31605147003E+03  0.12509025397E+03 0.  0.
         23    2    1    2    0    0 -0.86964323143E+01 -0.16132657449E+02  0.16053003298E+02  0.10289754608E+03  0.99971573476E+02 0.  0.
          5    1    3    3  502    0 -0.57327011316E+02  0.15650489982E+02 -0.15387199677E+03  0.16500117531E+03  0.41800000000E+01 0.  1.
         -5    1    3    3    0  502  0.66023443630E+02  0.48216746705E+00 -0.13579172118E+03  0.15105029472E+03  0.41800000000E+01 0.  1.
        -11    1    4    4    0    0  0.48119581241E+01 -0.49008935154E+02 -0.19182564684E+02  0.52848854800E+02  0.00000000000E+00 0. -1.
         11    1    4    4    0    0 -0.13508390438E+02  0.32876277705E+02  0.35235567981E+02  0.50048691281E+02  0.00000000000E+00 0.  1.
</event>
<event>
 8    1  0.7005395E-009  0.8312317E+02  0.7561462E-02  0.1320415E+00
          1   -1    0    0  501    0  0.00000000000E+00  0.00000000000E+00  0.12775454475E+03  0.12775454475E+03  0.00000000000E+00 0. -1.
         -1   -1    0    0    0  501 -0.00000000000E+00 -0.00000000000E+00 -0.12565931250E+03  0.12565931250E+03  0.00000000000E+00 0.  1.
         25    2    1    2    0    0 -0.58748573364E+01 -0.58604139619E+02  0.39865979310E+02  0.14389462413E+03  0.12508959756E+03 0.  0.
         23    2    1    2    0    0  0.58748573364E+01  0.58604139619E+02 -0.37770747057E+02  0.10951923312E+03  0.84254815657E+02 0.  0.
          5    1    3    3  502    0 -0.10452150068E+02 -0.19091662087E+01  0.75688477095E+02  0.76544825570E+02  0.41800000000E+01 0. -1.
         -5    1    3    3    0  502  0.45772927316E+01 -0.56694973411E+02 -0.35822497785E+02  0.67349798562E+02  0.41800000000E+01 0. -1.
        -11    1    4    4    0    0 -0.36019454858E+02  0.31898196227E+02 -0.35486206501E+02  0.59784336599E+02  0.00000000000E+00 0.  1.
         11    1    4    4    0    0  0.41894312194E+02  0.26705943392E+02 -0.22845405564E+01  0.49734896524E+02  0.00000000000E+00 0. -1.
</event>
<event>
 8    1  0.7005395E-009  0.1098806E+03  0.7561462E-02  0.1260791E+00
          2   -1    0    0  501    0  0.00000000000E+00  0.00000000000E+00  0.41564479507E+03  0.41564479507E+03  0.00000000000E+00 0. -1.
         -2   -1    0    0    0  501 -0.00000000000E+00 -0.00000000000E+00 -0.48665311259E+02  0.48665311259E+02  0.00000000000E+00 0.  1.
         25    2    1    2    0    0  0.48783914036E+02  0.25592112258E+02  0.79963871164E+02  0.15835796509E+03  0.12509275733E+03 0.  0.
         23    2    1    2    0    0 -0.48783914036E+02 -0.25592112258E+02  0.28701561265E+03  0.30595214124E+03  0.90520297997E+02 0.  0.
          5    1    3    3  502    0  0.47020340031E+02 -0.44856585824E+02  0.28972749538E+02  0.71273545473E+02  0.41800000000E+01 0.  1.
         -5    1    3    3    0  502  0.17635740043E+01  0.70448698082E+02  0.50991121626E+02  0.87084419613E+02  0.41800000000E+01 0.  1.
        -11    1    4    4    0    0 -0.42545107905E+02  0.13364267044E+02  0.55975759590E+02  0.71567978188E+02  0.00000000000E+00 0.  1.
         11    1    4    4    0    0 -0.62388061308E+01 -0.38956379302E+02  0.23103985306E+03  0.23438416305E+03  0.00000000000E+00 0. -1.
</event>
<event>
 8    1  0.7005395E-009  0.1092005E+03  0.7561462E-02  0.1262058E+00
         -1   -1    0    0    0  501 -0.00000000000E+00  0.00000000000E+00  0.87552573953E+03  0.87552573953E+03  0.00000000000E+00 0.  1.
          1   -1    0    0  501    0  0.00000000000E+00 -0.00000000000E+00 -0.55837132863E+02  0.55837132863E+02  0.00000000000E+00 0. -1.
         25    2    1    2    0    0 -0.43975640115E+01  0.69581924591E+02  0.80163941429E+03  0.81433046123E+03  0.12508943498E+03 0.  0.
         23    2    1    2    0    0  0.43975640115E+01 -0.69581924591E+02  0.18049192376E+02  0.11703241116E+03  0.92248735050E+02 0.  0.
          5    1    3    3  502    0  0.11832150861E+02 -0.35046748490E+02  0.20259239500E+03  0.20598404134E+03  0.41800000000E+01 0. -1.
         -5    1    3    3    0  502 -0.16229714873E+02  0.10462867308E+03  0.59904701929E+03  0.60834641989E+03  0.41800000000E+01 0. -1.
        -11    1    4    4    0    0  0.10286014719E+02 -0.72042290560E+01  0.46539491001E+02  0.48204016821E+02  0.00000000000E+00 0.  1.
         11    1    4    4    0    0 -0.58884507075E+01 -0.62377695535E+02 -0.28490298625E+02  0.68828394342E+02  0.00000000000E+00 0. -1.
</event>
<event>
 8    1  0.7005395E-009  0.1134627E+03  0.7561462E-02  0.1254289E+00
         -1   -1    0    0    0  501 -0.00000000000E+00  0.00000000000E+00  0.33251824135E+03  0.33251824135E+03  0.00000000000E+00 0.  1.
          1   -1    0    0  501    0  0.00000000000E+00 -0.00000000000E+00 -0.56261263619E+02  0.56261263619E+02  0.00000000000E+00 0. -1.
         25    2    1    2    0    0  0.29365504716E+02  0.59378280585E+02  0.78862387224E+02  0.16203488616E+03  0.12509162699E+03 0.  0.
         23    2    1    2    0    0 -0.29365504716E+02 -0.59378280585E+02  0.19739459050E+03  0.22674461880E+03  0.89779645375E+02 0.  0.
          5    1    3    3  502    0  0.69644204627E+02  0.58098651721E+02  0.80706817303E+02  0.12147769890E+03  0.41800000000E+01 0.  1.
         -5    1    3    3    0  502 -0.40278699911E+02  0.12796288635E+01 -0.18444300791E+01  0.40557187266E+02  0.41800000000E+01 0.  1.
        -11    1    4    4    0    0 -0.51967780872E+02 -0.45666958445E+02  0.18506795808E+03  0.19757598652E+03  0.00000000000E+00 0.  1.
         11    1    4    4    0    0  0.22602276156E+02 -0.13711322140E+02  0.12326632425E+02  0.29168632282E+02  0.00000000000E+00 0. -1.
</event>
<event>
 8    1  0.7005395E-009  0.1169201E+03  0.7561462E-02  0.1248266E+00
          1   -1    0    0  501    0  0.00000000000E+00  0.00000000000E+00  0.11603563878E+03  0.11603563878E+03  0.00000000000E+00 0. -1.
         -1   -1    0    0    0  501 -0.00000000000E+00 -0.00000000000E+00 -0.15563201181E+03  0.15563201181E+03  0.00000000000E+00 0.  1.
         25    2    1    2    0    0  0.12283644280E+02  0.69121129074E+02 -0.66025745158E+02  0.15790944713E+03  0.12508947225E+03 0.  0.
         23    2    1    2    0    0 -0.12283644280E+02 -0.69121129074E+02  0.26429372129E+02  0.11375820346E+03  0.85520750355E+02 0.  0.
          5    1    3    3  502    0 -0.10284751130E+02 -0.34944462681E+02 -0.20688412965E+02  0.42099577301E+02  0.41800000000E+01 0. -1.
         -5    1    3    3    0  502  0.22568395410E+02  0.10406559176E+03 -0.45337332192E+02  0.11580986983E+03  0.41800000000E+01 0. -1.
        -11    1    4    4    0    0 -0.34424672420E+02 -0.30030384471E+02 -0.19355172884E+02  0.49613554399E+02  0.00000000000E+00 0. -1.
         11    1    4    4    0    0  0.22141028139E+02 -0.39090744604E+02  0.45784545013E+02  0.64144649058E+02  0.00000000000E+00 0.  1.
</event>
<event>
 8    1  0.7005395E-009  0.9367046E+02  0.7561462E-02  0.1294199E+00
         -1   -1    0    0    0  501 -0.00000000000E+00  0.00000000000E+00  0.15395826870E+03  0.15395826870E+03  0.00000000000E+00 0.  1.
          1   -1    0    0  501    0  0.00000000000E+00 -0.00000000000E+00 -0.10626709201E+03  0.10626709201E+03  0.00000000000E+00 0. -1.
         25    2    1    2    0    0  0.67255304781E+02  0.25128658304E+00  0.33532338486E+02  0.14592933530E+03  0.12509042334E+03 0.  0.
         23    2    1    2    0    0 -0.67255304781E+02 -0.25128658304E+00  0.14158838209E+02  0.11429602541E+03  0.91322338772E+02 0.  0.
          5    1    3    3  502    0  0.83958655030E+02  0.22220325925E+02  0.61433626859E+02  0.10646295857E+03  0.41800000000E+01 0. -1.
         -5    1    3    3    0  502 -0.16703350249E+02 -0.21969039342E+02 -0.27901288373E+02  0.39466376728E+02  0.41800000000E+01 0. -1.
        -11    1    4    4    0    0 -0.18424523748E+02 -0.12338020814E+02  0.48539962678E+02  0.53364949262E+02  0.00000000000E+00 0.  1.
         11    1    4    4    0    0 -0.48830781033E+02  0.12086734231E+02 -0.34381124469E+02  0.60931076147E+02  0.00000000000E+00 0. -1.
</event>
<event>
 8    1  0.7005395E-009  0.1422202E+03  0.7561462E-02  0.1210372E+00
         -4   -1    0    0    0  501 -0.00000000000E+00  0.00000000000E+00  0.93376643415E+03  0.93376643415E+03  0.00000000000E+00 0.  1.
          4   -1    0    0  501    0  0.00000000000E+00 -0.00000000000E+00 -0.31830184299E+02  0.31830184299E+02  0.00000000000E+00 0. -1.
         25    2    1    2    0    0  0.84626969567E+02  0.10319921101E+03  0.47341520478E+03  0.50752719639E+03  0.12510035106E+03 0.  0.
         23    2    1    2    0    0 -0.84626969567E+02 -0.10319921101E+03  0.42852104507E+03  0.45806942206E+03  0.91572420625E+02 0.  0.
          5    1    3    3  502    0  0.31598503392E+02  0.20365053855E+02  0.33800516900E+03  0.34011493278E+03  0.41800000000E+01 0. -1.
         -5    1    3    3    0  502  0.53028466175E+02  0.82834157156E+02  0.13541003578E+03  0.16741226361E+03  0.41800000000E+01 0. -1.
        -11    1    4    4    0    0 -0.90349437927E+02 -0.69490059085E+02  0.39114202165E+03  0.40741130365E+03  0.00000000000E+00 0. -1.
         11    1    4    4    0    0  0.57224683605E+01 -0.33709151926E+02  0.37379023425E+02  0.50658118401E+02  0.00000000000E+00 0.  1.
</event>
<event>
 8    1  0.7005395E-009  0.1833390E+03  0.7561462E-02  0.1164610E+00
          2   -1    0    0  501    0  0.00000000000E+00  0.00000000000E+00  0.62766786024E+03  0.62766786024E+03  0.00000000000E+00 0. -1.
         -2   -1    0    0    0  501 -0.00000000000E+00 -0.00000000000E+00 -0.69513947987E+02  0.69513947987E+02  0.00000000000E+00 0.  1.
         25    2    1    2    0    0 -0.19449712692E+02  0.15325705152E+03  0.13695518733E+03  0.24139343392E+03  0.12509217177E+03 0.  0.
         23    2    1    2    0    0  0.19449712692E+02 -0.15325705152E+03  0.42119872492E+03  0.45578837431E+03  0.80427987152E+02 0.  0.
          5    1    3    3  502    0  0.16656595436E+02 -0.13569356067E+02 -0.96351494697E+00  0.21908225776E+02  0.41800000000E+01 0. -1.
         -5    1    3    3    0  502 -0.36106308128E+02  0.16682640758E+03  0.13791870228E+03  0.21948520814E+03  0.41800000000E+01 0. -1.
        -11    1    4    4    0    0 -0.23580909557E+02 -0.11193645905E+03  0.26878899568E+03  0.29211873333E+03  0.00000000000E+00 0.  1.
         11    1    4    4    0    0  0.43030622248E+02 -0.41320592463E+02  0.15240972924E+03  0.16366964098E+03  0.00000000000E+00 0. -1.
</event>
<event>
 8    1  0.7005395E-009  0.1436281E+03  0.7561462E-02  0.1208529E+00
          1   -1    0    0  501    0  0.00000000000E+00  0.00000000000E+00  0.41549870647E+03  0.41549870647E+03  0.00000000000E+00 0. -1.
         -1   -1    0    0    0  501 -0.00000000000E+00 -0.00000000000E+00 -0.49896494893E+02  0.49896494893E+02  0.00000000000E+00 0.  1.
         25    2    1    2    0    0  0.66866619228E+02  0.67859066056E+02  0.19114074627E+03  0.24750276231E+03  0.12508730891E+03 0.  0.
         23    2    1    2    0    0 -0.66866619228E+02 -0.67859066056E+02  0.17446146530E+03  0.21789243905E+03  0.89243008175E+02 0.  0.
          5    1    3    3  502    0  0.51221095576E+02 -0.28719283709E+02  0.80825343765E+02  0.99993032175E+02  0.41800000000E+01 0.  1.
         -5    1    3    3    0  502  0.15645523652E+02  0.96578349764E+02  0.11031540251E+03  0.14750973013E+03  0.41800000000E+01 0.  1.
        -11    1    4    4    0    0 -0.84596463339E+02 -0.73275748948E+02  0.15226680607E+03  0.18897374745E+03  0.00000000000E+00 0. -1.
         11    1    4    4    0    0  0.17729844111E+02  0.54166828923E+01  0.22194659237E+02  0.28918691610E+02  0.00000000000E+00 0.  1.
</event>
<event>
 8    1  0.7005395E-009  0.1682716E+03  0.7561462E-02  0.1179662E+00
         -1   -1    0    0    0  501 -0.00000000000E+00  0.00000000000E+00  0.67010425004E+02  0.67010425004E+02  0.00000000000E+00 0.  1.
          1   -1    0    0  501    0  0.00000000000E+00 -0.00000000000E+00 -0.53839862242E+03  0.53839862242E+03  0.00000000000E+00 0. -1.
         25    2    1    2    0    0  0.34038693598E+01  0.14611560285E+03 -0.33200746423E+03  0.38372179802E+03  0.12510837800E+03 0.  0.
         23    2    1    2    0    0 -0.34038693598E+01 -0.14611560285E+03 -0.13938073319E+03  0.22168724941E+03  0.91416038209E+02 0.  0.
          5    1    3    3  502    0  0.53941192064E+02  0.27152085840E+02 -0.13641974754E+03  0.14924713695E+03  0.41800000000E+01 0.  1.
         -5    1    3    3    0  502 -0.50537322705E+02  0.11896351701E+03 -0.19558771669E+03  0.23447466107E+03  0.41800000000E+01 0.  1.
        -11    1    4    4    0    0 -0.60733438903E+01 -0.33795101093E+02  0.90693836892E+01  0.35514054745E+02  0.00000000000E+00 0.  1.
         11    1    4    4    0    0  0.26694745306E+01 -0.11232050176E+03 -0.14845011688E+03  0.18617319466E+03  0.00000000000E+00 0. -1.
</event>
<event>
 8    1  0.7005395E-009  0.1498107E+03  0.7561462E-02  0.1200706E+00
          1   -1    0    0  501    0  0.00000000000E+00  0.00000000000E+00  0.10078126473E+04  0.10078126473E+04  0.00000000000E+00 0. -1.
         -1   -1    0    0    0  501 -0.00000000000E+00 -0.00000000000E+00 -0.26663456005E+02  0.26663456005E+02  0.00000000000E+00 0.  1.
         25    2    1    2    0    0  0.95729509794E+02  0.76131444450E+02  0.56960097105E+03  0.59586437338E+03  0.12509576080E+03 0.  0.
         23    2    1    2    0    0 -0.95729509794E+02 -0.76131444450E+02  0.41154822022E+03  0.43861172989E+03  0.89711627748E+02 0.  0.
          5    1    3    3  502    0  0.90264226932E+02  0.10711172965E+03  0.41443812691E+03  0.43748941328E+03  0.41800000000E+01 0.  1.
         -5    1    3    3    0  502  0.54652828617E+01 -0.30980285203E+02  0.15516284413E+03  0.15837496010E+03  0.41800000000E+01 0.  1.
        -11    1    4    4    0    0 -0.40493689613E+02 -0.55685282161E+02  0.99162227006E+02  0.12072173298E+03  0.00000000000E+00 0.  1.
         11    1    4    4    0    0 -0.55235820181E+02 -0.20446162289E+02  0.31238599321E+03  0.31788999691E+03  0.00000000000E+00 0. -1.
</event>
<event>
 8    1  0.7005395E-009  0.2173380E+03  0.7561462E-02  0.1135883E+00
          3   -1    0    0  501    0  0.00000000000E+00  0.00000000000E+00  0.77842523665E+03  0.77842523665E+03  0.00000000000E+00 0. -1.
         -3   -1    0    0    0  501 -0.00000000000E+00 -0.00000000000E+00 -0.70205185363E+02  0.70205185363E+02  0.00000000000E+00 0.  1.
         25    2    1    2    0    0 -0.98399085393E+02  0.18014525837E+03  0.41294604538E+03  0.47781443069E+03  0.12508996628E+03 0.  0.
         23    2    1    2    0    0  0.98399085393E+02 -0.18014525837E+03  0.29527400591E+03  0.37081599132E+03  0.90460304762E+02 0.  0.
          5    1    3    3  502    0 -0.57540000787E+02  0.17562606429E+02  0.51268123728E+02  0.79152951592E+02  0.41800000000E+01 0.  1.
         -5    1    3    3    0  502 -0.40859084605E+02  0.16258265194E+03  0.36167792165E+03  0.39866147910E+03  0.41800000000E+01 0.  1.
        -11    1    4    4    0    0  0.34472163891E+02 -0.88181306622E+02  0.65286560165E+02  0.11500699048E+03  0.00000000000E+00 0.  1.
         11    1    4    4    0    0  0.63926921501E+02 -0.91963951747E+02  0.22998744574E+03  0.25580900085E+03  0.00000000000E+00 0. -1.
</event>
<event>
 8    1  0.7005395E-009  0.1036361E+03  0.7561462E-02  0.1272830E+00
         -3   -1    0    0    0  501 -0.00000000000E+00  0.00000000000E+00  0.28777488083E+03  0.28777488083E+03  0.00000000000E+00 0. -1.
          3   -1    0    0  501    0  0.00000000000E+00 -0.00000000000E+00 -0.68827741713E+02  0.68827741713E+02  0.00000000000E+00 0.  1.
         25    2    1    2    0    0 -0.77719261199E+02 -0.44945315989E+02  0.12773553384E+03  0.20005524735E+03  0.12508145504E+03 0.  0.
         23    2    1    2    0    0  0.77719261199E+02  0.44945315989E+02  0.91211605276E+02  0.15654737519E+03  0.90150755692E+02 0.  0.
          5    1    3    3  502    0 -0.53999028950E+02 -0.28765446191E+02  0.15092691573E+03  0.16291025847E+03  0.41800000000E+01 0. -1.
         -5    1    3    3    0  502 -0.23720232249E+02 -0.16179869799E+02 -0.23191381894E+02  0.37144988879E+02  0.41800000000E+01 0. -1.
        -11    1    4    4    0    0  0.12683949276E+02  0.50110551681E+02  0.10466937444E+02  0.52739991833E+02  0.00000000000E+00 0.  1.
         11    1    4    4    0    0  0.65035311923E+02 -0.51652356922E+01  0.80744667831E+02  0.10380738336E+03  0.00000000000E+00 0. -1.
</event>
<event>
 8    1  0.7005395E-009  0.1130404E+03  0.7561462E-02  0.1255041E+00
          1   -1    0    0  501    0  0.00000000000E+00  0.00000000000E+00  0.35956694246E+03  0.35956694246E+03  0.00000000000E+00 0. -1.
         -1   -1    0    0    0  501 -0.00000000000E+00 -0.00000000000E+00 -0.38702390449E+02  0.38702390449E+02  0.00000000000E+00 0.  1.
         25    2    1    2    0    0  0.19311488730E+02 -0.35019978578E+02  0.12903014509E+03  0.18411038917E+03  0.12509406286E+03 0.  0.
         23    2    1    2    0    0 -0.19311488730E+02  0.35019978578E+02  0.19183440692E+03  0.21415894373E+03  0.86396070558E+02 0.  0.
          5    1    3    3  502    0 -0.50152449954E+02  0.51868709415E+01  0.56639214926E+02  0.75945012568E+02  0.41800000000E+01 0.  1.
         -5    1    3    3    0  502  0.69463938683E+02 -0.40206849520E+02  0.72390930169E+02  0.10816537661E+03  0.41800000000E+01 0.  1.
        -11    1    4    4    0    0 -0.48034819613E+02  0.43879286479E+02  0.12694284592E+03  0.14264368829E+03  0.00000000000E+00 0.  1.
         11    1    4    4    0    0  0.28723330883E+02 -0.88593079008E+01  0.64891560993E+02  0.71515255447E+02  0.00000000000E+00 0. -1.
</event>
<event>
 8    1  0.7005395E-009  0.1811463E+03  0.7561462E-02  0.1166698E+00
          2   -1    0    0  501    0  0.00000000000E+00  0.00000000000E+00  0.19165175470E+04  0.19165175470E+04  0.00000000000E+00 0. -1.
         -2   -1    0    0    0  501 -0.00000000000E+00 -0.00000000000E+00 -0.26561881972E+02  0.26561881972E+02  0.00000000000E+00 0.  1.
         25    2    1    2    0    0 -0.15955247190E+03 -0.25701634578E+02  0.14599446132E+04  0.14741789203E+04  0.12509056789E+03 0.  0.
         23    2    1    2    0    0  0.15955247190E+03  0.25701634578E+02  0.43001105186E+03  0.46890050869E+03  0.94024555417E+02 0.  0.
          5    1    3    3  502    0 -0.16714496395E+03 -0.50300705506E+02  0.11551916044E+04  0.11683119084E+04  0.41800000000E+01 0.  1.
         -5    1    3    3    0  502  0.75924920527E+01  0.24599070928E+02  0.30475300877E+03  0.30586701192E+03  0.41800000000E+01 0.  1.
        -11    1    4    4    0    0  0.77494854923E+02  0.12052330844E+02  0.32813362111E+03  0.33737573197E+03  0.00000000000E+00 0. -1.
         11    1    4    4    0    0  0.82057616973E+02  0.13649303734E+02  0.10187743075E+03  0.13152477672E+03  0.00000000000E+00 0.  1.
</event>
<event>
 8    1  0.7005395E-009  0.1121470E+03  0.7561462E-02  0.1256645E+00
          1   -1    0    0  501    0  0.00000000000E+00  0.00000000000E+00  0.43868315713E+02  0.43868315713E+02  0.00000000000E+00 0. -1.
         -1   -1    0    0    0  501 -0.00000000000E+00 -0.00000000000E+00 -0.42858967396E+03  0.42858967396E+03  0.00000000000E+00 0.  1.
         25    2    1    2    0    0 -0.73130169943E+02  0.19616203700E+02 -0.25435717786E+03  0.29338872446E+03  0.12508618032E+03 0.  0.
         23    2    1    2    0    0  0.73130169943E+02 -0.19616203700E+02 -0.13036418039E+03  0.17906926522E+03  0.96634181390E+02 0.  0.
          5    1    3    3  502    0 -0.98729511001E+02  0.39231660167E+02 -0.14841837258E+03  0.18257087725E+03  0.41800000000E+01 0. -1.
         -5    1    3    3    0  502  0.25599341058E+02 -0.19615456467E+02 -0.10593880528E+03  0.11081784721E+03  0.41800000000E+01 0. -1.
        -11    1    4    4    0    0  0.12244228441E+02 -0.21272318688E+02 -0.11314073528E+03  0.11577244341E+03  0.00000000000E+00 0.  1.
         11    1    4    4    0    0  0.60885941502E+02  0.16561149878E+01 -0.17223445105E+02  0.63296821806E+02  0.00000000000E+00 0. -1.
</event>
<event>
 8    1  0.7005395E-009  0.1304965E+03  0.7561462E-02  0.1226721E+00
         -1   -1    0    0    0  501 -0.00000000000E+00  0.00000000000E+00  0.86075814777E+02  0.86075814777E+02  0.00000000000E+00 0.  1.
          1   -1    0    0  501    0  0.00000000000E+00 -0.00000000000E+00 -0.29216908422E+03  0.29216908422E+03  0.00000000000E+00 0. -1.
         25    2    1    2    0    0 -0.55615939531E+02  0.99889933582E+02 -0.97428195831E+02  0.19548140011E+03  0.12509833286E+03 0.  0.
         23    2    1    2    0    0  0.55615939531E+02 -0.99889933582E+02 -0.10866507361E+03  0.18276349889E+03  0.92321539969E+02 0.  0.
          5    1    3    3  502    0 -0.40796646921E+02  0.97706213122E+02 -0.97240369377E+01  0.10640911510E+03  0.41800000000E+01 0.  1.
         -5    1    3    3    0  502 -0.14819292611E+02  0.21837204602E+01 -0.87704158894E+02  0.89072285004E+02  0.41800000000E+01 0.  1.
        -11    1    4    4    0    0 -0.53582865661E+01 -0.72391410218E+02 -0.27585209132E+02  0.77654177422E+02  0.00000000000E+00 0.  1.
         11    1    4    4    0    0  0.60974226097E+02 -0.27498523364E+02 -0.81079864475E+02  0.10510932146E+03  0.00000000000E+00 0. -1.
</event>
<event>
 8    1  0.7005395E-009  0.9572183E+02  0.7561462E-02  0.1289559E+00
          2   -1    0    0  501    0  0.00000000000E+00  0.00000000000E+00  0.91788834415E+03  0.91788834415E+03  0.00000000000E+00 0. -1.
         -2   -1    0    0    0  501 -0.00000000000E+00 -0.00000000000E+00 -0.18253356011E+02  0.18253356011E+02  0.00000000000E+00 0.  1.
         25    2    1    2    0    0 -0.90486515130E+01  0.62170768304E+02  0.60152026468E+03  0.61759181989E+03  0.12508375052E+03 0.  0.
         23    2    1    2    0    0  0.90486515130E+01 -0.62170768304E+02  0.29811472346E+03  0.31854988027E+03  0.93029862701E+02 0.  0.
          5    1    3    3  502    0 -0.23758237431E+02  0.63475254006E+02  0.13784740119E+03  0.15366502573E+03  0.41800000000E+01 0.  1.
         -5    1    3    3    0  502  0.14709585918E+02 -0.13044857021E+01  0.46367286349E+03  0.46392679416E+03  0.41800000000E+01 0.  1.
        -11    1    4    4    0    0 -0.23904481416E+02 -0.70297884497E+02  0.24028694711E+03  0.25149758199E+03  0.00000000000E+00 0.  1.
         11    1    4    4    0    0  0.32953132929E+02  0.81271161930E+01  0.57827776347E+02  0.67052298281E+02  0.00000000000E+00 0. -1.
</event>
<event>
 8    1  0.7005395E-009  0.1227476E+03  0.7561462E-02  0.1238632E+00
         -2   -1    0    0    0  501 -0.00000000000E+00  0.00000000000E+00  0.24478783913E+02  0.24478783913E+02  0.00000000000E+00 0. -1.
          2   -1    0    0  501    0  0.00000000000E+00 -0.00000000000E+00 -0.71471306025E+03  0.71471306025E+03  0.00000000000E+00 0.  1.
         25    2    1    2    0    0 -0.58419675139E+02  0.45553819485E+02 -0.43827215621E+03  0.46175277415E+03  0.12508050455E+03 0.  0.
         23    2    1    2    0    0  0.58419675139E+02 -0.45553819485E+02 -0.25196212013E+03  0.27743907002E+03  0.89440028376E+02 0.  0.
          5    1    3    3  502    0  0.13260786888E+02  0.64641578443E+02 -0.26690952508E+03  0.27497736108E+03  0.41800000000E+01 0.  1.
         -5    1    3    3    0  502 -0.71680462027E+02 -0.19087758957E+02 -0.17136263113E+03  0.18677541307E+03  0.41800000000E+01 0.  1.
        -11    1    4    4    0    0 -0.17646036626E+02 -0.29375425357E+01 -0.10536495109E+03  0.10687274996E+03  0.00000000000E+00 0.  1.
         11    1    4    4    0    0  0.76065711765E+02 -0.42616276950E+02 -0.14659716904E+03  0.17056632006E+03  0.00000000000E+00 0. -1.
</event>
<event>
 8    1  0.7005395E-009  0.1341234E+03  0.7561462E-02  0.1221463E+00
         -2   -1    0    0    0  501 -0.00000000000E+00  0.00000000000E+00  0.23763797561E+02  0.23763797561E+02  0.00000000000E+00 0. -1.
          2   -1    0    0  501    0  0.00000000000E+00 -0.00000000000E+00 -0.10568589034E+04  0.10568589034E+04  0.00000000000E+00 0.  1.
         25    2    1    2    0    0 -0.10285321395E+03 -0.36794189754E+02 -0.67298190498E+03  0.69317023562E+03  0.12509090734E+03 0.  0.
         23    2    1    2    0    0  0.10285321395E+03  0.36794189754E+02 -0.36011320090E+03  0.38745246538E+03  0.92224180403E+02 0.  0.
          5    1    3    3  502    0 -0.25315497484E+02  0.23528434002E+02 -0.42473281207E+03  0.42615712557E+03  0.41800000000E+01 0. -1.
         -5    1    3    3    0  502 -0.77537716462E+02 -0.60322623756E+02 -0.24824909291E+03  0.26701311005E+03  0.41800000000E+01 0. -1.
        -11    1    4    4    0    0  0.10686871738E+03  0.92474487322E+01 -0.32725762394E+03  0.34438930077E+03  0.00000000000E+00 0. -1.
         11    1    4    4    0    0 -0.40155034316E+01  0.27546741022E+02 -0.32855576963E+02  0.43063164611E+02  0.00000000000E+00 0.  1.
</event>
<event>
 8    1  0.7005395E-009  0.1114150E+03  0.7561462E-02  0.1257972E+00
          4   -1    0    0  501    0  0.00000000000E+00  0.00000000000E+00  0.27188482160E+03  0.27188482160E+03  0.00000000000E+00 0.  1.
         -4   -1    0    0    0  501 -0.00000000000E+00 -0.00000000000E+00 -0.52315635791E+02  0.52315635791E+02  0.00000000000E+00 0. -1.
         25    2    1    2    0    0  0.14198444755E+02  0.40323696744E+02  0.16450150694E+03  0.21103557152E+03  0.12509064837E+03 0.  0.
         23    2    1    2    0    0 -0.14198444755E+02 -0.40323696744E+02  0.55067678867E+02  0.11316488587E+03  0.89141717424E+02 0.  0.
          5    1    3    3  502    0  0.47875865855E+02  0.67869470826E+02  0.13410349977E+03  0.15779602229E+03  0.41800000000E+01 0.  1.
         -5    1    3    3    0  502 -0.33677421100E+02 -0.27545774083E+02  0.30398007172E+02  0.53239549226E+02  0.41800000000E+01 0.  1.
        -11    1    4    4    0    0 -0.23746452909E+02  0.22322152232E+02  0.62800885592E+01  0.33190541097E+02  0.00000000000E+00 0. -1.
         11    1    4    4    0    0  0.95480081538E+01 -0.62645848976E+02  0.48787590308E+02  0.79974344771E+02  0.00000000000E+00 0.  1.
</event>
<event>
 8    1  0.7005395E-009  0.1154706E+03  0.7561462E-02  0.1250762E+00
          2   -1    0    0  501    0  0.00000000000E+00  0.00000000000E+00  0.49047845288E+03  0.49047845288E+03  0.00000000000E+00 0. -1.
         -2   -1    0    0    0  501 -0.00000000000E+00 -0.00000000000E+00 -0.41729368885E+02  0.41729368885E+02  0.00000000000E+00 0.  1.
         25    2    1    2    0    0 -0.17849304278E+01 -0.95633518001E+02  0.22182695901E+03  0.27203462360E+03  0.12508669374E+03 0.  0.
         23    2    1    2    0    0  0.17849304278E+01  0.95633518001E+02  0.22692212499E+03  0.26017319817E+03  0.83949309075E+02 0.  0.
          5    1    3    3  502    0 -0.20491003873E+02  0.42152881999E+01 -0.63268948057E+01  0.22252008723E+02  0.41800000000E+01 0. -1.
         -5    1    3    3    0  502  0.18706073445E+02 -0.99848806201E+02  0.22815385382E+03  0.24978261488E+03  0.41800000000E+01 0. -1.
        -11    1    4    4    0    0 -0.22709786833E+02  0.28300064039E+02  0.20514133571E+02  0.41682822826E+02  0.00000000000E+00 0.  1.
         11    1    4    4    0    0  0.24494717261E+02  0.67333453962E+02  0.20640799142E+03  0.21849037534E+03  0.00000000000E+00 0. -1.
</event>
<event>
 8    1  0.7005395E-009  0.1547439E+03  0.7561462E-02  0.1194762E+00
          1   -1    0    0  501    0  0.00000000000E+00  0.00000000000E+00  0.20186712318E+03  0.20186712318E+03  0.00000000000E+00 0. -1.
         -1   -1    0    0    0  501 -0.00000000000E+00 -0.00000000000E+00 -0.23188597160E+03  0.23188597160E+03  0.00000000000E+00 0.  1.
         25    2    1    2    0    0  0.55418229240E+02  0.11744653133E+03  0.11864297733E+03  0.21584722331E+03  0.12509596271E+03 0.  0.
         23    2    1    2    0    0 -0.55418229240E+02 -0.11744653133E+03 -0.14866182575E+03  0.21790587147E+03  0.92291725147E+02 0.  0.
          5    1    3    3  502    0  0.30519309095E+01 -0.12845605534E+02 -0.16067687761E+02  0.21212422158E+02  0.41800000000E+01 0.  1.
         -5    1    3    3    0  502  0.52366298330E+02  0.13029213687E+03  0.13471066510E+03  0.19463480116E+03  0.41800000000E+01 0.  1.
        -11    1    4    4    0    0  0.18305512434E+02 -0.23283027213E+01 -0.37188840325E+02  0.41515329985E+02  0.00000000000E+00 0.  1.
         11    1    4    4    0    0 -0.73723741673E+02 -0.11511822861E+03 -0.11147298542E+03  0.17639054148E+03  0.00000000000E+00 0. -1.
</event>
<event>
 8    1  0.7005395E-009  0.2013736E+03  0.7561462E-02  0.1148585E+00
         -1   -1    0    0    0  501 -0.00000000000E+00  0.00000000000E+00  0.85688883639E+03  0.85688883639E+03  0.00000000000E+00 0.  1.
          1   -1    0    0  501    0  0.00000000000E+00 -0.00000000000E+00 -0.52897189814E+02  0.52897189814E+02  0.00000000000E+00 0. -1.
         25    2    1    2    0    0 -0.16903812312E+03  0.60453916528E+02  0.50333983218E+03  0.54884333142E+03  0.12509777252E+03 0.  0.
         23    2    1    2    0    0  0.16903812312E+03 -0.60453916528E+02  0.30065181440E+03  0.36094269479E+03  0.87518868423E+02 0.  0.
          5    1    3    3  502    0 -0.16255033659E+03  0.81370605082E+02  0.35519013635E+03  0.39902542859E+03  0.41800000000E+01 0.  1.
         -5    1    3    3    0  502 -0.64877865283E+01 -0.20916688554E+02  0.14814969583E+03  0.14981790283E+03  0.41800000000E+01 0.  1.
        -11    1    4    4    0    0  0.65095448221E+02  0.18978569724E+02  0.85244592602E+02  0.10892311075E+03  0.00000000000E+00 0. -1.
         11    1    4    4    0    0  0.10394267490E+03 -0.79432486252E+02  0.21540722179E+03  0.25201958404E+03  0.00000000000E+00 0.  1.
</event>
<event>
 8    1  0.7005395E-009  0.1038138E+03  0.7561462E-02  0.1272475E+00
         -2   -1    0    0    0  501 -0.00000000000E+00  0.00000000000E+00  0.41232024549E+03  0.41232024549E+03  0.00000000000E+00 0.  1.
          2   -1    0    0  501    0  0.00000000000E+00 -0.00000000000E+00 -0.36580881682E+02  0.36580881682E+02  0.00000000000E+00 0. -1.
         25    2    1    2    0    0 -0.30075416041E+01  0.51038834841E+02  0.26151051303E+03  0.29436276569E+03  0.12509069283E+03 0.  0.
         23    2    1    2    0    0  0.30075416041E+01 -0.51038834841E+02  0.11422885078E+03  0.15453836148E+03  0.90663481353E+02 0.  0.
          5    1    3    3  502    0  0.34609132470E+02  0.74981226537E+02  0.21224358612E+03  0.22778232730E+03  0.41800000000E+01 0.  1.
         -5    1    3    3    0  502 -0.37616674075E+02 -0.23942391696E+02  0.49266926911E+02  0.66580438387E+02  0.41800000000E+01 0.  1.
        -11    1    4    4    0    0 -0.81676905131E+01 -0.63148887049E+02  0.12099329687E+03  0.13672553160E+03  0.00000000000E+00 0.  1.
         11    1    4    4    0    0  0.11175232117E+02  0.12110052208E+02 -0.67644460939E+01  0.17812829880E+02  0.00000000000E+00 0. -1.
</event>
<event>
 8    1  0.7005395E-009  0.3453960E+03  0.7561462E-02  0.1064521E+00
         -2   -1    0    0    0  501 -0.00000000000E+00  0.00000000000E+00  0.13818335260E+04  0.13818335260E+04  0.00000000000E+00 0.  1.
          2   -1    0    0  501    0  0.00000000000E+00 -0.00000000000E+00 -0.10515339674E+03  0.10515339674E+03  0.00000000000E+00 0. -1.
         25    2    1    2    0    0 -0.47749457392E+02 -0.32528032116E+03  0.33522066703E+03  0.48590618739E+03  0.12507849267E+03 0.  0.
         23    2    1    2    0    0  0.47749457392E+02  0.32528032116E+03  0.94145946219E+03  0.10010807353E+04  0.87917129414E+02 0.  0.
          5    1    3    3  502    0 -0.81386837407E+02 -0.29538846157E+03  0.29659175598E+03  0.42645316583E+03  0.41800000000E+01 0.  1.
         -5    1    3    3    0  502  0.33637380015E+02 -0.29891859589E+02  0.38628911044E+02  0.59453021559E+02  0.41800000000E+01 0.  1.
        -11    1    4    4    0    0 -0.17951570872E+02  0.19875494543E+02  0.99302303728E+02  0.10285057951E+03  0.00000000000E+00 0. -1.
         11    1    4    4    0    0  0.65701028264E+02  0.30540482661E+03  0.84215715846E+03  0.89823015579E+03  0.00000000000E+00 0.  1.
</event>
<event>
 8    1  0.7005395E-009  0.3613637E+03  0.7561462E-02  0.1058045E+00
         -1   -1    0    0    0  501 -0.00000000000E+00  0.00000000000E+00  0.95179635117E+02  0.95179635117E+02  0.00000000000E+00 0. -1.
          1   -1    0    0  501    0  0.00000000000E+00 -0.00000000000E+00 -0.14808714294E+04  0.14808714294E+04  0.00000000000E+00 0.  1.
         25    2    1    2    0    0 -0.15763781771E+03 -0.31989770976E+03 -0.62894725220E+03  0.73376209965E+03  0.12509175256E+03 0.  0.
         23    2    1    2    0    0  0.15763781771E+03  0.31989770976E+03 -0.75674454211E+03  0.84228896489E+03  0.98000877968E+02 0.  0.
          5    1    3    3  502    0 -0.89546180977E+02 -0.24044379342E+03 -0.33684305126E+03  0.42345300791E+03  0.41800000000E+01 0.  1.
         -5    1    3    3    0  502 -0.68091636734E+02 -0.79453916331E+02 -0.29210420094E+03  0.31030909175E+03  0.41800000000E+01 0.  1.
        -11    1    4    4    0    0  0.12942260549E+03  0.30040884281E+03 -0.72578149530E+03  0.79608696923E+03  0.00000000000E+00 0.  1.
         11    1    4    4    0    0  0.28215212222E+02  0.19488866946E+02 -0.30963046806E+02  0.46201995661E+02  0.00000000000E+00 0. -1.
</event>
<event>
 8    1  0.7005395E-009  0.1792110E+03  0.7561462E-02  0.1168569E+00
         -3   -1    0    0    0  501 -0.00000000000E+00  0.00000000000E+00  0.55270785313E+03  0.55270785313E+03  0.00000000000E+00 0.  1.
          3   -1    0    0  501    0  0.00000000000E+00 -0.00000000000E+00 -0.10119373672E+03  0.10119373672E+03  0.00000000000E+00 0. -1.
         25    2    1    2    0    0 -0.15726481135E+03  0.51309800170E+02  0.54980482932E+02  0.21455913267E+03  0.12509137231E+03 0.  0.
         23    2    1    2    0    0  0.15726481135E+03 -0.51309800170E+02  0.39653363347E+03  0.43934245718E+03  0.91749418106E+02 0.  0.
          5    1    3    3  502    0 -0.12516431595E+03  0.81777314308E+01  0.86193533480E+02  0.15224906861E+03  0.41800000000E+01 0. -1.
         -5    1    3    3    0  502 -0.32100495407E+02  0.43132068740E+02 -0.31213050548E+02  0.62310064064E+02  0.41800000000E+01 0. -1.
        -11    1    4    4    0    0  0.49474232244E+02  0.15898483624E+02  0.58596518790E+02  0.78319942875E+02  0.00000000000E+00 0.  1.
         11    1    4    4    0    0  0.10779057911E+03 -0.67208283794E+02  0.33793711468E+03  0.36102251430E+03  0.00000000000E+00 0. -1.
</event>
<event>
 8    1  0.7005395E-009  0.1033138E+03  0.7561462E-02  0.1273478E+00
         -1   -1    0    0    0  501 -0.00000000000E+00  0.00000000000E+00  0.13304022770E+02  0.13304022770E+02  0.00000000000E+00 0.  1.
          1   -1    0    0  501    0  0.00000000000E+00 -0.00000000000E+00 -0.13165920423E+04  0.13165920423E+04  0.00000000000E+00 0. -1.
         25    2    1    2    0    0 -0.22925555500E+02 -0.23169783611E+02 -0.10523344413E+04  0.10602441935E+04  0.12509018178E+03 0.  0.
         23    2    1    2    0    0  0.22925555500E+02  0.23169783611E+02 -0.25095357819E+03  0.26965187151E+03  0.93123645951E+02 0.  0.
          5    1    3    3  502    0  0.13842906453E+02  0.47219218191E+02 -0.44225955138E+03  0.44500816151E+03  0.41800000000E+01 0. -1.
         -5    1    3    3    0  502 -0.36768461953E+02 -0.70389001802E+02 -0.61007488993E+03  0.61523603202E+03  0.41800000000E+01 0. -1.
        -11    1    4    4    0    0 -0.15174774517E+02  0.34733475594E+02 -0.20660010977E+03  0.21004831221E+03  0.00000000000E+00 0.  1.
         11    1    4    4    0    0  0.38100330017E+02 -0.11563691983E+02 -0.44353468428E+02  0.59603559301E+02  0.00000000000E+00 0. -1.
</event>
<event>
 8    1  0.7005395E-009  0.1429198E+03  0.7561462E-02  0.1209453E+00
         -2   -1    0    0    0  501 -0.00000000000E+00  0.00000000000E+00  0.10634493966E+03  0.10634493966E+03  0.00000000000E+00 0. -1.
          2   -1    0    0  501    0  0.00000000000E+00 -0.00000000000E+00 -0.21961565427E+03  0.21961565427E+03  0.00000000000E+00 0.  1.
         25    2    1    2    0    0  0.36212089837E+01 -0.10344487854E+03 -0.92840075933E+02  0.18703181729E+03  0.12509062686E+03 0.  0.
         23    2    1    2    0    0 -0.36212089837E+01  0.10344487854E+03 -0.20430638681E+02  0.13892877664E+03  0.90387155789E+02 0.  0.
          5    1    3    3  502    0  0.34462345228E+02  0.14911663731E+02 -0.35657105230E+02  0.51951058769E+02  0.41800000000E+01 0. -1.
         -5    1    3    3    0  502 -0.30841136245E+02 -0.11835654227E+03 -0.57182970703E+02  0.13508075852E+03  0.41800000000E+01 0. -1.
        -11    1    4    4    0    0 -0.37392124202E+02  0.49540777895E+02 -0.38203606867E+02  0.72883298529E+02  0.00000000000E+00 0.  1.
         11    1    4    4    0    0  0.33770915218E+02  0.53904100643E+02  0.17772968186E+02  0.66045478112E+02  0.00000000000E+00 0. -1.
</event>
<event>
 8    1  0.7005395E-009  0.1342031E+03  0.7561462E-02  0.1221349E+00
          2   -1    0    0  501    0  0.00000000000E+00  0.00000000000E+00  0.27017007607E+03  0.27017007607E+03  0.00000000000E+00 0. -1.
         -2   -1    0    0    0  501 -0.00000000000E+00 -0.00000000000E+00 -0.84491043293E+02  0.84491043293E+02  0.00000000000E+00 0.  1.
         25    2    1    2    0    0 -0.10468472424E+03 -0.41998126765E+01  0.10252101073E+03  0.19270510999E+03  0.12509265309E+03 0.  0.
         23    2    1    2    0    0  0.10468472424E+03  0.41998126765E+01  0.83158022041E+02  0.16195600937E+03  0.91312443985E+02 0.  0.
          5    1    3    3  502    0 -0.12698142757E+03  0.11632048171E+01  0.52415577123E+02  0.13744271940E+03  0.41800000000E+01 0. -1.
         -5    1    3    3    0  502  0.22296703325E+02 -0.53630174936E+01  0.50105433611E+02  0.55262390585E+02  0.41800000000E+01 0. -1.
        -11    1    4    4    0    0  0.10550769011E+03  0.15561123857E+02  0.96907465267E+02  0.14410093016E+03  0.00000000000E+00 0. -1.
         11    1    4    4    0    0 -0.82296587494E+00 -0.11361311180E+02 -0.13749443227E+02  0.17855079210E+02  0.00000000000E+00 0.  1.
</event>
<event>
 8    1  0.7005395E-009  0.1086187E+03  0.7561462E-02  0.1263149E+00
         -1   -1    0    0    0  501 -0.00000000000E+00  0.00000000000E+00  0.21407412699E+02  0.21407412699E+02  0.00000000000E+00 0.  1.
          1   -1    0    0  501    0  0.00000000000E+00 -0.00000000000E+00 -0.58776727772E+03  0.58776727772E+03  0.00000000000E+00 0. -1.
         25    2    1    2    0    0 -0.42966347159E+01  0.10390936195E+02 -0.27985261317E+03  0.30674643842E+03  0.12509780078E+03 0.  0.
         23    2    1    2    0    0  0.42966347159E+01 -0.10390936195E+02 -0.28650725185E+03  0.30242825200E+03  0.96176970322E+02 0.  0.
          5    1    3    3  502    0 -0.55028428517E+02 -0.24915058059E+02 -0.10453044328E+03  0.12080138259E+03  0.41800000000E+01 0.  1.
         -5    1    3    3    0  502  0.50731793801E+02  0.35305994254E+02 -0.17532216989E+03  0.18594505583E+03  0.41800000000E+01 0.  1.
        -11    1    4    4    0    0 -0.28237144239E+02 -0.41188883125E+02 -0.11945694854E+03  0.12947518281E+03  0.00000000000E+00 0.  1.
         11    1    4    4    0    0  0.32533778954E+02  0.30797946930E+02 -0.16705030330E+03  0.17295306919E+03  0.00000000000E+00 0. -1.
</event>
<event>
 8    1  0.7005395E-009  0.8948436E+02  0.7561462E-02  0.1304105E+00
          2   -1    0    0  501    0  0.00000000000E+00  0.00000000000E+00  0.65017677369E+03  0.65017677369E+03  0.00000000000E+00 0.  1.
         -2   -1    0    0    0  501 -0.00000000000E+00 -0.00000000000E+00 -0.25239979696E+02  0.25239979696E+02  0.00000000000E+00 0. -1.
         25    2    1    2    0    0  0.61165560672E+02 -0.28638999346E+02  0.36856473109E+03  0.39502630709E+03  0.12507759269E+03 0.  0.
         23    2    1    2    0    0 -0.61165560672E+02  0.28638999346E+02  0.25637206290E+03  0.28039044629E+03  0.91272940355E+02 0.  0.
          5    1    3    3  502    0 -0.77545250617E+01  0.88403729886E+01 -0.48850589116E+01  0.13402277944E+02  0.41800000000E+01 0.  1.
         -5    1    3    3    0  502  0.68920085734E+02 -0.37479372335E+02  0.37344979000E+03  0.38162402915E+03  0.41800000000E+01 0.  1.
        -11    1    4    4    0    0 -0.53787505164E+02 -0.44995965251E+01  0.23300775877E+03  0.23917766979E+03  0.00000000000E+00 0.  1.
         11    1    4    4    0    0 -0.73780555088E+01  0.33138595871E+02  0.23364304131E+02  0.41212776501E+02  0.00000000000E+00 0. -1.
</event>
<event>
 8    1  0.7005395E-009  0.8343086E+02  0.7561462E-02  0.1319588E+00
         -1   -1    0    0    0  501 -0.00000000000E+00  0.00000000000E+00  0.37753447509E+02  0.37753447509E+02  0.00000000000E+00 0.  1.
          1   -1    0    0  501    0  0.00000000000E+00 -0.00000000000E+00 -0.31959699020E+03  0.31959699020E+03  0.00000000000E+00 0. -1.
         25    2    1    2    0    0  0.29139089459E+01 -0.16718543754E+02 -0.17083379927E+03  0.21241380052E+03  0.12508970824E+03 0.  0.
         23    2    1    2    0    0 -0.29139089459E+01  0.16718543754E+02 -0.11100974342E+03  0.14493663718E+03  0.91626770617E+02 0.  0.
          5    1    3    3  502    0  0.58631855316E+02 -0.26617220582E+02 -0.61038743521E+02  0.88822134065E+02  0.41800000000E+01 0. -1.
         -5    1    3    3    0  502 -0.55717946370E+02  0.98986768278E+01 -0.10979505575E+03  0.12359166646E+03  0.41800000000E+01 0. -1.
        -11    1    4    4    0    0 -0.16651873861E+02 -0.70936906775E+01  0.10112850146E+02  0.20733429253E+02  0.00000000000E+00 0.  1.
         11    1    4    4    0    0  0.13737964915E+02  0.23812234431E+02 -0.12112259356E+03  0.12420320793E+03  0.00000000000E+00 0. -1.
</event>
<event>
 8    1  0.7005395E-009  0.5706767E+02  0.7561462E-02  0.1410566E+00
          1   -1    0    0  501    0  0.00000000000E+00  0.00000000000E+00  0.51424674098E+02  0.51424674098E+02  0.00000000000E+00 0. -1.
         -1   -1    0    0    0  501 -0.00000000000E+00 -0.00000000000E+00 -0.26764488153E+03  0.26764488153E+03  0.00000000000E+00 0.  1.
         25    2    1    2    0    0 -0.30777773464E+02  0.18616134768E+02 -0.11372240675E+03  0.17284285046E+03  0.12509209945E+03 0.  0.
         23    2    1    2    0    0  0.30777773464E+02 -0.18616134768E+02 -0.10249780068E+03  0.14622670516E+03  0.97890849145E+02 0.  0.
          5    1    3    3  502    0 -0.39289074180E+02  0.33505240507E+02  0.57052363504E+01  0.52117699615E+02  0.41800000000E+01 0. -1.
         -5    1    3    3    0  502  0.85113007160E+01 -0.14889105739E+02 -0.11942764310E+03  0.12072515084E+03  0.41800000000E+01 0. -1.
        -11    1    4    4    0    0  0.11177878954E+02 -0.22105181044E+02 -0.11826493323E+03  0.12083119812E+03  0.00000000000E+00 0.  1.
         11    1    4    4    0    0  0.19599894510E+02  0.34890462759E+01  0.15767132558E+02  0.25395507040E+02  0.00000000000E+00 0. -1.
</event>
<event>
 8    1  0.7005395E-009  0.1140014E+03  0.7561462E-02  0.1253334E+00
         -2   -1    0    0    0  501 -0.00000000000E+00  0.00000000000E+00  0.12865118307E+03  0.12865118307E+03  0.00000000000E+00 0.  1.
          2   -1    0    0  501    0  0.00000000000E+00 -0.00000000000E+00 -0.16045231888E+03  0.16045231888E+03  0.00000000000E+00 0. -1.
         25    2    1    2    0    0  0.34469230109E+02  0.29636220297E+02 -0.99645843511E+02  0.16626257314E+03  0.12509003046E+03 0.  0.
         23    2    1    2    0    0 -0.34469230109E+02 -0.29636220297E+02  0.67844707709E+02  0.12284092881E+03  0.91763587813E+02 0.  0.
          5    1    3    3  502    0  0.71493550529E+02  0.52129153598E+02 -0.57030031421E+02  0.10535024113E+03  0.41800000000E+01 0. -1.
         -5    1    3    3    0  502 -0.37024320420E+02 -0.22492933300E+02 -0.42615812091E+02  0.60912332013E+02  0.41800000000E+01 0. -1.
        -11    1    4    4    0    0 -0.52335120854E+02 -0.47470837645E+02  0.67317340298E+02  0.97591339812E+02  0.00000000000E+00 0.  1.
         11    1    4    4    0    0  0.17865890745E+02  0.17834617347E+02  0.52736741120E+00  0.25249588995E+02  0.00000000000E+00 0. -1.
</event>
<event>
 8    1  0.7005395E-009  0.1541067E+03  0.7561462E-02  0.1195516E+00
          2   -1    0    0  501    0  0.00000000000E+00  0.00000000000E+00  0.25614067218E+03  0.25614067218E+03  0.00000000000E+00 0. -1.
         -2   -1    0    0    0  501 -0.00000000000E+00 -0.00000000000E+00 -0.19438083354E+03  0.19438083354E+03  0.00000000000E+00 0.  1.
         25    2    1    2    0    0  0.10166045017E+03  0.63479535383E+02  0.18663654838E+03  0.25464676229E+03  0.12508906354E+03 0.  0.
         23    2    1    2    0    0 -0.10166045017E+03 -0.63479535383E+02 -0.12487670973E+03  0.19587474342E+03  0.91696368173E+02 0.  0.
          5    1    3    3  502    0  0.11453750039E+03  0.84086010371E+02  0.17951828667E+03  0.22898380682E+03  0.41800000000E+01 0. -1.
         -5    1    3    3    0  502 -0.12877050223E+02 -0.20606474989E+02  0.71182617008E+01  0.25662955472E+02  0.41800000000E+01 0. -1.
        -11    1    4    4    0    0 -0.76407430604E+02 -0.36823280341E+01 -0.32832084963E+02  0.83244223789E+02  0.00000000000E+00 0. -1.
         11    1    4    4    0    0 -0.25253019567E+02 -0.59797207349E+02 -0.92044624772E+02  0.11263051964E+03  0.00000000000E+00 0.  1.
</event>
<event>
 8    1  0.7005395E-009  0.6511829E+02  0.7561462E-02  0.1377527E+00
          2   -1    0    0  501    0  0.00000000000E+00  0.00000000000E+00  0.13019144118E+03  0.13019144118E+03  0.00000000000E+00 0. -1.
         -2   -1    0    0    0  501 -0.00000000000E+00 -0.00000000000E+00 -0.11103170162E+03  0.11103170162E+03  0.00000000000E+00 0.  1.
         25    2    1    2    0    0 -0.25795249464E+02  0.16475280232E+02  0.54974788352E+02  0.14002124429E+03  0.12508753633E+03 0.  0.
         23    2    1    2    0    0  0.25795249464E+02 -0.16475280232E+02 -0.35815048793E+02  0.10120189851E+03  0.89567163562E+02 0.  0.
          5    1    3    3  502    0 -0.15029508359E+02  0.13008806160E+00 -0.40013690476E+02  0.42947303407E+02  0.41800000000E+01 0.  1.
         -5    1    3    3    0  502 -0.10765741105E+02  0.16345192170E+02  0.94988478828E+02  0.97073940884E+02  0.41800000000E+01 0.  1.
        -11    1    4    4    0    0 -0.33612967068E+02 -0.85913517471E+01 -0.11908161425E+02  0.36680337901E+02  0.00000000000E+00 0.  1.
         11    1    4    4    0    0  0.59408216532E+02 -0.78839284847E+01 -0.23906887368E+02  0.64521560610E+02  0.00000000000E+00 0. -1.
</event>
<event>
 8    1  0.7005395E-009  0.8151323E+02  0.7561462E-02  0.1324811E+00
          2   -1    0    0  501    0  0.00000000000E+00  0.00000000000E+00  0.60086406218E+03  0.60086406218E+03  0.00000000000E+00 0. -1.
         -2   -1    0    0    0  501 -0.00000000000E+00 -0.00000000000E+00 -0.19779376500E+02  0.19779376500E+02  0.00000000000E+00 0.  1.
         25    2    1    2    0    0 -0.10885460160E+02 -0.10508576929E+02  0.34818912679E+03  0.37028614397E+03  0.12508891626E+03 0.  0.
         23    2    1    2    0    0  0.10885460160E+02  0.10508576929E+02  0.23289555889E+03  0.25035729471E+03  0.90606347627E+02 0.  0.
          5    1    3    3  502    0 -0.37141236107E+02 -0.20787240311E+02  0.33693863791E+03  0.33964201580E+03  0.41800000000E+01 0.  1.
         -5    1    3    3    0  502  0.26255775946E+02  0.10278663382E+02  0.11250488878E+02  0.30644128173E+02  0.41800000000E+01 0.  1.
        -11    1    4    4    0    0  0.30586985896E+02 -0.32389261273E+02  0.11909690019E+03  0.12715620153E+03  0.00000000000E+00 0. -1.
         11    1    4    4    0    0 -0.19701525735E+02  0.42897838202E+02  0.11379865870E+03  0.12320109318E+03  0.00000000000E+00 0.  1.
</event>
<event>
 8    1  0.7005395E-009  0.1832274E+03  0.7561462E-02  0.1164716E+00
         -1   -1    0    0    0  501 -0.00000000000E+00  0.00000000000E+00  0.85421597964E+02  0.85421597964E+02  0.00000000000E+00 0.  1.
          1   -1    0    0  501    0  0.00000000000E+00 -0.00000000000E+00 -0.44838791027E+03  0.44838791027E+03  0.00000000000E+00 0. -1.
         25    2    1    2    0    0  0.14155549192E+03 -0.63327896452E+02 -0.12614951888E+03  0.23581675338E+03  0.12508980893E+03 0.  0.
         23    2    1    2    0    0 -0.14155549192E+03  0.63327896452E+02 -0.23681679342E+03  0.29799275485E+03  0.93108047625E+02 0.  0.
          5    1    3    3  502    0  0.92548440383E+02 -0.91775290150E+02 -0.12243956317E+03  0.17887659637E+03  0.41800000000E+01 0.  1.
         -5    1    3    3    0  502  0.49007051540E+02  0.28447393697E+02 -0.37099557027E+01  0.56940157008E+02  0.41800000000E+01 0.  1.
        -11    1    4    4    0    0 -0.13172975721E+03  0.84076046442E+02 -0.19131996043E+03  0.24703205820E+03  0.00000000000E+00 0.  1.
         11    1    4    4    0    0 -0.98257347178E+01 -0.20748149990E+02 -0.45496832990E+02  0.50960696648E+02  0.00000000000E+00 0. -1.
</event>
<event>
 8    1  0.7005395E-009  0.2376201E+03  0.7561462E-02  0.1121388E+00
          2   -1    0    0  501    0  0.00000000000E+00  0.00000000000E+00  0.21916742758E+04  0.21916742758E+04  0.00000000000E+00 0. -1.
         -2   -1    0    0    0  501 -0.00000000000E+00 -0.00000000000E+00 -0.28051917729E+02  0.28051917729E+02  0.00000000000E+00 0.  1.
         25    2    1    2    0    0  0.57458824310E+02  0.20398867532E+03  0.14225007518E+04  0.14436301806E+04  0.12508722315E+03 0.  0.
         23    2    1    2    0    0 -0.57458824310E+02 -0.20398867532E+03  0.74112160627E+03  0.77609601291E+03  0.90282278502E+02 0.  0.
          5    1    3    3  502    0 -0.16116900922E+02 -0.10046358826E+02  0.95378325320E+02  0.97340542232E+02  0.41800000000E+01 0. -1.
         -5    1    3    3    0  502  0.73575725232E+02  0.21403503415E+03  0.13271224265E+04  0.13462896384E+04  0.41800000000E+01 0. -1.
        -11    1    4    4    0    0 -0.60465365986E+02 -0.59245100810E+02  0.24063548380E+03  0.25509111807E+03  0.00000000000E+00 0.  1.
         11    1    4    4    0    0  0.30065416765E+01 -0.14474357451E+03  0.50048612247E+03  0.52100489483E+03  0.00000000000E+00 0. -1.
</event>
<event>
 8    1  0.7005395E-009  0.2262538E+03  0.7561462E-02  0.1129305E+00
          3   -1    0    0  501    0  0.00000000000E+00  0.00000000000E+00  0.13461347246E+03  0.13461347246E+03  0.00000000000E+00 0. -1.
         -3   -1    0    0    0  501 -0.00000000000E+00 -0.00000000000E+00 -0.44154268543E+03  0.44154268543E+03  0.00000000000E+00 0.  1.
         25    2    1    2    0    0  0.26651972415E+02 -0.21533388317E+03 -0.13280856341E+03  0.28348455897E+03  0.12508545791E+03 0.  0.
         23    2    1    2    0    0 -0.26651972415E+02  0.21533388317E+03 -0.17412064955E+03  0.29267159892E+03  0.90882645959E+02 0.  0.
          5    1    3    3  502    0  0.46884308061E+01 -0.66033378960E+02  0.19396245480E+02  0.69109154669E+02  0.41800000000E+01 0. -1.
         -5    1    3    3    0  502  0.21963541609E+02 -0.14930050421E+03 -0.15220480889E+03  0.21437540430E+03  0.41800000000E+01 0. -1.
        -11    1    4    4    0    0 -0.44000828994E+02  0.21324436541E+03 -0.16240919310E+03  0.27163574568E+03  0.00000000000E+00 0. -1.
         11    1    4    4    0    0  0.17348856579E+02  0.20895177679E+01 -0.11711456456E+02  0.21035853237E+02  0.00000000000E+00 0.  1.
</event>
<event>
 8    1  0.7005395E-009  0.2331903E+03  0.7561462E-02  0.1124414E+00
         -2   -1    0    0    0  501 -0.00000000000E+00  0.00000000000E+00  0.18319123136E+04  0.18319123136E+04  0.00000000000E+00 0.  1.
          2   -1    0    0  501    0  0.00000000000E+00 -0.00000000000E+00 -0.36571421493E+02  0.36571421493E+02  0.00000000000E+00 0. -1.
         25    2    1    2    0    0  0.27298304981E+02  0.22103088461E+03  0.11890222451E+04  0.12161499809E+04  0.12508807739E+03 0.  0.
         23    2    1    2    0    0 -0.27298304981E+02 -0.22103088461E+03  0.60631864696E+03  0.65233375422E+03  0.91198551775E+02 0.  0.
          5    1    3    3  502    0 -0.15670796483E+01  0.16295676289E+03  0.54503135693E+03  0.56888840271E+03  0.41800000000E+01 0. -1.
         -5    1    3    3    0  502  0.28865384630E+02  0.58074121717E+02  0.64399088821E+03  0.64726157814E+03  0.41800000000E+01 0. -1.
        -11    1    4    4    0    0  0.14659502777E+02 -0.17681266575E+03  0.48770323650E+03  0.51897212515E+03  0.00000000000E+00 0.  1.
         11    1    4    4    0    0 -0.41957807758E+02 -0.44218218854E+02  0.11861541046E+03  0.13336162907E+03  0.00000000000E+00 0. -1.
</event>
<event>
 8    1  0.7005395E-009  0.1207978E+03  0.7561462E-02  0.1241787E+00
          2   -1    0    0  501    0  0.00000000000E+00  0.00000000000E+00  0.17364541769E+03  0.17364541769E+03  0.00000000000E+00 0.  1.
         -2   -1    0    0    0  501 -0.00000000000E+00 -0.00000000000E+00 -0.93194784717E+02  0.93194784717E+02  0.00000000000E+00 0. -1.
         25    2    1    2    0    0  0.63564626761E+02  0.45565677230E+01  0.61898579488E+02  0.15342714550E+03  0.12508889139E+03 0.  0.
         23    2    1    2    0    0 -0.63564626761E+02 -0.45565677230E+01  0.18552053485E+02  0.11341305691E+03  0.91962594045E+02 0.  0.
          5    1    3    3  502    0 -0.25549463734E+02  0.28875548609E+02 -0.52705035178E+01  0.39138510599E+02  0.41800000000E+01 0. -1.
         -5    1    3    3    0  502  0.89114090495E+02 -0.24318980886E+02  0.67169083006E+02  0.11428863490E+03  0.41800000000E+01 0. -1.
        -11    1    4    4    0    0 -0.15867450142E+02  0.41261689199E+02  0.16674510558E+02  0.47247669487E+02  0.00000000000E+00 0.  1.
         11    1    4    4    0    0 -0.47697176618E+02 -0.45818256923E+02  0.18775429274E+01  0.66165387418E+02  0.00000000000E+00 0. -1.
</event>
<event>
 8    1  0.7005395E-009  0.3162501E+03  0.7561462E-02  0.1077388E+00
         -1   -1    0    0    0  501 -0.00000000000E+00  0.00000000000E+00  0.19745285406E+03  0.19745285406E+03  0.00000000000E+00 0.  1.
          1   -1    0    0  501    0  0.00000000000E+00 -0.00000000000E+00 -0.55402224858E+03  0.55402224858E+03  0.00000000000E+00 0. -1.
         25    2    1    2    0    0 -0.24184153386E+03 -0.19708010160E+03 -0.19242611656E+03  0.38730219041E+03  0.12508909791E+03 0.  0.
         23    2    1    2    0    0  0.24184153386E+03  0.19708010160E+03 -0.16414327796E+03  0.36417291223E+03  0.91383807988E+02 0.  0.
          5    1    3    3  502    0 -0.38177272382E+02 -0.70806198118E+02 -0.10465741875E+03  0.13206691303E+03  0.41800000000E+01 0.  1.
         -5    1    3    3    0  502 -0.20366426147E+03 -0.12627390348E+03 -0.87768697811E+02  0.25523527738E+03  0.41800000000E+01 0.  1.
        -11    1    4    4    0    0  0.73174418344E+02  0.51584438547E+02 -0.36073890454E+01  0.89601691144E+02  0.00000000000E+00 0.  1.
         11    1    4    4    0    0  0.16866711551E+03  0.14549566305E+03 -0.16053588891E+03  0.27457122109E+03  0.00000000000E+00 0. -1.
</event>
<event>
 8    1  0.7005395E-009  0.1681624E+03  0.7561462E-02  0.1179778E+00
          2   -1    0    0  501    0  0.00000000000E+00  0.00000000000E+00  0.10726342825E+03  0.10726342825E+03  0.00000000000E+00 0.  1.
         -2   -1    0    0    0  501 -0.00000000000E+00 -0.00000000000E+00 -0.36933852765E+03  0.36933852765E+03  0.00000000000E+00 0. -1.
         25    2    1    2    0    0  0.13249724098E+03  0.55419202034E+02 -0.36027070585E+02  0.19383812094E+03  0.12509380676E+03 0.  0.
         23    2    1    2    0    0 -0.13249724098E+03 -0.55419202034E+02 -0.22604802881E+03  0.28276383496E+03  0.90724132449E+02 0.  0.
          5    1    3    3  502    0  0.51185076825E+02  0.86706026834E+02 -0.37810618122E+01  0.10084451402E+03  0.41800000000E+01 0.  1.
         -5    1    3    3    0  502  0.81312164158E+02 -0.31286824799E+02 -0.32246008773E+02  0.92993606919E+02  0.41800000000E+01 0.  1.
        -11    1    4    4    0    0 -0.86627612549E+02 -0.54699857897E+02 -0.21087327315E+03  0.23444392728E+03  0.00000000000E+00 0. -1.
         11    1    4    4    0    0 -0.45869628433E+02 -0.71934413706E+00 -0.15174755662E+02  0.48319907678E+02  0.00000000000E+00 0.  1.
</event>
<event>
 8    1  0.7005395E-009  0.2182273E+03  0.7561462E-02  0.1135212E+00
          1   -1    0    0  501    0  0.00000000000E+00  0.00000000000E+00  0.17164902067E+03  0.17164902067E+03  0.00000000000E+00 0. -1.
         -1   -1    0    0    0  501 -0.00000000000E+00 -0.00000000000E+00 -0.42932501939E+03  0.42932501939E+03  0.00000000000E+00 0.  1.
         25    2    1    2    0    0  0.17434361328E+03 -0.11848466710E+03 -0.27693636445E+03  0.36982536511E+03  0.12507093548E+03 0.  0.
         23    2    1    2    0    0 -0.17434361328E+03  0.11848466710E+03  0.19260365726E+02  0.23114867495E+03  0.92867843804E+02 0.  0.
          5    1    3    3  502    0  0.83217533334E+02 -0.80168807504E+02 -0.23589446722E+03  0.26270871249E+03  0.41800000000E+01 0. -1.
         -5    1    3    3    0  502  0.91126079944E+02 -0.38315859596E+02 -0.41041897227E+02  0.10711665263E+03  0.41800000000E+01 0. -1.
        -11    1    4    4    0    0  0.51447457042E+01  0.12316788976E+02  0.18248400943E+02  0.22609198040E+02  0.00000000000E+00 0. -1.
         11    1    4    4    0    0 -0.17948835898E+03  0.10616787812E+03  0.10119647827E+01  0.20853947690E+03  0.00000000000E+00 0.  1.
</event>
<event>
 8    1  0.7005395E-009  0.1262665E+03  0.7561462E-02  0.1233103E+00
         -1   -1    0    0    0  501 -0.00000000000E+00  0.00000000000E+00  0.33262673744E+02  0.33262673744E+02  0.00000000000E+00 0.  1.
          1   -1    0    0  501    0  0.00000000000E+00 -0.00000000000E+00 -0.59427963163E+03  0.59427963163E+03  0.00000000000E+00 0. -1.
         25    2    1    2    0    0 -0.29883591850E+02  0.83613338692E+02 -0.33130283072E+03  0.36509296838E+03  0.12508833058E+03 0.  0.
         23    2    1    2    0    0  0.29883591850E+02 -0.83613338692E+02 -0.22971412716E+03  0.26244933699E+03  0.90702011012E+02 0.  0.
          5    1    3    3  502    0  0.46386191812E+02  0.26307792158E+02 -0.16343502925E+03  0.17196586843E+03  0.41800000000E+01 0.  1.
         -5    1    3    3    0  502 -0.76269783662E+02  0.57305546534E+02 -0.16786780147E+03  0.19312709995E+03  0.41800000000E+01 0.  1.
        -11    1    4    4    0    0 -0.54545395704E+01 -0.61763770035E+02 -0.20485469910E+03  0.21403262143E+03  0.00000000000E+00 0. -1.
         11    1    4    4    0    0  0.35338131421E+02 -0.21849568657E+02 -0.24859428060E+02  0.48416715567E+02  0.00000000000E+00 0.  1.
</event>
<event>
 8    1  0.7005395E-009  0.1024966E+03  0.7561462E-02  0.1275132E+00
         -1   -1    0    0    0  501 -0.00000000000E+00  0.00000000000E+00  0.26137915618E+02  0.26137915618E+02  0.00000000000E+00 0.  1.
          1   -1    0    0  501    0  0.00000000000E+00 -0.00000000000E+00 -0.47351016834E+03  0.47351016834E+03  0.00000000000E+00 0. -1.
         25    2    1    2    0    0 -0.18480099575E+02  0.19183229276E+02 -0.28661706568E+03  0.31385795254E+03  0.12509181295E+03 0.  0.
         23    2    1    2    0    0  0.18480099575E+02 -0.19183229276E+02 -0.16075518704E+03  0.18579013142E+03  0.89253752896E+02 0.  0.
          5    1    3    3  502    0 -0.62853264905E+02  0.23320243618E+02 -0.90534315408E+02  0.11273110191E+03  0.41800000000E+01 0.  1.
         -5    1    3    3    0  502  0.44373165329E+02 -0.41370143420E+01 -0.19608275027E+03  0.20112685063E+03  0.41800000000E+01 0.  1.
        -11    1    4    4    0    0 -0.35581283021E+02  0.34051159545E+00 -0.57711918787E+02  0.67799773006E+02  0.00000000000E+00 0. -1.
         11    1    4    4    0    0  0.54061382596E+02 -0.19523740871E+02 -0.10304326825E+03  0.11799035841E+03  0.00000000000E+00 0.  1.
</event>
<event>
 8    1  0.7005395E-009  0.1282798E+03  0.7561462E-02  0.1230031E+00
          3   -1    0    0  501    0  0.00000000000E+00  0.00000000000E+00  0.23753473968E+03  0.23753473968E+03  0.00000000000E+00 0. -1.
         -3   -1    0    0    0  501 -0.00000000000E+00 -0.00000000000E+00 -0.11146550539E+03  0.11146550539E+03  0.00000000000E+00 0.  1.
         25    2    1    2    0    0  0.12897952709E+02 -0.11208759115E+03  0.11585012351E+03  0.20444660903E+03  0.12508868676E+03 0.  0.
         23    2    1    2    0    0 -0.12897952709E+02  0.11208759115E+03  0.10219110786E+02  0.14455363604E+03  0.89784955270E+02 0.  0.
          5    1    3    3  502    0  0.25579299405E+02  0.18705399780E+01  0.80189575666E+02  0.84294957877E+02  0.41800000000E+01 0. -1.
         -5    1    3    3    0  502 -0.12681346696E+02 -0.11395813113E+03  0.35660547840E+02  0.12015165116E+03  0.41800000000E+01 0. -1.
        -11    1    4    4    0    0 -0.20271479321E+02  0.96310531540E+02 -0.28192099825E+02  0.10237893266E+03  0.00000000000E+00 0.  1.
         11    1    4    4    0    0  0.73735266122E+01  0.15777059608E+02  0.38411210612E+02  0.42174703380E+02  0.00000000000E+00 0. -1.
</event>
<event>
 8    1  0.7005395E-009  0.1350510E+03  0.7561462E-02  0.1220148E+00
          1   -1    0    0  501    0  0.00000000000E+00  0.00000000000E+00  0.10157634998E+04  0.10157634998E+04  0.00000000000E+00 0. -1.
         -1   -1    0    0    0  501 -0.00000000000E+00 -0.00000000000E+00 -0.29430461595E+02  0.29430461595E+02  0.00000000000E+00 0.  1.
         25    2    1    2    0    0 -0.35018891644E+02 -0.83533062816E+02  0.82036483984E+03  0.83477526991E+03  0.12508871039E+03 0.  0.
         23    2    1    2    0    0  0.35018891644E+02  0.83533062816E+02  0.16596819833E+03  0.21041869144E+03  0.92338981452E+02 0.  0.
          5    1    3    3  502    0  0.31117940409E+02 -0.66694599831E+02  0.25979079008E+03  0.27004670498E+03  0.41800000000E+01 0.  1.
         -5    1    3    3    0  502 -0.66136832053E+02 -0.16838462986E+02  0.56057404976E+03  0.56472856493E+03  0.41800000000E+01 0.  1.
        -11    1    4    4    0    0  0.11139851808E+02 -0.19386169241E+02  0.18563425667E+02  0.29060637099E+02  0.00000000000E+00 0.  1.
         11    1    4    4    0    0  0.23879039836E+02  0.10291923206E+03  0.14740477267E+03  0.18135805434E+03  0.00000000000E+00 0. -1.
</event>
<event>
 8    1  0.7005395E-009  0.1199708E+03  0.7561462E-02  0.1243145E+00
          2   -1    0    0  501    0  0.00000000000E+00  0.00000000000E+00  0.86267476629E+03  0.86267476629E+03  0.00000000000E+00 0. -1.
         -2   -1    0    0    0  501 -0.00000000000E+00 -0.00000000000E+00 -0.17039826638E+02  0.17039826638E+02  0.00000000000E+00 0.  1.
         25    2    1    2    0    0  0.89520637733E+01  0.52745239755E+02  0.49649599762E+03  0.51479934831E+03  0.12509154090E+03 0.  0.
         23    2    1    2    0    0 -0.89520637733E+01 -0.52745239755E+02  0.34913894203E+03  0.36491524462E+03  0.91667525049E+02 0.  0.
          5    1    3    3  502    0  0.66491269079E+02  0.36406954683E+02  0.26452878909E+03  0.27520811737E+03  0.41800000000E+01 0.  1.
         -5    1    3    3    0  502 -0.57539205306E+02  0.16338285072E+02  0.23196720853E+03  0.23959123094E+03  0.41800000000E+01 0.  1.
        -11    1    4    4    0    0 -0.48935471271E+02 -0.22152481368E+02  0.14410844483E+03  0.15379420227E+03  0.00000000000E+00 0. -1.
         11    1    4    4    0    0  0.39983407498E+02 -0.30592758387E+02  0.20503049720E+03  0.21112104235E+03  0.00000000000E+00 0.  1.
</event>
<event>
 8    1  0.7005395E-009  0.1251983E+03  0.7561462E-02  0.1234760E+00
         -1   -1    0    0    0  501 -0.00000000000E+00  0.00000000000E+00  0.27618682698E+03  0.27618682698E+03  0.00000000000E+00 0.  1.
          1   -1    0    0  501    0  0.00000000000E+00 -0.00000000000E+00 -0.10644345754E+03  0.10644345754E+03  0.00000000000E+00 0. -1.
         25    2    1    2    0    0  0.40100945522E+01  0.11193385000E+03  0.10971072409E+02  0.16826449249E+03  0.12508919764E+03 0.  0.
         23    2    1    2    0    0 -0.40100945522E+01 -0.11193385000E+03  0.15877229704E+03  0.21436579203E+03  0.90547130562E+02 0.  0.
          5    1    3    3  502    0 -0.10934378638E+01  0.26188446574E+02  0.62574700301E+02  0.67971287012E+02  0.41800000000E+01 0. -1.
         -5    1    3    3    0  502  0.51035324159E+01  0.85745403430E+02 -0.51603627892E+02  0.10029320547E+03  0.41800000000E+01 0. -1.
        -11    1    4    4    0    0 -0.40413907392E+02 -0.79125376106E+02  0.13023619111E+03  0.15765650805E+03  0.00000000000E+00 0. -1.
         11    1    4    4    0    0  0.36403812840E+02 -0.32808473898E+02  0.28536105925E+02  0.56709283986E+02  0.00000000000E+00 0.  1.
</event>
<event>
 8    1  0.7005395E-009  0.9492869E+02  0.7561462E-02  0.1291337E+00
         -2   -1    0    0    0  501 -0.00000000000E+00  0.00000000000E+00  0.21592535231E+03  0.21592535231E+03  0.00000000000E+00 0.  1.
          2   -1    0    0  501    0  0.00000000000E+00 -0.00000000000E+00 -0.58546788624E+02  0.58546788624E+02  0.00000000000E+00 0. -1.
         25    2    1    2    0    0 -0.37533580600E+02 -0.14328329887E+01  0.10823032116E+03  0.16962499359E+03  0.12509201953E+03 0.  0.
         23    2    1    2    0    0  0.37533580600E+02  0.14328329887E+01  0.49148242525E+02  0.10484714733E+03  0.84655489355E+02 0.  0.
          5    1    3    3  502    0  0.46328118954E+02 -0.10823196535E+01  0.35222519634E+02  0.58357213016E+02  0.41800000000E+01 0.  1.
         -5    1    3    3    0  502 -0.83861699554E+02 -0.35051333525E+00  0.73007801522E+02  0.11126778058E+03  0.41800000000E+01 0.  1.
        -11    1    4    4    0    0  0.14787890975E+02 -0.22127190168E+02  0.63681465393E+02  0.69019006794E+02  0.00000000000E+00 0.  1.
         11    1    4    4    0    0  0.22745689625E+02  0.23560023157E+02 -0.14533222868E+02  0.35828140540E+02  0.00000000000E+00 0. -1.
</event>
<event>
 8    1  0.7005395E-009  0.2160251E+03  0.7561462E-02  0.1136882E+00
         -1   -1    0    0    0  501 -0.00000000000E+00  0.00000000000E+00  0.97844647013E+02  0.97844647013E+02  0.00000000000E+00 0.  1.
          1   -1    0    0  501    0  0.00000000000E+00 -0.00000000000E+00 -0.79561508448E+03  0.79561508448E+03  0.00000000000E+00 0. -1.
         25    2    1    2    0    0 -0.16646737878E+03 -0.10989272542E+03 -0.61605693281E+03  0.65951542395E+03  0.12508657269E+03 0.  0.
         23    2    1    2    0    0  0.16646737878E+03  0.10989272542E+03 -0.81713504662E+02  0.23394430755E+03  0.90912281292E+02 0.  0.
          5    1    3    3  502    0 -0.73956576401E+02 -0.68166404517E+01 -0.96758835082E+02  0.12204829514E+03  0.41800000000E+01 0. -1.
         -5    1    3    3    0  502 -0.92510802381E+02 -0.10307608497E+03 -0.51929809773E+03  0.53746712881E+03  0.41800000000E+01 0. -1.
        -11    1    4    4    0    0  0.69742775732E+02  0.99929995742E+02 -0.49166173386E+02  0.13140537060E+03  0.00000000000E+00 0. -1.
         11    1    4    4    0    0  0.96724603050E+02  0.99627296806E+01 -0.32547331276E+02  0.10253893695E+03  0.00000000000E+00 0.  1.
</event>
<event>
 8    1  0.7005395E-009  0.1475828E+03  0.7561462E-02  0.1203475E+00
         -4   -1    0    0    0  501 -0.00000000000E+00  0.00000000000E+00  0.17003525480E+02  0.17003525480E+02  0.00000000000E+00 0.  1.
          4   -1    0    0  501    0  0.00000000000E+00 -0.00000000000E+00 -0.14882856516E+04  0.14882856516E+04  0.00000000000E+00 0. -1.
         25    2    1    2    0    0  0.10341848317E+03  0.88550460028E+01 -0.10306684225E+04  0.10434071045E+04  0.12508874529E+03 0.  0.
         23    2    1    2    0    0 -0.10341848317E+03 -0.88550460028E+01 -0.44061370362E+03  0.46188207252E+03  0.91765018396E+02 0.  0.
          5    1    3    3  502    0  0.53959061232E+02 -0.56470594413E+02 -0.41624358385E+03  0.42352886775E+03  0.41800000000E+01 0. -1.
         -5    1    3    3    0  502  0.49459421934E+02  0.65325640416E+02 -0.61442483862E+03  0.61987823678E+03  0.41800000000E+01 0. -1.
        -11    1    4    4    0    0 -0.28554432693E+02 -0.43800483190E+02 -0.22465526730E+03  0.23065954799E+03  0.00000000000E+00 0.  1.
         11    1    4    4    0    0 -0.74864050472E+02  0.34945437187E+02 -0.21595843632E+03  0.23122252454E+03  0.00000000000E+00 0. -1.
</event>
<event>
 8    1  0.7005395E-009  0.7534602E+02  0.7561462E-02  0.1342803E+00
         -2   -1    0    0    0  501 -0.00000000000E+00  0.00000000000E+00  0.28109357707E+02  0.28109357707E+02  0.00000000000E+00 0.  1.
          2   -1    0    0  501    0  0.00000000000E+00 -0.00000000000E+00 -0.52639476955E+03  0.52639476955E+03  0.00000000000E+00 0. -1.
         25    2    1    2    0    0  0.35444476549E+02  0.44992552928E+02 -0.30155624422E+03  0.33145764809E+03  0.12508942125E+03 0.  0.
         23    2    1    2    0    0 -0.35444476549E+02 -0.44992552928E+02 -0.19672916762E+03  0.22304647917E+03  0.88129028938E+02 0.  0.
          5    1    3    3  502    0  0.23543712795E+02  0.25804416589E+02 -0.68285702994E+01  0.35836798127E+02  0.41800000000E+01 0.  1.
         -5    1    3    3    0  502  0.11900763754E+02  0.19188136339E+02 -0.29472767392E+03  0.29562084996E+03  0.41800000000E+01 0.  1.
        -11    1    4    4    0    0  0.20810519603E+02 -0.48414299713E+00 -0.10265137854E+03  0.10474071623E+03  0.00000000000E+00 0. -1.
         11    1    4    4    0    0 -0.56254996152E+02 -0.44508409931E+02 -0.94077789082E+02  0.11830576294E+03  0.00000000000E+00 0.  1.
</event>
<event>
 8    1  0.7005395E-009  0.1177697E+03  0.7561462E-02  0.1246822E+00
         -2   -1    0    0    0  501 -0.00000000000E+00  0.00000000000E+00  0.19721526256E+03  0.19721526256E+03  0.00000000000E+00 0.  1.
          2   -1    0    0  501    0  0.00000000000E+00 -0.00000000000E+00 -0.82656407292E+02  0.82656407292E+02  0.00000000000E+00 0. -1.
         25    2    1    2    0    0  0.47204351943E+02 -0.44669396910E+02  0.54792902505E+02  0.15124440265E+03  0.12509596838E+03 0.  0.
         23    2    1    2    0    0 -0.47204351943E+02  0.44669396910E+02  0.59765952759E+02  0.12862726720E+03  0.93538221571E+02 0.  0.
          5    1    3    3  502    0  0.86676897028E+02 -0.36670846115E+02  0.16749574717E+02  0.95685192618E+02  0.41800000000E+01 0. -1.
         -5    1    3    3    0  502 -0.39472545085E+02 -0.79985507954E+01  0.38043327788E+02  0.55559210033E+02  0.41800000000E+01 0. -1.
        -11    1    4    4    0    0  0.13313735251E+02  0.37628309529E+02 -0.43856297432E+01  0.40154439014E+02  0.00000000000E+00 0. -1.
         11    1    4    4    0    0 -0.60518087193E+02  0.70410873816E+01  0.64151582502E+02  0.88472828182E+02  0.00000000000E+00 0.  1.
</event>
<event>
 8    1  0.7005395E-009  0.9094512E+02  0.7561462E-02  0.1300579E+00
         -2   -1    0    0    0  501 -0.00000000000E+00  0.00000000000E+00  0.76144269498E+02  0.76144269498E+02  0.00000000000E+00 0.  1.
          2   -1    0    0  501    0  0.00000000000E+00 -0.00000000000E+00 -0.20484806413E+03  0.20484806413E+03  0.00000000000E+00 0. -1.
         25    2    1    2    0    0 -0.21376892232E+02  0.33744022131E+02 -0.21802310677E+02  0.13309818499E+03  0.12507659871E+03 0.  0.
         23    2    1    2    0    0  0.21376892232E+02 -0.33744022131E+02 -0.10690148395E+03  0.14789414864E+03  0.94069768679E+02 0.  0.
          5    1    3    3  502    0 -0.51301515710E+02 -0.19369055876E+02 -0.41499163543E+02  0.68895999988E+02  0.41800000000E+01 0. -1.
         -5    1    3    3    0  502  0.29924623478E+02  0.53113078008E+02  0.19696852866E+02  0.64202184998E+02  0.41800000000E+01 0. -1.
        -11    1    4    4    0    0 -0.13013730320E+02  0.50380322210E+01  0.11859977429E+02  0.18313874798E+02  0.00000000000E+00 0.  1.
         11    1    4    4    0    0  0.34390622552E+02 -0.38782054352E+02 -0.11876146138E+03  0.12958027384E+03  0.00000000000E+00 0. -1.
</event>
<event>
 8    1  0.7005395E-009  0.9702890E+02  0.7561462E-02  0.1286671E+00
          2   -1    0    0  501    0  0.00000000000E+00  0.00000000000E+00  0.58669465919E+02  0.58669465919E+02  0.00000000000E+00 0.  1.
         -2   -1    0    0    0  501 -0.00000000000E+00 -0.00000000000E+00 -0.21891404047E+03  0.21891404047E+03  0.00000000000E+00 0. -1.
         25    2    1    2    0    0  0.16095240232E+02  0.30148441776E+02 -0.98523880339E+02  0.16285175849E+03  0.12508299223E+03 0.  0.
         23    2    1    2    0    0 -0.16095240232E+02 -0.30148441776E+02 -0.61720694212E+02  0.11473174790E+03  0.90476210036E+02 0.  0.
          5    1    3    3  502    0  0.52978730564E+02  0.38680631828E+01  0.11449960246E+01  0.53296258976E+02  0.41800000000E+01 0.  1.
         -5    1    3    3    0  502 -0.36883490332E+02  0.26280378593E+02 -0.99668876363E+02  0.10955549951E+03  0.41800000000E+01 0.  1.
        -11    1    4    4    0    0 -0.52571644250E+02 -0.96457754493E+01 -0.44242173751E+02  0.69384354875E+02  0.00000000000E+00 0. -1.
         11    1    4    4    0    0  0.36476404019E+02 -0.20502666327E+02 -0.17478520461E+02  0.45347393025E+02  0.00000000000E+00 0.  1.
</event>
<event>
 8    1  0.7005395E-009  0.1941757E+03  0.7561462E-02  0.1154748E+00
         -2   -1    0    0    0  501 -0.00000000000E+00  0.00000000000E+00  0.21989822593E+02  0.21989822593E+02  0.00000000000E+00 0.  1.
          2   -1    0    0  501    0  0.00000000000E+00 -0.00000000000E+00 -0.17868350165E+04  0.17868350165E+04  0.00000000000E+00 0. -1.
         25    2    1    2    0    0 -0.64756989869E+02 -0.15045559025E+03 -0.82458614367E+03  0.84995317751E+03  0.12509093991E+03 0.  0.
         23    2    1    2    0    0  0.64756989869E+02  0.15045559025E+03 -0.94025905027E+03  0.95887166162E+03  0.92289920717E+02 0.  0.
          5    1    3    3  502    0 -0.81572152347E+02 -0.44131378684E+02 -0.48089560993E+03  0.48977510622E+03  0.41800000000E+01 0. -1.
         -5    1    3    3    0  502  0.16815162477E+02 -0.10632421156E+03 -0.34369053374E+03  0.36017807128E+03  0.41800000000E+01 0. -1.
        -11    1    4    4    0    0  0.56753612092E+02  0.24900735644E+02 -0.33272763801E+03  0.33845043982E+03  0.00000000000E+00 0.  1.
         11    1    4    4    0    0  0.80033777777E+01  0.12555485460E+03 -0.60753141226E+03  0.62042122180E+03  0.00000000000E+00 0. -1.
</event>
<event>
 8    1  0.7005395E-009  0.2112551E+03  0.7561462E-02  0.1140576E+00
          2   -1    0    0  501    0  0.00000000000E+00  0.00000000000E+00  0.51303738218E+03  0.51303738218E+03  0.00000000000E+00 0. -1.
         -2   -1    0    0    0  501 -0.00000000000E+00 -0.00000000000E+00 -0.96738823650E+02  0.96738823650E+02  0.00000000000E+00 0.  1.
         25    2    1    2    0    0 -0.39120724170E+02  0.17688601907E+03  0.12471622120E+03  0.25302214376E+03  0.12508786751E+03 0.  0.
         23    2    1    2    0    0  0.39120724170E+02 -0.17688601907E+03  0.29158233732E+03  0.35675406207E+03  0.97129329060E+02 0.  0.
          5    1    3    3  502    0 -0.84184828286E+02  0.12732433292E+03  0.80106699892E+02  0.17243296331E+03  0.41800000000E+01 0.  1.
         -5    1    3    3    0  502  0.45064104116E+02  0.49561686151E+02  0.44609521312E+02  0.80589180450E+02  0.41800000000E+01 0.  1.
        -11    1    4    4    0    0 -0.67714824903E+00  0.10808912085E+02  0.51356431323E+01  0.11986072776E+02  0.00000000000E+00 0.  1.
         11    1    4    4    0    0  0.39797872419E+02 -0.18769493116E+03  0.28644669419E+03  0.34476798930E+03  0.00000000000E+00 0. -1.
</event>
<event>
 8    1  0.7005395E-009  0.1368080E+03  0.7561462E-02  0.1217690E+00
         -2   -1    0    0    0  501 -0.00000000000E+00  0.00000000000E+00  0.13583273133E+03  0.13583273133E+03  0.00000000000E+00 0. -1.
          2   -1    0    0  501    0  0.00000000000E+00 -0.00000000000E+00 -0.17102336126E+03  0.17102336126E+03  0.00000000000E+00 0.  1.
         25    2    1    2    0    0 -0.62019716928E+02 -0.76484744965E+02 -0.59708375906E+02  0.17002541631E+03  0.12508873066E+03 0.  0.
         23    2    1    2    0    0  0.62019716928E+02  0.76484744965E+02  0.24517745980E+02  0.13683067628E+03  0.91788630030E+02 0.  0.
          5    1    3    3  502    0  0.31801657404E+01  0.26832731347E+02 -0.36491956655E+02  0.45598730532E+02  0.41800000000E+01 0. -1.
         -5    1    3    3    0  502 -0.65199882668E+02 -0.10331747631E+03 -0.23216419252E+02  0.12442668578E+03  0.41800000000E+01 0. -1.
        -11    1    4    4    0    0 -0.65141345740E+01  0.50215868703E+02  0.36557252153E+02  0.62453983891E+02  0.00000000000E+00 0. -1.
         11    1    4    4    0    0  0.68533851502E+02  0.26268876262E+02 -0.12039506173E+02  0.74376692389E+02  0.00000000000E+00 0.  1.
</event>
<event>
 8    1  0.7005395E-009  0.8311910E+02  0.7561462E-02  0.1320426E+00
         -2   -1    0    0    0  501 -0.00000000000E+00  0.00000000000E+00  0.32922886769E+02  0.32922886769E+02  0.00000000000E+00 0.  1.
          2   -1    0    0  501    0  0.00000000000E+00 -0.00000000000E+00 -0.39110258679E+03  0.39110258679E+03  0.00000000000E+00 0. -1.
         25    2    1    2    0    0 -0.17206206344E+02 -0.22975988656E+02 -0.18010173877E+03  0.22115100779E+03  0.12508869792E+03 0.  0.
         23    2    1    2    0    0  0.17206206344E+02  0.22975988656E+02 -0.17807796125E+03  0.20287446577E+03  0.92856550582E+02 0.  0.
          5    1    3    3  502    0  0.40340026482E+02  0.11733755569E+02 -0.13149445931E+03  0.13810598823E+03  0.41800000000E+01 0. -1.
         -5    1    3    3    0  502 -0.57546232826E+02 -0.34709744225E+02 -0.48607279460E+02  0.83045019557E+02  0.41800000000E+01 0. -1.
        -11    1    4    4    0    0 -0.11149343577E+02  0.25881957787E+02 -0.64688002692E+01  0.28914165698E+02  0.00000000000E+00 0.  1.
         11    1    4    4    0    0  0.28355549922E+02 -0.29059691305E+01 -0.17160916098E+03  0.17396030007E+03  0.00000000000E+00 0. -1.
</event>
<event>
 8    1  0.7005395E-009  0.1154269E+03  0.7561462E-02  0.1250838E+00
          2   -1    0    0  501    0  0.00000000000E+00  0.00000000000E+00  0.47291004673E+03  0.47291004673E+03  0.00000000000E+00 0. -1.
         -2   -1    0    0    0  501 -0.00000000000E+00 -0.00000000000E+00 -0.41102549756E+02  0.41102549756E+02  0.00000000000E+00 0.  1.
         25    2    1    2    0    0  0.23622773105E+02  0.70186634315E+02  0.32889065425E+03  0.35958410579E+03  0.12508983828E+03 0.  0.
         23    2    1    2    0    0 -0.23622773105E+02 -0.70186634315E+02  0.10291684272E+03  0.15442849069E+03  0.88159419097E+02 0.  0.
          5    1    3    3  502    0 -0.15758256952E+02  0.91273614610E+02  0.16087408353E+03  0.18568020502E+03  0.41800000000E+01 0. -1.
         -5    1    3    3    0  502  0.39381030058E+02 -0.21086980294E+02  0.16801657072E+03  0.17390390077E+03  0.41800000000E+01 0. -1.
        -11    1    4    4    0    0 -0.30236027082E+02 -0.87487059167E+01 -0.31925479836E+01  0.31637786768E+02  0.00000000000E+00 0.  1.
         11    1    4    4    0    0  0.66132539769E+01 -0.61437928399E+02  0.10610939071E+03  0.12279070392E+03  0.00000000000E+00 0. -1.
</event>
<event>
 8    1  0.7005395E-009  0.1458648E+03  0.7561462E-02  0.1205648E+00
         -2   -1    0    0    0  501 -0.00000000000E+00  0.00000000000E+00  0.37904279192E+02  0.37904279192E+02  0.00000000000E+00 0.  1.
          2   -1    0    0  501    0  0.00000000000E+00 -0.00000000000E+00 -0.85608152691E+03  0.85608152691E+03  0.00000000000E+00 0. -1.
         25    2    1    2    0    0 -0.11189869834E+03  0.58686517427E+02 -0.27118843266E+03  0.32427778533E+03  0.12508992776E+03 0.  0.
         23    2    1    2    0    0  0.11189869834E+03 -0.58686517427E+02 -0.54698881506E+03  0.56970802078E+03  0.96979580959E+02 0.  0.
          5    1    3    3  502    0 -0.13820552287E+01  0.18583309162E+02  0.84633126028E+01  0.20888980738E+02  0.41800000000E+01 0.  1.
         -5    1    3    3    0  502 -0.11051664311E+03  0.40103208265E+02 -0.27965174527E+03  0.30338880459E+03  0.41800000000E+01 0.  1.
        -11    1    4    4    0    0 -0.11837256181E+02 -0.23556647077E+02 -0.52281794672E+02  0.58552731016E+02  0.00000000000E+00 0.  1.
         11    1    4    4    0    0  0.12373595452E+03 -0.35129870350E+02 -0.49470702038E+03  0.51115528976E+03  0.00000000000E+00 0. -1.
</event>
<event>
 8    1  0.7005395E-009  0.1049291E+03  0.7561462E-02  0.1270259E+00
          1   -1    0    0  501    0  0.00000000000E+00  0.00000000000E+00  0.29726707664E+02  0.29726707664E+02  0.00000000000E+00 0. -1.
         -1   -1    0    0    0  501 -0.00000000000E+00 -0.00000000000E+00 -0.77443005529E+03  0.77443005529E+03  0.00000000000E+00 0.  1.
         25    2    1    2    0    0  0.16198371218E+02  0.84104858942E+02 -0.58935335984E+03  0.60854164934E+03  0.12509812829E+03 0.  0.
         23    2    1    2    0    0 -0.16198371218E+02 -0.84104858942E+02 -0.15534998779E+03  0.19561511362E+03  0.82435668502E+02 0.  0.
          5    1    3    3  502    0  0.44319912737E+02  0.50889325477E+02 -0.12482519384E+03  0.14196048581E+03  0.41800000000E+01 0. -1.
         -5    1    3    3    0  502 -0.28121541519E+02  0.33215533464E+02 -0.46452816600E+03  0.46658116354E+03  0.41800000000E+01 0. -1.
        -11    1    4    4    0    0 -0.32704434642E+02 -0.41526889120E+02 -0.13619871480E+03  0.14609638079E+03  0.00000000000E+00 0.  1.
         11    1    4    4    0    0  0.16506063424E+02 -0.42577969822E+02 -0.19151272984E+02  0.49518732827E+02  0.00000000000E+00 0. -1.
</event>
<event>
 8    1  0.7005395E-009  0.1053285E+03  0.7561462E-02  0.1269474E+00
         -1   -1    0    0    0  501 -0.00000000000E+00  0.00000000000E+00  0.87996889641E+02  0.87996889641E+02  0.00000000000E+00 0.  1.
          1   -1    0    0  501    0  0.00000000000E+00 -0.00000000000E+00 -0.19124349295E+03  0.19124349295E+03  0.00000000000E+00 0. -1.
         25    2    1    2    0    0 -0.55659037064E+02  0.36400802279E+02 -0.86428011390E+02  0.16595137482E+03  0.12508841209E+03 0.  0.
         23    2    1    2    0    0  0.55659037064E+02 -0.36400802279E+02 -0.16818591917E+02  0.11328900777E+03  0.90158679193E+02 0.  0.
          5    1    3    3  502    0 -0.76046152281E+02  0.52659979704E+02 -0.20367106480E+02  0.94807078667E+02  0.41800000000E+01 0.  1.
         -5    1    3    3    0  502  0.20387115216E+02 -0.16259177425E+02 -0.66060904910E+02  0.71144296151E+02  0.41800000000E+01 0.  1.
        -11    1    4    4    0    0  0.69870233594E+02 -0.31217327538E+02 -0.39427257138E+02  0.86086466338E+02  0.00000000000E+00 0. -1.
         11    1    4    4    0    0 -0.14211196530E+02 -0.51834747416E+01  0.22608665221E+02  0.27202541431E+02  0.00000000000E+00 0.  1.
</event>
<event>
 8    1  0.7005395E-009  0.9252009E+02  0.7561462E-02  0.1296861E+00
          1   -1    0    0  501    0  0.00000000000E+00  0.00000000000E+00  0.84516092123E+02  0.84516092123E+02  0.00000000000E+00 0. -1.
         -1   -1    0    0    0  501 -0.00000000000E+00 -0.00000000000E+00 -0.17303167722E+03  0.17303167722E+03  0.00000000000E+00 0.  1.
         25    2    1    2    0    0  0.35750967218E+02 -0.24903202921E+02 -0.82146139184E+02  0.15586198843E+03  0.12508665029E+03 0.  0.
         23    2    1    2    0    0 -0.35750967218E+02  0.24903202921E+02 -0.63694459163E+01  0.10168578092E+03  0.91657662125E+02 0.  0.
          5    1    3    3  502    0  0.16255679018E+02 -0.52007621667E+02 -0.10276981464E+03  0.11639650773E+03  0.41800000000E+01 0. -1.
         -5    1    3    3    0  502  0.19495288200E+02  0.27104418746E+02  0.20623675453E+02  0.39465480698E+02  0.41800000000E+01 0. -1.
        -11    1    4    4    0    0 -0.25731721740E+02  0.57310678266E+02  0.10676016618E+02  0.63722936827E+02  0.00000000000E+00 0. -1.
         11    1    4    4    0    0 -0.10019245479E+02 -0.32407475346E+02 -0.17045462535E+02  0.37962844088E+02  0.00000000000E+00 0.  1.
</event>
<event>
 8    1  0.7005395E-009  0.8515013E+02  0.7561462E-02  0.1315040E+00
         -1   -1    0    0    0  501 -0.00000000000E+00  0.00000000000E+00  0.42872088047E+03  0.42872088047E+03  0.00000000000E+00 0.  1.
          1   -1    0    0  501    0  0.00000000000E+00 -0.00000000000E+00 -0.52425997596E+02  0.52425997596E+02  0.00000000000E+00 0. -1.
         25    2    1    2    0    0 -0.98990708638E+01 -0.66633961449E+02  0.79008929942E+02  0.16256647422E+03  0.12508945242E+03 0.  0.
         23    2    1    2    0    0  0.98990708638E+01  0.66633961449E+02  0.29728595293E+03  0.31858040385E+03  0.92609176007E+02 0.  0.
          5    1    3    3  502    0 -0.16278179051E+02 -0.23930561871E+02  0.10701095179E+03  0.11093451721E+03  0.41800000000E+01 0.  1.
         -5    1    3    3    0  502  0.63791081873E+01 -0.42703399578E+02 -0.28002021853E+02  0.51631957010E+02  0.41800000000E+01 0.  1.
        -11    1    4    4    0    0  0.39155259773E+02  0.23846189634E+02  0.58978432937E+02  0.74700941625E+02  0.00000000000E+00 0. -1.
         11    1    4    4    0    0 -0.29256188909E+02  0.42787771816E+02  0.23830752000E+03  0.24387946222E+03  0.00000000000E+00 0.  1.
</event>
<event>
 8    1  0.7005395E-009  0.9673455E+02  0.7561462E-02  0.1287317E+00
          1   -1    0    0  501    0  0.00000000000E+00  0.00000000000E+00  0.81013909767E+03  0.81013909767E+03  0.00000000000E+00 0. -1.
         -1   -1    0    0    0  501 -0.00000000000E+00 -0.00000000000E+00 -0.23896890636E+02  0.23896890636E+02  0.00000000000E+00 0.  1.
         25    2    1    2    0    0  0.35301420257E+02  0.39566372289E+02  0.63305901594E+03  0.64747449288E+03  0.12509121941E+03 0.  0.
         23    2    1    2    0    0 -0.35301420257E+02 -0.39566372289E+02  0.15318319109E+03  0.18656149543E+03  0.92349409608E+02 0.  0.
          5    1    3    3  502    0  0.73957152225E+02  0.25043784525E+02  0.24436460685E+03  0.25657042891E+03  0.41800000000E+01 0. -1.
         -5    1    3    3    0  502 -0.38655731969E+02  0.14522587764E+02  0.38869440909E+03  0.39090406397E+03  0.41800000000E+01 0. -1.
        -11    1    4    4    0    0 -0.29672811895E+02  0.39115018493E+01  0.29642839049E+01  0.30075947060E+02  0.00000000000E+00 0.  1.
         11    1    4    4    0    0 -0.56286083616E+01 -0.43477874139E+02  0.15021890718E+03  0.15648554837E+03  0.00000000000E+00 0. -1.
</event>
<event>
 8    1  0.7005395E-009  0.1264504E+03  0.7561462E-02  0.1232820E+00
         -1   -1    0    0    0  501 -0.00000000000E+00  0.00000000000E+00  0.11161470162E+03  0.11161470162E+03  0.00000000000E+00 0.  1.
          1   -1    0    0  501    0  0.00000000000E+00 -0.00000000000E+00 -0.17405570659E+03  0.17405570659E+03  0.00000000000E+00 0. -1.
         25    2    1    2    0    0  0.78341547940E+02  0.77275537743E+01  0.45044644709E+01  0.14786532729E+03  0.12508697611E+03 0.  0.
         23    2    1    2    0    0 -0.78341547940E+02 -0.77275537743E+01 -0.66945469446E+02  0.13780508093E+03  0.91167051222E+02 0.  0.
          5    1    3    3  502    0  0.10984574257E+03  0.22652774826E+02  0.83478161284E+01  0.11254507453E+03  0.41800000000E+01 0.  1.
         -5    1    3    3    0  502 -0.31504194629E+02 -0.14925221052E+02 -0.38433516575E+01  0.35320252754E+02  0.41800000000E+01 0.  1.
        -11    1    4    4    0    0 -0.17465095631E+02  0.29439062762E+02  0.71388610423E+01  0.34966431312E+02  0.00000000000E+00 0.  1.
         11    1    4    4    0    0 -0.60876452309E+02 -0.37166616536E+02 -0.74084330489E+02  0.10283864961E+03  0.00000000000E+00 0. -1.
</event>
<event>
 8    1  0.7005395E-009  0.7949021E+02  0.7561462E-02  0.1330504E+00
          1   -1    0    0  501    0  0.00000000000E+00  0.00000000000E+00  0.20866791800E+03  0.20866791800E+03  0.00000000000E+00 0. -1.
         -1   -1    0    0    0  501 -0.00000000000E+00 -0.00000000000E+00 -0.64772243530E+02  0.64772243530E+02  0.00000000000E+00 0.  1.
         25    2    1    2    0    0 -0.34237088066E+01  0.14516980780E+02  0.13155900107E+03  0.18214103186E+03  0.12508045495E+03 0.  0.
         23    2    1    2    0    0  0.34237088066E+01 -0.14516980780E+02  0.12336673402E+02  0.91299129673E+02  0.89223724735E+02 0.  0.
          5    1    3    3  502    0 -0.25314788829E+02 -0.44325923845E+02  0.98602849214E+02  0.11111084705E+03  0.41800000000E+01 0. -1.
         -5    1    3    3    0  502  0.21891080022E+02  0.58842904625E+02  0.32956151853E+02  0.71030184810E+02  0.41800000000E+01 0. -1.
        -11    1    4    4    0    0  0.21575206279E+02 -0.15652821332E+02  0.45926754047E+02  0.53101479065E+02  0.00000000000E+00 0. -1.
         11    1    4    4    0    0 -0.18151497472E+02  0.11358405529E+01 -0.33590080645E+02  0.38197650608E+02  0.00000000000E+00 0.  1.
</event>
<event>
 8    1  0.7005395E-009  0.1078347E+03  0.7561462E-02  0.1264633E+00
          1   -1    0    0  501    0  0.00000000000E+00  0.00000000000E+00  0.66926657461E+03  0.66926657461E+03  0.00000000000E+00 0. -1.
         -1   -1    0    0    0  501 -0.00000000000E+00 -0.00000000000E+00 -0.20634020861E+02  0.20634020861E+02  0.00000000000E+00 0.  1.
         25    2    1    2    0    0 -0.72699243386E+01  0.20362090314E+02  0.25509514212E+03  0.28493553259E+03  0.12508900702E+03 0.  0.
         23    2    1    2    0    0  0.72699243386E+01 -0.20362090314E+02  0.39353741162E+03  0.40496506288E+03  0.93045909538E+02 0.  0.
          5    1    3    3  502    0 -0.58956067733E+02 -0.14174017787E+02  0.16093018045E+03  0.17202533558E+03  0.41800000000E+01 0. -1.
         -5    1    3    3    0  502  0.51686143394E+02  0.34536108101E+02  0.94164961672E+02  0.11291019701E+03  0.41800000000E+01 0. -1.
        -11    1    4    4    0    0 -0.30936078457E+02  0.20134872068E+02  0.11044233610E+03  0.11644725684E+03  0.00000000000E+00 0.  1.
         11    1    4    4    0    0  0.38206002796E+02 -0.40496962382E+02  0.28309507553E+03  0.28851780604E+03  0.00000000000E+00 0. -1.
</event>
<event>
 8    1  0.7005395E-009  0.1607729E+03  0.7561462E-02  0.1187827E+00
         -1   -1    0    0    0  501 -0.00000000000E+00  0.00000000000E+00  0.73799210870E+02  0.73799210870E+02  0.00000000000E+00 0.  1.
          1   -1    0    0  501    0  0.00000000000E+00 -0.00000000000E+00 -0.51940952899E+03  0.51940952899E+03  0.00000000000E+00 0. -1.
         25    2    1    2    0    0 -0.12126745045E+02 -0.14965485222E+03 -0.33102935082E+03  0.38440993954E+03  0.12508772033E+03 0.  0.
         23    2    1    2    0    0  0.12126745045E+02  0.14965485222E+03 -0.11458096730E+03  0.20879880031E+03  0.89019706848E+02 0.  0.
          5    1    3    3  502    0 -0.11459331491E+02 -0.73459942771E+02 -0.28657882579E+03  0.29609555089E+03  0.41800000000E+01 0. -1.
         -5    1    3    3    0  502 -0.66741355366E+00 -0.76194909449E+02 -0.44450525035E+02  0.88314388650E+02  0.41800000000E+01 0. -1.
        -11    1    4    4    0    0  0.44884345070E+02  0.11311079853E+03 -0.10026674486E+03  0.15767712992E+03  0.00000000000E+00 0.  1.
         11    1    4    4    0    0 -0.32757600025E+02  0.36544053689E+02 -0.14314222439E+02  0.51121670390E+02  0.00000000000E+00 0. -1.
</event>
<event>
 8    1  0.7005395E-009  0.9743189E+02  0.7561462E-02  0.1285791E+00
          1   -1    0    0  501    0  0.00000000000E+00  0.00000000000E+00  0.31104576965E+03  0.31104576965E+03  0.00000000000E+00 0. -1.
         -1   -1    0    0    0  501 -0.00000000000E+00 -0.00000000000E+00 -0.78291338085E+02  0.78291338085E+02  0.00000000000E+00 0.  1.
         25    2    1    2    0    0 -0.40402391681E+02  0.42857791832E+02  0.24542251866E+03  0.28168910094E+03  0.12508954132E+03 0.  0.
         23    2    1    2    0    0  0.40402391681E+02 -0.42857791832E+02 -0.12668087095E+02  0.10764800680E+03  0.89210253683E+02 0.  0.
          5    1    3    3  502    0 -0.41964096198E+02  0.83502431071E+02  0.13772807228E+03  0.16649365051E+03  0.41800000000E+01 0. -1.
         -5    1    3    3    0  502  0.15617045170E+01 -0.40644639239E+02  0.10769444637E+03  0.11519545043E+03  0.41800000000E+01 0. -1.
        -11    1    4    4    0    0  0.17193849863E+02 -0.28040816533E+02  0.37830405263E+02  0.50130384272E+02  0.00000000000E+00 0. -1.
         11    1    4    4    0    0  0.23208541818E+02 -0.14816975299E+02 -0.50498492358E+02  0.57517622523E+02  0.00000000000E+00 0.  1.
</event>
<event>
 8    1  0.7005395E-009  0.2080499E+03  0.7561462E-02  0.1143120E+00
          3   -1    0    0  501    0  0.00000000000E+00  0.00000000000E+00  0.39058575961E+02  0.39058575961E+02  0.00000000000E+00 0. -1.
         -3   -1    0    0    0  501 -0.00000000000E+00 -0.00000000000E+00 -0.13256036829E+04  0.13256036829E+04  0.00000000000E+00 0.  1.
         25    2    1    2    0    0  0.35500952182E+02 -0.17877200275E+03 -0.92440598255E+03  0.95046936481E+03  0.12508335741E+03 0.  0.
         23    2    1    2    0    0 -0.35500952182E+02  0.17877200275E+03 -0.36213912437E+03  0.41419289403E+03  0.84801305938E+02 0.  0.
          5    1    3    3  502    0  0.76467865202E+02 -0.13366169940E+03 -0.55217510101E+03  0.57326049827E+03  0.41800000000E+01 0. -1.
         -5    1    3    3    0  502 -0.40966913020E+02 -0.45110303354E+02 -0.37223088154E+03  0.37720886654E+03  0.41800000000E+01 0. -1.
        -11    1    4    4    0    0  0.26646430965E+02  0.32365766740E+02 -0.79382818544E+02  0.89773086278E+02  0.00000000000E+00 0.  1.
         11    1    4    4    0    0 -0.62147383148E+02  0.14640623601E+03 -0.28275630582E+03  0.32441980775E+03  0.00000000000E+00 0. -1.
</event>
<event>
 8    1  0.7005395E-009  0.1091419E+03  0.7561462E-02  0.1262167E+00
          2   -1    0    0  501    0  0.00000000000E+00  0.00000000000E+00  0.57492087409E+03  0.57492087409E+03  0.00000000000E+00 0. -1.
         -2   -1    0    0    0  501 -0.00000000000E+00 -0.00000000000E+00 -0.24102980074E+02  0.24102980074E+02  0.00000000000E+00 0.  1.
         25    2    1    2    0    0 -0.35642988699E+02  0.29647742851E+02  0.30270972559E+03  0.33080266903E+03  0.12509123298E+03 0.  0.
         23    2    1    2    0    0  0.35642988699E+02 -0.29647742851E+02  0.24810816842E+03  0.26822118513E+03  0.90749818829E+02 0.  0.
          5    1    3    3  502    0  0.43970909141E+02  0.24457422312E+02  0.15291600347E+03  0.16103534666E+03  0.41800000000E+01 0. -1.
         -5    1    3    3    0  502 -0.79613897841E+02  0.51903205388E+01  0.14979372212E+03  0.16976732237E+03  0.41800000000E+01 0. -1.
        -11    1    4    4    0    0 -0.15329226697E+02 -0.33443955690E+02  0.41838978761E+02  0.55713405093E+02  0.00000000000E+00 0.  1.
         11    1    4    4    0    0  0.50972215397E+02  0.37962128392E+01  0.20626918966E+03  0.21250778004E+03  0.00000000000E+00 0. -1.
</event>
<event>
 8    1  0.7005395E-009  0.6659008E+02  0.7561462E-02  0.1372088E+00
         -1   -1    0    0    0  501 -0.00000000000E+00  0.00000000000E+00  0.22402885820E+02  0.22402885820E+02  0.00000000000E+00 0.  1.
          1   -1    0    0  501    0  0.00000000000E+00 -0.00000000000E+00 -0.18881034732E+04  0.18881034732E+04  0.00000000000E+00 0. -1.
         25    2    1    2    0    0 -0.47147462689E+02  0.29235045142E+02 -0.17415046027E+04  0.17468730456E+04  0.12509830221E+03 0.  0.
         23    2    1    2    0    0  0.47147462689E+02 -0.29235045142E+02 -0.12419598474E+03  0.16363331345E+03  0.90959592916E+02 0.  0.
          5    1    3    3  502    0 -0.30146545514E+02 -0.45015616727E+01 -0.93530325474E+02  0.98460512121E+02  0.41800000000E+01 0.  1.
         -5    1    3    3    0  502 -0.17000917175E+02  0.33736606815E+02 -0.16479742772E+04  0.16484125335E+04  0.41800000000E+01 0.  1.
        -11    1    4    4    0    0  0.10261251147E+02 -0.25309939387E+02  0.62489027045E+01  0.28016693094E+02  0.00000000000E+00 0.  1.
         11    1    4    4    0    0  0.36886211542E+02 -0.39251057545E+01 -0.13044488745E+03  0.13561662036E+03  0.00000000000E+00 0. -1.
</event>
<event>
 8    1  0.7005395E-009  0.1153942E+03  0.7561462E-02  0.1250895E+00
          1   -1    0    0  501    0  0.00000000000E+00  0.00000000000E+00  0.10662761881E+03  0.10662761881E+03  0.00000000000E+00 0. -1.
         -1   -1    0    0    0  501 -0.00000000000E+00 -0.00000000000E+00 -0.13451853348E+03  0.13451853348E+03  0.00000000000E+00 0.  1.
         25    2    1    2    0    0  0.31463408262E+02  0.42218940363E+02 -0.17557088005E+02  0.13684951842E+03  0.12508858608E+03 0.  0.
         23    2    1    2    0    0 -0.31463408262E+02 -0.42218940363E+02 -0.10333826670E+02  0.10429663387E+03  0.89434975696E+02 0.  0.
          5    1    3    3  502    0 -0.19326506534E+02 -0.33036055401E+02  0.13504922280E+02  0.40801349696E+02  0.41800000000E+01 0. -1.
         -5    1    3    3    0  502  0.50789914796E+02  0.75254995763E+02 -0.31062010285E+02  0.96048168724E+02  0.41800000000E+01 0. -1.
        -11    1    4    4    0    0  0.22295518862E+02 -0.42101976525E+02 -0.15961628049E+02  0.50243807167E+02  0.00000000000E+00 0.  1.
         11    1    4    4    0    0 -0.53758927124E+02 -0.11696383808E+00  0.56278013795E+01  0.54052826702E+02  0.00000000000E+00 0. -1.
</event>
<event>
 8    1  0.7005395E-009  0.2125453E+03  0.7561462E-02  0.1139566E+00
          2   -1    0    0  501    0  0.00000000000E+00  0.00000000000E+00  0.61232492006E+03  0.61232492006E+03  0.00000000000E+00 0. -1.
         -2   -1    0    0    0  501 -0.00000000000E+00 -0.00000000000E+00 -0.92817160219E+02  0.92817160219E+02  0.00000000000E+00 0.  1.
         25    2    1    2    0    0 -0.18376166229E+03  0.62091495496E+02  0.14187868580E+03  0.27092626463E+03  0.12509107498E+03 0.  0.
         23    2    1    2    0    0  0.18376166229E+03 -0.62091495496E+02  0.37762907404E+03  0.43421581565E+03  0.91191856357E+02 0.  0.
          5    1    3    3  502    0  0.18919145450E+02  0.30405152959E+01  0.10598679471E+02  0.22293120113E+02  0.41800000000E+01 0. -1.
         -5    1    3    3    0  502 -0.20268080774E+03  0.59050980200E+02  0.13128000633E+03  0.24863314451E+03  0.41800000000E+01 0. -1.
        -11    1    4    4    0    0  0.61776192584E+02 -0.26814991336E+02  0.53207071617E+02  0.85827351122E+02  0.00000000000E+00 0.  1.
         11    1    4    4    0    0  0.12198546970E+03 -0.35276504160E+02  0.32442200242E+03  0.34838846453E+03  0.00000000000E+00 0. -1.
</event>
<event>
 8    1  0.7005395E-009  0.2328401E+03  0.7561462E-02  0.1124657E+00
          2   -1    0    0  501    0  0.00000000000E+00  0.00000000000E+00  0.45502026443E+03  0.45502026443E+03  0.00000000000E+00 0. -1.
         -2   -1    0    0    0  501 -0.00000000000E+00 -0.00000000000E+00 -0.17207056745E+03  0.17207056745E+03  0.00000000000E+00 0.  1.
         25    2    1    2    0    0 -0.20749660494E+03 -0.90924484817E+02  0.28269362064E+03  0.38325699970E+03  0.12509253244E+03 0.  0.
         23    2    1    2    0    0  0.20749660494E+03  0.90924484817E+02  0.25607633534E+00  0.24383383217E+03  0.90181867010E+02 0.  0.
          5    1    3    3  502    0 -0.13124644841E+03 -0.95606911506E+02  0.11525543069E+03  0.19916726250E+03  0.41800000000E+01 0.  1.
         -5    1    3    3    0  502 -0.76250156527E+02  0.46824266895E+01  0.16743818995E+03  0.18408973721E+03  0.41800000000E+01 0.  1.
        -11    1    4    4    0    0  0.44583254281E+02  0.23833577780E+02 -0.38365080004E+02  0.63463259889E+02  0.00000000000E+00 0.  1.
         11    1    4    4    0    0  0.16291335065E+03  0.67090907037E+02  0.38621156339E+02  0.18037057228E+03  0.00000000000E+00 0. -1.
</event>
<event>
 8    1  0.7005395E-009  0.1628847E+03  0.7561462E-02  0.1185478E+00
         -2   -1    0    0    0  501 -0.00000000000E+00  0.00000000000E+00  0.25488463576E+02  0.25488463576E+02  0.00000000000E+00 0.  1.
          2   -1    0    0  501    0  0.00000000000E+00 -0.00000000000E+00 -0.13170717900E+04  0.13170717900E+04  0.00000000000E+00 0. -1.
         25    2    1    2    0    0  0.20517265428E+01  0.12172826297E+03 -0.98440045984E+03  0.99975688219E+03  0.12509028171E+03 0.  0.
         23    2    1    2    0    0 -0.20517265428E+01 -0.12172826297E+03 -0.30718286659E+03  0.34280337138E+03  0.91273535697E+02 0.  0.
          5    1    3    3  502    0 -0.59184017506E+02  0.81902962029E+02 -0.59753935815E+03  0.60603762264E+03  0.41800000000E+01 0. -1.
         -5    1    3    3    0  502  0.61235744049E+02  0.39825300942E+02 -0.38686110169E+03  0.39371925955E+03  0.41800000000E+01 0. -1.
        -11    1    4    4    0    0  0.43412134547E+02 -0.72119102526E+02 -0.15432175504E+03  0.17578675278E+03  0.00000000000E+00 0. -1.
         11    1    4    4    0    0 -0.45463861089E+02 -0.49609160446E+02 -0.15286111155E+03  0.16701661860E+03  0.00000000000E+00 0.  1.
</event>
<event>
 8    1  0.7005395E-009  0.1170311E+03  0.7561462E-02  0.1248077E+00
         -2   -1    0    0    0  501 -0.00000000000E+00  0.00000000000E+00  0.16857983273E+02  0.16857983273E+02  0.00000000000E+00 0.  1.
          2   -1    0    0  501    0  0.00000000000E+00 -0.00000000000E+00 -0.13870727322E+04  0.13870727322E+04  0.00000000000E+00 0. -1.
         25    2    1    2    0    0 -0.67200773790E+02 -0.77207754668E+02 -0.88759196636E+03  0.90218811973E+03  0.12508766231E+03 0.  0.
         23    2    1    2    0    0  0.67200773790E+02  0.77207754668E+02 -0.48262278255E+03  0.50174259573E+03  0.91344954693E+02 0.  0.
          5    1    3    3  502    0 -0.48049823056E+02 -0.61210804917E+02 -0.20790518747E+03  0.22203060039E+03  0.41800000000E+01 0. -1.
         -5    1    3    3    0  502 -0.19150950735E+02 -0.15996949751E+02 -0.67968677889E+03  0.68015751934E+03  0.41800000000E+01 0. -1.
        -11    1    4    4    0    0  0.30158537539E+02 -0.13357252751E+02 -0.19902058638E+03  0.20173533997E+03  0.00000000000E+00 0.  1.
         11    1    4    4    0    0  0.37042236251E+02  0.90565007420E+02 -0.28360219617E+03  0.30000725576E+03  0.00000000000E+00 0. -1.
</event>
<event>
 8    1  0.7005395E-009  0.8741577E+02  0.7561462E-02  0.1309233E+00
         -1   -1    0    0    0  501 -0.00000000000E+00  0.00000000000E+00  0.21200270511E+02  0.21200270511E+02  0.00000000000E+00 0.  1.
          1   -1    0    0  501    0  0.00000000000E+00 -0.00000000000E+00 -0.82763225713E+03  0.82763225713E+03  0.00000000000E+00 0. -1.
         25    2    1    2    0    0  0.28055703444E+02 -0.32252687241E+02 -0.64411904452E+03  0.65754397589E+03  0.12508948150E+03 0.  0.
         23    2    1    2    0    0 -0.28055703444E+02  0.32252687241E+02 -0.16231294210E+03  0.19128855175E+03  0.91752169070E+02 0.  0.
          5    1    3    3  502    0  0.14383194213E+02 -0.55322842257E+02 -0.61527280640E+03  0.61793655973E+03  0.41800000000E+01 0. -1.
         -5    1    3    3    0  502  0.13672509231E+02  0.23070155016E+02 -0.28846238118E+02  0.39607416158E+02  0.41800000000E+01 0. -1.
        -11    1    4    4    0    0 -0.14003536061E+02  0.58743023614E+02 -0.14400526148E+03  0.15615491404E+03  0.00000000000E+00 0. -1.
         11    1    4    4    0    0 -0.14052167384E+02 -0.26490336372E+02 -0.18307680621E+02  0.35133637714E+02  0.00000000000E+00 0.  1.
</event>
<event>
 8    1  0.7005395E-009  0.1311007E+03  0.7561462E-02  0.1225832E+00
         -1   -1    0    0    0  501 -0.00000000000E+00  0.00000000000E+00  0.32307446311E+02  0.32307446311E+02  0.00000000000E+00 0.  1.
          1   -1    0    0  501    0  0.00000000000E+00 -0.00000000000E+00 -0.80196882440E+03  0.80196882440E+03  0.00000000000E+00 0. -1.
         25    2    1    2    0    0 -0.11262435950E+03  0.26575049652E+02 -0.32966349907E+03  0.37110083240E+03  0.12508927041E+03 0.  0.
         23    2    1    2    0    0  0.11262435950E+03 -0.26575049652E+02 -0.43999787902E+03  0.46317543831E+03  0.86849717894E+02 0.  0.
          5    1    3    3  502    0 -0.96428898859E+01 -0.27812154799E+02 -0.17468067548E+03  0.17719286686E+03  0.41800000000E+01 0.  1.
         -5    1    3    3    0  502 -0.10298146961E+03  0.54387204451E+02 -0.15498282359E+03  0.19390796554E+03  0.41800000000E+01 0.  1.
        -11    1    4    4    0    0  0.65162775649E+02 -0.18960277769E+02 -0.38136914651E+03  0.38736043342E+03  0.00000000000E+00 0. -1.
         11    1    4    4    0    0  0.47461583849E+02 -0.76147718832E+01 -0.58628732504E+02  0.75815004896E+02  0.00000000000E+00 0.  1.
</event>
<event>
 8    1  0.7005395E-009  0.1063527E+03  0.7561462E-02  0.1267477E+00
         -2   -1    0    0    0  501 -0.00000000000E+00  0.00000000000E+00  0.15831073092E+03  0.15831073092E+03  0.00000000000E+00 0.  1.
          2   -1    0    0  501    0  0.00000000000E+00 -0.00000000000E+00 -0.10543518065E+03  0.10543518065E+03  0.00000000000E+00 0. -1.
         25    2    1    2    0    0  0.45209779741E+02  0.45693417505E+02  0.56794321459E+02  0.15167705876E+03  0.12509405508E+03 0.  0.
         23    2    1    2    0    0 -0.45209779741E+02 -0.45693417505E+02 -0.39187711963E+01  0.11206885281E+03  0.91718364659E+02 0.  0.
          5    1    3    3  502    0  0.12968564453E+02  0.76447676524E+02 -0.21336964938E+01  0.77681760862E+02  0.41800000000E+01 0.  1.
         -5    1    3    3    0  502  0.32241215288E+02 -0.30754259019E+02  0.58928017953E+02  0.73995297897E+02  0.41800000000E+01 0.  1.
        -11    1    4    4    0    0 -0.32185508236E+02  0.95261712318E+01  0.30798814781E+02  0.45554603178E+02  0.00000000000E+00 0.  1.
         11    1    4    4    0    0 -0.13024271505E+02 -0.55219588737E+02 -0.34717585977E+02  0.66514249636E+02  0.00000000000E+00 0. -1.
</event>
<event>
 8    1  0.7005395E-009  0.2378906E+03  0.7561462E-02  0.1121206E+00
         -2   -1    0    0    0  501 -0.00000000000E+00  0.00000000000E+00  0.34513666102E+03  0.34513666102E+03  0.00000000000E+00 0.  1.
          2   -1    0    0  501    0  0.00000000000E+00 -0.00000000000E+00 -0.21773595330E+03  0.21773595330E+03  0.00000000000E+00 0. -1.
         25    2    1    2    0    0 -0.83148543511E+02  0.22057117037E+03  0.15585550579E+03  0.30903750567E+03  0.12509164536E+03 0.  0.
         23    2    1    2    0    0  0.83148543511E+02 -0.22057117037E+03 -0.28454798069E+02  0.25383510865E+03  0.89762271388E+02 0.  0.
          5    1    3    3  502    0 -0.18506812889E+02  0.59430439158E+02 -0.16318382178E+02  0.64484426172E+02  0.41800000000E+01 0. -1.
         -5    1    3    3    0  502 -0.64641730622E+02  0.16114073121E+03  0.17217388797E+03  0.24455307949E+03  0.41800000000E+01 0. -1.
        -11    1    4    4    0    0  0.80941875820E+02 -0.16186364014E+03 -0.55313032351E+02  0.18923783133E+03  0.00000000000E+00 0. -1.
         11    1    4    4    0    0  0.22066676911E+01 -0.58707530229E+02  0.26858234282E+02  0.64597277315E+02  0.00000000000E+00 0.  1.
</event>
<event>
 8    1  0.7005395E-009  0.1063483E+03  0.7561462E-02  0.1267486E+00
         -2   -1    0    0    0  501 -0.00000000000E+00  0.00000000000E+00  0.14909164353E+02  0.14909164353E+02  0.00000000000E+00 0.  1.
          2   -1    0    0  501    0  0.00000000000E+00 -0.00000000000E+00 -0.10277693221E+04  0.10277693221E+04  0.00000000000E+00 0. -1.
         25    2    1    2    0    0  0.37799039248E+02 -0.41963038939E+02 -0.59027341237E+03  0.60601968288E+03  0.12508993037E+03 0.  0.
         23    2    1    2    0    0 -0.37799039248E+02  0.41963038939E+02 -0.42258674538E+03  0.43665880358E+03  0.94348764519E+02 0.  0.
          5    1    3    3  502    0 -0.31656881085E+02  0.14561064756E+02 -0.30448260720E+03  0.30649847180E+03  0.41800000000E+01 0. -1.
         -5    1    3    3    0  502  0.69455920333E+02 -0.56524103695E+02 -0.28579080517E+03  0.29952121108E+03  0.41800000000E+01 0. -1.
        -11    1    4    4    0    0 -0.16395281854E+01 -0.17923420944E+02 -0.15950889505E+02  0.24049281632E+02  0.00000000000E+00 0.  1.
         11    1    4    4    0    0 -0.36159511062E+02  0.59886459883E+02 -0.40663585588E+03  0.41260952195E+03  0.00000000000E+00 0. -1.
</event>
<event>
 8    1  0.7005395E-009  0.1127047E+03  0.7561462E-02  0.1255642E+00
         -1   -1    0    0    0  501 -0.00000000000E+00  0.00000000000E+00  0.24625793114E+03  0.24625793114E+03  0.00000000000E+00 0.  1.
          1   -1    0    0  501    0  0.00000000000E+00 -0.00000000000E+00 -0.91223912823E+02  0.91223912823E+02  0.00000000000E+00 0. -1.
         25    2    1    2    0    0  0.87963151061E+02  0.10764947592E+02  0.14654468815E+03  0.21207688435E+03  0.12509140343E+03 0.  0.
         23    2    1    2    0    0 -0.87963151061E+02 -0.10764947592E+02  0.84893301630E+01  0.12540495960E+03  0.88322902610E+02 0.  0.
          5    1    3    3  502    0  0.59247213259E+02  0.36065374930E+02  0.99929109633E+01  0.70201668195E+02  0.41800000000E+01 0. -1.
         -5    1    3    3    0  502  0.28715937802E+02 -0.25300427338E+02  0.13655177719E+03  0.14187521616E+03  0.41800000000E+01 0. -1.
        -11    1    4    4    0    0  0.10580585536E+02  0.12291574025E+02  0.17426811896E+02  0.23805994101E+02  0.00000000000E+00 0. -1.
         11    1    4    4    0    0 -0.98543736597E+02 -0.23056521617E+02 -0.89374817333E+01  0.10159896550E+03  0.00000000000E+00 0.  1.
</event>
<event>
 8    1  0.7005395E-009  0.1024873E+03  0.7561462E-02  0.1275151E+00
         -1   -1    0    0    0  501 -0.00000000000E+00  0.00000000000E+00  0.26771126629E+02  0.26771126629E+02  0.00000000000E+00 0.  1.
          1   -1    0    0  501    0  0.00000000000E+00 -0.00000000000E+00 -0.55337433293E+03  0.55337433293E+03  0.00000000000E+00 0. -1.
         25    2    1    2    0    0  0.30042474446E+02  0.10025570938E+02 -0.18731896724E+03  0.22746485197E+03  0.12509516797E+03 0.  0.
         23    2    1    2    0    0 -0.30042474446E+02 -0.10025570938E+02 -0.33928423905E+03  0.35268060758E+03  0.90921690220E+02 0.  0.
          5    1    3    3  502    0  0.45444976206E+02 -0.37563221025E+02 -0.15945078988E+03  0.17005372160E+03  0.41800000000E+01 0. -1.
         -5    1    3    3    0  502 -0.15402501760E+02  0.47588791963E+02 -0.27868177363E+02  0.57411130371E+02  0.41800000000E+01 0. -1.
        -11    1    4    4    0    0 -0.45055108242E+02 -0.41212587519E+02 -0.19694607695E+03  0.20619456194E+03  0.00000000000E+00 0. -1.
         11    1    4    4    0    0  0.15012633796E+02  0.31187016581E+02 -0.14233816210E+03  0.14648604564E+03  0.00000000000E+00 0.  1.
</event>
<event>
 8    1  0.7005395E-009  0.1375575E+03  0.7561462E-02  0.1216654E+00
         -1   -1    0    0    0  501 -0.00000000000E+00  0.00000000000E+00  0.14131231253E+02  0.14131231253E+02  0.00000000000E+00 0.  1.
          1   -1    0    0  501    0  0.00000000000E+00 -0.00000000000E+00 -0.13613297017E+04  0.13613297017E+04  0.00000000000E+00 0. -1.
         25    2    1    2    0    0 -0.88431262023E+02  0.10490516895E+01 -0.71148553407E+03  0.72779190123E+03  0.12509275639E+03 0.  0.
         23    2    1    2    0    0  0.88431262023E+02 -0.10490516895E+01 -0.63571293640E+03  0.64766903174E+03  0.86735509194E+02 0.  0.
          5    1    3    3  502    0 -0.11405033750E+03  0.25348111209E+02 -0.51362252825E+03  0.52675950884E+03  0.41800000000E+01 0.  1.
         -5    1    3    3    0  502  0.25619075472E+02 -0.24299059520E+02 -0.19786300582E+03  0.20103239239E+03  0.41800000000E+01 0.  1.
        -11    1    4    4    0    0  0.40318436900E+02  0.41906381798E+02 -0.25643514491E+03  0.26294620122E+03  0.00000000000E+00 0.  1.
         11    1    4    4    0    0  0.48112825123E+02 -0.42955433487E+02 -0.37927779149E+03  0.38472283052E+03  0.00000000000E+00 0. -1.
</event>
<event>
 8    1  0.7005395E-009  0.2315653E+03  0.7561462E-02  0.1125543E+00
         -2   -1    0    0    0  501 -0.00000000000E+00  0.00000000000E+00  0.20755254146E+03  0.20755254146E+03  0.00000000000E+00 0.  1.
          2   -1    0    0  501    0  0.00000000000E+00 -0.00000000000E+00 -0.26248790638E+03  0.26248790638E+03  0.00000000000E+00 0. -1.
         25    2    1    2    0    0  0.16751788571E+03 -0.12059934042E+03 -0.27789680026E+02  0.24295313231E+03  0.12509002855E+03 0.  0.
         23    2    1    2    0    0 -0.16751788571E+03  0.12059934042E+03 -0.27145684898E+02  0.22708731554E+03  0.90693537407E+02 0.  0.
          5    1    3    3  502    0 -0.17439115995E+02 -0.15762279740E+01 -0.13506533992E+02  0.22505690875E+02  0.41800000000E+01 0.  1.
         -5    1    3    3    0  502  0.18495700170E+03 -0.11902311244E+03 -0.14283146034E+02  0.22044744143E+03  0.41800000000E+01 0.  1.
        -11    1    4    4    0    0 -0.77653550032E+01 -0.14156507261E+02  0.11284930252E+01  0.16185825054E+02  0.00000000000E+00 0. -1.
         11    1    4    4    0    0 -0.15975253070E+03  0.13475584768E+03 -0.28274177924E+02  0.21090149048E+03  0.00000000000E+00 0.  1.
</event>
<event>
 8    1  0.7005395E-009  0.7804544E+02  0.7561462E-02  0.1334691E+00
         -2   -1    0    0    0  501 -0.00000000000E+00  0.00000000000E+00  0.14491767955E+03  0.14491767955E+03  0.00000000000E+00 0.  1.
          2   -1    0    0  501    0  0.00000000000E+00 -0.00000000000E+00 -0.85545466029E+02  0.85545466029E+02  0.00000000000E+00 0. -1.
         25    2    1    2    0    0 -0.98341374855E+01  0.25302420286E+02  0.36389693872E+02  0.13308375270E+03  0.12510057026E+03 0.  0.
         23    2    1    2    0    0  0.98341374855E+01 -0.25302420286E+02  0.22982519645E+02  0.97379392879E+02  0.90651129148E+02 0.  0.
          5    1    3    3  502    0  0.78757294169E+01  0.52227812748E+02  0.69033192773E+02  0.87021983675E+02  0.41800000000E+01 0. -1.
         -5    1    3    3    0  502 -0.17709866902E+02 -0.26925392462E+02 -0.32643498900E+02  0.46061769022E+02  0.41800000000E+01 0. -1.
        -11    1    4    4    0    0  0.13752797378E+02  0.20475023739E+02 -0.22021577038E+02  0.33065327582E+02  0.00000000000E+00 0. -1.
         11    1    4    4    0    0 -0.39186598922E+01 -0.45777444025E+02  0.45004096683E+02  0.64314065298E+02  0.00000000000E+00 0.  1.
</event>
<event>
 8    1  0.7005395E-009  0.1013946E+03  0.7561462E-02  0.1277390E+00
         -2   -1    0    0    0  501 -0.00000000000E+00  0.00000000000E+00  0.13198101906E+03  0.13198101906E+03  0.00000000000E+00 0.  1.
          2   -1    0    0  501    0  0.00000000000E+00 -0.00000000000E+00 -0.13258475010E+03  0.13258475010E+03  0.00000000000E+00 0. -1.
         25    2    1    2    0    0  0.58335899453E+02  0.45034020483E+02 -0.18280884689E+02  0.14633086467E+03  0.12508953211E+03 0.  0.
         23    2    1    2    0    0 -0.58335899453E+02 -0.45034020483E+02  0.17677153655E+02  0.11823490449E+03  0.90751698124E+02 0.  0.
          5    1    3    3  502    0  0.12198236282E+02 -0.33040332844E+02  0.27289746440E+02  0.44751125389E+02  0.41800000000E+01 0.  1.
         -5    1    3    3    0  502  0.46137663171E+02  0.78074353327E+02 -0.45570631129E+02  0.10157973928E+03  0.41800000000E+01 0.  1.
        -11    1    4    4    0    0 -0.43404643681E+02 -0.43626159901E+02  0.52134707896E+02  0.80655022709E+02  0.00000000000E+00 0.  1.
         11    1    4    4    0    0 -0.14931255771E+02 -0.14078605817E+01 -0.34457554241E+02  0.37579881780E+02  0.00000000000E+00 0. -1.
</event>
<event>
 8    1  0.7005395E-009  0.1805965E+03  0.7561462E-02  0.1167227E+00
         -1   -1    0    0    0  501 -0.00000000000E+00  0.00000000000E+00  0.31085942711E+02  0.31085942711E+02  0.00000000000E+00 0. -1.
          1   -1    0    0  501    0  0.00000000000E+00 -0.00000000000E+00 -0.11953372035E+04  0.11953372035E+04  0.00000000000E+00 0.  1.
         25    2    1    2    0    0  0.88552668066E+02 -0.11961569125E+03 -0.78676989616E+03  0.81043463329E+03  0.12509171320E+03 0.  0.
         23    2    1    2    0    0 -0.88552668066E+02  0.11961569125E+03 -0.37748136465E+03  0.41598851295E+03  0.91677552487E+02 0.  0.
          5    1    3    3  502    0 -0.30356146286E+02 -0.30096257252E+02 -0.12680639144E+03  0.13388283545E+03  0.41800000000E+01 0.  1.
         -5    1    3    3    0  502  0.11890881435E+03 -0.89519433996E+02 -0.65996350472E+03  0.67655179784E+03  0.41800000000E+01 0.  1.
        -11    1    4    4    0    0 -0.39267933323E+02 -0.75511348215E+00 -0.13780954577E+03  0.14329693538E+03  0.00000000000E+00 0.  1.
         11    1    4    4    0    0 -0.49284734744E+02  0.12037080473E+03 -0.23967181888E+03  0.27269157757E+03  0.00000000000E+00 0. -1.
</event>
<event>
 8    1  0.7005395E-009  0.5916825E+02  0.7561462E-02  0.1401356E+00
         -2   -1    0    0    0  501 -0.00000000000E+00  0.00000000000E+00  0.63204908236E+02  0.63204908236E+02  0.00000000000E+00 0.  1.
          2   -1    0    0  501    0  0.00000000000E+00 -0.00000000000E+00 -0.25726595650E+03  0.25726595650E+03  0.00000000000E+00 0. -1.
         25    2    1    2    0    0 -0.91763846642E+01 -0.18088033684E+02 -0.27464139065E+02  0.12966721831E+03  0.12509166867E+03 0.  0.
         23    2    1    2    0    0  0.91763846642E+01  0.18088033684E+02 -0.16659690920E+03  0.19080364642E+03  0.90775097557E+02 0.  0.
          5    1    3    3  502    0 -0.10387037039E+02 -0.58500322629E+01 -0.77218697414E+02  0.78245211012E+02  0.41800000000E+01 0. -1.
         -5    1    3    3    0  502  0.12106523743E+01 -0.12238001421E+02  0.49754558349E+02  0.51422007297E+02  0.41800000000E+01 0. -1.
        -11    1    4    4    0    0  0.16865050396E+02  0.53698188449E+02 -0.93561829325E+02  0.10918672664E+03  0.00000000000E+00 0.  1.
         11    1    4    4    0    0 -0.76886657320E+01 -0.35610154765E+02 -0.73035079870E+02  0.81616919783E+02  0.00000000000E+00 0. -1.
</event>
<event>
 8    1  0.7005395E-009  0.1221841E+03  0.7561462E-02  0.1239537E+00
         -1   -1    0    0    0  501 -0.00000000000E+00  0.00000000000E+00  0.50110331329E+03  0.50110331329E+03  0.00000000000E+00 0.  1.
          1   -1    0    0  501    0  0.00000000000E+00 -0.00000000000E+00 -0.42294694706E+02  0.42294694706E+02  0.00000000000E+00 0. -1.
         25    2    1    2    0    0  0.28901619500E+02  0.92639308698E+02  0.29148055048E+03  0.33169966678E+03  0.12508562069E+03 0.  0.
         23    2    1    2    0    0 -0.28901619500E+02 -0.92639308698E+02  0.16732806811E+03  0.21169834122E+03  0.86024183662E+02 0.  0.
          5    1    3    3  502    0  0.27214280367E+02  0.11795942457E+03  0.17776005313E+03  0.21510730296E+03  0.41800000000E+01 0. -1.
         -5    1    3    3    0  502  0.16873391338E+01 -0.25320115869E+02  0.11372049735E+03  0.11659236381E+03  0.41800000000E+01 0. -1.
        -11    1    4    4    0    0 -0.13336869784E+02 -0.58479437483E+02  0.25831289575E+02  0.65306754819E+02  0.00000000000E+00 0. -1.
         11    1    4    4    0    0 -0.15564749717E+02 -0.34159871216E+02  0.14149677853E+03  0.14639158640E+03  0.00000000000E+00 0.  1.
</event>
<event>
 8    1  0.7005395E-009  0.8697773E+02  0.7561462E-02  0.1310340E+00
          2   -1    0    0  501    0  0.00000000000E+00  0.00000000000E+00  0.11058958450E+03  0.11058958450E+03  0.00000000000E+00 0.  1.
         -2   -1    0    0    0  501 -0.00000000000E+00 -0.00000000000E+00 -0.13294550872E+03  0.13294550872E+03  0.00000000000E+00 0. -1.
         25    2    1    2    0    0  0.13509252622E+02  0.49038100793E+02 -0.34059907889E+02  0.13926684536E+03  0.12509173296E+03 0.  0.
         23    2    1    2    0    0 -0.13509252622E+02 -0.49038100793E+02  0.11703983667E+02  0.10426824787E+03  0.90264328745E+02 0.  0.
          5    1    3    3  502    0  0.23860940442E+02 -0.12534088280E+02 -0.64241998622E+02  0.69792224744E+02  0.41800000000E+01 0. -1.
         -5    1    3    3    0  502 -0.10351687820E+02  0.61572189073E+02  0.30182090733E+02  0.69474620611E+02  0.41800000000E+01 0. -1.
        -11    1    4    4    0    0  0.85598477955E+01  0.14502612259E+02  0.30138009532E+02  0.34523852264E+02  0.00000000000E+00 0.  1.
         11    1    4    4    0    0 -0.22069100418E+02 -0.63540713052E+02 -0.18434025865E+02  0.69744395603E+02  0.00000000000E+00 0. -1.
</event>
<event>
 8    1  0.7005395E-009  0.1457874E+03  0.7561462E-02  0.1205747E+00
          1   -1    0    0  501    0  0.00000000000E+00  0.00000000000E+00  0.56030382952E+02  0.56030382952E+02  0.00000000000E+00 0. -1.
         -1   -1    0    0    0  501 -0.00000000000E+00 -0.00000000000E+00 -0.72657051643E+03  0.72657051643E+03  0.00000000000E+00 0.  1.
         25    2    1    2    0    0 -0.48093425737E+02  0.92964865896E+02 -0.91359660983E+02  0.18694369545E+03  0.12508362692E+03 0.  0.
         23    2    1    2    0    0  0.48093425737E+02 -0.92964865896E+02 -0.57918047250E+03  0.59565720394E+03  0.91662647736E+02 0.  0.
          5    1    3    3  502    0 -0.20218013944E+02  0.12035600482E+03 -0.57100027504E+02  0.13480438244E+03  0.41800000000E+01 0. -1.
         -5    1    3    3    0  502 -0.27875411793E+02 -0.27391138928E+02 -0.34259633479E+02  0.52139313003E+02  0.41800000000E+01 0. -1.
        -11    1    4    4    0    0  0.57255139172E+02 -0.26546782179E+02 -0.17673495262E+03  0.18766493035E+03  0.00000000000E+00 0.  1.
         11    1    4    4    0    0 -0.91617134353E+01 -0.66418083717E+02 -0.40244551987E+03  0.40799227358E+03  0.00000000000E+00 0. -1.
</event>
<event>
 8    1  0.7005395E-009  0.9205111E+02  0.7561462E-02  0.1297959E+00
          1   -1    0    0  501    0  0.00000000000E+00  0.00000000000E+00  0.77058552045E+03  0.77058552045E+03  0.00000000000E+00 0. -1.
         -1   -1    0    0    0  501 -0.00000000000E+00 -0.00000000000E+00 -0.17784932681E+02  0.17784932681E+02  0.00000000000E+00 0.  1.
         25    2    1    2    0    0 -0.40894846571E+01 -0.14013436755E+01  0.28923165950E+03  0.31515384944E+03  0.12509319850E+03 0.  0.
         23    2    1    2    0    0  0.40894846571E+01  0.14013436755E+01  0.46356892827E+03  0.47321660369E+03  0.94969021818E+02 0.  0.
          5    1    3    3  502    0 -0.12191645592E+02 -0.44577230513E+02  0.37718817624E+02  0.59799224957E+02  0.41800000000E+01 0. -1.
         -5    1    3    3    0  502  0.81021609344E+01  0.43175886838E+02  0.25151284188E+03  0.25535462449E+03  0.41800000000E+01 0. -1.
        -11    1    4    4    0    0  0.28098857578E+02 -0.38102912111E+02  0.19265223326E+03  0.19838412409E+03  0.00000000000E+00 0.  1.
         11    1    4    4    0    0 -0.24009372921E+02  0.39504255786E+02  0.27091669500E+03  0.27483247960E+03  0.00000000000E+00 0. -1.
</event>
<event>
 8    1  0.7005395E-009  0.3057943E+03  0.7561462E-02  0.1082379E+00
          1   -1    0    0  501    0  0.00000000000E+00  0.00000000000E+00  0.10890431966E+04  0.10890431966E+04  0.00000000000E+00 0. -1.
         -1   -1    0    0    0  501 -0.00000000000E+00 -0.00000000000E+00 -0.94430506256E+02  0.94430506256E+02  0.00000000000E+00 0.  1.
         25    2    1    2    0    0  0.11313560084E+03  0.27538071229E+03  0.58475397276E+03  0.66799866784E+03  0.12510320019E+03 0.  0.
         23    2    1    2    0    0 -0.11313560084E+03 -0.27538071229E+03  0.40985871763E+03  0.51547503506E+03  0.95373699079E+02 0.  0.
          5    1    3    3  502    0  0.10315233339E+03  0.18845500697E+03  0.50782958959E+03  0.55142003772E+03  0.41800000000E+01 0.  1.
         -5    1    3    3    0  502  0.99832674482E+01  0.86925705322E+02  0.76924383174E+02  0.11657863012E+03  0.41800000000E+01 0.  1.
        -11    1    4    4    0    0 -0.62257765616E+02 -0.55442620908E+02  0.14691173117E+03  0.16891705168E+03  0.00000000000E+00 0. -1.
         11    1    4    4    0    0 -0.50877835222E+02 -0.21993809138E+03  0.26294698646E+03  0.34655798339E+03  0.00000000000E+00 0.  1.
</event>
<event>
 8    1  0.7005395E-009  0.7037440E+02  0.7561462E-02  0.1358824E+00
          3   -1    0    0  501    0  0.00000000000E+00  0.00000000000E+00  0.63774428394E+03  0.63774428394E+03  0.00000000000E+00 0. -1.
         -3   -1    0    0    0  501 -0.00000000000E+00 -0.00000000000E+00 -0.48422819352E+02  0.48422819352E+02  0.00000000000E+00 0.  1.
         25    2    1    2    0    0 -0.24660998569E+02  0.20906584746E+02  0.57477021051E+03  0.58911214480E+03  0.12508826534E+03 0.  0.
         23    2    1    2    0    0  0.24660998569E+02 -0.20906584746E+02  0.14551254076E+02  0.97054958488E+02  0.90347528111E+02 0.  0.
          5    1    3    3  502    0 -0.61316639542E+01  0.27810761951E+02  0.22662525289E+02  0.36634658940E+02  0.41800000000E+01 0.  1.
         -5    1    3    3    0  502 -0.18529334615E+02 -0.69041772054E+01  0.55210768522E+03  0.55247748586E+03  0.41800000000E+01 0.  1.
        -11    1    4    4    0    0 -0.25961384296E+02 -0.30687065407E+02 -0.76542209506E+01  0.40917924632E+02  0.00000000000E+00 0. -1.
         11    1    4    4    0    0  0.50622382866E+02  0.97804806610E+01  0.22205475027E+02  0.56137033856E+02  0.00000000000E+00 0.  1.
</event>
<event>
 8    1  0.7005395E-009  0.1773247E+03  0.7561462E-02  0.1170418E+00
         -1   -1    0    0    0  501 -0.00000000000E+00  0.00000000000E+00  0.65706257506E+02  0.65706257506E+02  0.00000000000E+00 0.  1.
          1   -1    0    0  501    0  0.00000000000E+00 -0.00000000000E+00 -0.50855343350E+03  0.50855343350E+03  0.00000000000E+00 0. -1.
         25    2    1    2    0    0  0.14611558724E+03 -0.12423989564E+02 -0.22299122666E+03  0.29474704233E+03  0.12508641590E+03 0.  0.
         23    2    1    2    0    0 -0.14611558724E+03  0.12423989564E+02 -0.21985594933E+03  0.27951264868E+03  0.91030555122E+02 0.  0.
          5    1    3    3  502    0  0.16599679238E+03 -0.11231380429E+02 -0.16964555551E+03  0.23765135365E+03  0.41800000000E+01 0. -1.
         -5    1    3    3    0  502 -0.19881205148E+02 -0.11926091349E+01 -0.53345671152E+02  0.57095688675E+02  0.41800000000E+01 0. -1.
        -11    1    4    4    0    0 -0.86737926098E+01  0.28220218287E+02 -0.17296553363E+02  0.34216752573E+02  0.00000000000E+00 0.  1.
         11    1    4    4    0    0 -0.13744179463E+03 -0.15796228723E+02 -0.20255939597E+03  0.24529589611E+03  0.00000000000E+00 0. -1.
</event>
<event>
 8    1  0.7005395E-009  0.1080108E+03  0.7561462E-02  0.1264298E+00
          2   -1    0    0  501    0  0.00000000000E+00  0.00000000000E+00  0.29452109499E+03  0.29452109499E+03  0.00000000000E+00 0. -1.
         -2   -1    0    0    0  501 -0.00000000000E+00 -0.00000000000E+00 -0.51300944301E+02  0.51300944301E+02  0.00000000000E+00 0.  1.
         25    2    1    2    0    0 -0.30396648174E+01 -0.45682891377E+02  0.18610778615E+03  0.22886553348E+03  0.12508860149E+03 0.  0.
         23    2    1    2    0    0  0.30396648174E+01  0.45682891377E+02  0.57112364549E+02  0.11695650582E+03  0.91218616204E+02 0.  0.
          5    1    3    3  502    0 -0.14018902742E+02  0.41906109337E+02  0.71245882990E+02  0.83941050010E+02  0.41800000000E+01 0. -1.
         -5    1    3    3    0  502  0.10979237924E+02 -0.87589000714E+02  0.11486190316E+03  0.14492448347E+03  0.41800000000E+01 0. -1.
        -11    1    4    4    0    0  0.35792207111E+02  0.16572355598E+02 -0.62327762946E+01  0.39932099372E+02  0.00000000000E+00 0.  1.
         11    1    4    4    0    0 -0.32752542293E+02  0.29110535779E+02  0.63345140843E+02  0.77024406447E+02  0.00000000000E+00 0. -1.
</event>
<event>
 8    1  0.7005395E-009  0.1040156E+03  0.7561462E-02  0.1272071E+00
          2   -1    0    0  501    0  0.00000000000E+00  0.00000000000E+00  0.29909266970E+03  0.29909266970E+03  0.00000000000E+00 0. -1.
         -2   -1    0    0    0  501 -0.00000000000E+00 -0.00000000000E+00 -0.54796405819E+02  0.54796405819E+02  0.00000000000E+00 0.  1.
         25    2    1    2    0    0  0.37797144938E+02  0.42714632172E+02  0.85694737518E+02  0.16200164223E+03  0.12509108713E+03 0.  0.
         23    2    1    2    0    0 -0.37797144938E+02 -0.42714632172E+02  0.15860152636E+03  0.19188743329E+03  0.91723382643E+02 0.  0.
          5    1    3    3  502    0  0.36806603640E+02  0.72105913306E+02  0.10024927327E+03  0.12892392329E+03  0.41800000000E+01 0. -1.
         -5    1    3    3    0  502  0.99054129745E+00 -0.29391281133E+02 -0.14554535757E+02  0.33077718933E+02  0.41800000000E+01 0. -1.
        -11    1    4    4    0    0 -0.61997171153E+02 -0.23274700479E+02  0.63112648678E+02  0.91479873943E+02  0.00000000000E+00 0. -1.
         11    1    4    4    0    0  0.24200026215E+02 -0.19439931693E+02  0.95488877680E+02  0.10040755935E+03  0.00000000000E+00 0.  1.
</event>
<event>
 8    1  0.7005395E-009  0.1105169E+03  0.7561462E-02  0.1259616E+00
          1   -1    0    0  501    0  0.00000000000E+00  0.00000000000E+00  0.62127419167E+03  0.62127419167E+03  0.00000000000E+00 0. -1.
         -1   -1    0    0    0  501 -0.00000000000E+00 -0.00000000000E+00 -0.20710612106E+02  0.20710612106E+02  0.00000000000E+00 0.  1.
         25    2    1    2    0    0 -0.44466741821E+01 -0.21032438503E+02  0.27596125804E+03  0.30375075952E+03  0.12509105321E+03 0.  0.
         23    2    1    2    0    0  0.44466741821E+01  0.21032438503E+02  0.32460232152E+03  0.33823404425E+03  0.92593008218E+02 0.  0.
          5    1    3    3  502    0  0.57206617082E+02  0.88333978759E+01  0.13608821112E+03  0.14794627256E+03  0.41800000000E+01 0.  1.
         -5    1    3    3    0  502 -0.61653291264E+02 -0.29865836379E+02  0.13987304691E+03  0.15580448697E+03  0.41800000000E+01 0.  1.
        -11    1    4    4    0    0  0.42415920796E+02  0.33874629100E+02  0.16624572907E+03  0.17488351343E+03  0.00000000000E+00 0. -1.
         11    1    4    4    0    0 -0.37969246614E+02 -0.12842190597E+02  0.15835659245E+03  0.16335053082E+03  0.00000000000E+00 0.  1.
</event>
<event>
 8    1  0.7005395E-009  0.1576301E+03  0.7561462E-02  0.1191399E+00
          2   -1    0    0  501    0  0.00000000000E+00  0.00000000000E+00  0.12009971966E+03  0.12009971966E+03  0.00000000000E+00 0. -1.
         -2   -1    0    0    0  501 -0.00000000000E+00 -0.00000000000E+00 -0.24902973481E+03  0.24902973481E+03  0.00000000000E+00 0.  1.
         25    2    1    2    0    0 -0.11102535012E+03 -0.74695477247E+02 -0.79056537906E+02  0.19950591521E+03  0.12508649540E+03 0.  0.
         23    2    1    2    0    0  0.11102535012E+03  0.74695477247E+02 -0.49873477243E+02  0.16962353926E+03  0.91535450239E+02 0.  0.
          5    1    3    3  502    0 -0.12733635817E+03 -0.69494990431E+02 -0.31109723233E+02  0.14842300727E+03  0.41800000000E+01 0. -1.
         -5    1    3    3    0  502  0.16311008056E+02 -0.52004868166E+01 -0.47946814673E+02  0.51082907946E+02  0.41800000000E+01 0. -1.
        -11    1    4    4    0    0 -0.80891585680E+00 -0.11366883071E+02  0.11091118120E+02  0.15901989711E+02  0.00000000000E+00 0. -1.
         11    1    4    4    0    0  0.11183426597E+03  0.86062360318E+02 -0.60964595363E+02  0.15372154955E+03  0.00000000000E+00 0.  1.
</event>
<event>
 8    1  0.7005395E-009  0.1023235E+03  0.7561462E-02  0.1275485E+00
          1   -1    0    0  501    0  0.00000000000E+00  0.00000000000E+00  0.63439158100E+03  0.63439158100E+03  0.00000000000E+00 0. -1.
         -1   -1    0    0    0  501 -0.00000000000E+00 -0.00000000000E+00 -0.57519458908E+02  0.57519458908E+02  0.00000000000E+00 0.  1.
         25    2    1    2    0    0 -0.74288178327E+02  0.59536263576E+02  0.52733748589E+03  0.55026956047E+03  0.12509382493E+03 0.  0.
         23    2    1    2    0    0  0.74288178327E+02 -0.59536263576E+02  0.49534636206E+02  0.14164147944E+03  0.92440945446E+02 0.  0.
          5    1    3    3  502    0 -0.71879315923E+02  0.55739648995E+02  0.16975003838E+03  0.19262941742E+03  0.41800000000E+01 0.  1.
         -5    1    3    3    0  502 -0.24088624034E+01  0.37966145807E+01  0.35758744751E+03  0.35764014304E+03  0.41800000000E+01 0.  1.
        -11    1    4    4    0    0  0.56673045894E+02 -0.13638807960E+02  0.67603793179E+02  0.89264349354E+02  0.00000000000E+00 0. -1.
         11    1    4    4    0    0  0.17615132433E+02 -0.45897455616E+02 -0.18069156972E+02  0.52377130088E+02  0.00000000000E+00 0.  1.
</event>
<event>
 8    1  0.7005395E-009  0.1254265E+03  0.7561462E-02  0.1234404E+00
          1   -1    0    0  501    0  0.00000000000E+00  0.00000000000E+00  0.50067126943E+03  0.50067126943E+03  0.00000000000E+00 0. -1.
         -1   -1    0    0    0  501 -0.00000000000E+00 -0.00000000000E+00 -0.41816752623E+02  0.41816752623E+02  0.00000000000E+00 0.  1.
         25    2    1    2    0    0 -0.27102636004E+02  0.76948780966E+02  0.34618459814E+03  0.37702473739E+03  0.12509280091E+03 0.  0.
         23    2    1    2    0    0  0.27102636004E+02 -0.76948780966E+02  0.11266991866E+03  0.16546328466E+03  0.89598661986E+02 0.  0.
          5    1    3    3  502    0  0.25973228915E+02 -0.21225369732E+02  0.48823277214E+02  0.59382739398E+02  0.41800000000E+01 0. -1.
         -5    1    3    3    0  502 -0.53075864918E+02  0.98174150698E+02  0.29736132093E+03  0.31764199799E+03  0.41800000000E+01 0. -1.
        -11    1    4    4    0    0  0.20996513403E+02  0.62810856004E+01  0.66652791075E+02  0.70163381970E+02  0.00000000000E+00 0. -1.
         11    1    4    4    0    0  0.61061226008E+01 -0.83229866567E+02  0.46017127586E+02  0.95299902692E+02  0.00000000000E+00 0.  1.
</event>
<event>
 8    1  0.7005395E-009  0.1467483E+03  0.7561462E-02  0.1204527E+00
          2   -1    0    0  501    0  0.00000000000E+00  0.00000000000E+00  0.39118141382E+03  0.39118141382E+03  0.00000000000E+00 0.  1.
         -2   -1    0    0    0  501 -0.00000000000E+00 -0.00000000000E+00 -0.74327787255E+02  0.74327787255E+02  0.00000000000E+00 0. -1.
         25    2    1    2    0    0 -0.12107245461E+03  0.36472855865E+01  0.23414543241E+03  0.29179398683E+03  0.12509118784E+03 0.  0.
         23    2    1    2    0    0  0.12107245461E+03 -0.36472855865E+01  0.82708194152E+02  0.17371521424E+03  0.93083233308E+02 0.  0.
          5    1    3    3  502    0  0.22100737663E+02 -0.14353091482E+02  0.59497045902E+02  0.65206017448E+02  0.41800000000E+01 0. -1.
         -5    1    3    3    0  502 -0.14317319227E+03  0.18000377068E+02  0.17464838651E+03  0.22658796939E+03  0.41800000000E+01 0. -1.
        -11    1    4    4    0    0  0.44900433950E+02 -0.10055577162E+02 -0.16137415482E+02  0.48760432519E+02  0.00000000000E+00 0. -1.
         11    1    4    4    0    0  0.76172020655E+02  0.64082915752E+01  0.98845609634E+02  0.12495478172E+03  0.00000000000E+00 0.  1.
</event>
<event>
 8    1  0.7005395E-009  0.7664477E+02  0.7561462E-02  0.1338852E+00
          2   -1    0    0  501    0  0.00000000000E+00  0.00000000000E+00  0.51929132087E+03  0.51929132087E+03  0.00000000000E+00 0. -1.
         -2   -1    0    0    0  501 -0.00000000000E+00 -0.00000000000E+00 -0.36731924876E+02  0.36731924876E+02  0.00000000000E+00 0.  1.
         25    2    1    2    0    0  0.35316943379E+01 -0.24459886731E+01  0.43758522809E+03  0.45513409016E+03  0.12509097673E+03 0.  0.
         23    2    1    2    0    0 -0.35316943379E+01  0.24459886731E+01  0.44974167910E+02  0.10088915559E+03  0.90208038507E+02 0.  0.
          5    1    3    3  502    0  0.98432239935E+01  0.34366080344E+02  0.40124349346E+03  0.40285447742E+03  0.41800000000E+01 0.  1.
         -5    1    3    3    0  502 -0.63115296556E+01 -0.36812069017E+02  0.36341734629E+02  0.52279612736E+02  0.41800000000E+01 0.  1.
        -11    1    4    4    0    0  0.12690728284E+02 -0.35901205791E+02 -0.19838343942E+01  0.38129867041E+02  0.00000000000E+00 0.  1.
         11    1    4    4    0    0 -0.16222422622E+02  0.38347194465E+02  0.46958002304E+02  0.62759288551E+02  0.00000000000E+00 0. -1.
</event>
<event>
 8    1  0.7005395E-009  0.1411195E+03  0.7561462E-02  0.1211830E+00
         -1   -1    0    0    0  501 -0.00000000000E+00  0.00000000000E+00  0.62032329686E+03  0.62032329686E+03  0.00000000000E+00 0.  1.
          1   -1    0    0  501    0  0.00000000000E+00 -0.00000000000E+00 -0.48556237060E+02  0.48556237060E+02  0.00000000000E+00 0. -1.
         25    2    1    2    0    0  0.12839507481E+03  0.30320811542E+02  0.24773900858E+03  0.30729133441E+03  0.12509476802E+03 0.  0.
         23    2    1    2    0    0 -0.12839507481E+03 -0.30320811542E+02  0.32402805122E+03  0.36158819950E+03  0.91363018756E+02 0.  0.
          5    1    3    3  502    0  0.41207247047E+02  0.33889836663E+02  0.10578316492E+02  0.54552098201E+02  0.41800000000E+01 0.  1.
         -5    1    3    3    0  502  0.87187827762E+02 -0.35690251213E+01  0.23716069209E+03  0.25273923621E+03  0.41800000000E+01 0.  1.
        -11    1    4    4    0    0 -0.89098957430E+02 -0.44489707628E+02  0.29325680233E+03  0.30970552209E+03  0.00000000000E+00 0.  1.
         11    1    4    4    0    0 -0.39296117380E+02  0.14168896086E+02  0.30771248884E+02  0.51882677411E+02  0.00000000000E+00 0. -1.
</event>
<event>
 8    1  0.7005395E-009  0.1796684E+03  0.7561462E-02  0.1168124E+00
          1   -1    0    0  501    0  0.00000000000E+00  0.00000000000E+00  0.86925485235E+02  0.86925485235E+02  0.00000000000E+00 0. -1.
         -1   -1    0    0    0  501 -0.00000000000E+00 -0.00000000000E+00 -0.42224289097E+03  0.42224289097E+03  0.00000000000E+00 0.  1.
         25    2    1    2    0    0 -0.93528021286E+02 -0.12650587981E+03 -0.18798486523E+03  0.27520369125E+03  0.12509010244E+03 0.  0.
         23    2    1    2    0    0  0.93528021286E+02  0.12650587981E+03 -0.14733254050E+03  0.23396468495E+03  0.91002021534E+02 0.  0.
          5    1    3    3  502    0 -0.12835224938E+02 -0.99761524490E+02 -0.15307219353E+03  0.18320937094E+03  0.41800000000E+01 0. -1.
         -5    1    3    3    0  502 -0.80692796348E+02 -0.26744355320E+02 -0.34912671702E+02  0.91994320310E+02  0.41800000000E+01 0. -1.
        -11    1    4    4    0    0  0.10614725363E+03  0.11457279602E+03 -0.14981233582E+03  0.21642065752E+03  0.00000000000E+00 0.  1.
         11    1    4    4    0    0 -0.12619232343E+02  0.11933083791E+02  0.24797953153E+01  0.17544027430E+02  0.00000000000E+00 0. -1.
</event>
<event>
 8    1  0.7005395E-009  0.2633063E+03  0.7561462E-02  0.1105173E+00
          2   -1    0    0  501    0  0.00000000000E+00  0.00000000000E+00  0.17426905509E+04  0.17426905509E+04  0.00000000000E+00 0. -1.
         -2   -1    0    0    0  501 -0.00000000000E+00 -0.00000000000E+00 -0.40598212600E+02  0.40598212600E+02  0.00000000000E+00 0.  1.
         25    2    1    2    0    0 -0.22199985548E+02 -0.24050421242E+03  0.77736391552E+03  0.82357497443E+03  0.12508383510E+03 0.  0.
         23    2    1    2    0    0  0.22199985548E+02  0.24050421242E+03  0.92472842274E+03  0.95971378904E+03  0.87136590970E+02 0.  0.
          5    1    3    3  502    0 -0.60242325248E+02 -0.21642456800E+03  0.68144057266E+03  0.71752871570E+03  0.41800000000E+01 0.  1.
         -5    1    3    3    0  502  0.38042339701E+02 -0.24079644416E+02  0.95923342863E+02  0.10604625873E+03  0.41800000000E+01 0.  1.
        -11    1    4    4    0    0  0.55018419638E+02  0.12381890220E+03  0.49837553835E+03  0.51646522077E+03  0.00000000000E+00 0.  1.
         11    1    4    4    0    0 -0.32818434090E+02  0.11668531022E+03  0.42635288440E+03  0.44324856827E+03  0.00000000000E+00 0. -1.
</event>
<event>
 8    1  0.7005395E-009  0.9331692E+02  0.7561462E-02  0.1295012E+00
          2   -1    0    0  501    0  0.00000000000E+00  0.00000000000E+00  0.20396154070E+03  0.20396154070E+03  0.00000000000E+00 0. -1.
         -2   -1    0    0    0  501 -0.00000000000E+00 -0.00000000000E+00 -0.73909072229E+02  0.73909072229E+02  0.00000000000E+00 0.  1.
         25    2    1    2    0    0 -0.20263275519E+02 -0.37420364251E+02  0.11736339155E+03  0.17673115149E+03  0.12509536456E+03 0.  0.
         23    2    1    2    0    0  0.20263275519E+02  0.37420364251E+02  0.12689076918E+02  0.10113946144E+03  0.90869653855E+02 0.  0.
          5    1    3    3  502    0 -0.61829942843E+02 -0.22120783080E+02  0.11461041667E+03  0.13215631232E+03  0.41800000000E+01 0. -1.
         -5    1    3    3    0  502  0.41566667324E+02 -0.15299581172E+02  0.27529748813E+01  0.44574839171E+02  0.41800000000E+01 0. -1.
        -11    1    4    4    0    0  0.99825601044E+01 -0.17673797774E+02 -0.26038498282E+02  0.33015421045E+02  0.00000000000E+00 0.  1.
         11    1    4    4    0    0  0.10280715415E+02  0.55094162025E+02  0.38727575200E+02  0.68124040394E+02  0.00000000000E+00 0. -1.
</event>
<event>
 8    1  0.7005395E-009  0.5655554E+02  0.7561462E-02  0.1412883E+00
          1   -1    0    0  501    0  0.00000000000E+00  0.00000000000E+00  0.17788947982E+03  0.17788947982E+03  0.00000000000E+00 0. -1.
         -1   -1    0    0    0  501 -0.00000000000E+00 -0.00000000000E+00 -0.72758749094E+02  0.72758749094E+02  0.00000000000E+00 0.  1.
         25    2    1    2    0    0 -0.16400190552E+02  0.27948271216E+02  0.66445643557E+02  0.14530657371E+03  0.12509558226E+03 0.  0.
         23    2    1    2    0    0  0.16400190552E+02 -0.27948271216E+02  0.38685087168E+02  0.10534165520E+03  0.92467595609E+02 0.  0.
          5    1    3    3  502    0 -0.32533586204E+02  0.27577955919E+02 -0.26825466969E+02  0.50557452092E+02  0.41800000000E+01 0.  1.
         -5    1    3    3    0  502  0.16133395652E+02  0.37031529788E+00  0.93271110525E+02  0.94749121618E+02  0.41800000000E+01 0.  1.
        -11    1    4    4    0    0  0.24882260312E+02 -0.53124110696E+00 -0.25131090172E+02  0.35369206785E+02  0.00000000000E+00 0.  1.
         11    1    4    4    0    0 -0.84820697601E+01 -0.27417030110E+02  0.63816177340E+02  0.69972448419E+02  0.00000000000E+00 0. -1.
</event>
<event>
 8    1  0.7005395E-009  0.9837750E+02  0.7561462E-02  0.1283745E+00
         -1   -1    0    0    0  501 -0.00000000000E+00  0.00000000000E+00  0.34672434051E+02  0.34672434051E+02  0.00000000000E+00 0.  1.
          1   -1    0    0  501    0  0.00000000000E+00 -0.00000000000E+00 -0.40000373283E+03  0.40000373283E+03  0.00000000000E+00 0. -1.
         25    2    1    2    0    0 -0.20117564497E+02 -0.39439830366E+02 -0.25275476461E+03  0.28546928862E+03  0.12509007590E+03 0.  0.
         23    2    1    2    0    0  0.20117564497E+02  0.39439830366E+02 -0.11257653417E+03  0.14920687826E+03  0.87344146085E+02 0.  0.
          5    1    3    3  502    0  0.38620634069E+02 -0.19495911872E+01 -0.18186596716E+03  0.18597864580E+03  0.41800000000E+01 0. -1.
         -5    1    3    3    0  502 -0.58738198566E+02 -0.37490239179E+02 -0.70888797454E+02  0.99490642821E+02  0.41800000000E+01 0. -1.
        -11    1    4    4    0    0  0.13350297882E+02  0.62556400208E+02 -0.47084547271E+02  0.79425992296E+02  0.00000000000E+00 0.  1.
         11    1    4    4    0    0  0.67672666156E+01 -0.23116569842E+02 -0.65491986895E+02  0.69780885966E+02  0.00000000000E+00 0. -1.
</event>
<event>
 8    1  0.7005395E-009  0.6975266E+02  0.7561462E-02  0.1360936E+00
         -2   -1    0    0    0  501 -0.00000000000E+00  0.00000000000E+00  0.12458707996E+02  0.12458707996E+02  0.00000000000E+00 0.  1.
          2   -1    0    0  501    0  0.00000000000E+00 -0.00000000000E+00 -0.14120575164E+04  0.14120575164E+04  0.00000000000E+00 0. -1.
         25    2    1    2    0    0 -0.20452484891E+01  0.40838151126E+02 -0.11059209985E+04  0.11137234537E+04  0.12508692464E+03 0.  0.
         23    2    1    2    0    0  0.20452484891E+01 -0.40838151126E+02 -0.29367780991E+03  0.31079277073E+03  0.93131910073E+02 0.  0.
          5    1    3    3  502    0 -0.22549654776E+02  0.28817041870E+02 -0.10688802554E+04  0.10695145542E+04  0.41800000000E+01 0.  1.
         -5    1    3    3    0  502  0.20504406287E+02  0.12021109256E+02 -0.37040743121E+02  0.44208899510E+02  0.41800000000E+01 0.  1.
        -11    1    4    4    0    0  0.17702586601E+02  0.13328282903E+02 -0.15707427105E+02  0.27161516227E+02  0.00000000000E+00 0.  1.
         11    1    4    4    0    0 -0.15657338112E+02 -0.54166434029E+02 -0.27797038281E+03  0.28363125450E+03  0.00000000000E+00 0. -1.
</event>
<event>
 8    1  0.7005395E-009  0.1193268E+03  0.7561462E-02  0.1244212E+00
         -2   -1    0    0    0  501 -0.00000000000E+00  0.00000000000E+00  0.35098222990E+02  0.35098222990E+02  0.00000000000E+00 0. -1.
          2   -1    0    0  501    0  0.00000000000E+00 -0.00000000000E+00 -0.57245536457E+03  0.57245536457E+03  0.00000000000E+00 0.  1.
         25    2    1    2    0    0 -0.84545701289E+02 -0.41966273869E+01 -0.34618825268E+03  0.37770488236E+03  0.12509630120E+03 0.  0.
         23    2    1    2    0    0  0.84545701289E+02  0.41966273869E+01 -0.19116888890E+03  0.22984870520E+03  0.95495004649E+02 0.  0.
          5    1    3    3  502    0 -0.25224612658E+02  0.47222159686E+02 -0.23792131546E+03  0.24390620779E+03  0.41800000000E+01 0.  1.
         -5    1    3    3    0  502 -0.59321088631E+02 -0.51418787073E+02 -0.10826693722E+03  0.13379867457E+03  0.41800000000E+01 0.  1.
        -11    1    4    4    0    0 -0.10566558781E+01 -0.17899157089E+02 -0.10456086713E+03  0.10608709290E+03  0.00000000000E+00 0.  1.
         11    1    4    4    0    0  0.85602357167E+02  0.22095784476E+02 -0.86608021774E+02  0.12376161230E+03  0.00000000000E+00 0. -1.
</event>
<event>
 8    1  0.7005395E-009  0.1350027E+03  0.7561462E-02  0.1220216E+00
         -2   -1    0    0    0  501 -0.00000000000E+00  0.00000000000E+00  0.40312142892E+02  0.40312142892E+02  0.00000000000E+00 0.  1.
          2   -1    0    0  501    0  0.00000000000E+00 -0.00000000000E+00 -0.51280556659E+03  0.51280556659E+03  0.00000000000E+00 0. -1.
         25    2    1    2    0    0 -0.76375383387E+02 -0.54442937012E+02 -0.25475377461E+03  0.29890335627E+03  0.12508596298E+03 0.  0.
         23    2    1    2    0    0  0.76375383387E+02  0.54442937012E+02 -0.21773964909E+03  0.25421435321E+03  0.91745027196E+02 0.  0.
          5    1    3    3  502    0  0.14032232354E+02 -0.53009622258E+02 -0.47205120845E+02  0.72475647157E+02  0.41800000000E+01 0.  1.
         -5    1    3    3    0  502 -0.90407615741E+02 -0.14333147534E+01 -0.20754865376E+03  0.22642770911E+03  0.41800000000E+01 0.  1.
        -11    1    4    4    0    0  0.42856614546E+02 -0.16586531873E+02 -0.44346940992E+02  0.63862771825E+02  0.00000000000E+00 0.  1.
         11    1    4    4    0    0  0.33518768842E+02  0.71029468885E+02 -0.17339270810E+03  0.19035158139E+03  0.00000000000E+00 0. -1.
</event>
<event>
 8    1  0.7005395E-009  0.1443818E+03  0.7561462E-02  0.1207552E+00
          2   -1    0    0  501    0  0.00000000000E+00  0.00000000000E+00  0.36716288789E+03  0.36716288789E+03  0.00000000000E+00 0. -1.
         -2   -1    0    0    0  501 -0.00000000000E+00 -0.00000000000E+00 -0.69061008210E+02  0.69061008210E+02  0.00000000000E+00 0.  1.
         25    2    1    2    0    0  0.83884974385E+02 -0.78196055326E+02  0.18400828589E+03  0.25031533043E+03  0.12508958140E+03 0.  0.
         23    2    1    2    0    0 -0.83884974385E+02  0.78196055326E+02  0.11409359380E+03  0.18590856568E+03  0.91615144221E+02 0.  0.
          5    1    3    3  502    0  0.53571740168E+02  0.26908371569E+02  0.60428532306E+02  0.85223657054E+02  0.41800000000E+01 0. -1.
         -5    1    3    3    0  502  0.30313234218E+02 -0.10510442690E+03  0.12357975358E+03  0.16509167337E+03  0.41800000000E+01 0. -1.
        -11    1    4    4    0    0 -0.23384420933E+02  0.44360980851E+01  0.81800120705E+02  0.85192545777E+02  0.00000000000E+00 0. -1.
         11    1    4    4    0    0 -0.60500553452E+02  0.73759957241E+02  0.32293473091E+02  0.10071601990E+03  0.00000000000E+00 0.  1.
</event>
<event>
 8    1  0.7005395E-009  0.8584057E+02  0.7561462E-02  0.1313249E+00
          2   -1    0    0  501    0  0.00000000000E+00  0.00000000000E+00  0.42527532400E+03  0.42527532400E+03  0.00000000000E+00 0. -1.
         -2   -1    0    0    0  501 -0.00000000000E+00 -0.00000000000E+00 -0.43229093747E+02  0.43229093747E+02  0.00000000000E+00 0.  1.
         25    2    1    2    0    0  0.19071283834E+02 -0.61094390193E+02  0.12451808309E+03  0.18774538681E+03  0.12508932358E+03 0.  0.
         23    2    1    2    0    0 -0.19071283834E+02  0.61094390193E+02  0.25752814716E+03  0.28075903093E+03  0.91698683141E+02 0.  0.
          5    1    3    3  502    0 -0.13048917898E+02  0.12791027181E+02  0.10239052314E+03  0.10409215275E+03  0.41800000000E+01 0. -1.
         -5    1    3    3    0  502  0.32120201732E+02 -0.73885417374E+02  0.22127559945E+02  0.83653234061E+02  0.41800000000E+01 0. -1.
        -11    1    4    4    0    0 -0.11320414321E+02  0.66648445541E+00 -0.41553123934E+01  0.12077359108E+02  0.00000000000E+00 0.  1.
         11    1    4    4    0    0 -0.77508695127E+01  0.60427905738E+02  0.26168345956E+03  0.26868167183E+03  0.00000000000E+00 0. -1.
</event>
<event>
 8    1  0.7005395E-009  0.8875602E+02  0.7561462E-02  0.1305892E+00
          2   -1    0    0  501    0  0.00000000000E+00  0.00000000000E+00  0.39974629607E+03  0.39974629607E+03  0.00000000000E+00 0. -1.
         -2   -1    0    0    0  501 -0.00000000000E+00 -0.00000000000E+00 -0.31709652383E+02  0.31709652383E+02  0.00000000000E+00 0.  1.
         25    2    1    2    0    0  0.11832603368E+01 -0.30799141510E+02  0.21847750077E+03  0.25363356973E+03  0.12509029590E+03 0.  0.
         23    2    1    2    0    0 -0.11832603368E+01  0.30799141510E+02  0.14955914292E+03  0.17782237873E+03  0.91120107123E+02 0.  0.
          5    1    3    3  502    0 -0.43392214412E+02  0.16320391367E+02  0.15849221109E+03  0.16518623678E+03  0.41800000000E+01 0.  1.
         -5    1    3    3    0  502  0.44575474749E+02 -0.47119532877E+02  0.59985289683E+02  0.88447332950E+02  0.41800000000E+01 0.  1.
        -11    1    4    4    0    0 -0.18184220632E+02 -0.10714782251E+02  0.12482193961E+03  0.12659379545E+03  0.00000000000E+00 0. -1.
         11    1    4    4    0    0  0.17000960295E+02  0.41513923761E+02  0.24737203314E+02  0.51228583279E+02  0.00000000000E+00 0.  1.
</event>
<event>
 8    1  0.7005395E-009  0.1822381E+03  0.7561462E-02  0.1165654E+00
         -1   -1    0    0    0  501 -0.00000000000E+00  0.00000000000E+00  0.16816050634E+03  0.16816050634E+03  0.00000000000E+00 0.  1.
          1   -1    0    0  501    0  0.00000000000E+00 -0.00000000000E+00 -0.30310101529E+03  0.30310101529E+03  0.00000000000E+00 0. -1.
         25    2    1    2    0    0  0.33190492622E+02 -0.14948163923E+03 -0.20205015292E+03  0.28269794427E+03  0.12508994415E+03 0.  0.
         23    2    1    2    0    0 -0.33190492622E+02  0.14948163923E+03  0.67109643969E+02  0.18856357737E+03  0.87213239415E+02 0.  0.
          5    1    3    3  502    0  0.14201368080E+02 -0.16920808174E+03 -0.16953569599E+03  0.23998516287E+03  0.41800000000E+01 0. -1.
         -5    1    3    3    0  502  0.18989124543E+02  0.19726442512E+02 -0.32514456933E+02  0.42712781397E+02  0.41800000000E+01 0. -1.
        -11    1    4    4    0    0  0.20091822486E+02  0.53434685052E+02 -0.47884963496E+01  0.57287665293E+02  0.00000000000E+00 0.  1.
         11    1    4    4    0    0 -0.53282315109E+02  0.96046954180E+02  0.71898140318E+02  0.13127591208E+03  0.00000000000E+00 0. -1.
</event>
<event>
 8    1  0.7005395E-009  0.2047859E+03  0.7561462E-02  0.1145763E+00
         -1   -1    0    0    0  501 -0.00000000000E+00  0.00000000000E+00  0.26140257227E+03  0.26140257227E+03  0.00000000000E+00 0.  1.
          1   -1    0    0  501    0  0.00000000000E+00 -0.00000000000E+00 -0.20844548926E+03  0.20844548926E+03  0.00000000000E+00 0. -1.
         25    2    1    2    0    0  0.73314162796E+02  0.18502698350E+03 -0.27305817846E+02  0.23664780496E+03  0.12508646934E+03 0.  0.
         23    2    1    2    0    0 -0.73314162796E+02 -0.18502698350E+03  0.80262900858E+02  0.23320025657E+03  0.91270341946E+02 0.  0.
          5    1    3    3  502    0 -0.58021515869E+01  0.53248791131E+02  0.41799414491E+02  0.68071742829E+02  0.41800000000E+01 0. -1.
         -5    1    3    3    0  502  0.79116314383E+02  0.13177819237E+03 -0.69105232337E+02  0.16857606213E+03  0.41800000000E+01 0. -1.
        -11    1    4    4    0    0 -0.26610259016E+02 -0.11409575843E+03  0.89974282030E+02  0.14772040957E+03  0.00000000000E+00 0.  1.
         11    1    4    4    0    0 -0.46703903780E+02 -0.70931225075E+02 -0.97113811727E+01  0.85479847001E+02  0.00000000000E+00 0. -1.
</event>
<event>
 8    1  0.7005395E-009  0.6628158E+02  0.7561462E-02  0.1373215E+00
         -2   -1    0    0    0  501 -0.00000000000E+00  0.00000000000E+00  0.33932697094E+02  0.33932697094E+02  0.00000000000E+00 0.  1.
          2   -1    0    0  501    0  0.00000000000E+00 -0.00000000000E+00 -0.35206825832E+03  0.35206825832E+03  0.00000000000E+00 0. -1.
         25    2    1    2    0    0  0.27271050712E+01  0.47477864671E+01 -0.15649753831E+03  0.20042255135E+03  0.12509093098E+03 0.  0.
         23    2    1    2    0    0 -0.27271050712E+01 -0.47477864671E+01 -0.16163802291E+03  0.18557840407E+03  0.91008323938E+02 0.  0.
          5    1    3    3  502    0  0.17894461444E+02 -0.92728179582E+01  0.16355186873E+02  0.26289949428E+02  0.41800000000E+01 0. -1.
         -5    1    3    3    0  502 -0.15167356373E+02  0.14020604425E+02 -0.17285272519E+03  0.17413260192E+03  0.41800000000E+01 0. -1.
        -11    1    4    4    0    0 -0.46323792121E+02  0.38005268613E+01 -0.89722084947E+02  0.10104647568E+03  0.00000000000E+00 0. -1.
         11    1    4    4    0    0  0.43596687050E+02 -0.85483133284E+01 -0.71915937968E+02  0.84531928384E+02  0.00000000000E+00 0.  1.
</event>
<event>
 8    1  0.7005395E-009  0.1093050E+03  0.7561462E-02  0.1261862E+00
         -2   -1    0    0    0  501 -0.00000000000E+00  0.00000000000E+00  0.10127119475E+03  0.10127119475E+03  0.00000000000E+00 0.  1.
          2   -1    0    0  501    0  0.00000000000E+00 -0.00000000000E+00 -0.14241127588E+03  0.14241127588E+03  0.00000000000E+00 0. -1.
         25    2    1    2    0    0 -0.50917373242E+02 -0.55933471609E+01 -0.30004874866E+02  0.13846225157E+03  0.12509051988E+03 0.  0.
         23    2    1    2    0    0  0.50917373242E+02  0.55933471609E+01 -0.11135206262E+02  0.10522021906E+03  0.91232873733E+02 0.  0.
          5    1    3    3  502    0 -0.51249709255E+02 -0.48926041661E+02 -0.53601834106E+02  0.88943348660E+02  0.41800000000E+01 0.  1.
         -5    1    3    3    0  502  0.33233601302E+00  0.43332694500E+02  0.23596959240E+02  0.49518902908E+02  0.41800000000E+01 0.  1.
        -11    1    4    4    0    0  0.62457122020E+02 -0.28096843011E+02 -0.22792534866E+01  0.68523862082E+02  0.00000000000E+00 0.  1.
         11    1    4    4    0    0 -0.11539748778E+02  0.33690190172E+02 -0.88559527759E+01  0.36696356975E+02  0.00000000000E+00 0. -1.
</event>
<event>
 8    1  0.7005395E-009  0.1297013E+03  0.7561462E-02  0.1227900E+00
          1   -1    0    0  501    0  0.00000000000E+00  0.00000000000E+00  0.16910814108E+03  0.16910814108E+03  0.00000000000E+00 0. -1.
         -1   -1    0    0    0  501 -0.00000000000E+00 -0.00000000000E+00 -0.18697510275E+03  0.18697510275E+03  0.00000000000E+00 0.  1.
         25    2    1    2    0    0  0.68003558651E+02  0.93231631077E+02 -0.89704714101E+02  0.19238533139E+03  0.12509420043E+03 0.  0.
         23    2    1    2    0    0 -0.68003558651E+02 -0.93231631077E+02  0.71837752424E+02  0.16369791243E+03  0.91212514710E+02 0.  0.
          5    1    3    3  502    0  0.81257410202E+02  0.45117866618E+02 -0.40019932125E+01  0.93122913134E+02  0.41800000000E+01 0. -1.
         -5    1    3    3    0  502 -0.13253851551E+02  0.48113764459E+02 -0.85702720888E+02  0.99262418261E+02  0.41800000000E+01 0. -1.
        -11    1    4    4    0    0 -0.21864465169E+02 -0.41924039673E+02  0.81300264155E+02  0.94050055244E+02  0.00000000000E+00 0. -1.
         11    1    4    4    0    0 -0.46139093482E+02 -0.51307591404E+02 -0.94625117316E+01  0.69647857191E+02  0.00000000000E+00 0.  1.
</event>
<event>
 8    1  0.7005395E-009  0.9962649E+02  0.7561462E-02  0.1281083E+00
         -1   -1    0    0    0  501 -0.00000000000E+00  0.00000000000E+00  0.40081705905E+02  0.40081705905E+02  0.00000000000E+00 0.  1.
          1   -1    0    0  501    0  0.00000000000E+00 -0.00000000000E+00 -0.54452370702E+03  0.54452370702E+03  0.00000000000E+00 0. -1.
         25    2    1    2    0    0  0.11638731055E+02 -0.79304668239E+02 -0.39275529945E+03  0.41991479765E+03  0.12508805528E+03 0.  0.
         23    2    1    2    0    0 -0.11638731055E+02  0.79304668239E+02 -0.11168670166E+03  0.16469061527E+03  0.90688416928E+02 0.  0.
          5    1    3    3  502    0  0.30420565590E+01  0.10285096236E+02  0.46567368918E+01  0.12417524358E+02  0.41800000000E+01 0. -1.
         -5    1    3    3    0  502  0.85966744963E+01 -0.89589764476E+02 -0.39741203635E+03  0.40749727330E+03  0.41800000000E+01 0. -1.
        -11    1    4    4    0    0 -0.24591443205E+02  0.90486777944E+01  0.61260050669E+01  0.26909953304E+02  0.00000000000E+00 0.  1.
         11    1    4    4    0    0  0.12952712150E+02  0.70255990445E+02 -0.11781270673E+03  0.13778066196E+03  0.00000000000E+00 0. -1.
</event>
<event>
 8    1  0.7005395E-009  0.1578646E+03  0.7561462E-02  0.1191129E+00
          2   -1    0    0  501    0  0.00000000000E+00  0.00000000000E+00  0.99171343437E+03  0.99171343437E+03  0.00000000000E+00 0. -1.
         -2   -1    0    0    0  501 -0.00000000000E+00 -0.00000000000E+00 -0.31415728689E+02  0.31415728689E+02  0.00000000000E+00 0.  1.
         25    2    1    2    0    0  0.13126223816E+03  0.22142646498E+02  0.38042541950E+03  0.42200926139E+03  0.12509294518E+03 0.  0.
         23    2    1    2    0    0 -0.13126223816E+03 -0.22142646498E+02  0.57987228618E+03  0.60111990167E+03  0.85867315936E+02 0.  0.
          5    1    3    3  502    0  0.65734283785E+02 -0.32197255187E+02  0.28402241001E+03  0.29333233899E+03  0.41800000000E+01 0.  1.
         -5    1    3    3    0  502  0.65527954376E+02  0.54339901685E+02  0.96403009489E+02  0.12867692240E+03  0.41800000000E+01 0.  1.
        -11    1    4    4    0    0 -0.14186233752E+03 -0.28676315288E+02  0.55070061691E+03  0.56940181185E+03  0.00000000000E+00 0. -1.
         11    1    4    4    0    0  0.10600099362E+02  0.65336687905E+01  0.29171669267E+02  0.31718089825E+02  0.00000000000E+00 0.  1.
</event>
<event>
 8    1  0.7005395E-009  0.2902302E+03  0.7561462E-02  0.1090229E+00
         -1   -1    0    0    0  501 -0.00000000000E+00  0.00000000000E+00  0.13727254628E+03  0.13727254628E+03  0.00000000000E+00 0.  1.
          1   -1    0    0  501    0  0.00000000000E+00 -0.00000000000E+00 -0.10340998311E+04  0.10340998311E+04  0.00000000000E+00 0. -1.
         25    2    1    2    0    0  0.28148074876E+03 -0.28919241846E+02 -0.80170664611E+03  0.85933048465E+03  0.12509037117E+03 0.  0.
         23    2    1    2    0    0 -0.28148074876E+03  0.28919241846E+02 -0.95120638707E+02  0.31204189273E+03  0.90854127258E+02 0.  0.
          5    1    3    3  502    0  0.16573841939E+03 -0.32635459637E+02 -0.62937535860E+03  0.65166334199E+03  0.41800000000E+01 0.  1.
         -5    1    3    3    0  502  0.11574232937E+03  0.37162177911E+01 -0.17233128751E+03  0.20766714265E+03  0.41800000000E+01 0.  1.
        -11    1    4    4    0    0 -0.18208997903E+03  0.59593594411E+02 -0.76855673125E+02  0.20643389123E+03  0.00000000000E+00 0.  1.
         11    1    4    4    0    0 -0.99390769729E+02 -0.30674352565E+02 -0.18264965581E+02  0.10560800150E+03  0.00000000000E+00 0. -1.
</event>
<event>
 8    1  0.7005395E-009  0.1342456E+03  0.7561462E-02  0.1221289E+00
          1   -1    0    0  501    0  0.00000000000E+00  0.00000000000E+00  0.92063569755E+02  0.92063569755E+02  0.00000000000E+00 0. -1.
         -1   -1    0    0    0  501 -0.00000000000E+00 -0.00000000000E+00 -0.20531091291E+03  0.20531091291E+03  0.00000000000E+00 0.  1.
         25    2    1    2    0    0  0.21937115019E+02 -0.78976655329E+02 -0.38946210277E+02  0.15454191136E+03  0.12509135050E+03 0.  0.
         23    2    1    2    0    0 -0.21937115019E+02  0.78976655329E+02 -0.74301132882E+02  0.14283257131E+03  0.90343433500E+02 0.  0.
          5    1    3    3  502    0  0.61568767805E+02 -0.72667097901E+00 -0.14663043058E+02  0.63432786881E+02  0.41800000000E+01 0.  1.
         -5    1    3    3    0  502 -0.39631652786E+02 -0.78249984350E+02 -0.24283167219E+02  0.91109124480E+02  0.41800000000E+01 0.  1.
        -11    1    4    4    0    0  0.23853648839E+02  0.67735099943E+02 -0.59948405659E+02  0.93545986917E+02  0.00000000000E+00 0.  1.
         11    1    4    4    0    0 -0.45790763858E+02  0.11241555386E+02 -0.14352727223E+02  0.49286584391E+02  0.00000000000E+00 0. -1.
</event>
<event>
 8    1  0.7005395E-009  0.1232179E+03  0.7561462E-02  0.1237881E+00
          1   -1    0    0  501    0  0.00000000000E+00  0.00000000000E+00  0.57871795375E+03  0.57871795375E+03  0.00000000000E+00 0. -1.
         -1   -1    0    0    0  501 -0.00000000000E+00 -0.00000000000E+00 -0.37807133377E+02  0.37807133377E+02  0.00000000000E+00 0.  1.
         25    2    1    2    0    0 -0.29376983306E+02  0.96164721578E+02  0.24892699593E+03  0.29617936595E+03  0.12508759606E+03 0.  0.
         23    2    1    2    0    0  0.29376983306E+02 -0.96164721578E+02  0.29198382445E+03  0.32034572118E+03  0.85183135154E+02 0.  0.
          5    1    3    3  502    0 -0.33001961456E+02  0.65927666679E+01  0.25979858776E+01  0.34011997338E+02  0.41800000000E+01 0.  1.
         -5    1    3    3    0  502  0.36249781499E+01  0.89571954910E+02  0.24632901005E+03  0.26216736861E+03  0.41800000000E+01 0.  1.
        -11    1    4    4    0    0 -0.87993002371E+01 -0.81359336158E+02  0.24350737672E+03  0.25689027187E+03  0.00000000000E+00 0. -1.
         11    1    4    4    0    0  0.38176283543E+02 -0.14805385420E+02  0.48476447724E+02  0.63455449306E+02  0.00000000000E+00 0.  1.
</event>
<event>
 8    1  0.7005395E-009  0.8450269E+02  0.7561462E-02  0.1316738E+00
          2   -1    0    0  501    0  0.00000000000E+00  0.00000000000E+00  0.50409944510E+03  0.50409944510E+03  0.00000000000E+00 0. -1.
         -2   -1    0    0    0  501 -0.00000000000E+00 -0.00000000000E+00 -0.31285012814E+02  0.31285012814E+02  0.00000000000E+00 0.  1.
         25    2    1    2    0    0  0.33014229404E+02 -0.51644172685E+02  0.33992678145E+03  0.36736174059E+03  0.12508945514E+03 0.  0.
         23    2    1    2    0    0 -0.33014229404E+02  0.51644172685E+02  0.13288765083E+03  0.16802271732E+03  0.82555713771E+02 0.  0.
          5    1    3    3  502    0  0.17660590611E+02  0.19135415768E+02  0.25197272698E+03  0.25334914276E+03  0.41800000000E+01 0.  1.
         -5    1    3    3    0  502  0.15353638793E+02 -0.70779588453E+02  0.87954054472E+02  0.11401259783E+03  0.41800000000E+01 0. -1.
        -11    1    4    4    0    0 -0.33200869556E+02  0.20665702213E+02  0.87448121847E+01  0.40072942584E+02  0.00000000000E+00 0.  1.
         11    1    4    4    0    0  0.18664015171E+00  0.30978470472E+02  0.12414283865E+03  0.12794977474E+03  0.00000000000E+00 0. -1.
</event>
<event>
 8    1  0.7005395E-009  0.1652610E+03  0.7561462E-02  0.1182882E+00
         -1   -1    0    0    0  501 -0.00000000000E+00  0.00000000000E+00  0.36389465458E+02  0.36389465458E+02  0.00000000000E+00 0.  1.
          1   -1    0    0  501    0  0.00000000000E+00 -0.00000000000E+00 -0.11478248362E+04  0.11478248362E+04  0.00000000000E+00 0. -1.
         25    2    1    2    0    0 -0.14010136855E+03 -0.21035760734E+02 -0.86545361842E+03  0.88584914606E+03  0.12509135556E+03 0.  0.
         23    2    1    2    0    0  0.14010136855E+03  0.21035760734E+02 -0.24598175231E+03  0.29836515559E+03  0.91890407010E+02 0.  0.
          5    1    3    3  502    0 -0.78907226446E+02  0.50900015402E+02 -0.40040788328E+03  0.41129199767E+03  0.41800000000E+01 0.  1.
         -5    1    3    3    0  502 -0.61194142105E+02 -0.71935776136E+02 -0.46504573514E+03  0.47455714839E+03  0.41800000000E+01 0.  1.
        -11    1    4    4    0    0  0.72430875926E+02  0.15702493974E+02 -0.46122765542E+02  0.87293239175E+02  0.00000000000E+00 0.  1.
         11    1    4    4    0    0  0.67670492625E+02  0.53332667598E+01 -0.19985898677E+03  0.21107191642E+03  0.00000000000E+00 0. -1.
</event>
<event>
 8    1  0.7005395E-009  0.1118869E+03  0.7561462E-02  0.1257115E+00
          2   -1    0    0  501    0  0.00000000000E+00  0.00000000000E+00  0.84056850201E+03  0.84056850201E+03  0.00000000000E+00 0. -1.
         -2   -1    0    0    0  501 -0.00000000000E+00 -0.00000000000E+00 -0.18347220837E+02  0.18347220837E+02  0.00000000000E+00 0.  1.
         25    2    1    2    0    0 -0.52074628884E+02 -0.22775038162E+02  0.45896972954E+03  0.47909491052E+03  0.12509297070E+03 0.  0.
         23    2    1    2    0    0  0.52074628884E+02  0.22775038162E+02  0.36325155164E+03  0.37982081233E+03  0.95297903308E+02 0.  0.
          5    1    3    3  502    0 -0.79638474878E+02  0.19529991617E+01  0.17062376548E+03  0.18835084984E+03  0.41800000000E+01 0. -1.
         -5    1    3    3    0  502  0.27563845994E+02 -0.24728037324E+02  0.28834596406E+03  0.29074406068E+03  0.41800000000E+01 0. -1.
        -11    1    4    4    0    0  0.77277597393E+02  0.84279771274E+01  0.30498735107E+03  0.31473821212E+03  0.00000000000E+00 0. -1.
         11    1    4    4    0    0 -0.25202968508E+02  0.14347061035E+02  0.58264200568E+02  0.65082600207E+02  0.00000000000E+00 0.  1.
</event>
<event>
 8    1  0.7005395E-009  0.9923531E+02  0.7561462E-02  0.1281912E+00
         -1   -1    0    0    0  501 -0.00000000000E+00  0.00000000000E+00  0.29720707642E+02  0.29720707642E+02  0.00000000000E+00 0.  1.
          1   -1    0    0  501    0  0.00000000000E+00 -0.00000000000E+00 -0.45185398622E+03  0.45185398622E+03  0.00000000000E+00 0. -1.
         25    2    1    2    0    0 -0.19120293033E+02 -0.14359568205E+02 -0.30878584659E+03  0.33402407084E+03  0.12510634693E+03 0.  0.
         23    2    1    2    0    0  0.19120293033E+02  0.14359568205E+02 -0.11334743199E+03  0.14755062302E+03  0.91387981762E+02 0.  0.
          5    1    3    3  502    0  0.41655351571E+02 -0.92425244210E+01 -0.40905250863E+02  0.59256261444E+02  0.41800000000E+01 0.  1.
         -5    1    3    3    0  502 -0.60775644604E+02 -0.51170437837E+01 -0.26788059573E+03  0.27476780940E+03  0.41800000000E+01 0.  1.
        -11    1    4    4    0    0  0.55676110576E+02  0.14471698316E+01 -0.67016336432E+02  0.87138469909E+02  0.00000000000E+00 0.  1.
         11    1    4    4    0    0 -0.36555817543E+02  0.12912398373E+02 -0.46331095557E+02  0.60412153111E+02  0.00000000000E+00 0. -1.
</event>
<event>
 8    1  0.7005395E-009  0.1460224E+03  0.7561462E-02  0.1205448E+00
          2   -1    0    0  501    0  0.00000000000E+00  0.00000000000E+00  0.22869066994E+04  0.22869066994E+04  0.00000000000E+00 0. -1.
         -2   -1    0    0    0  501 -0.00000000000E+00 -0.00000000000E+00 -0.19518990557E+02  0.19518990557E+02  0.00000000000E+00 0.  1.
         25    2    1    2    0    0  0.11737412160E+03 -0.14551624416E+02  0.19268255779E+04  0.19344995572E+04  0.12507315773E+03 0.  0.
         23    2    1    2    0    0 -0.11737412160E+03  0.14551624416E+02  0.34056213093E+03  0.37192613279E+03  0.91422366161E+02 0.  0.
          5    1    3    3  502    0  0.79099963883E+02 -0.53036827031E+02  0.16257274669E+04  0.16285198735E+04  0.41800000000E+01 0. -1.
         -5    1    3    3    0  502  0.38274157716E+02  0.38485202615E+02  0.30109811101E+03  0.30597968368E+03  0.41800000000E+01 0. -1.
        -11    1    4    4    0    0 -0.74128195007E+02 -0.30203177714E+02  0.13295078112E+03  0.15518740748E+03  0.00000000000E+00 0.  1.
         11    1    4    4    0    0 -0.43245926592E+02  0.44754802131E+02  0.20761134981E+03  0.21673872531E+03  0.00000000000E+00 0. -1.
</event>
<event>
 8    1  0.7005395E-009  0.1518619E+03  0.7561462E-02  0.1198204E+00
          2   -1    0    0  501    0  0.00000000000E+00  0.00000000000E+00  0.10332136184E+04  0.10332136184E+04  0.00000000000E+00 0. -1.
         -2   -1    0    0    0  501 -0.00000000000E+00 -0.00000000000E+00 -0.25414524314E+02  0.25414524314E+02  0.00000000000E+00 0.  1.
         25    2    1    2    0    0  0.41182797770E+02  0.10949093251E+03  0.61922586964E+03  0.64247234121E+03  0.12508295027E+03 0.  0.
         23    2    1    2    0    0 -0.41182797770E+02 -0.10949093251E+03  0.38857322446E+03  0.41615580152E+03  0.92261656379E+02 0.  0.
          5    1    3    3  502    0 -0.15174803153E+02 -0.19590480573E+02  0.48685747261E+02  0.54789013188E+02  0.41800000000E+01 0. -1.
         -5    1    3    3    0  502  0.56357600923E+02  0.12908141309E+03  0.57054012238E+03  0.58768332802E+03  0.41800000000E+01 0. -1.
        -11    1    4    4    0    0 -0.57844201634E+02 -0.51845096708E+02  0.29451895057E+03  0.30459034449E+03  0.00000000000E+00 0. -1.
         11    1    4    4    0    0  0.16661403864E+02 -0.57645835805E+02  0.94054273896E+02  0.11156545703E+03  0.00000000000E+00 0.  1.
</event>
<event>
 8    1  0.7005395E-009  0.1755235E+03  0.7561462E-02  0.1172207E+00
          4   -1    0    0  501    0  0.00000000000E+00  0.00000000000E+00  0.19356392681E+03  0.19356392681E+03  0.00000000000E+00 0. -1.
         -4   -1    0    0    0  501 -0.00000000000E+00 -0.00000000000E+00 -0.17440533631E+03  0.17440533631E+03  0.00000000000E+00 0.  1.
         25    2    1    2    0    0  0.13713420307E+03  0.29557893128E+02  0.57439013552E+02  0.19653634246E+03  0.12509130638E+03 0.  0.
         23    2    1    2    0    0 -0.13713420307E+03 -0.29557893128E+02 -0.38280423052E+02  0.17143292065E+03  0.90798660754E+02 0.  0.
          5    1    3    3  502    0  0.13975165511E+03 -0.15410305264E+02  0.55631261185E+02  0.15126239532E+03  0.41800000000E+01 0.  1.
         -5    1    3    3    0  502 -0.26174520419E+01  0.44968198392E+02  0.18077523668E+01  0.45273947149E+02  0.41800000000E+01 0.  1.
        -11    1    4    4    0    0 -0.10576844670E+03  0.18881467274E+02 -0.12285797035E+02  0.10814071820E+03  0.00000000000E+00 0.  1.
         11    1    4    4    0    0 -0.31365756368E+02 -0.48439360402E+02 -0.25994626017E+02  0.63292202446E+02  0.00000000000E+00 0. -1.
</event>
<event>
 8    1  0.7005395E-009  0.8849747E+02  0.7561462E-02  0.1306532E+00
         -2   -1    0    0    0  501 -0.00000000000E+00  0.00000000000E+00  0.59403050420E+02  0.59403050420E+02  0.00000000000E+00 0.  1.
          2   -1    0    0  501    0  0.00000000000E+00 -0.00000000000E+00 -0.25528788195E+03  0.25528788195E+03  0.00000000000E+00 0. -1.
         25    2    1    2    0    0 -0.27876161198E+02  0.40591056891E+01 -0.16258156799E+03  0.20706105249E+03  0.12509179232E+03 0.  0.
         23    2    1    2    0    0  0.27876161198E+02 -0.40591056891E+01 -0.33303263546E+02  0.10762987988E+03  0.98394750769E+02 0.  0.
          5    1    3    3  502    0  0.26592509065E+02  0.71849871489E+01 -0.14777001085E+03  0.15037364824E+03  0.41800000000E+01 0.  1.
         -5    1    3    3    0  502 -0.54468670263E+02 -0.31258814598E+01 -0.14811557132E+02  0.56687404243E+02  0.41800000000E+01 0.  1.
        -11    1    4    4    0    0  0.16341710024E+02  0.42980446157E+02 -0.37050929752E+02  0.59052024807E+02  0.00000000000E+00 0. -1.
         11    1    4    4    0    0  0.11534451175E+02 -0.47039551847E+02  0.37476662060E+01  0.48577855076E+02  0.00000000000E+00 0.  1.
</event>
<event>
 8    1  0.7005395E-009  0.1775595E+03  0.7561462E-02  0.1170186E+00
          2   -1    0    0  501    0  0.00000000000E+00  0.00000000000E+00  0.95754059857E+03  0.95754059857E+03  0.00000000000E+00 0. -1.
         -2   -1    0    0    0  501 -0.00000000000E+00 -0.00000000000E+00 -0.40148456872E+02  0.40148456872E+02  0.00000000000E+00 0.  1.
         25    2    1    2    0    0 -0.31773658046E+02 -0.15202911778E+03  0.60496380618E+03  0.63698615612E+03  0.12509092013E+03 0.  0.
         23    2    1    2    0    0  0.31773658046E+02  0.15202911778E+03  0.31242833552E+03  0.36070289932E+03  0.91502452133E+02 0.  0.
          5    1    3    3  502    0 -0.59751611837E+02 -0.18155221388E+02  0.19214670654E+03  0.20208338976E+03  0.41800000000E+01 0.  1.
         -5    1    3    3    0  502  0.27977953791E+02 -0.13387389640E+03  0.41281709964E+03  0.43490276636E+03  0.41800000000E+01 0.  1.
        -11    1    4    4    0    0  0.15358885785E+02  0.48377667778E+02  0.20234006386E+03  0.20860919336E+03  0.00000000000E+00 0. -1.
         11    1    4    4    0    0  0.16414772261E+02  0.10365145001E+03  0.11008827166E+03  0.15209370596E+03  0.00000000000E+00 0.  1.
</event>
<event>
 8    1  0.7005395E-009  0.1015226E+03  0.7561462E-02  0.1277126E+00
          2   -1    0    0  501    0  0.00000000000E+00  0.00000000000E+00  0.22640521151E+03  0.22640521151E+03  0.00000000000E+00 0.  1.
         -2   -1    0    0    0  501 -0.00000000000E+00 -0.00000000000E+00 -0.81128210360E+02  0.81128210360E+02  0.00000000000E+00 0. -1.
         25    2    1    2    0    0  0.57319598352E+02 -0.25903573495E+02  0.13576412832E+03  0.19503003714E+03  0.12509310682E+03 0.  0.
         23    2    1    2    0    0 -0.57319598352E+02  0.25903573495E+02  0.95128728330E+01  0.11250338473E+03  0.92790006746E+02 0.  0.
          5    1    3    3  502    0  0.27293777185E+02  0.50315817410E+02  0.47143143986E+02  0.74273684300E+02  0.41800000000E+01 0. -1.
         -5    1    3    3    0  502  0.30025821168E+02 -0.76219390905E+02  0.88620984333E+02  0.12075635284E+03  0.41800000000E+01 0. -1.
        -11    1    4    4    0    0 -0.42903278173E+02  0.14650398732E+02 -0.39537642297E+02  0.60154389860E+02  0.00000000000E+00 0. -1.
         11    1    4    4    0    0 -0.14416320180E+02  0.11253174763E+02  0.49050515130E+02  0.52348994874E+02  0.00000000000E+00 0.  1.
</event>
<event>
 8    1  0.7005395E-009  0.1455321E+03  0.7561462E-02  0.1206073E+00
          2   -1    0    0  501    0  0.00000000000E+00  0.00000000000E+00  0.56846943739E+03  0.56846943739E+03  0.00000000000E+00 0. -1.
         -2   -1    0    0    0  501 -0.00000000000E+00 -0.00000000000E+00 -0.42749547772E+02  0.42749547772E+02  0.00000000000E+00 0.  1.
         25    2    1    2    0    0 -0.29526096323E+02  0.10703239768E+03  0.26691383566E+03  0.31498937271E+03  0.12509030632E+03 0.  0.
         23    2    1    2    0    0  0.29526096323E+02 -0.10703239768E+03  0.25880605396E+03  0.29622961245E+03  0.91889527208E+02 0.  0.
          5    1    3    3  502    0  0.17475026164E+02 -0.13687807301E+02  0.10593028122E+03  0.10831172368E+03  0.41800000000E+01 0. -1.
         -5    1    3    3    0  502 -0.47001122487E+02  0.12072020498E+03  0.16098355444E+03  0.20667764903E+03  0.41800000000E+01 0. -1.
        -11    1    4    4    0    0  0.20201929135E+02 -0.12066563552E+03  0.24787220384E+03  0.27642167601E+03  0.00000000000E+00 0. -1.
         11    1    4    4    0    0  0.93241671883E+01  0.13633237832E+02  0.10933850123E+02  0.19807936441E+02  0.00000000000E+00 0.  1.
</event>
<event>
 8    1  0.7005395E-009  0.1268731E+03  0.7561462E-02  0.1232171E+00
         -2   -1    0    0    0  501 -0.00000000000E+00  0.00000000000E+00  0.38421537075E+03  0.38421537075E+03  0.00000000000E+00 0.  1.
          2   -1    0    0  501    0  0.00000000000E+00 -0.00000000000E+00 -0.60357442002E+02  0.60357442002E+02  0.00000000000E+00 0. -1.
         25    2    1    2    0    0 -0.36293974976E+02  0.73877872340E+02  0.74606660154E+02  0.16730231110E+03  0.12509483171E+03 0.  0.
         23    2    1    2    0    0  0.36293974976E+02 -0.73877872340E+02  0.24925126859E+03  0.27727050164E+03  0.89317095495E+02 0.  0.
          5    1    3    3  502    0 -0.73928063444E+02  0.50098768848E+02  0.11758887015E+02  0.90171996920E+02  0.41800000000E+01 0.  1.
         -5    1    3    3    0  502  0.37634088467E+02  0.23779103492E+02  0.62847773139E+02  0.77130314185E+02  0.41800000000E+01 0.  1.
        -11    1    4    4    0    0  0.24025486774E+02 -0.93473630948E+02  0.17969571497E+03  0.20397326706E+03  0.00000000000E+00 0. -1.
         11    1    4    4    0    0  0.12268488203E+02  0.19595758607E+02  0.69555553620E+02  0.73297234583E+02  0.00000000000E+00 0.  1.
</event>
<event>
 8    1  0.7005395E-009  0.1688618E+03  0.7561462E-02  0.1179040E+00
          1   -1    0    0  501    0  0.00000000000E+00  0.00000000000E+00  0.61372386572E+03  0.61372386572E+03  0.00000000000E+00 0. -1.
         -1   -1    0    0    0  501 -0.00000000000E+00 -0.00000000000E+00 -0.62616122064E+02  0.62616122064E+02  0.00000000000E+00 0.  1.
         25    2    1    2    0    0 -0.80190247124E+02  0.11677092603E+03  0.42914546914E+03  0.46891306628E+03  0.12509078761E+03 0.  0.
         23    2    1    2    0    0  0.80190247124E+02 -0.11677092603E+03  0.12196227451E+03  0.20742692150E+03  0.89917776093E+02 0.  0.
          5    1    3    3  502    0 -0.91298906018E+02  0.12882211300E+03  0.42192710276E+03  0.45052256268E+03  0.41800000000E+01 0. -1.
         -5    1    3    3    0  502  0.11108658893E+02 -0.12051186963E+02  0.72183663791E+01  0.18390503604E+02  0.41800000000E+01 0. -1.
        -11    1    4    4    0    0  0.92319363136E+02 -0.73748132295E+02  0.64473307164E+02  0.13460482593E+03  0.00000000000E+00 0. -1.
         11    1    4    4    0    0 -0.12129116012E+02 -0.43022793740E+02  0.57488967347E+02  0.72822095568E+02  0.00000000000E+00 0.  1.
</event>
<event>
 8    1  0.7005395E-009  0.9938847E+02  0.7561462E-02  0.1281587E+00
         -1   -1    0    0    0  501 -0.00000000000E+00  0.00000000000E+00  0.21292660742E+03  0.21292660742E+03  0.00000000000E+00 0.  1.
          1   -1    0    0  501    0  0.00000000000E+00 -0.00000000000E+00 -0.62236768486E+02  0.62236768486E+02  0.00000000000E+00 0. -1.
         25    2    1    2    0    0 -0.33855617459E+02 -0.10942590280E+02  0.98368737982E+02  0.16306390637E+03  0.12508991100E+03 0.  0.
         23    2    1    2    0    0  0.33855617459E+02  0.10942590280E+02  0.52321100957E+02  0.11209946954E+03  0.92535670687E+02 0.  0.
          5    1    3    3  502    0  0.22656971220E+02 -0.53243014561E+02  0.55977330707E+02  0.80616939271E+02  0.41800000000E+01 0.  1.
         -5    1    3    3    0  502 -0.56512588680E+02  0.42300424281E+02  0.42391407275E+02  0.82446967103E+02  0.41800000000E+01 0.  1.
        -11    1    4    4    0    0 -0.14125638425E+02 -0.10393807983E+02  0.56753491167E+02  0.59401377635E+02  0.00000000000E+00 0.  1.
         11    1    4    4    0    0  0.47981255885E+02  0.21336398263E+02 -0.44323902104E+01  0.52698091902E+02  0.00000000000E+00 0. -1.
</event>
<event>
 8    1  0.7005395E-009  0.1798305E+03  0.7561462E-02  0.1167967E+00
         -2   -1    0    0    0  501 -0.00000000000E+00  0.00000000000E+00  0.35665966040E+02  0.35665966040E+02  0.00000000000E+00 0.  1.
          2   -1    0    0  501    0  0.00000000000E+00 -0.00000000000E+00 -0.97421441943E+03  0.97421441943E+03  0.00000000000E+00 0. -1.
         25    2    1    2    0    0 -0.71625509783E+02  0.13120937057E+03 -0.55775832248E+03  0.59083572170E+03  0.12508553540E+03 0.  0.
         23    2    1    2    0    0  0.71625509783E+02 -0.13120937057E+03 -0.38079013091E+03  0.41904466377E+03  0.90836082351E+02 0.  0.
          5    1    3    3  502    0  0.29993843325E+02  0.19873579483E+01 -0.94736196817E+02  0.99478638996E+02  0.41800000000E+01 0.  1.
         -5    1    3    3    0  502 -0.10161935311E+03  0.12922201262E+03 -0.46302212566E+03  0.49135708271E+03  0.41800000000E+01 0.  1.
        -11    1    4    4    0    0  0.52627202608E+02 -0.27399281521E+02 -0.75472074762E+02  0.96001964309E+02  0.00000000000E+00 0.  1.
         11    1    4    4    0    0  0.18998307174E+02 -0.10381008905E+03 -0.30531805615E+03  0.32304269946E+03  0.00000000000E+00 0. -1.
</event>
<event>
 8    1  0.7005395E-009  0.1372145E+03  0.7561462E-02  0.1217127E+00
         -1   -1    0    0    0  501 -0.00000000000E+00  0.00000000000E+00  0.85786453898E+02  0.85786453898E+02  0.00000000000E+00 0.  1.
          1   -1    0    0  501    0  0.00000000000E+00 -0.00000000000E+00 -0.23767622858E+03  0.23767622858E+03  0.00000000000E+00 0. -1.
         25    2    1    2    0    0 -0.82958108858E+02  0.34546804905E+02 -0.54900218190E+02  0.16351413500E+03  0.12508920351E+03 0.  0.
         23    2    1    2    0    0  0.82958108858E+02 -0.34546804905E+02 -0.96989556491E+02  0.15994854747E+03  0.90005745463E+02 0.  0.
          5    1    3    3  502    0 -0.11295308163E+03  0.33315582169E+02 -0.60856321811E+02  0.13262462430E+03  0.41800000000E+01 0.  1.
         -5    1    3    3    0  502  0.29994972776E+02  0.12312227360E+01  0.59561036212E+01  0.30889510705E+02  0.41800000000E+01 0.  1.
        -11    1    4    4    0    0  0.14136779853E+02  0.29219388233E+02 -0.33610934545E+02  0.46725968308E+02  0.00000000000E+00 0. -1.
         11    1    4    4    0    0  0.68821329005E+02 -0.63766193138E+02 -0.63378621945E+02  0.11322257917E+03  0.00000000000E+00 0.  1.
</event>
<event>
 8    1  0.7005395E-009  0.7673427E+02  0.7561462E-02  0.1338583E+00
         -1   -1    0    0    0  501 -0.00000000000E+00  0.00000000000E+00  0.20522490391E+02  0.20522490391E+02  0.00000000000E+00 0. -1.
          1   -1    0    0  501    0  0.00000000000E+00 -0.00000000000E+00 -0.66308461850E+03  0.66308461850E+03  0.00000000000E+00 0.  1.
         25    2    1    2    0    0 -0.25236514716E+02  0.15893418324E+02 -0.45394091936E+03  0.47180470796E+03  0.12509133368E+03 0.  0.
         23    2    1    2    0    0  0.25236514716E+02 -0.15893418324E+02 -0.18862120875E+03  0.21180240093E+03  0.91612303921E+02 0.  0.
          5    1    3    3  502    0 -0.78756997936E+00 -0.16107076812E+02 -0.41595120564E+03  0.41628468152E+03  0.41800000000E+01 0. -1.
         -5    1    3    3    0  502 -0.24448944737E+02  0.32000495136E+02 -0.37989713717E+02  0.55520026441E+02  0.41800000000E+01 0. -1.
        -11    1    4    4    0    0 -0.32377869768E+02  0.89304380559E+01 -0.67995155315E+02  0.75838119181E+02  0.00000000000E+00 0. -1.
         11    1    4    4    0    0  0.57614384484E+02 -0.24823856380E+02 -0.12062605343E+03  0.13596428175E+03  0.00000000000E+00 0.  1.
</event>
<event>
 8    1  0.7005395E-009  0.1345491E+03  0.7561462E-02  0.1220858E+00
          2   -1    0    0  501    0  0.00000000000E+00  0.00000000000E+00  0.12722929352E+04  0.12722929352E+04  0.00000000000E+00 0. -1.
         -2   -1    0    0    0  501 -0.00000000000E+00 -0.00000000000E+00 -0.18395200347E+02  0.18395200347E+02  0.00000000000E+00 0.  1.
         25    2    1    2    0    0 -0.78690766437E+02  0.71683066751E+02  0.71159712834E+03  0.73030773394E+03  0.12509282316E+03 0.  0.
         23    2    1    2    0    0  0.78690766437E+02 -0.71683066751E+02  0.54230060653E+03  0.56038040163E+03  0.92766092425E+02 0.  0.
          5    1    3    3  502    0 -0.76599348600E+02  0.85032686932E+02  0.34647040557E+03  0.36490715585E+03  0.41800000000E+01 0.  1.
         -5    1    3    3    0  502 -0.20914178365E+01 -0.13349620181E+02  0.36512672277E+03  0.36540057809E+03  0.41800000000E+01 0.  1.
        -11    1    4    4    0    0  0.88597411625E+02 -0.85701891016E+02  0.45458481147E+03  0.47100070731E+03  0.00000000000E+00 0. -1.
         11    1    4    4    0    0 -0.99066451886E+01  0.14018824264E+02  0.87715795060E+02  0.89379694314E+02  0.00000000000E+00 0.  1.
</event>
<event>
 8    1  0.7005395E-009  0.2252139E+03  0.7561462E-02  0.1130055E+00
         -2   -1    0    0    0  501 -0.00000000000E+00  0.00000000000E+00  0.11102925676E+03  0.11102925676E+03  0.00000000000E+00 0. -1.
          2   -1    0    0  501    0  0.00000000000E+00 -0.00000000000E+00 -0.57273944859E+03  0.57273944859E+03  0.00000000000E+00 0.  1.
         25    2    1    2    0    0  0.73526003133E+02 -0.21024060731E+03 -0.29805315251E+03  0.39254487593E+03  0.12509441155E+03 0.  0.
         23    2    1    2    0    0 -0.73526003133E+02  0.21024060731E+03 -0.16365703932E+03  0.29122382942E+03  0.91763316216E+02 0.  0.
          5    1    3    3  502    0  0.33746082669E+02 -0.15689935661E+03 -0.11431114224E+03  0.19708048062E+03  0.41800000000E+01 0. -1.
         -5    1    3    3    0  502  0.39779920465E+02 -0.53341250698E+02 -0.18374201027E+03  0.19546439531E+03  0.41800000000E+01 0. -1.
        -11    1    4    4    0    0 -0.22081390033E+02  0.44581820986E+02 -0.89865345276E+02  0.10271760720E+03  0.00000000000E+00 0.  1.
         11    1    4    4    0    0 -0.51444613100E+02  0.16565878632E+03 -0.73791694044E+02  0.18850622221E+03  0.00000000000E+00 0. -1.
</event>
<event>
 8    1  0.7005395E-009  0.1145955E+03  0.7561462E-02  0.1252289E+00
         -2   -1    0    0    0  501 -0.00000000000E+00  0.00000000000E+00  0.27481909129E+02  0.27481909129E+02  0.00000000000E+00 0. -1.
          2   -1    0    0  501    0  0.00000000000E+00 -0.00000000000E+00 -0.57851134312E+03  0.57851134312E+03  0.00000000000E+00 0.  1.
         25    2    1    2    0    0 -0.39618697919E+02  0.48709418375E+02 -0.31426602803E+03  0.34402212405E+03  0.12508331942E+03 0.  0.
         23    2    1    2    0    0  0.39618697919E+02 -0.48709418375E+02 -0.23676340596E+03  0.26197112820E+03  0.92896248292E+02 0.  0.
          5    1    3    3  502    0  0.86597640681E+01 -0.36909570500E+02 -0.12534515208E+03  0.13101979796E+03  0.41800000000E+01 0.  1.
         -5    1    3    3    0  502 -0.48278461987E+02  0.85618988874E+02 -0.18892087596E+03  0.21300232609E+03  0.41800000000E+01 0.  1.
        -11    1    4    4    0    0  0.51535859154E+02 -0.10435442809E+02 -0.56002771914E+02  0.76818967107E+02  0.00000000000E+00 0. -1.
         11    1    4    4    0    0 -0.11917161235E+02 -0.38273975565E+02 -0.18076063405E+03  0.18515216110E+03  0.00000000000E+00 0.  1.
</event>
<event>
 8    1  0.7005395E-009  0.1067327E+03  0.7561462E-02  0.1266743E+00
          2   -1    0    0  501    0  0.00000000000E+00  0.00000000000E+00  0.64219130007E+03  0.64219130007E+03  0.00000000000E+00 0. -1.
         -2   -1    0    0    0  501 -0.00000000000E+00 -0.00000000000E+00 -0.31447222971E+02  0.31447222971E+02  0.00000000000E+00 0.  1.
         25    2    1    2    0    0 -0.44610646919E+02 -0.68303109490E+02  0.43047882240E+03  0.45564728577E+03  0.12508800068E+03 0.  0.
         23    2    1    2    0    0  0.44610646919E+02  0.68303109490E+02  0.18026525471E+03  0.21799123727E+03  0.91483292951E+02 0.  0.
          5    1    3    3  502    0  0.85093840401E+01 -0.76405173380E+02  0.35279128315E+03  0.36109461641E+03  0.41800000000E+01 0.  1.
         -5    1    3    3    0  502 -0.53120030959E+02  0.81020638898E+01  0.77687539248E+02  0.94552669358E+02  0.41800000000E+01 0.  1.
        -11    1    4    4    0    0  0.32474193666E+02  0.38307854314E+02  0.19292214306E+02  0.53798275895E+02  0.00000000000E+00 0.  1.
         11    1    4    4    0    0  0.12136453253E+02  0.29995255176E+02  0.16097304040E+03  0.16419296138E+03  0.00000000000E+00 0. -1.
</event>
<event>
 8    1  0.7005395E-009  0.1087119E+03  0.7561462E-02  0.1262974E+00
         -2   -1    0    0    0  501 -0.00000000000E+00  0.00000000000E+00  0.23806715319E+02  0.23806715319E+02  0.00000000000E+00 0.  1.
          2   -1    0    0  501    0  0.00000000000E+00 -0.00000000000E+00 -0.62087200974E+03  0.62087200974E+03  0.00000000000E+00 0. -1.
         25    2    1    2    0    0 -0.26028851643E+02  0.12105484474E+02 -0.21092317939E+03  0.24690173379E+03  0.12509130535E+03 0.  0.
         23    2    1    2    0    0  0.26028851643E+02 -0.12105484474E+02 -0.38614211504E+03  0.39777699127E+03  0.91086540759E+02 0.  0.
          5    1    3    3  502    0  0.42802100737E+01 -0.52005191353E+02 -0.12431478336E+03  0.13488698191E+03  0.41800000000E+01 0.  1.
         -5    1    3    3    0  502 -0.30309061717E+02  0.64110675827E+02 -0.86608396025E+02  0.11201475188E+03  0.41800000000E+01 0.  1.
        -11    1    4    4    0    0  0.41824584855E+02  0.28404338129E+02 -0.24176115454E+03  0.24699100828E+03  0.00000000000E+00 0.  1.
         11    1    4    4    0    0 -0.15795733211E+02 -0.40509822602E+02 -0.14438096049E+03  0.15078598299E+03  0.00000000000E+00 0. -1.
</event>
<event>
 8    1  0.7005395E-009  0.8576101E+02  0.7561462E-02  0.1313454E+00
         -2   -1    0    0    0  501 -0.00000000000E+00  0.00000000000E+00  0.15034935449E+03  0.15034935449E+03  0.00000000000E+00 0.  1.
          2   -1    0    0  501    0  0.00000000000E+00 -0.00000000000E+00 -0.88494761442E+02  0.88494761442E+02  0.00000000000E+00 0. -1.
         25    2    1    2    0    0  0.20922126391E+02 -0.10726804618E+02  0.67347733127E+02  0.14399921933E+03  0.12508900152E+03 0.  0.
         23    2    1    2    0    0 -0.20922126391E+02  0.10726804618E+02 -0.54931400809E+01  0.94844896595E+02  0.91720118361E+02 0.  0.
          5    1    3    3  502    0  0.50798396700E-02  0.36053636763E+02 -0.20888321324E+02  0.41876713307E+02  0.41800000000E+01 0. -1.
         -5    1    3    3    0  502  0.20917046552E+02 -0.46780441382E+02  0.88236054450E+02  0.10212250603E+03  0.41800000000E+01 0. -1.
        -11    1    4    4    0    0 -0.36898063683E+02  0.37516706610E+02  0.18194949609E+02  0.55677882231E+02  0.00000000000E+00 0.  1.
         11    1    4    4    0    0  0.15975937292E+02 -0.26789901992E+02 -0.23688089690E+02  0.39167014364E+02  0.00000000000E+00 0. -1.
</event>
<event>
 8    1  0.7005395E-009  0.1129081E+03  0.7561462E-02  0.1255277E+00
         -1   -1    0    0    0  501 -0.00000000000E+00  0.00000000000E+00  0.34964176632E+02  0.34964176632E+02  0.00000000000E+00 0.  1.
          1   -1    0    0  501    0  0.00000000000E+00 -0.00000000000E+00 -0.46026826664E+03  0.46026826664E+03  0.00000000000E+00 0. -1.
         25    2    1    2    0    0  0.37346164047E+02 -0.27580841278E+02 -0.30504746937E+03  0.33295190578E+03  0.12509026428E+03 0.  0.
         23    2    1    2    0    0 -0.37346164047E+02  0.27580841278E+02 -0.12025662064E+03  0.16228053750E+03  0.98579304457E+02 0.  0.
          5    1    3    3  502    0 -0.71519807456E+01  0.44005129961E+02 -0.14852090937E+03  0.15512425733E+03  0.41800000000E+01 0. -1.
         -5    1    3    3    0  502  0.44498144793E+02 -0.71585971239E+02 -0.15652656000E+03  0.17782764845E+03  0.41800000000E+01 0. -1.
        -11    1    4    4    0    0 -0.23321849685E+02 -0.29649120427E+02 -0.12991406217E+02  0.39896812533E+02  0.00000000000E+00 0.  1.
         11    1    4    4    0    0 -0.14024314362E+02  0.57229961705E+02 -0.10726521443E+03  0.12238372496E+03  0.00000000000E+00 0. -1.
</event>
<event>
 8    1  0.7005395E-009  0.8718684E+02  0.7561462E-02  0.1309811E+00
         -3   -1    0    0    0  501 -0.00000000000E+00  0.00000000000E+00  0.14758190641E+03  0.14758190641E+03  0.00000000000E+00 0.  1.
          3   -1    0    0  501    0  0.00000000000E+00 -0.00000000000E+00 -0.88048293502E+02  0.88048293502E+02  0.00000000000E+00 0. -1.
         25    2    1    2    0    0 -0.15417111289E+02  0.21307941841E+02  0.73162859800E+01  0.12803215730E+03  0.12508792730E+03 0.  0.
         23    2    1    2    0    0  0.15417111289E+02 -0.21307941841E+02  0.52217326928E+02  0.10759804262E+03  0.90327038240E+02 0.  0.
          5    1    3    3  502    0  0.52011711625E+02 -0.13107015786E+01  0.19566050593E+02  0.55742612252E+02  0.41800000000E+01 0. -1.
         -5    1    3    3    0  502 -0.67428822914E+02  0.22618643420E+02 -0.12249764613E+02  0.72289545045E+02  0.41800000000E+01 0. -1.
        -11    1    4    4    0    0  0.16526470372E+02 -0.34205423701E+02 -0.13728889448E+02  0.40393287053E+02  0.00000000000E+00 0. -1.
         11    1    4    4    0    0 -0.11093590827E+01  0.12897481859E+02  0.65946216376E+02  0.67204755562E+02  0.00000000000E+00 0.  1.
</event>
<event>
 8    1  0.7005395E-009  0.1363709E+03  0.7561462E-02  0.1218297E+00
         -2   -1    0    0    0  501 -0.00000000000E+00  0.00000000000E+00  0.83739772610E+02  0.83739772610E+02  0.00000000000E+00 0.  1.
          2   -1    0    0  501    0  0.00000000000E+00 -0.00000000000E+00 -0.23388610546E+03  0.23388610546E+03  0.00000000000E+00 0. -1.
         25    2    1    2    0    0  0.63972078933E+02  0.56815789268E+02 -0.58752915267E+02  0.16254092748E+03  0.12508871756E+03 0.  0.
         23    2    1    2    0    0 -0.63972078933E+02 -0.56815789268E+02 -0.91393417584E+02  0.15508495059E+03  0.91532094525E+02 0.  0.
          5    1    3    3  502    0  0.92591841500E+02  0.69813541317E+02 -0.30277898210E+02  0.11992248823E+03  0.41800000000E+01 0. -1.
         -5    1    3    3    0  502 -0.28619762567E+02 -0.12997752049E+02 -0.28475017057E+02  0.42618439250E+02  0.41800000000E+01 0. -1.
        -11    1    4    4    0    0 -0.27455692600E+02  0.23901491949E+02 -0.21839251734E+02  0.42450551114E+02  0.00000000000E+00 0.  1.
         11    1    4    4    0    0 -0.36516386332E+02 -0.80717281217E+02 -0.69554165850E+02  0.11263439947E+03  0.00000000000E+00 0. -1.
</event>
<event>
 8    1  0.7005395E-009  0.1079457E+03  0.7561462E-02  0.1264422E+00
          1   -1    0    0  501    0  0.00000000000E+00  0.00000000000E+00  0.80143876868E+02  0.80143876868E+02  0.00000000000E+00 0. -1.
         -1   -1    0    0    0  501 -0.00000000000E+00 -0.00000000000E+00 -0.20580967246E+03  0.20580967246E+03  0.00000000000E+00 0.  1.
         25    2    1    2    0    0  0.68958375017E+02 -0.43914862885E+01 -0.62823177635E+02  0.15609564850E+03  0.12507820432E+03 0.  0.
         23    2    1    2    0    0 -0.68958375017E+02  0.43914862885E+01 -0.62842617960E+02  0.12985790083E+03  0.90218274967E+02 0.  0.
          5    1    3    3  502    0  0.51041647117E+02  0.57495044954E+02 -0.23511954440E+02  0.80505989443E+02  0.41800000000E+01 0. -1.
         -5    1    3    3    0  502  0.17916727901E+02 -0.61886531243E+02 -0.39311223195E+02  0.75589659061E+02  0.41800000000E+01 0. -1.
        -11    1    4    4    0    0 -0.29617983394E+02 -0.11676599913E+02  0.19402484542E+02  0.37283030084E+02  0.00000000000E+00 0. -1.
         11    1    4    4    0    0 -0.39340391624E+02  0.16068086201E+02 -0.82245102502E+02  0.92574870742E+02  0.00000000000E+00 0.  1.
</event>
<event>
 8    1  0.7005395E-009  0.9796465E+02  0.7561462E-02  0.1284635E+00
         -2   -1    0    0    0  501 -0.00000000000E+00  0.00000000000E+00  0.15669000002E+02  0.15669000002E+02  0.00000000000E+00 0.  1.
          2   -1    0    0  501    0  0.00000000000E+00 -0.00000000000E+00 -0.10581367678E+04  0.10581367678E+04  0.00000000000E+00 0. -1.
         25    2    1    2    0    0  0.85528570769E+00 -0.68140081516E+02 -0.49403577375E+03  0.51416181603E+03  0.12508886881E+03 0.  0.
         23    2    1    2    0    0 -0.85528570769E+00  0.68140081516E+02 -0.54843199410E+03  0.55964395182E+03  0.88203732543E+02 0.  0.
          5    1    3    3  502    0 -0.17981412354E+02 -0.57894611261E+01 -0.39548507539E+03  0.39595803604E+03  0.41800000000E+01 0.  1.
         -5    1    3    3    0  502  0.18836698062E+02 -0.62350620390E+02 -0.98550698360E+02  0.11820377999E+03  0.41800000000E+01 0.  1.
        -11    1    4    4    0    0 -0.24270417965E+02 -0.12530334682E+02 -0.14733855332E+03  0.14984896319E+03  0.00000000000E+00 0.  1.
         11    1    4    4    0    0  0.23415132257E+02  0.80670416198E+02 -0.40109344078E+03  0.40979498863E+03  0.00000000000E+00 0. -1.
</event>
<event>
 8    1  0.7005395E-009  0.1745848E+03  0.7561462E-02  0.1173149E+00
          1   -1    0    0  501    0  0.00000000000E+00  0.00000000000E+00  0.36522995721E+03  0.36522995721E+03  0.00000000000E+00 0. -1.
         -1   -1    0    0    0  501 -0.00000000000E+00 -0.00000000000E+00 -0.99084594920E+02  0.99084594920E+02  0.00000000000E+00 0.  1.
         25    2    1    2    0    0 -0.13718896806E+03  0.60590398815E+02  0.18166860060E+03  0.26672724267E+03  0.12509169498E+03 0.  0.
         23    2    1    2    0    0  0.13718896806E+03 -0.60590398815E+02  0.84476761690E+02  0.19758730946E+03  0.97017587109E+02 0.  0.
          5    1    3    3  502    0  0.19271769686E+02  0.27590024040E+02  0.44915456843E+02  0.56280380212E+02  0.41800000000E+01 0. -1.
         -5    1    3    3    0  502 -0.15646073775E+03  0.33000374775E+02  0.13675314376E+03  0.21044686246E+03  0.41800000000E+01 0. -1.
        -11    1    4    4    0    0  0.26847638444E+02  0.44519330754E+01 -0.18779669251E+02  0.33064956908E+02  0.00000000000E+00 0.  1.
         11    1    4    4    0    0  0.11034132962E+03 -0.65042331890E+02  0.10325643094E+03  0.16452235255E+03  0.00000000000E+00 0. -1.
</event>
<event>
 8    1  0.7005395E-009  0.1833403E+03  0.7561462E-02  0.1164609E+00
          2   -1    0    0  501    0  0.00000000000E+00  0.00000000000E+00  0.14334548271E+03  0.14334548271E+03  0.00000000000E+00 0. -1.
         -2   -1    0    0    0  501 -0.00000000000E+00 -0.00000000000E+00 -0.30032317529E+03  0.30032317529E+03  0.00000000000E+00 0.  1.
         25    2    1    2    0    0 -0.89527571609E+02  0.13682421853E+03 -0.15245742820E+03  0.25617703759E+03  0.12508938532E+03 0.  0.
         23    2    1    2    0    0  0.89527571609E+02 -0.13682421853E+03 -0.45202643844E+01  0.18749162041E+03  0.91633083977E+02 0.  0.
          5    1    3    3  502    0 -0.33882791172E+02  0.25063908229E+01 -0.92902976475E+02  0.99008893391E+02  0.41800000000E+01 0. -1.
         -5    1    3    3    0  502 -0.55644780436E+02  0.13431782771E+03 -0.59554451723E+02  0.15716814420E+03  0.41800000000E+01 0. -1.
        -11    1    4    4    0    0  0.77255072028E+02 -0.35647496642E+02 -0.84219232250E+01  0.85498648888E+02  0.00000000000E+00 0.  1.
         11    1    4    4    0    0  0.12272499580E+02 -0.10117672189E+03  0.39016588407E+01  0.10199297152E+03  0.00000000000E+00 0. -1.
</event>
<event>
 8    1  0.7005395E-009  0.1329791E+03  0.7561462E-02  0.1223101E+00
          1   -1    0    0  501    0  0.00000000000E+00  0.00000000000E+00  0.30247987911E+03  0.30247987911E+03  0.00000000000E+00 0. -1.
         -1   -1    0    0    0  501 -0.00000000000E+00 -0.00000000000E+00 -0.71690766775E+02  0.71690766775E+02  0.00000000000E+00 0.  1.
         25    2    1    2    0    0  0.50289040405E+02  0.85228672603E+02  0.87592649558E+02  0.18197083771E+03  0.12509196338E+03 0.  0.
         23    2    1    2    0    0 -0.50289040405E+02 -0.85228672603E+02  0.14319646278E+03  0.19219980817E+03  0.81502301137E+02 0.  0.
          5    1    3    3  502    0  0.51653803280E+02  0.11234400712E+03  0.91963230942E+02  0.15415576400E+03  0.41800000000E+01 0.  1.
         -5    1    3    3    0  502 -0.13647628753E+01 -0.27115334521E+02 -0.43705813842E+01  0.27815073711E+02  0.41800000000E+01 0.  1.
        -11    1    4    4    0    0  0.13160330470E+02 -0.18338927488E+02  0.82988107318E+00  0.22587590887E+02  0.00000000000E+00 0.  1.
         11    1    4    4    0    0 -0.63449370875E+02 -0.66889745115E+02  0.14236658170E+03  0.16961221728E+03  0.00000000000E+00 0. -1.
</event>
<event>
 8    1  0.7005395E-009  0.1292340E+03  0.7561462E-02  0.1228597E+00
          2   -1    0    0  501    0  0.00000000000E+00  0.00000000000E+00  0.58146598150E+03  0.58146598150E+03  0.00000000000E+00 0. -1.
         -2   -1    0    0    0  501 -0.00000000000E+00 -0.00000000000E+00 -0.33615325604E+02  0.33615325604E+02  0.00000000000E+00 0.  1.
         25    2    1    2    0    0  0.80665141516E+02 -0.39229196775E+02  0.30836231900E+03  0.34464439174E+03  0.12508653822E+03 0.  0.
         23    2    1    2    0    0 -0.80665141516E+02  0.39229196775E+02  0.23948833689E+03  0.27043691536E+03  0.87952639226E+02 0.  0.
          5    1    3    3  502    0  0.93111339423E+01  0.43384689303E+02  0.95409032636E+02  0.10530567121E+03  0.41800000000E+01 0.  1.
         -5    1    3    3    0  502  0.71354007574E+02 -0.82613886078E+02  0.21295328636E+03  0.23933872053E+03  0.41800000000E+01 0.  1.
        -11    1    4    4    0    0 -0.27622531169E+02 -0.12721322451E+02  0.14842334827E+02  0.33839786882E+02  0.00000000000E+00 0.  1.
         11    1    4    4    0    0 -0.53042610347E+02  0.51950519226E+02  0.22464600207E+03  0.23659712848E+03  0.00000000000E+00 0. -1.
</event>
<event>
 8    1  0.7005395E-009  0.1075526E+03  0.7561462E-02  0.1265170E+00
         -3   -1    0    0    0  501 -0.00000000000E+00  0.00000000000E+00  0.45225676112E+03  0.45225676112E+03  0.00000000000E+00 0.  1.
          3   -1    0    0  501    0  0.00000000000E+00 -0.00000000000E+00 -0.34745710782E+02  0.34745710782E+02  0.00000000000E+00 0. -1.
         25    2    1    2    0    0  0.54262705072E+01 -0.34342724775E+02  0.33666330422E+03  0.36082952644E+03  0.12508756769E+03 0.  0.
         23    2    1    2    0    0 -0.54262705072E+01  0.34342724775E+02  0.80847746124E+02  0.12617294546E+03  0.90412316397E+02 0.  0.
          5    1    3    3  502    0 -0.43427047176E+02 -0.54328735449E+02  0.13005303597E+03  0.14754248367E+03  0.41800000000E+01 0. -1.
         -5    1    3    3    0  502  0.48853317683E+02  0.19986010674E+02  0.20661026824E+03  0.21328704277E+03  0.41800000000E+01 0. -1.
        -11    1    4    4    0    0  0.19631286375E+02 -0.22797862868E+02  0.45250698538E+02  0.54339264573E+02  0.00000000000E+00 0.  1.
         11    1    4    4    0    0 -0.25057556883E+02  0.57140587643E+02  0.35597047585E+02  0.71833680888E+02  0.00000000000E+00 0. -1.
</event>
<event>
 8    1  0.7005395E-009  0.1144359E+03  0.7561462E-02  0.1252569E+00
          3   -1    0    0  501    0  0.00000000000E+00  0.00000000000E+00  0.99190481630E+02  0.99190481630E+02  0.00000000000E+00 0. -1.
         -3   -1    0    0    0  501 -0.00000000000E+00 -0.00000000000E+00 -0.14717135685E+03  0.14717135685E+03  0.00000000000E+00 0.  1.
         25    2    1    2    0    0  0.13615448279E+02 -0.36672808182E+02  0.85064407918E+01  0.13133954438E+03  0.12508973216E+03 0.  0.
         23    2    1    2    0    0 -0.13615448279E+02  0.36672808182E+02 -0.56487316014E+02  0.11502229410E+03  0.92244436032E+02 0.  0.
          5    1    3    3  502    0 -0.24796444093E+01  0.45170063457E+02 -0.82131714833E+01  0.46167216235E+02  0.41800000000E+01 0. -1.
         -5    1    3    3    0  502  0.16095092689E+02 -0.81842871638E+02  0.16719612275E+02  0.85172328143E+02  0.41800000000E+01 0. -1.
        -11    1    4    4    0    0  0.20071473124E+01  0.66353974305E+02 -0.33486947930E+02  0.74352230821E+02  0.00000000000E+00 0. -1.
         11    1    4    4    0    0 -0.15622595592E+02 -0.29681166123E+02 -0.23000368085E+02  0.40670063284E+02  0.00000000000E+00 0.  1.
</event>
<event>
 8    1  0.7005395E-009  0.2197921E+03  0.7561462E-02  0.1134038E+00
          2   -1    0    0  501    0  0.00000000000E+00  0.00000000000E+00  0.87307880066E+03  0.87307880066E+03  0.00000000000E+00 0. -1.
         -2   -1    0    0    0  501 -0.00000000000E+00 -0.00000000000E+00 -0.59593077557E+02  0.59593077557E+02  0.00000000000E+00 0.  1.
         25    2    1    2    0    0 -0.11399772796E+03  0.15544434118E+03  0.31228244367E+03  0.38771895621E+03  0.12508892512E+03 0.  0.
         23    2    1    2    0    0  0.11399772796E+03 -0.15544434118E+03  0.50120327943E+03  0.54495292201E+03  0.92792966920E+02 0.  0.
          5    1    3    3  502    0 -0.97693734666E+02  0.33484532871E+02  0.17563071062E+03  0.20378640447E+03  0.41800000000E+01 0. -1.
         -5    1    3    3    0  502 -0.16303993296E+02  0.12195980831E+03  0.13665173305E+03  0.18393255173E+03  0.41800000000E+01 0. -1.
        -11    1    4    4    0    0  0.75130376181E+02 -0.15717172344E+03  0.38995169124E+03  0.42709465646E+03  0.00000000000E+00 0. -1.
         11    1    4    4    0    0  0.38867351780E+02  0.17273822588E+01  0.11125158820E+03  0.11785826556E+03  0.00000000000E+00 0.  1.
</event>
<event>
 8    1  0.7005395E-009  0.7312810E+02  0.7561462E-02  0.1349768E+00
         -1   -1    0    0    0  501 -0.00000000000E+00  0.00000000000E+00  0.83364027746E+02  0.83364027746E+02  0.00000000000E+00 0.  1.
          1   -1    0    0  501    0  0.00000000000E+00 -0.00000000000E+00 -0.16688879865E+03  0.16688879865E+03  0.00000000000E+00 0. -1.
         25    2    1    2    0    0 -0.47132101200E+01  0.29367328669E+02 -0.77401704395E+01  0.12880147666E+03  0.12508099700E+03 0.  0.
         23    2    1    2    0    0  0.47132101200E+01 -0.29367328669E+02 -0.75784600461E+02  0.12145134973E+03  0.90124748772E+02 0.  0.
          5    1    3    3  502    0  0.22212724328E+02  0.43593319209E+01 -0.60293632727E+02  0.64538387369E+02  0.41800000000E+01 0.  1.
         -5    1    3    3    0  502 -0.26925934448E+02  0.25007996748E+02  0.52553462287E+02  0.64263089294E+02  0.41800000000E+01 0.  1.
        -11    1    4    4    0    0 -0.36783388999E+02 -0.25112078328E+02 -0.13593903954E+02  0.46566387114E+02  0.00000000000E+00 0.  1.
         11    1    4    4    0    0  0.41496599119E+02 -0.42552503416E+01 -0.62190696507E+02  0.74884962615E+02  0.00000000000E+00 0. -1.
</event>
<event>
 8    1  0.7005395E-009  0.1013725E+03  0.7561462E-02  0.1277436E+00
         -1   -1    0    0    0  501 -0.00000000000E+00  0.00000000000E+00  0.15954166969E+03  0.15954166969E+03  0.00000000000E+00 0.  1.
          1   -1    0    0  501    0  0.00000000000E+00 -0.00000000000E+00 -0.12762964203E+03  0.12762964203E+03  0.00000000000E+00 0. -1.
         25    2    1    2    0    0 -0.10071397951E+02 -0.91169235444E+02  0.21007514872E+02  0.15653141104E+03  0.12508998526E+03 0.  0.
         23    2    1    2    0    0  0.10071397951E+02  0.91169235444E+02  0.10904512789E+02  0.13063990068E+03  0.92382967594E+02 0.  0.
          5    1    3    3  502    0 -0.33636383096E+01 -0.46261893402E+02  0.73492190431E+02  0.87006041733E+02  0.41800000000E+01 0.  1.
         -5    1    3    3    0  502 -0.67077596411E+01 -0.44907342042E+02 -0.52484675559E+02  0.69525369307E+02  0.41800000000E+01 0.  1.
        -11    1    4    4    0    0  0.35379565117E+02  0.39415008316E+02  0.39739880870E+02  0.66215667632E+02  0.00000000000E+00 0.  1.
         11    1    4    4    0    0 -0.25308167167E+02  0.51754227128E+02 -0.28835368081E+02  0.64424233044E+02  0.00000000000E+00 0. -1.
</event>
<event>
 8    1  0.7005395E-009  0.2800281E+03  0.7561462E-02  0.1095674E+00
         -2   -1    0    0    0  501 -0.00000000000E+00  0.00000000000E+00  0.30796676323E+03  0.30796676323E+03  0.00000000000E+00 0.  1.
          2   -1    0    0  501    0  0.00000000000E+00 -0.00000000000E+00 -0.26703520337E+03  0.26703520337E+03  0.00000000000E+00 0. -1.
         25    2    1    2    0    0  0.18630867307E+03 -0.18804362566E+03  0.53918839630E+02  0.29770181619E+03  0.12509117987E+03 0.  0.
         23    2    1    2    0    0 -0.18630867307E+03  0.18804362566E+03 -0.12987279771E+02  0.27730015041E+03  0.81580495015E+02 0.  0.
          5    1    3    3  502    0  0.18155390235E+03 -0.20446175094E+03  0.58202325891E+02  0.27959150595E+03  0.41800000000E+01 0. -1.
         -5    1    3    3    0  502  0.47547707197E+01  0.16418125286E+02 -0.42834862616E+01  0.18110310242E+02  0.41800000000E+01 0. -1.
        -11    1    4    4    0    0 -0.13363073957E+03  0.16267822093E+03 -0.37610950356E+02  0.21385967762E+03  0.00000000000E+00 0. -1.
         11    1    4    4    0    0 -0.52677933499E+02  0.25365404730E+02  0.24623670585E+02  0.63440472791E+02  0.00000000000E+00 0.  1.
</event>
<event>
 8    1  0.7005395E-009  0.1143496E+03  0.7561462E-02  0.1252721E+00
         -1   -1    0    0    0  501 -0.00000000000E+00  0.00000000000E+00  0.15326112951E+02  0.15326112951E+02  0.00000000000E+00 0.  1.
          1   -1    0    0  501    0  0.00000000000E+00 -0.00000000000E+00 -0.93624759897E+03  0.93624759897E+03  0.00000000000E+00 0. -1.
         25    2    1    2    0    0 -0.39834049642E+02 -0.24510728080E+02 -0.50774938777E+03  0.52501873078E+03  0.12509076540E+03 0.  0.
         23    2    1    2    0    0  0.39834049642E+02  0.24510728080E+02 -0.41317209825E+03  0.42655498114E+03  0.95133810298E+02 0.  0.
          5    1    3    3  502    0 -0.42927230509E+02 -0.67190777149E+02 -0.41730920148E+03  0.42487855876E+03  0.41800000000E+01 0. -1.
         -5    1    3    3    0  502  0.30931808670E+01  0.42680049069E+02 -0.90440186287E+02  0.10014017202E+03  0.41800000000E+01 0. -1.
        -11    1    4    4    0    0  0.68660805634E+02  0.32476273040E+02 -0.30634955253E+03  0.31562487684E+03  0.00000000000E+00 0.  1.
         11    1    4    4    0    0 -0.28826755992E+02 -0.79655449601E+01 -0.10682254572E+03  0.11093010431E+03  0.00000000000E+00 0. -1.
</event>
<event>
 8    1  0.7005395E-009  0.1088745E+03  0.7561462E-02  0.1262668E+00
         -1   -1    0    0    0  501 -0.00000000000E+00  0.00000000000E+00  0.77987549071E+02  0.77987549071E+02  0.00000000000E+00 0.  1.
          1   -1    0    0  501    0  0.00000000000E+00 -0.00000000000E+00 -0.18512877946E+03  0.18512877946E+03  0.00000000000E+00 0. -1.
         25    2    1    2    0    0  0.45911188119E+02  0.28329653739E+02 -0.57869828248E+02  0.14801308153E+03  0.12509415976E+03 0.  0.
         23    2    1    2    0    0 -0.45911188119E+02 -0.28329653739E+02 -0.49271402143E+02  0.11510324701E+03  0.88942003163E+02 0.  0.
          5    1    3    3  502    0 -0.19516834218E+02 -0.34177130514E+02 -0.38838850789E+02  0.55451887242E+02  0.41800000000E+01 0.  1.
         -5    1    3    3    0  502  0.65428022337E+02  0.62506784253E+02 -0.19030977459E+02  0.92561194286E+02  0.41800000000E+01 0.  1.
        -11    1    4    4    0    0 -0.43351510270E+02  0.13711200153E+02  0.57296376972E+01  0.45827712145E+02  0.00000000000E+00 0.  1.
         11    1    4    4    0    0 -0.25596778488E+01 -0.42040853892E+02 -0.55001039840E+02  0.69275534860E+02  0.00000000000E+00 0. -1.
</event>
<event>
 8    1  0.7005395E-009  0.1760294E+03  0.7561462E-02  0.1171702E+00
         -1   -1    0    0    0  501 -0.00000000000E+00  0.00000000000E+00  0.29399099213E+03  0.29399099213E+03  0.00000000000E+00 0.  1.
          1   -1    0    0  501    0  0.00000000000E+00 -0.00000000000E+00 -0.12918096838E+03  0.12918096838E+03  0.00000000000E+00 0. -1.
         25    2    1    2    0    0 -0.52308218315E+00  0.14616880082E+03  0.16083303561E+03  0.25076040622E+03  0.12509166255E+03 0.  0.
         23    2    1    2    0    0  0.52308218315E+00 -0.14616880082E+03  0.39769881399E+01  0.17241155429E+03  0.91347335324E+02 0.  0.
          5    1    3    3  502    0 -0.42363168832E+02  0.14006312667E+03  0.14311940878E+03  0.20472653736E+03  0.41800000000E+01 0.  1.
         -5    1    3    3    0  502  0.41840086649E+02  0.61056741440E+01  0.17713626826E+02  0.46033868867E+02  0.41800000000E+01 0.  1.
        -11    1    4    4    0    0 -0.32971580162E+02 -0.39913690612E+02  0.27388038009E+02  0.58569039796E+02  0.00000000000E+00 0.  1.
         11    1    4    4    0    0  0.33494662345E+02 -0.10625511021E+03 -0.23411049869E+02  0.11384251450E+03  0.00000000000E+00 0. -1.
</event>
<event>
 8    1  0.7005395E-009  0.1481435E+03  0.7561462E-02  0.1202773E+00
         -2   -1    0    0    0  501 -0.00000000000E+00  0.00000000000E+00  0.67704592926E+02  0.67704592926E+02  0.00000000000E+00 0. -1.
          2   -1    0    0  501    0  0.00000000000E+00 -0.00000000000E+00 -0.43947988190E+03  0.43947988190E+03  0.00000000000E+00 0.  1.
         25    2    1    2    0    0  0.12700434087E+03  0.94858210934E+01 -0.13660296123E+03  0.22478541489E+03  0.12509208739E+03 0.  0.
         23    2    1    2    0    0 -0.12700434087E+03 -0.94858210934E+01 -0.23517232774E+03  0.28239905994E+03  0.90681430922E+02 0.  0.
          5    1    3    3  502    0  0.77290389006E+02  0.55605486712E+02 -0.12281983545E+03  0.15546047332E+03  0.41800000000E+01 0.  1.
         -5    1    3    3    0  502  0.49713951867E+02 -0.46119665618E+02 -0.13783125776E+02  0.69324941566E+02  0.41800000000E+01 0.  1.
        -11    1    4    4    0    0 -0.11656929198E+03 -0.19947526983E+02 -0.23941008111E+03  0.26702713458E+03  0.00000000000E+00 0.  1.
         11    1    4    4    0    0 -0.10435048891E+02  0.10461705890E+02  0.42377533667E+01  0.15371925354E+02  0.00000000000E+00 0. -1.
</event>
<event>
 8    1  0.7005395E-009  0.9292379E+02  0.7561462E-02  0.1295922E+00
         -1   -1    0    0    0  501 -0.00000000000E+00  0.00000000000E+00  0.27303734016E+02  0.27303734016E+02  0.00000000000E+00 0.  1.
          1   -1    0    0  501    0  0.00000000000E+00 -0.00000000000E+00 -0.47563393765E+03  0.47563393765E+03  0.00000000000E+00 0. -1.
         25    2    1    2    0    0  0.29435171570E+02  0.75871551762E-01 -0.20982658732E+03  0.24605070035E+03  0.12508922942E+03 0.  0.
         23    2    1    2    0    0 -0.29435171570E+02 -0.75871551762E-01 -0.23850361631E+03  0.25688697131E+03  0.90777232570E+02 0.  0.
          5    1    3    3  502    0 -0.48989807753E+02 -0.50027430174E+01 -0.71829586535E+02  0.87189395016E+02  0.41800000000E+01 0. -1.
         -5    1    3    3    0  502  0.78424979323E+02  0.50786145692E+01 -0.13799700078E+03  0.15886130533E+03  0.41800000000E+01 0. -1.
        -11    1    4    4    0    0 -0.34808422408E+02 -0.17877314453E+02 -0.23465859265E+03  0.23789888555E+03  0.00000000000E+00 0. -1.
         11    1    4    4    0    0  0.53732508380E+01  0.17801442901E+02 -0.38450236670E+01  0.18988085763E+02  0.00000000000E+00 0.  1.
</event>
<event>
 8    1  0.7005395E-009  0.9764199E+02  0.7561462E-02  0.1285334E+00
         -1   -1    0    0    0  501 -0.00000000000E+00  0.00000000000E+00  0.97805472139E+02  0.97805472139E+02  0.00000000000E+00 0.  1.
          1   -1    0    0  501    0  0.00000000000E+00 -0.00000000000E+00 -0.14806888346E+03  0.14806888346E+03  0.00000000000E+00 0. -1.
         25    2    1    2    0    0  0.35306574234E+02 -0.39073417306E+02 -0.23793673080E+02  0.13778704987E+03  0.12508335664E+03 0.  0.
         23    2    1    2    0    0 -0.35306574234E+02  0.39073417306E+02 -0.26469738237E+02  0.10808730573E+03  0.90603159398E+02 0.  0.
          5    1    3    3  502    0  0.12127071009E+02  0.35255542850E+02  0.25662227336E+02  0.45453728832E+02  0.41800000000E+01 0.  1.
         -5    1    3    3    0  502  0.23179503225E+02 -0.74328960155E+02 -0.49455900417E+02  0.92333321036E+02  0.41800000000E+01 0.  1.
        -11    1    4    4    0    0 -0.37370191729E+02 -0.31678951676E+01 -0.47770931414E+02  0.60734081683E+02  0.00000000000E+00 0. -1.
         11    1    4    4    0    0  0.20636174952E+01  0.42241312473E+02  0.21301193177E+02  0.47353224044E+02  0.00000000000E+00 0.  1.
</event>
<event>
 8    1  0.7005395E-009  0.2590492E+03  0.7561462E-02  0.1107716E+00
          2   -1    0    0  501    0  0.00000000000E+00  0.00000000000E+00  0.72907302967E+03  0.72907302967E+03  0.00000000000E+00 0. -1.
         -2   -1    0    0    0  501 -0.00000000000E+00 -0.00000000000E+00 -0.10413088750E+03  0.10413088750E+03  0.00000000000E+00 0.  1.
         25    2    1    2    0    0 -0.93123075813E+02  0.22844821740E+03  0.40493678436E+03  0.49038994627E+03  0.12509198534E+03 0.  0.
         23    2    1    2    0    0  0.93123075813E+02 -0.22844821740E+03  0.22000535781E+03  0.34281397090E+03  0.90876652105E+02 0.  0.
          5    1    3    3  502    0 -0.10976926822E+03  0.14998587340E+03  0.21537766702E+03  0.28451725135E+03  0.41800000000E+01 0. -1.
         -5    1    3    3    0  502  0.16646192410E+02  0.78462344000E+02  0.18955911734E+03  0.20587269492E+03  0.41800000000E+01 0. -1.
        -11    1    4    4    0    0  0.92044682419E+02 -0.16922535555E+03  0.20581960744E+03  0.28190628820E+03  0.00000000000E+00 0. -1.
         11    1    4    4    0    0  0.10783933940E+01 -0.59222861847E+02  0.14185750370E+02  0.60907682695E+02  0.00000000000E+00 0.  1.
</event>
<event>
 8    1  0.7005395E-009  0.1286333E+03  0.7561462E-02  0.1229498E+00
         -1   -1    0    0    0  501 -0.00000000000E+00  0.00000000000E+00  0.13656964544E+02  0.13656964544E+02  0.00000000000E+00 0.  1.
          1   -1    0    0  501    0  0.00000000000E+00 -0.00000000000E+00 -0.16309762181E+04  0.16309762181E+04  0.00000000000E+00 0. -1.
         25    2    1    2    0    0  0.89763824258E+02 -0.27323031785E+02 -0.10965119776E+04  0.11076053174E+04  0.12508768838E+03 0.  0.
         23    2    1    2    0    0 -0.89763824258E+02  0.27323031785E+02 -0.52080727590E+03  0.53702786525E+03  0.91403595135E+02 0.  0.
          5    1    3    3  502    0  0.98241859406E+02 -0.87124875544E+00 -0.10385542614E+04  0.10431992371E+04  0.41800000000E+01 0. -1.
         -5    1    3    3    0  502 -0.84780351480E+01 -0.26451783029E+02 -0.57957716182E+02  0.64406080228E+02  0.41800000000E+01 0. -1.
        -11    1    4    4    0    0 -0.38945408366E+02 -0.33649353024E+02 -0.21750946946E+03  0.22351597951E+03  0.00000000000E+00 0.  1.
         11    1    4    4    0    0 -0.50818415892E+02  0.60972384809E+02 -0.30329780644E+03  0.31351188573E+03  0.00000000000E+00 0. -1.
</event>
<event>
 8    1  0.7005395E-009  0.8352886E+02  0.7561462E-02  0.1319325E+00
          2   -1    0    0  501    0  0.00000000000E+00  0.00000000000E+00  0.22440234655E+03  0.22440234655E+03  0.00000000000E+00 0. -1.
         -2   -1    0    0    0  501 -0.00000000000E+00 -0.00000000000E+00 -0.77702458562E+02  0.77702458562E+02  0.00000000000E+00 0.  1.
         25    2    1    2    0    0  0.46509509765E+02 -0.23085522287E+02  0.21923661244E+02  0.13719974593E+03  0.12508815901E+03 0.  0.
         23    2    1    2    0    0 -0.46509509765E+02  0.23085522287E+02  0.12477622674E+03  0.16490505918E+03  0.94490718831E+02 0.  0.
          5    1    3    3  502    0  0.34167357977E+02 -0.31359271548E+02 -0.47241686317E+02  0.66332960052E+02  0.41800000000E+01 0.  1.
         -5    1    3    3    0  502  0.12342151789E+02  0.82737492608E+01  0.69165347561E+02  0.70866785879E+02  0.41800000000E+01 0.  1.
        -11    1    4    4    0    0  0.22118679538E+02  0.28660527332E+02  0.26312074400E+02  0.44754743555E+02  0.00000000000E+00 0.  1.
         11    1    4    4    0    0 -0.68628189303E+02 -0.55750050449E+01  0.98464152341E+02  0.12015031562E+03  0.00000000000E+00 0. -1.
</event>
<event>
 8    1  0.7005395E-009  0.1189579E+03  0.7561462E-02  0.1244826E+00
          2   -1    0    0  501    0  0.00000000000E+00  0.00000000000E+00  0.51835529436E+02  0.51835529436E+02  0.00000000000E+00 0. -1.
         -2   -1    0    0    0  501 -0.00000000000E+00 -0.00000000000E+00 -0.35228218316E+03  0.35228218316E+03  0.00000000000E+00 0.  1.
         25    2    1    2    0    0 -0.27606584956E+00 -0.56277765499E+02 -0.79446500635E+02  0.15850960407E+03  0.12508511109E+03 0.  0.
         23    2    1    2    0    0  0.27606584956E+00  0.56277765499E+02 -0.22100015309E+03  0.24560810853E+03  0.91186688759E+02 0.  0.
          5    1    3    3  502    0 -0.34056274399E+02  0.28776826282E+02 -0.18363937201E+02  0.48400848612E+02  0.41800000000E+01 0. -1.
         -5    1    3    3    0  502  0.33780208549E+02 -0.85054591781E+02 -0.61082563434E+02  0.11010875546E+03  0.41800000000E+01 0. -1.
        -11    1    4    4    0    0  0.37223537989E+02  0.52533785814E+02 -0.17512517184E+03  0.18658568070E+03  0.00000000000E+00 0.  1.
         11    1    4    4    0    0 -0.36947472139E+02  0.37439796850E+01 -0.45874981250E+02  0.59022427822E+02  0.00000000000E+00 0. -1.
</event>
<event>
 8    1  0.7005395E-009  0.9493363E+02  0.7561462E-02  0.1291326E+00
          1   -1    0    0  501    0  0.00000000000E+00  0.00000000000E+00  0.22817346728E+03  0.22817346728E+03  0.00000000000E+00 0. -1.
         -1   -1    0    0    0  501 -0.00000000000E+00 -0.00000000000E+00 -0.53880543407E+02  0.53880543407E+02  0.00000000000E+00 0.  1.
         25    2    1    2    0    0  0.24997916984E+02 -0.20527467877E+01  0.99609090372E+02  0.16186189574E+03  0.12509273674E+03 0.  0.
         23    2    1    2    0    0 -0.24997916984E+02  0.20527467877E+01  0.74683833503E+02  0.12019211495E+03  0.90770919828E+02 0.  0.
          5    1    3    3  502    0  0.41246404380E+02  0.48007836052E+02  0.86845781419E+02  0.10754385313E+03  0.41800000000E+01 0.  1.
         -5    1    3    3    0  502 -0.16248487396E+02 -0.50060582840E+02  0.12763308953E+02  0.54318042604E+02  0.41800000000E+01 0.  1.
        -11    1    4    4    0    0  0.33081807379E+01  0.32151427189E+02 -0.27360252109E+01  0.32436771788E+02  0.00000000000E+00 0.  1.
         11    1    4    4    0    0 -0.28306097722E+02 -0.30098680401E+02  0.77419858714E+02  0.87755343162E+02  0.00000000000E+00 0. -1.
</event>
<event>
 8    1  0.7005395E-009  0.1508841E+03  0.7561462E-02  0.1199391E+00
         -1   -1    0    0    0  501 -0.00000000000E+00  0.00000000000E+00  0.31356016335E+02  0.31356016335E+02  0.00000000000E+00 0.  1.
          1   -1    0    0  501    0  0.00000000000E+00 -0.00000000000E+00 -0.88965596471E+03  0.88965596471E+03  0.00000000000E+00 0. -1.
         25    2    1    2    0    0  0.11662667591E+03  0.44367254545E+02 -0.38684837480E+03  0.42528669506E+03  0.12508746181E+03 0.  0.
         23    2    1    2    0    0 -0.11662667591E+03 -0.44367254545E+02 -0.47145157358E+03  0.49572528599E+03  0.88919841030E+02 0.  0.
          5    1    3    3  502    0 -0.11503131648E+02  0.10070972487E+02 -0.17220110807E+03  0.17292900435E+03  0.41800000000E+01 0. -1.
         -5    1    3    3    0  502  0.12812980755E+03  0.34296282058E+02 -0.21464726672E+03  0.25235769071E+03  0.41800000000E+01 0. -1.
        -11    1    4    4    0    0 -0.85892470619E+02 -0.71850283204E+02 -0.34205885552E+03  0.35992254770E+03  0.00000000000E+00 0.  1.
         11    1    4    4    0    0 -0.30734205286E+02  0.27483028659E+02 -0.12939271806E+03  0.13580273828E+03  0.00000000000E+00 0. -1.
</event>
<event>
 8    1  0.7005395E-009  0.9338563E+02  0.7561462E-02  0.1294854E+00
         -1   -1    0    0    0  501 -0.00000000000E+00  0.00000000000E+00  0.10773126664E+03  0.10773126664E+03  0.00000000000E+00 0.  1.
          1   -1    0    0  501    0  0.00000000000E+00 -0.00000000000E+00 -0.11750248726E+03  0.11750248726E+03  0.00000000000E+00 0. -1.
         25    2    1    2    0    0  0.93573883985E+01  0.75302497048E+00  0.27281512388E+02  0.12837165455E+03  0.12508746144E+03 0.  0.
         23    2    1    2    0    0 -0.93573883985E+01 -0.75302497048E+00 -0.37052733014E+02  0.96862099352E+02  0.89001311804E+02 0.  0.
          5    1    3    3  502    0  0.41821082517E+01  0.55882149116E+02 -0.15478336956E+02  0.58286841862E+02  0.41800000000E+01 0. -1.
         -5    1    3    3    0  502  0.51752801468E+01 -0.55129124146E+02  0.42759849344E+02  0.70084812688E+02  0.41800000000E+01 0. -1.
        -11    1    4    4    0    0  0.12177047056E+02 -0.33618539023E+02  0.84516305635E+01  0.36741212558E+02  0.00000000000E+00 0.  1.
         11    1    4    4    0    0 -0.21534435455E+02  0.32865514053E+02 -0.45504363577E+02  0.60120886794E+02  0.00000000000E+00 0. -1.
</event>
<event>
 8    1  0.7005395E-009  0.1184681E+03  0.7561462E-02  0.1245646E+00
         -2   -1    0    0    0  501 -0.00000000000E+00  0.00000000000E+00  0.81419240143E+02  0.81419240143E+02  0.00000000000E+00 0.  1.
          2   -1    0    0  501    0  0.00000000000E+00 -0.00000000000E+00 -0.35849044869E+03  0.35849044869E+03  0.00000000000E+00 0. -1.
         25    2    1    2    0    0  0.77701544074E+02 -0.41178076122E+02 -0.27397074171E+03  0.31375242468E+03  0.12508977884E+03 0.  0.
         23    2    1    2    0    0 -0.77701544074E+02  0.41178076122E+02 -0.31004668414E+01  0.12615726416E+03  0.90403973926E+02 0.  0.
          5    1    3    3  502    0 -0.28611479768E+02  0.76227760823E+01 -0.97559451735E+02  0.10203941647E+03  0.41800000000E+01 0. -1.
         -5    1    3    3    0  502  0.10631302384E+03 -0.48800852205E+02 -0.17641128998E+03  0.21171300821E+03  0.41800000000E+01 0. -1.
        -11    1    4    4    0    0 -0.16032922224E+02  0.38025557649E+00  0.38223073926E+02  0.41451207096E+02  0.00000000000E+00 0.  1.
         11    1    4    4    0    0 -0.61668621850E+02  0.40797820546E+02 -0.41323540768E+02  0.84706057067E+02  0.00000000000E+00 0. -1.
</event>
<event>
 8    1  0.7005395E-009  0.1550454E+03  0.7561462E-02  0.1194407E+00
         -4   -1    0    0    0  501 -0.00000000000E+00  0.00000000000E+00  0.11123199578E+03  0.11123199578E+03  0.00000000000E+00 0. -1.
          4   -1    0    0  501    0  0.00000000000E+00 -0.00000000000E+00 -0.30842555252E+03  0.30842555252E+03  0.00000000000E+00 0.  1.
         25    2    1    2    0    0 -0.98016899969E+02  0.84819182944E+02 -0.18976344601E+03  0.26164763478E+03  0.12509081848E+03 0.  0.
         23    2    1    2    0    0  0.98016899969E+02 -0.84819182944E+02 -0.74301107205E+01  0.15800991352E+03  0.90057313704E+02 0.  0.
          5    1    3    3  502    0 -0.12651467120E+03  0.78519546254E+02 -0.17061745946E+03  0.22649298233E+03  0.41800000000E+01 0.  1.
         -5    1    3    3    0  502  0.28497771230E+02  0.62996366907E+01 -0.19145986548E+02  0.35154652443E+02  0.41800000000E+01 0.  1.
        -11    1    4    4    0    0  0.31920491340E+02 -0.14241858310E+02 -0.42611786756E+02  0.55113634122E+02  0.00000000000E+00 0.  1.
         11    1    4    4    0    0  0.66096408629E+02 -0.70577324634E+02  0.35181676036E+02  0.10289627940E+03  0.00000000000E+00 0. -1.
</event>
<event>
 8    1  0.7005395E-009  0.1562154E+03  0.7561462E-02  0.1193037E+00
          1   -1    0    0  501    0  0.00000000000E+00  0.00000000000E+00  0.15248503830E+03  0.15248503830E+03  0.00000000000E+00 0. -1.
         -1   -1    0    0    0  501 -0.00000000000E+00 -0.00000000000E+00 -0.21492738584E+03  0.21492738584E+03  0.00000000000E+00 0.  1.
         25    2    1    2    0    0  0.40895979838E+01 -0.12673279634E+03 -0.10418941176E+03  0.20635106806E+03  0.12508958106E+03 0.  0.
         23    2    1    2    0    0 -0.40895979838E+01  0.12673279634E+03  0.41747064220E+02  0.16106135608E+03  0.90111134566E+02 0.  0.
          5    1    3    3  502    0  0.46748955823E+02 -0.34510606575E+01 -0.20711347285E+02  0.51417963754E+02  0.41800000000E+01 0.  1.
         -5    1    3    3    0  502 -0.42659357840E+02 -0.12328173568E+03 -0.83478064470E+02  0.15493310431E+03  0.41800000000E+01 0.  1.
        -11    1    4    4    0    0 -0.12051030122E+02  0.53177808788E+01 -0.20515877909E+02  0.24380471014E+02  0.00000000000E+00 0.  1.
         11    1    4    4    0    0  0.79614321384E+01  0.12141501546E+03  0.62262942129E+02  0.13668088507E+03  0.00000000000E+00 0. -1.
</event>
<event>
 8    1  0.7005395E-009  0.1106760E+03  0.7561462E-02  0.1259323E+00
          1   -1    0    0  501    0  0.00000000000E+00  0.00000000000E+00  0.30542213694E+02  0.30542213694E+02  0.00000000000E+00 0. -1.
         -1   -1    0    0    0  501 -0.00000000000E+00 -0.00000000000E+00 -0.41787635234E+03  0.41787635234E+03  0.00000000000E+00 0.  1.
         25    2    1    2    0    0 -0.39251478643E+02 -0.23773763511E+02 -0.25095449258E+03  0.28413564060E+03  0.12509610108E+03 0.  0.
         23    2    1    2    0    0  0.39251478643E+02  0.23773763511E+02 -0.13637964606E+03  0.16428292543E+03  0.79269170053E+02 0.  0.
          5    1    3    3  502    0 -0.82171789076E+02 -0.30945257697E+02 -0.14570134870E+03  0.17016511777E+03  0.41800000000E+01 0.  1.
         -5    1    3    3    0  502  0.42920310433E+02  0.71714941865E+01 -0.10525314388E+03  0.11397052283E+03  0.41800000000E+01 0.  1.
        -11    1    4    4    0    0  0.24427971864E+02 -0.27251001260E+02 -0.72338834366E+02  0.81069413692E+02  0.00000000000E+00 0.  1.
         11    1    4    4    0    0  0.14823506779E+02  0.51024764770E+02 -0.64040811695E+02  0.83213511737E+02  0.00000000000E+00 0. -1.
</event>
<event>
 8    1  0.7005395E-009  0.1429604E+03  0.7561462E-02  0.1209400E+00
         -3   -1    0    0    0  501 -0.00000000000E+00  0.00000000000E+00  0.47976383307E+03  0.47976383307E+03  0.00000000000E+00 0.  1.
          3   -1    0    0  501    0  0.00000000000E+00 -0.00000000000E+00 -0.71122614210E+02  0.71122614210E+02  0.00000000000E+00 0. -1.
         25    2    1    2    0    0  0.12389918485E+03  0.98914882268E+01  0.33567314889E+03  0.37917145186E+03  0.12508268257E+03 0.  0.
         23    2    1    2    0    0 -0.12389918485E+03 -0.98914882268E+01  0.72968069968E+02  0.17171499541E+03  0.93342653004E+02 0.  0.
          5    1    3    3  502    0  0.55670221409E+02  0.46217014706E+02  0.64011024816E+02  0.96695758428E+02  0.41800000000E+01 0. -1.
         -5    1    3    3    0  502  0.68228963438E+02 -0.36325526479E+02  0.27166212407E+03  0.28247569343E+03  0.41800000000E+01 0. -1.
        -11    1    4    4    0    0 -0.12240739898E+03  0.36021381264E+01  0.88495710432E+02  0.15108950159E+03  0.00000000000E+00 0.  1.
         11    1    4    4    0    0 -0.14917858645E+01 -0.13493626353E+02 -0.15527640464E+02  0.20625493827E+02  0.00000000000E+00 0. -1.
</event>
<event>
 8    1  0.7005395E-009  0.8970382E+02  0.7561462E-02  0.1303571E+00
          2   -1    0    0  501    0  0.00000000000E+00  0.00000000000E+00  0.90319470513E+03  0.90319470513E+03  0.00000000000E+00 0. -1.
         -2   -1    0    0    0  501 -0.00000000000E+00 -0.00000000000E+00 -0.14836665274E+02  0.14836665274E+02  0.00000000000E+00 0.  1.
         25    2    1    2    0    0  0.16311741011E+02 -0.37107990291E+02  0.52451989596E+03  0.54075102534E+03  0.12508986494E+03 0.  0.
         23    2    1    2    0    0 -0.16311741011E+02  0.37107990291E+02  0.36383814389E+03  0.37728034506E+03  0.91209582720E+02 0.  0.
          5    1    3    3  502    0 -0.17251123308E+02  0.22861429600E+02  0.30844591128E+02  0.42297841796E+02  0.41800000000E+01 0. -1.
         -5    1    3    3    0  502  0.33562864319E+02 -0.59969419891E+02  0.49367530483E+03  0.49845318355E+03  0.41800000000E+01 0. -1.
        -11    1    4    4    0    0 -0.56995868514E+01 -0.21403098901E+02  0.25587120787E+02  0.33841966299E+02  0.00000000000E+00 0.  1.
         11    1    4    4    0    0 -0.10612154159E+02  0.58511089192E+02  0.33825102311E+03  0.34343837876E+03  0.00000000000E+00 0. -1.
</event>
<event>
 8    1  0.7005395E-009  0.8626492E+02  0.7561462E-02  0.1312157E+00
          4   -1    0    0  501    0  0.00000000000E+00  0.00000000000E+00  0.79887656671E+02  0.79887656671E+02  0.00000000000E+00 0. -1.
         -4   -1    0    0    0  501 -0.00000000000E+00 -0.00000000000E+00 -0.24628008474E+03  0.24628008474E+03  0.00000000000E+00 0.  1.
         25    2    1    2    0    0  0.76234977119E+02  0.22311007827E+02 -0.13522930753E+03  0.20060843281E+03  0.12508886799E+03 0.  0.
         23    2    1    2    0    0 -0.76234977119E+02 -0.22311007827E+02 -0.31163120542E+02  0.12555930860E+03  0.92111058440E+02 0.  0.
          5    1    3    3  502    0  0.66547577902E+02  0.98980561924E+01 -0.15847873396E+03  0.17221943316E+03  0.41800000000E+01 0.  1.
         -5    1    3    3    0  502  0.96873992171E+01  0.12412951634E+02  0.23249426432E+02  0.28388999652E+02  0.41800000000E+01 0.  1.
        -11    1    4    4    0    0 -0.18011310792E+02 -0.24684892026E+02  0.28768278476E+02  0.41968619912E+02  0.00000000000E+00 0. -1.
         11    1    4    4    0    0 -0.58223666326E+02  0.23738841993E+01 -0.59931399018E+02  0.83590688686E+02  0.00000000000E+00 0.  1.
</event>
<event>
 8    1  0.7005395E-009  0.9978991E+02  0.7561462E-02  0.1280738E+00
          1   -1    0    0  501    0  0.00000000000E+00  0.00000000000E+00  0.38863164672E+03  0.38863164672E+03  0.00000000000E+00 0. -1.
         -1   -1    0    0    0  501 -0.00000000000E+00 -0.00000000000E+00 -0.36454892646E+02  0.36454892646E+02  0.00000000000E+00 0.  1.
         25    2    1    2    0    0  0.44360363792E+02 -0.17846866024E+02  0.17669630588E+03  0.22171031542E+03  0.12509007534E+03 0.  0.
         23    2    1    2    0    0 -0.44360363792E+02  0.17846866024E+02  0.17548044820E+03  0.20337622395E+03  0.91006308943E+02 0.  0.
          5    1    3    3  502    0  0.49819528745E+02  0.45543877212E+02  0.11227038113E+03  0.13106617060E+03  0.41800000000E+01 0. -1.
         -5    1    3    3    0  502 -0.54591649528E+01 -0.63390743236E+02  0.64425924745E+02  0.90644144815E+02  0.41800000000E+01 0. -1.
        -11    1    4    4    0    0  0.44657541318E+01  0.18829793193E+02 -0.18535102288E+01  0.19440667988E+02  0.00000000000E+00 0.  1.
         11    1    4    4    0    0 -0.48826117923E+02 -0.98292716861E+00  0.17733395843E+03  0.18393555597E+03  0.00000000000E+00 0. -1.
</event>
<event>
 8    1  0.7005395E-009  0.1298640E+03  0.7561462E-02  0.1227658E+00
          3   -1    0    0  501    0  0.00000000000E+00  0.00000000000E+00  0.97814728019E+02  0.97814728019E+02  0.00000000000E+00 0. -1.
         -3   -1    0    0    0  501 -0.00000000000E+00 -0.00000000000E+00 -0.22131365527E+03  0.22131365527E+03  0.00000000000E+00 0.  1.
         25    2    1    2    0    0  0.22371306755E+01  0.84599855731E+02 -0.12112544430E+02  0.15151181495E+03  0.12508787308E+03 0.  0.
         23    2    1    2    0    0 -0.22371306755E+01 -0.84599855731E+02 -0.11138638282E+03  0.16761656834E+03  0.92337681155E+02 0.  0.
          5    1    3    3  502    0 -0.49640721946E+02  0.94523477010E+01 -0.29208206285E+02  0.58516150478E+02  0.41800000000E+01 0. -1.
         -5    1    3    3    0  502  0.51877852621E+02  0.75147508030E+02  0.17095661855E+02  0.92995664469E+02  0.41800000000E+01 0. -1.
        -11    1    4    4    0    0  0.37233121676E+02 -0.20964064291E+02 -0.70127265095E+02  0.82119611854E+02  0.00000000000E+00 0.  1.
         11    1    4    4    0    0 -0.39470252352E+02 -0.63635791440E+02 -0.41259117723E+02  0.85496956485E+02  0.00000000000E+00 0. -1.
</event>
<event>
 8    1  0.7005395E-009  0.1469191E+03  0.7561462E-02  0.1204311E+00
         -2   -1    0    0    0  501 -0.00000000000E+00  0.00000000000E+00  0.28702299405E+03  0.28702299405E+03  0.00000000000E+00 0.  1.
          2   -1    0    0  501    0  0.00000000000E+00 -0.00000000000E+00 -0.22661916508E+03  0.22661916508E+03  0.00000000000E+00 0. -1.
         25    2    1    2    0    0  0.43889043307E+02  0.13337548955E+03 -0.15266296434E+03  0.24221616746E+03  0.12508965490E+03 0.  0.
         23    2    1    2    0    0 -0.43889043307E+02 -0.13337548955E+03  0.21306679332E+03  0.27142599168E+03  0.92516707727E+02 0.  0.
          5    1    3    3  502    0  0.56375673409E+02  0.10918091752E+03 -0.44742826185E+02  0.13083608905E+03  0.41800000000E+01 0. -1.
         -5    1    3    3    0  502 -0.12486630102E+02  0.24194572030E+02 -0.10792013816E+03  0.11138007841E+03  0.41800000000E+01 0. -1.
        -11    1    4    4    0    0 -0.17847340763E+02 -0.19105290742E+02  0.11699840712E+03  0.11988397297E+03  0.00000000000E+00 0.  1.
         11    1    4    4    0    0 -0.26041702543E+02 -0.11427019881E+03  0.96068386193E+02  0.15154201870E+03  0.00000000000E+00 0. -1.
</event>
<event>
 8    1  0.7005395E-009  0.1307625E+03  0.7561462E-02  0.1226329E+00
         -1   -1    0    0    0  501 -0.00000000000E+00  0.00000000000E+00  0.23768457850E+03  0.23768457850E+03  0.00000000000E+00 0.  1.
          1   -1    0    0  501    0  0.00000000000E+00 -0.00000000000E+00 -0.99525001461E+02  0.99525001461E+02  0.00000000000E+00 0. -1.
         25    2    1    2    0    0  0.64290530288E+02  0.85094416697E+02  0.95310834882E+02  0.19001379572E+03  0.12508699085E+03 0.  0.
         23    2    1    2    0    0 -0.64290530288E+02 -0.85094416697E+02  0.42848742152E+02  0.14719578423E+03  0.91957882504E+02 0.  0.
          5    1    3    3  502    0 -0.31510312410E+02  0.15590105667E+02 -0.37669078876E+01  0.35603555692E+02  0.41800000000E+01 0.  1.
         -5    1    3    3    0  502  0.95800842698E+02  0.69504311031E+02  0.99077742770E+02  0.15441024003E+03  0.41800000000E+01 0.  1.
        -11    1    4    4    0    0 -0.21110460981E+02 -0.40161279767E+02 -0.27625938625E+02  0.53120358058E+02  0.00000000000E+00 0. -1.
         11    1    4    4    0    0 -0.43180069307E+02 -0.44933136930E+02  0.70474680776E+02  0.94075426176E+02  0.00000000000E+00 0.  1.
</event>
<event>
 8    1  0.7005395E-009  0.1176714E+03  0.7561462E-02  0.1246989E+00
         -1   -1    0    0    0  501 -0.00000000000E+00  0.00000000000E+00  0.38577398470E+02  0.38577398470E+02  0.00000000000E+00 0.  1.
          1   -1    0    0  501    0  0.00000000000E+00 -0.00000000000E+00 -0.42858218298E+03  0.42858218298E+03  0.00000000000E+00 0. -1.
         25    2    1    2    0    0  0.61060045486E+02 -0.22060484894E+02 -0.17519239284E+03  0.22484137796E+03  0.12508507739E+03 0.  0.
         23    2    1    2    0    0 -0.61060045486E+02  0.22060484894E+02 -0.21481239167E+03  0.24231820349E+03  0.91426221504E+02 0.  0.
          5    1    3    3  502    0  0.55831973264E+02 -0.66880989880E+02 -0.14857383203E+03  0.17228445087E+03  0.41800000000E+01 0. -1.
         -5    1    3    3    0  502  0.52280722214E+01  0.44820504986E+02 -0.26618560812E+02  0.52556927099E+02  0.41800000000E+01 0. -1.
        -11    1    4    4    0    0 -0.79296715613E+02  0.78520671207E+01 -0.19885785683E+03  0.21422901598E+03  0.00000000000E+00 0. -1.
         11    1    4    4    0    0  0.18236670128E+02  0.14208417773E+02 -0.15954534844E+02  0.28089187511E+02  0.00000000000E+00 0.  1.
</event>
<event>
 8    1  0.7005395E-009  0.1239537E+03  0.7561462E-02  0.1236714E+00
          2   -1    0    0  501    0  0.00000000000E+00  0.00000000000E+00  0.79921172311E+02  0.79921172311E+02  0.00000000000E+00 0. -1.
         -2   -1    0    0    0  501 -0.00000000000E+00 -0.00000000000E+00 -0.22874175326E+03  0.22874175326E+03  0.00000000000E+00 0.  1.
         25    2    1    2    0    0  0.72969431594E+02  0.31857416945E+02 -0.86801452733E+02  0.17182017884E+03  0.12509296023E+03 0.  0.
         23    2    1    2    0    0 -0.72969431594E+02 -0.31857416945E+02 -0.62019128214E+02  0.13684274673E+03  0.92412835184E+02 0.  0.
          5    1    3    3  502    0  0.21350385992E+02 -0.48104970419E+02 -0.35456327961E+02  0.63596782572E+02  0.41800000000E+01 0. -1.
         -5    1    3    3    0  502  0.51619045601E+02  0.79962387364E+02 -0.51345124772E+02  0.10822339627E+03  0.41800000000E+01 0. -1.
        -11    1    4    4    0    0 -0.51464947615E+01 -0.31603891876E+02 -0.61135769765E+02  0.69013583698E+02  0.00000000000E+00 0.  1.
         11    1    4    4    0    0 -0.67822936832E+02 -0.25352506889E+00 -0.88335844901E+00  0.67829163032E+02  0.00000000000E+00 0. -1.
</event>
<event>
 8    1  0.7005395E-009  0.1067446E+03  0.7561462E-02  0.1266720E+00
         -1   -1    0    0    0  501 -0.00000000000E+00  0.00000000000E+00  0.52620079821E+03  0.52620079821E+03  0.00000000000E+00 0.  1.
          1   -1    0    0  501    0  0.00000000000E+00 -0.00000000000E+00 -0.45660594834E+02  0.45660594834E+02  0.00000000000E+00 0. -1.
         25    2    1    2    0    0 -0.66654007655E+02  0.83117575439E+02  0.31915158327E+03  0.35896254113E+03  0.12508031319E+03 0.  0.
         23    2    1    2    0    0  0.66654007655E+02 -0.83117575439E+02  0.16138862010E+03  0.21289885191E+03  0.89041262134E+02 0.  0.
          5    1    3    3  502    0 -0.19839270716E+02  0.26273246163E+02  0.26596502263E+03  0.26802750939E+03  0.41800000000E+01 0. -1.
         -5    1    3    3    0  502 -0.46814736939E+02  0.56844329276E+02  0.53186560644E+02  0.90935031746E+02  0.41800000000E+01 0. -1.
        -11    1    4    4    0    0  0.14187436579E+02 -0.17362422731E+02  0.11433236324E+03  0.11651019854E+03  0.00000000000E+00 0.  1.
         11    1    4    4    0    0  0.52466571076E+02 -0.65755152707E+02  0.47056256858E+02  0.96388653365E+02  0.00000000000E+00 0. -1.
</event>
<event>
 8    1  0.7005395E-009  0.1121002E+03  0.7561462E-02  0.1256729E+00
         -1   -1    0    0    0  501 -0.00000000000E+00  0.00000000000E+00  0.91309421747E+02  0.91309421747E+02  0.00000000000E+00 0.  1.
          1   -1    0    0  501    0  0.00000000000E+00 -0.00000000000E+00 -0.15805395513E+03  0.15805395513E+03  0.00000000000E+00 0. -1.
         25    2    1    2    0    0  0.25285899783E+01  0.49924856410E+02 -0.57153694438E+02  0.14632913797E+03  0.12508711675E+03 0.  0.
         23    2    1    2    0    0 -0.25285899783E+01 -0.49924856410E+02 -0.95908389477E+01  0.10303423891E+03  0.89583397684E+02 0.  0.
          5    1    3    3  502    0  0.42005859050E+02 -0.24929853601E+02 -0.12688325258E+02  0.50640456089E+02  0.41800000000E+01 0. -1.
         -5    1    3    3    0  502 -0.39477269071E+02  0.74854710011E+02 -0.44465369180E+02  0.95688681883E+02  0.41800000000E+01 0. -1.
        -11    1    4    4    0    0 -0.38682335696E+02 -0.31396939523E+02  0.19039152853E+02  0.53334606473E+02  0.00000000000E+00 0.  1.
         11    1    4    4    0    0  0.36153745717E+02 -0.18527916887E+02 -0.28629991800E+02  0.49699632434E+02  0.00000000000E+00 0. -1.
</event>
<event>
 8    1  0.7005395E-009  0.1273079E+03  0.7561462E-02  0.1231506E+00
          2   -1    0    0  501    0  0.00000000000E+00  0.00000000000E+00  0.11718735701E+04  0.11718735701E+04  0.00000000000E+00 0. -1.
         -2   -1    0    0    0  501 -0.00000000000E+00 -0.00000000000E+00 -0.14637160639E+02  0.14637160639E+02  0.00000000000E+00 0.  1.
         25    2    1    2    0    0  0.22546079958E+02 -0.62123056592E+02  0.50250849485E+03  0.52204305917E+03  0.12508624365E+03 0.  0.
         23    2    1    2    0    0 -0.22546079958E+02  0.62123056592E+02  0.65472791466E+03  0.66446767161E+03  0.92092586599E+02 0.  0.
          5    1    3    3  502    0 -0.41530770237E+02 -0.64738381290E+02  0.28689115795E+03  0.29705196817E+03  0.41800000000E+01 0.  1.
         -5    1    3    3    0  502  0.64076850196E+02  0.26153246989E+01  0.21561733691E+03  0.22499109100E+03  0.41800000000E+01 0.  1.
        -11    1    4    4    0    0 -0.10556543338E+02  0.85977599824E+02  0.50692617595E+03  0.51427398937E+03  0.00000000000E+00 0. -1.
         11    1    4    4    0    0 -0.11989536620E+02 -0.23854543232E+02  0.14780173871E+03  0.15019368224E+03  0.00000000000E+00 0.  1.
</event>
<event>
 8    1  0.7005395E-009  0.2020088E+03  0.7561462E-02  0.1148055E+00
          1   -1    0    0  501    0  0.00000000000E+00  0.00000000000E+00  0.62260832888E+03  0.62260832888E+03  0.00000000000E+00 0. -1.
         -1   -1    0    0    0  501 -0.00000000000E+00 -0.00000000000E+00 -0.86767756195E+02  0.86767756195E+02  0.00000000000E+00 0.  1.
         25    2    1    2    0    0  0.17178854240E+03  0.53344704354E+02  0.42802640113E+03  0.48084389652E+03  0.12508913611E+03 0.  0.
         23    2    1    2    0    0 -0.17178854240E+03 -0.53344704354E+02  0.10781417155E+03  0.22853218855E+03  0.90808065904E+02 0.  0.
          5    1    3    3  502    0  0.18596662556E+03  0.25817336971E+02  0.36305128388E+03  0.40874665483E+03  0.41800000000E+01 0. -1.
         -5    1    3    3    0  502 -0.14178083160E+02  0.27527367383E+02  0.64975117257E+02  0.72097241693E+02  0.41800000000E+01 0. -1.
        -11    1    4    4    0    0 -0.11955620264E+03 -0.15680165336E+02  0.24182938692E+02  0.12298116806E+03  0.00000000000E+00 0.  1.
         11    1    4    4    0    0 -0.52232339767E+02 -0.37664539018E+02  0.83631232861E+02  0.10555102049E+03  0.00000000000E+00 0. -1.
</event>
<event>
 8    1  0.7005395E-009  0.1795184E+03  0.7561462E-02  0.1168270E+00
         -1   -1    0    0    0  501 -0.00000000000E+00  0.00000000000E+00  0.45607316364E+02  0.45607316364E+02  0.00000000000E+00 0.  1.
          1   -1    0    0  501    0  0.00000000000E+00 -0.00000000000E+00 -0.97388740742E+03  0.97388740742E+03  0.00000000000E+00 0. -1.
         25    2    1    2    0    0  0.17287608205E+03 -0.25276112224E+00 -0.62575177990E+03  0.66113446796E+03  0.12508913242E+03 0.  0.
         23    2    1    2    0    0 -0.17287608205E+03  0.25276112224E+00 -0.30252831115E+03  0.35836025582E+03  0.83740613014E+02 0.  0.
          5    1    3    3  502    0  0.12804508444E+03  0.27944868833E+02 -0.56682806868E+03  0.58179720795E+03  0.41800000000E+01 0.  1.
         -5    1    3    3    0  502  0.44830997609E+02 -0.28197629956E+02 -0.58923711226E+02  0.79337260013E+02  0.41800000000E+01 0.  1.
        -11    1    4    4    0    0 -0.15677220515E+03 -0.74177049196E+01 -0.19968525930E+03  0.25398178958E+03  0.00000000000E+00 0.  1.
         11    1    4    4    0    0 -0.16103876894E+02  0.76704660419E+01 -0.10284305185E+03  0.10437846624E+03  0.00000000000E+00 0. -1.
</event>
<event>
 8    1  0.7005395E-009  0.2072364E+03  0.7561462E-02  0.1143773E+00
          1   -1    0    0  501    0  0.00000000000E+00  0.00000000000E+00  0.10273216166E+04  0.10273216166E+04  0.00000000000E+00 0. -1.
         -1   -1    0    0    0  501 -0.00000000000E+00 -0.00000000000E+00 -0.50397737269E+02  0.50397737269E+02  0.00000000000E+00 0.  1.
         25    2    1    2    0    0  0.11694715353E+03  0.15894349733E+03  0.56319785371E+03  0.60973661874E+03  0.12508896734E+03 0.  0.
         23    2    1    2    0    0 -0.11694715353E+03 -0.15894349733E+03  0.41372602567E+03  0.46798273517E+03  0.94334214585E+02 0.  0.
          5    1    3    3  502    0  0.10339910244E+03  0.16375308273E+03  0.56230760108E+03  0.59473839385E+03  0.41800000000E+01 0.  1.
         -5    1    3    3    0  502  0.13548051091E+02 -0.48095853978E+01  0.89025262586E+00  0.14998224888E+02  0.41800000000E+01 0.  1.
        -11    1    4    4    0    0 -0.36186965897E+02 -0.12015412974E+02  0.15546294707E+03  0.16007059244E+03  0.00000000000E+00 0. -1.
         11    1    4    4    0    0 -0.80760187631E+02 -0.14692808436E+03  0.25826307859E+03  0.30791214273E+03  0.00000000000E+00 0.  1.
</event>
<event>
 8    1  0.7005395E-009  0.1097191E+03  0.7561462E-02  0.1261091E+00
         -2   -1    0    0    0  501 -0.00000000000E+00  0.00000000000E+00  0.80158743243E+02  0.80158743243E+02  0.00000000000E+00 0.  1.
          2   -1    0    0  501    0  0.00000000000E+00 -0.00000000000E+00 -0.22053484933E+03  0.22053484933E+03  0.00000000000E+00 0. -1.
         25    2    1    2    0    0  0.17687798222E+02  0.73798834954E+02 -0.10354278520E+03  0.17923982504E+03  0.12508669101E+03 0.  0.
         23    2    1    2    0    0 -0.17687798222E+02 -0.73798834954E+02 -0.36833320887E+02  0.12145376753E+03  0.87379619321E+02 0.  0.
          5    1    3    3  502    0 -0.46791257168E+02  0.36294272266E+02 -0.11120119284E+02  0.60397230065E+02  0.41800000000E+01 0. -1.
         -5    1    3    3    0  502  0.64479055390E+02  0.37504562688E+02 -0.92422665913E+02  0.11884259498E+03  0.41800000000E+01 0. -1.
        -11    1    4    4    0    0 -0.23053356206E+02 -0.17845680429E+02 -0.55110944823E+02  0.62346946851E+02  0.00000000000E+00 0. -1.
         11    1    4    4    0    0  0.53655579841E+01 -0.55953154526E+02  0.18277623936E+02  0.59106820677E+02  0.00000000000E+00 0.  1.
</event>
<event>
 8    1  0.7005395E-009  0.1411619E+03  0.7561462E-02  0.1211774E+00
         -1   -1    0    0    0  501 -0.00000000000E+00  0.00000000000E+00  0.12611161915E+04  0.12611161915E+04  0.00000000000E+00 0.  1.
          1   -1    0    0  501    0  0.00000000000E+00 -0.00000000000E+00 -0.17294068962E+02  0.17294068962E+02  0.00000000000E+00 0. -1.
         25    2    1    2    0    0 -0.34276714625E+02  0.91822398164E+02  0.77031490741E+03  0.78653532481E+03  0.12508602889E+03 0.  0.
         23    2    1    2    0    0  0.34276714625E+02 -0.91822398164E+02  0.47350721508E+03  0.49187493560E+03  0.90142240786E+02 0.  0.
          5    1    3    3  502    0 -0.74972951297E+02  0.70822373164E+02  0.38914783751E+03  0.40260435145E+03  0.41800000000E+01 0. -1.
         -5    1    3    3    0  502  0.40696236672E+02  0.21000025001E+02  0.38116706990E+03  0.38393097336E+03  0.41800000000E+01 0. -1.
        -11    1    4    4    0    0 -0.30926464881E+02 -0.34118986287E+02  0.16971282583E+03  0.17584935231E+03  0.00000000000E+00 0.  1.
         11    1    4    4    0    0  0.65203179505E+02 -0.57703411877E+02  0.30379438925E+03  0.31602558329E+03  0.00000000000E+00 0. -1.
</event>
<event>
 8    1  0.7005395E-009  0.8516668E+02  0.7561462E-02  0.1314997E+00
         -1   -1    0    0    0  501 -0.00000000000E+00  0.00000000000E+00  0.28162226723E+02  0.28162226723E+02  0.00000000000E+00 0.  1.
          1   -1    0    0  501    0  0.00000000000E+00 -0.00000000000E+00 -0.58116090820E+03  0.58116090820E+03  0.00000000000E+00 0. -1.
         25    2    1    2    0    0 -0.23516657090E+02  0.32297355302E+02 -0.41781899843E+03  0.43796503950E+03  0.12507800788E+03 0.  0.
         23    2    1    2    0    0  0.23516657090E+02 -0.32297355302E+02 -0.13517968305E+03  0.17135809542E+03  0.97436634991E+02 0.  0.
          5    1    3    3  502    0 -0.28815061475E+02 -0.35600378883E+01 -0.39240454920E+03  0.39349940822E+03  0.41800000000E+01 0.  1.
         -5    1    3    3    0  502  0.52984043841E+01  0.35857393191E+02 -0.25414449235E+02  0.44465631282E+02  0.41800000000E+01 0.  1.
        -11    1    4    4    0    0 -0.26393638972E+02  0.19322099309E+02 -0.32923658138E+02  0.46410504900E+02  0.00000000000E+00 0.  1.
         11    1    4    4    0    0  0.49910296062E+02 -0.51619454612E+02 -0.10225602491E+03  0.12494759052E+03  0.00000000000E+00 0. -1.
</event>
<event>
 8    1  0.7005395E-009  0.9143356E+02  0.7561462E-02  0.1299417E+00
          1   -1    0    0  501    0  0.00000000000E+00  0.00000000000E+00  0.68044679611E+02  0.68044679611E+02  0.00000000000E+00 0. -1.
         -1   -1    0    0    0  501 -0.00000000000E+00 -0.00000000000E+00 -0.20066901221E+03  0.20066901221E+03  0.00000000000E+00 0.  1.
         25    2    1    2    0    0 -0.36456864963E+02 -0.31315118154E+02 -0.64102433006E+02  0.14854884782E+03  0.12509156104E+03 0.  0.
         23    2    1    2    0    0  0.36456864963E+02  0.31315118154E+02 -0.68521899595E+02  0.12016484401E+03  0.86224122978E+02 0.  0.
          5    1    3    3  502    0  0.30593168534E+02  0.12038950690E+01 -0.67077246160E+02  0.73852695799E+02  0.41800000000E+01 0. -1.
         -5    1    3    3    0  502 -0.67050033497E+02 -0.32519013223E+02  0.29748131543E+01  0.74696152018E+02  0.41800000000E+01 0. -1.
        -11    1    4    4    0    0 -0.15552082840E+02 -0.18257573521E+01 -0.54790431884E+02  0.56984138991E+02  0.00000000000E+00 0.  1.
         11    1    4    4    0    0  0.52008947803E+02  0.33140875506E+02 -0.13731467711E+02  0.63180705017E+02  0.00000000000E+00 0. -1.
</event>
<event>
 8    1  0.7005395E-009  0.1141467E+03  0.7561462E-02  0.1253078E+00
         -1   -1    0    0    0  501 -0.00000000000E+00  0.00000000000E+00  0.10344185692E+03  0.10344185692E+03  0.00000000000E+00 0.  1.
          1   -1    0    0  501    0  0.00000000000E+00 -0.00000000000E+00 -0.19738618988E+03  0.19738618988E+03  0.00000000000E+00 0. -1.
         25    2    1    2    0    0 -0.39050462173E+02 -0.26664944219E+02  0.36742772321E+02  0.13868455945E+03  0.12508963933E+03 0.  0.
         23    2    1    2    0    0  0.39050462173E+02  0.26664944219E+02 -0.13068710528E+03  0.16214348735E+03  0.83519058652E+02 0.  0.
          5    1    3    3  502    0 -0.56602026897E+02 -0.67293333526E+02  0.33217103232E+02  0.94090544334E+02  0.41800000000E+01 0. -1.
         -5    1    3    3    0  502  0.17551564724E+02  0.40628389307E+02  0.35256690887E+01  0.44594015119E+02  0.41800000000E+01 0. -1.
        -11    1    4    4    0    0  0.24080049183E+02 -0.29270549288E+02 -0.56455186961E+02  0.67998543801E+02  0.00000000000E+00 0.  1.
         11    1    4    4    0    0  0.14970412990E+02  0.55935493507E+02 -0.74231918318E+02  0.94144943551E+02  0.00000000000E+00 0. -1.
</event>
<event>
 8    1  0.7005395E-009  0.1888954E+03  0.7561462E-02  0.1159461E+00
          1   -1    0    0  501    0  0.00000000000E+00  0.00000000000E+00  0.19273670188E+04  0.19273670188E+04  0.00000000000E+00 0. -1.
         -1   -1    0    0    0  501 -0.00000000000E+00 -0.00000000000E+00 -0.23838789497E+02  0.23838789497E+02  0.00000000000E+00 0.  1.
         25    2    1    2    0    0  0.12391366995E+03  0.11791891140E+03  0.13044235604E+04  0.13215256951E+04  0.12509944302E+03 0.  0.
         23    2    1    2    0    0 -0.12391366995E+03 -0.11791891140E+03  0.59910466886E+03  0.62968011315E+03  0.91165637018E+02 0.  0.
          5    1    3    3  502    0  0.11301413109E+03  0.60694431189E+02  0.11367301012E+04  0.11439531473E+04  0.41800000000E+01 0. -1.
         -5    1    3    3    0  502  0.10899538859E+02  0.57224480215E+02  0.16769345918E+03  0.17757254781E+03  0.41800000000E+01 0. -1.
        -11    1    4    4    0    0 -0.63656927034E+02 -0.11410607428E+03  0.35697745736E+03  0.38013853476E+03  0.00000000000E+00 0.  1.
         11    1    4    4    0    0 -0.60256742914E+02 -0.38128371265E+01  0.24212721150E+03  0.24954157839E+03  0.00000000000E+00 0. -1.
</event>
<event>
 8    1  0.7005395E-009  0.1439819E+03  0.7561462E-02  0.1208069E+00
         -2   -1    0    0    0  501 -0.00000000000E+00  0.00000000000E+00  0.22323107193E+02  0.22323107193E+02  0.00000000000E+00 0. -1.
          2   -1    0    0  501    0  0.00000000000E+00 -0.00000000000E+00 -0.10133777189E+04  0.10133777189E+04  0.00000000000E+00 0.  1.
         25    2    1    2    0    0 -0.96386167702E+02 -0.38590284141E+02 -0.55302853775E+03  0.57642584008E+03  0.12508669869E+03 0.  0.
         23    2    1    2    0    0  0.96386167702E+02  0.38590284141E+02 -0.43802607398E+03  0.45927498604E+03  0.91033883582E+02 0.  0.
          5    1    3    3  502    0 -0.12642094772E+03 -0.23874511559E+02 -0.42859800241E+03  0.44751085841E+03  0.41800000000E+01 0. -1.
         -5    1    3    3    0  502  0.30034780019E+02 -0.14715772582E+02 -0.12443053534E+03  0.12891498167E+03  0.41800000000E+01 0. -1.
        -11    1    4    4    0    0  0.43233280706E+02  0.54951700065E+02 -0.33477582819E+03  0.34199950445E+03  0.00000000000E+00 0.  1.
         11    1    4    4    0    0  0.53152886997E+02 -0.16361415924E+02 -0.10325024578E+03  0.11727548159E+03  0.00000000000E+00 0. -1.
</event>
<event>
 8    1  0.7005395E-009  0.5291754E+02  0.7561462E-02  0.1430212E+00
         -2   -1    0    0    0  501 -0.00000000000E+00  0.00000000000E+00  0.12015596729E+03  0.12015596729E+03  0.00000000000E+00 0.  1.
          2   -1    0    0  501    0  0.00000000000E+00 -0.00000000000E+00 -0.10018147524E+03  0.10018147524E+03  0.00000000000E+00 0. -1.
         25    2    1    2    0    0 -0.20157444571E+01 -0.41047181344E+01  0.13833939957E+00  0.12517912370E+03  0.12509549127E+03 0.  0.
         23    2    1    2    0    0  0.20157444571E+01  0.41047181344E+01  0.19836152645E+02  0.95158318833E+02  0.92955477272E+02 0.  0.
          5    1    3    3  502    0  0.11224352746E+02 -0.32406436110E+02 -0.53074953327E+02  0.63329189688E+02  0.41800000000E+01 0.  1.
         -5    1    3    3    0  502 -0.13240097203E+02  0.28301717975E+02  0.53213292726E+02  0.61849934010E+02  0.41800000000E+01 0.  1.
        -11    1    4    4    0    0 -0.16487833562E+02  0.11213779395E+02  0.52941592923E+02  0.56572164225E+02  0.00000000000E+00 0.  1.
         11    1    4    4    0    0  0.18503578019E+02 -0.71090612607E+01 -0.33105440278E+02  0.38586154609E+02  0.00000000000E+00 0. -1.
</event>
<event>
 8    1  0.7005395E-009  0.1326239E+03  0.7561462E-02  0.1223613E+00
         -3   -1    0    0    0  501 -0.00000000000E+00  0.00000000000E+00  0.44340449627E+03  0.44340449627E+03  0.00000000000E+00 0.  1.
          3   -1    0    0  501    0  0.00000000000E+00 -0.00000000000E+00 -0.53144232904E+02  0.53144232904E+02  0.00000000000E+00 0. -1.
         25    2    1    2    0    0  0.82147617559E+02 -0.60887663041E+02  0.15296690877E+03  0.22248980393E+03  0.12508916457E+03 0.  0.
         23    2    1    2    0    0 -0.82147617559E+02  0.60887663041E+02  0.23729335459E+03  0.27405892524E+03  0.91348890463E+02 0.  0.
          5    1    3    3  502    0 -0.59832061709E+01  0.19027519286E+02 -0.83343884042E+01  0.22017712786E+02  0.41800000000E+01 0.  1.
         -5    1    3    3    0  502  0.88130823730E+02 -0.79915182327E+02  0.16130129718E+03  0.20047209115E+03  0.41800000000E+01 0.  1.
        -11    1    4    4    0    0 -0.17556865185E+02  0.58623720489E+02  0.17034667909E+03  0.18100545626E+03  0.00000000000E+00 0.  1.
         11    1    4    4    0    0 -0.64590752374E+02  0.22639425521E+01  0.66946675496E+02  0.93053468974E+02  0.00000000000E+00 0. -1.
</event>
<event>
 8    1  0.7005395E-009  0.1536652E+03  0.7561462E-02  0.1196040E+00
          2   -1    0    0  501    0  0.00000000000E+00  0.00000000000E+00  0.50317005927E+03  0.50317005927E+03  0.00000000000E+00 0. -1.
         -2   -1    0    0    0  501 -0.00000000000E+00 -0.00000000000E+00 -0.48633583969E+02  0.48633583969E+02  0.00000000000E+00 0.  1.
         25    2    1    2    0    0 -0.10672403637E+03 -0.39165135141E+02  0.24422976507E+03  0.29701846827E+03  0.12509142496E+03 0.  0.
         23    2    1    2    0    0  0.10672403637E+03  0.39165135141E+02  0.21030671023E+03  0.25478517497E+03  0.88105875318E+02 0.  0.
          5    1    3    3  502    0 -0.13353112989E+03 -0.29512907981E+02  0.22142861100E+03  0.26028768038E+03  0.41800000000E+01 0. -1.
         -5    1    3    3    0  502  0.26807093519E+02 -0.96522271605E+01  0.22801154063E+02  0.36730787885E+02  0.41800000000E+01 0. -1.
        -11    1    4    4    0    0  0.79245068398E+02 -0.15302747278E+02  0.14089374848E+03  0.16237303748E+03  0.00000000000E+00 0.  1.
         11    1    4    4    0    0  0.27478967974E+02  0.54467882419E+02  0.69412961748E+02  0.92412137486E+02  0.00000000000E+00 0. -1.
</event>
<event>
 8    1  0.7005395E-009  0.7150977E+02  0.7561462E-02  0.1355033E+00
          2   -1    0    0  501    0  0.00000000000E+00  0.00000000000E+00  0.11959880470E+03  0.11959880470E+03  0.00000000000E+00 0. -1.
         -2   -1    0    0    0  501 -0.00000000000E+00 -0.00000000000E+00 -0.95726966704E+02  0.95726966704E+02  0.00000000000E+00 0.  1.
         25    2    1    2    0    0  0.76868988728E+01 -0.17601373023E+02  0.49815293448E+01  0.12665513408E+03  0.12509120916E+03 0.  0.
         23    2    1    2    0    0 -0.76868988728E+01  0.17601373023E+02  0.18890308650E+02  0.88670637320E+02  0.84479236593E+02 0.  0.
          5    1    3    3  502    0 -0.12697055484E+02  0.33386355606E+02 -0.41268749850E+02  0.54739803369E+02  0.41800000000E+01 0. -1.
         -5    1    3    3    0  502  0.20383954357E+02 -0.50987728629E+02  0.46250279195E+02  0.71915330714E+02  0.41800000000E+01 0. -1.
        -11    1    4    4    0    0  0.20369020910E+02  0.11059756841E+02 -0.26314430368E+02  0.35066572113E+02  0.00000000000E+00 0.  1.
         11    1    4    4    0    0 -0.28055919782E+02  0.65416161824E+01  0.45204739018E+02  0.53604065207E+02  0.00000000000E+00 0. -1.
</event>
<event>
 8    1  0.7005395E-009  0.2568683E+03  0.7561462E-02  0.1109040E+00
          2   -1    0    0  501    0  0.00000000000E+00  0.00000000000E+00  0.13339483845E+04  0.13339483845E+04  0.00000000000E+00 0.  1.
         -2   -1    0    0    0  501 -0.00000000000E+00 -0.00000000000E+00 -0.70902370495E+02  0.70902370495E+02  0.00000000000E+00 0. -1.
         25    2    1    2    0    0 -0.23010200287E+03  0.77065871014E+02  0.28953579264E+03  0.39795033532E+03  0.12508962370E+03 0.  0.
         23    2    1    2    0    0  0.23010200287E+03 -0.77065871014E+02  0.97351022138E+03  0.10069004197E+04  0.85089504976E+02 0.  0.
          5    1    3    3  502    0 -0.15659118639E+03  0.99338098330E+02  0.25046776701E+03  0.31167359873E+03  0.41800000000E+01 0. -1.
         -5    1    3    3    0  502 -0.73510816482E+02 -0.22272227316E+02  0.39068025636E+02  0.86276736589E+02  0.41800000000E+01 0. -1.
        -11    1    4    4    0    0  0.16022736724E+03 -0.20722846734E+02  0.72192109909E+03  0.73977856072E+03  0.00000000000E+00 0.  1.
         11    1    4    4    0    0  0.69874635629E+02 -0.56343024280E+02  0.25158912229E+03  0.26712185898E+03  0.00000000000E+00 0. -1.
</event>
<event>
 8    1  0.7005395E-009  0.1040044E+03  0.7561462E-02  0.1272094E+00
         -1   -1    0    0    0  501 -0.00000000000E+00  0.00000000000E+00  0.50524239183E+02  0.50524239183E+02  0.00000000000E+00 0.  1.
          1   -1    0    0  501    0  0.00000000000E+00 -0.00000000000E+00 -0.28425028993E+03  0.28425028993E+03  0.00000000000E+00 0. -1.
         25    2    1    2    0    0  0.36126736643E+02 -0.83928824057E+01 -0.81538109523E+02  0.15384767761E+03  0.12508022636E+03 0.  0.
         23    2    1    2    0    0 -0.36126736643E+02  0.83928824057E+01 -0.15218794123E+03  0.18092685151E+03  0.90541562644E+02 0.  0.
          5    1    3    3  502    0 -0.36790215036E+02 -0.16913459015E+02 -0.67743176474E+02  0.79032875292E+02  0.41800000000E+01 0.  1.
         -5    1    3    3    0  502  0.72916951678E+02  0.85205766094E+01 -0.13794933049E+02  0.74814802316E+02  0.41800000000E+01 0.  1.
        -11    1    4    4    0    0  0.28618723717E+02  0.36582030074E+01 -0.73224386874E+02  0.78703396556E+02  0.00000000000E+00 0.  1.
         11    1    4    4    0    0 -0.64745460359E+02  0.47346793983E+01 -0.78963554354E+02  0.10222345495E+03  0.00000000000E+00 0. -1.
</event>
<event>
 8    1  0.7005395E-009  0.1637534E+03  0.7561462E-02  0.1184523E+00
          2   -1    0    0  501    0  0.00000000000E+00  0.00000000000E+00  0.62027071179E+03  0.62027071179E+03  0.00000000000E+00 0. -1.
         -2   -1    0    0    0  501 -0.00000000000E+00 -0.00000000000E+00 -0.65966722453E+02  0.65966722453E+02  0.00000000000E+00 0.  1.
         25    2    1    2    0    0  0.83786400993E+02 -0.13198155972E+03  0.17555180824E+03  0.26627977510E+03  0.12508872112E+03 0.  0.
         23    2    1    2    0    0 -0.83786400993E+02  0.13198155972E+03  0.37875218109E+03  0.41995765914E+03  0.92043075220E+02 0.  0.
          5    1    3    3  502    0 -0.54342627093E+01 -0.18635217659E+02  0.10274159654E+03  0.10464277618E+03  0.41800000000E+01 0. -1.
         -5    1    3    3    0  502  0.89220663702E+02 -0.11334634206E+03  0.72810211709E+02  0.16163699892E+03  0.41800000000E+01 0. -1.
        -11    1    4    4    0    0 -0.13561258118E+02  0.64633290514E+02  0.69997028238E+02  0.96233850211E+02  0.00000000000E+00 0.  1.
         11    1    4    4    0    0 -0.70225142874E+02  0.67348269202E+02  0.30875515285E+03  0.32372380893E+03  0.00000000000E+00 0. -1.
</event>
<event>
 8    1  0.7005395E-009  0.1734567E+03  0.7561462E-02  0.1174290E+00
          1   -1    0    0  501    0  0.00000000000E+00  0.00000000000E+00  0.10839486288E+04  0.10839486288E+04  0.00000000000E+00 0. -1.
         -1   -1    0    0    0  501 -0.00000000000E+00 -0.00000000000E+00 -0.70133574351E+02  0.70133574351E+02  0.00000000000E+00 0.  1.
         25    2    1    2    0    0  0.34140028968E+01 -0.14804531207E+03  0.89489215509E+02  0.21351666297E+03  0.12510785680E+03 0.  0.
         23    2    1    2    0    0 -0.34140028968E+01  0.14804531207E+03  0.92432583891E+03  0.94056554015E+03  0.91412302239E+02 0.  0.
          5    1    3    3  502    0  0.32417842046E+02 -0.13836961990E+03  0.28272585029E+02  0.14496164892E+03  0.41800000000E+01 0.  1.
         -5    1    3    3    0  502 -0.29003839149E+02 -0.96756921691E+01  0.61216630480E+02  0.68555014052E+02  0.41800000000E+01 0.  1.
        -11    1    4    4    0    0 -0.47221067675E+02  0.71630654430E+02  0.47566245322E+03  0.48333792453E+03  0.00000000000E+00 0. -1.
         11    1    4    4    0    0  0.43807064778E+02  0.76414657635E+02  0.44866338569E+03  0.45722761562E+03  0.00000000000E+00 0.  1.
</event>
<event>
 8    1  0.7005395E-009  0.1169288E+03  0.7561462E-02  0.1248251E+00
         -2   -1    0    0    0  501 -0.00000000000E+00  0.00000000000E+00  0.27055674554E+02  0.27055674554E+02  0.00000000000E+00 0.  1.
          2   -1    0    0  501    0  0.00000000000E+00 -0.00000000000E+00 -0.56433101331E+03  0.56433101331E+03  0.00000000000E+00 0. -1.
         25    2    1    2    0    0 -0.25699208789E+02 -0.51485563529E+02 -0.30639212841E+03  0.33590853874E+03  0.12508875834E+03 0.  0.
         23    2    1    2    0    0  0.25699208789E+02  0.51485563529E+02 -0.23088321035E+03  0.25547814912E+03  0.93009759032E+02 0.  0.
          5    1    3    3  502    0 -0.77919539443E+01 -0.86183269692E+02 -0.26522236722E+03  0.27901370395E+03  0.41800000000E+01 0. -1.
         -5    1    3    3    0  502 -0.17907254845E+02  0.34697706163E+02 -0.41169761193E+02  0.56894834789E+02  0.41800000000E+01 0. -1.
        -11    1    4    4    0    0  0.53548140696E+02  0.58425134697E+02 -0.18629092696E+03  0.20244804075E+03  0.00000000000E+00 0. -1.
         11    1    4    4    0    0 -0.27848931907E+02 -0.69395711676E+01 -0.44592283387E+02  0.53030108373E+02  0.00000000000E+00 0.  1.
</event>
<event>
 8    1  0.7005395E-009  0.9886194E+02  0.7561462E-02  0.1282707E+00
         -3   -1    0    0    0  501 -0.00000000000E+00  0.00000000000E+00  0.22374159802E+03  0.22374159802E+03  0.00000000000E+00 0.  1.
          3   -1    0    0  501    0  0.00000000000E+00 -0.00000000000E+00 -0.61470487328E+02  0.61470487328E+02  0.00000000000E+00 0. -1.
         25    2    1    2    0    0  0.26852405364E+02  0.34134995474E+02  0.10857703189E+03  0.17123955815E+03  0.12509102618E+03 0.  0.
         23    2    1    2    0    0 -0.26852405364E+02 -0.34134995474E+02  0.53694078803E+02  0.11397252720E+03  0.90666605029E+02 0.  0.
          5    1    3    3  502    0 -0.39064877557E+02  0.16508193733E+01 -0.88390377723E+00  0.39332474484E+02  0.41800000000E+01 0. -1.
         -5    1    3    3    0  502  0.65917282921E+02  0.32484176101E+02  0.10946093567E+03  0.13190708367E+03  0.41800000000E+01 0. -1.
        -11    1    4    4    0    0 -0.26660062837E+02 -0.56476821529E+02  0.78122463024E+01  0.62939824538E+02  0.00000000000E+00 0. -1.
         11    1    4    4    0    0 -0.19234252691E+00  0.22341826055E+02  0.45881832501E+02  0.51032702660E+02  0.00000000000E+00 0.  1.
</event>
<event>
 8    1  0.7005395E-009  0.6781570E+02  0.7561462E-02  0.1367682E+00
          1   -1    0    0  501    0  0.00000000000E+00  0.00000000000E+00  0.88990631048E+03  0.88990631048E+03  0.00000000000E+00 0. -1.
         -1   -1    0    0    0  501 -0.00000000000E+00 -0.00000000000E+00 -0.18113340620E+02  0.18113340620E+02  0.00000000000E+00 0.  1.
         25    2    1    2    0    0 -0.23853675145E+02  0.54898300520E+02  0.58627370665E+03  0.60245132508E+03  0.12509164145E+03 0.  0.
         23    2    1    2    0    0  0.23853675145E+02 -0.54898300520E+02  0.28551926320E+03  0.30556832602E+03  0.90928163877E+02 0.  0.
          5    1    3    3  502    0 -0.11265380032E+02  0.39578461707E+02  0.46249990595E+02  0.62047541840E+02  0.41800000000E+01 0. -1.
         -5    1    3    3    0  502 -0.12588295113E+02  0.15319838813E+02  0.54002371606E+03  0.54040378324E+03  0.41800000000E+01 0. -1.
        -11    1    4    4    0    0  0.27284260357E+02 -0.10127863917E+02  0.17811687031E+02  0.34121264420E+02  0.00000000000E+00 0.  1.
         11    1    4    4    0    0 -0.34305852128E+01 -0.44770436603E+02  0.26770757617E+03  0.27144706159E+03  0.00000000000E+00 0. -1.
</event>
<event>
 8    1  0.7005395E-009  0.8216184E+02  0.7561462E-02  0.1323026E+00
         -3   -1    0    0    0  501 -0.00000000000E+00  0.00000000000E+00  0.45283493506E+02  0.45283493506E+02  0.00000000000E+00 0.  1.
          3   -1    0    0  501    0  0.00000000000E+00 -0.00000000000E+00 -0.30894857882E+03  0.30894857882E+03  0.00000000000E+00 0. -1.
         25    2    1    2    0    0 -0.29411367152E+02  0.35248574170E+02 -0.14885094092E+03  0.19977876017E+03  0.12508980736E+03 0.  0.
         23    2    1    2    0    0  0.29411367152E+02 -0.35248574170E+02 -0.11481414440E+03  0.15445331216E+03  0.92552943678E+02 0.  0.
          5    1    3    3  502    0 -0.33332456889E+02  0.47839853287E+02 -0.16701306745E+03  0.17694784922E+03  0.41800000000E+01 0. -1.
         -5    1    3    3    0  502  0.39210897373E+01 -0.12591279117E+02  0.18162126534E+02  0.22830910950E+02  0.41800000000E+01 0. -1.
        -11    1    4    4    0    0  0.13080856983E+02  0.25752150944E+02 -0.73433206255E+01  0.29802792746E+02  0.00000000000E+00 0.  1.
         11    1    4    4    0    0  0.16330510169E+02 -0.61000725114E+02 -0.10747082378E+03  0.12465051941E+03  0.00000000000E+00 0. -1.
</event>
<event>
 8    1  0.7005395E-009  0.7858071E+02  0.7561462E-02  0.1333128E+00
         -2   -1    0    0    0  501 -0.00000000000E+00  0.00000000000E+00  0.39784048711E+02  0.39784048711E+02  0.00000000000E+00 0. -1.
          2   -1    0    0  501    0  0.00000000000E+00 -0.00000000000E+00 -0.37920617275E+03  0.37920617275E+03  0.00000000000E+00 0.  1.
         25    2    1    2    0    0  0.47979517378E+02 -0.11896933694E+02 -0.15991087622E+03  0.20895233064E+03  0.12508403987E+03 0.  0.
         23    2    1    2    0    0 -0.47979517378E+02  0.11896933694E+02 -0.17951124783E+03  0.21003789082E+03  0.97201112978E+02 0.  0.
          5    1    3    3  502    0 -0.34309336037E+01 -0.33901622036E+02 -0.14759911729E+03  0.15153898214E+03  0.41800000000E+01 0.  1.
         -5    1    3    3    0  502  0.51410450982E+02  0.22004688341E+02 -0.12311758926E+02  0.57413348509E+02  0.41800000000E+01 0.  1.
        -11    1    4    4    0    0 -0.30115177998E+02  0.29154013634E+02 -0.18037849074E+03  0.18518444961E+03  0.00000000000E+00 0.  1.
         11    1    4    4    0    0 -0.17864339381E+02 -0.17257079940E+02  0.86724291203E+00  0.24853441207E+02  0.00000000000E+00 0. -1.
</event>
<event>
 8    1  0.7005395E-009  0.1304373E+03  0.7561462E-02  0.1226808E+00
         -2   -1    0    0    0  501 -0.00000000000E+00  0.00000000000E+00  0.19405425547E+02  0.19405425547E+02  0.00000000000E+00 0.  1.
          2   -1    0    0  501    0  0.00000000000E+00 -0.00000000000E+00 -0.93685789214E+03  0.93685789214E+03  0.00000000000E+00 0. -1.
         25    2    1    2    0    0  0.77773447792E+02 -0.12253956736E+02 -0.46618937868E+03  0.48905973276E+03  0.12509203320E+03 0.  0.
         23    2    1    2    0    0 -0.77773447792E+02  0.12253956736E+02 -0.45126308791E+03  0.46720358492E+03  0.91880066515E+02 0.  0.
          5    1    3    3  502    0 -0.31887661776E+02  0.10092948014E+02 -0.14629259356E+03  0.15012556712E+03  0.41800000000E+01 0. -1.
         -5    1    3    3    0  502  0.10966110957E+03 -0.22346904751E+02 -0.31989678513E+03  0.33893416564E+03  0.41800000000E+01 0. -1.
        -11    1    4    4    0    0 -0.85789388507E+02 -0.14712762070E+02 -0.39273849689E+03  0.40226833270E+03  0.00000000000E+00 0. -1.
         11    1    4    4    0    0  0.80159407159E+01  0.26966718807E+02 -0.58524591013E+02  0.64935252229E+02  0.00000000000E+00 0.  1.
</event>
<event>
 8    1  0.7005395E-009  0.1489707E+03  0.7561462E-02  0.1201743E+00
         -1   -1    0    0    0  501 -0.00000000000E+00  0.00000000000E+00  0.19121655656E+02  0.19121655656E+02  0.00000000000E+00 0.  1.
          1   -1    0    0  501    0  0.00000000000E+00 -0.00000000000E+00 -0.12103328845E+04  0.12103328845E+04  0.00000000000E+00 0. -1.
         25    2    1    2    0    0  0.23227199062E+02  0.98854221083E+02 -0.72241831852E+03  0.74016680145E+03  0.12508799791E+03 0.  0.
         23    2    1    2    0    0 -0.23227199062E+02 -0.98854221083E+02 -0.46879291035E+03  0.48928773874E+03  0.96561061949E+02 0.  0.
          5    1    3    3  502    0 -0.31223057827E+02  0.10069347825E+03 -0.43609282118E+03  0.44867413229E+03  0.41800000000E+01 0.  1.
         -5    1    3    3    0  502  0.54450256889E+02 -0.18392571629E+01 -0.28632549735E+03  0.29149266916E+03  0.41800000000E+01 0.  1.
        -11    1    4    4    0    0  0.34941455077E+02 -0.21561617823E+02 -0.10201474130E+03  0.10996734101E+03  0.00000000000E+00 0.  1.
         11    1    4    4    0    0 -0.58168654140E+02 -0.77292603260E+02 -0.36677816905E+03  0.37932039773E+03  0.00000000000E+00 0. -1.
</event>
<event>
 8    1  0.7005395E-009  0.1397191E+03  0.7561462E-02  0.1213707E+00
         -1   -1    0    0    0  501 -0.00000000000E+00  0.00000000000E+00  0.81441445877E+02  0.81441445877E+02  0.00000000000E+00 0.  1.
          1   -1    0    0  501    0  0.00000000000E+00 -0.00000000000E+00 -0.25324586751E+03  0.25324586751E+03  0.00000000000E+00 0. -1.
         25    2    1    2    0    0  0.93026548796E+02  0.12752819925E+02 -0.10352570982E+03  0.18756782670E+03  0.12509014278E+03 0.  0.
         23    2    1    2    0    0 -0.93026548796E+02 -0.12752819925E+02 -0.68278711809E+02  0.14711948669E+03  0.90363641363E+02 0.  0.
          5    1    3    3  502    0 -0.26316168113E+02  0.13479945428E+02 -0.52534572647E+00  0.29866335916E+02  0.41800000000E+01 0. -1.
         -5    1    3    3    0  502  0.11934271691E+03 -0.72712550351E+00 -0.10300036410E+03  0.15770149078E+03  0.41800000000E+01 0. -1.
        -11    1    4    4    0    0 -0.11090847713E+03 -0.60903805582E+01 -0.55650903977E+02  0.12423689528E+03  0.00000000000E+00 0. -1.
         11    1    4    4    0    0  0.17881928332E+02 -0.66624393664E+01 -0.12627807833E+02  0.22882591414E+02  0.00000000000E+00 0.  1.
</event>
<event>
 8    1  0.7005395E-009  0.1334507E+03  0.7561462E-02  0.1222423E+00
         -3   -1    0    0    0  501 -0.00000000000E+00  0.00000000000E+00  0.18938593498E+02  0.18938593498E+02  0.00000000000E+00 0.  1.
          3   -1    0    0  501    0  0.00000000000E+00 -0.00000000000E+00 -0.98064415817E+03  0.98064415817E+03  0.00000000000E+00 0. -1.
         25    2    1    2    0    0  0.65449322209E+02 -0.45521080670E+02 -0.61031544983E+03  0.62808370719E+03  0.12509361443E+03 0.  0.
         23    2    1    2    0    0 -0.65449322209E+02  0.45521080670E+02 -0.35139011484E+03  0.37149904448E+03  0.90447469156E+02 0.  0.
          5    1    3    3  502    0  0.10148445208E+03 -0.24752853418E+02 -0.47899622957E+03  0.49027202460E+03  0.41800000000E+01 0. -1.
         -5    1    3    3    0  502 -0.36035129867E+02 -0.20768227252E+02 -0.13131922027E+03  0.13781168259E+03  0.41800000000E+01 0. -1.
        -11    1    4    4    0    0 -0.73510338578E+02  0.65848188698E+02 -0.28577242629E+03  0.30233364593E+03  0.00000000000E+00 0.  1.
         11    1    4    4    0    0  0.80610163686E+01 -0.20327108028E+02 -0.65617688546E+02  0.69165398544E+02  0.00000000000E+00 0. -1.
</event>
<event>
 8    1  0.7005395E-009  0.1481077E+03  0.7561462E-02  0.1202818E+00
         -1   -1    0    0    0  501 -0.00000000000E+00  0.00000000000E+00  0.21960518786E+02  0.21960518786E+02  0.00000000000E+00 0.  1.
          1   -1    0    0  501    0  0.00000000000E+00 -0.00000000000E+00 -0.10525513408E+04  0.10525513408E+04  0.00000000000E+00 0. -1.
         25    2    1    2    0    0 -0.82977771574E+02 -0.65782087223E+02 -0.53040457736E+03  0.55514754711E+03  0.12508872773E+03 0.  0.
         23    2    1    2    0    0  0.82977771574E+02  0.65782087223E+02 -0.50018624470E+03  0.51936431252E+03  0.91325878894E+02 0.  0.
          5    1    3    3  502    0 -0.95265398278E+02 -0.36502394850E+01 -0.38200121088E+03  0.39374003844E+03  0.41800000000E+01 0. -1.
         -5    1    3    3    0  502  0.12287626703E+02 -0.62131847738E+02 -0.14840336649E+03  0.16140750868E+03  0.41800000000E+01 0. -1.
        -11    1    4    4    0    0  0.10166997307E+03  0.52849198643E+02 -0.44840074433E+03  0.46280994883E+03  0.00000000000E+00 0.  1.
         11    1    4    4    0    0 -0.18692201491E+02  0.12932888581E+02 -0.51785500371E+02  0.56554363689E+02  0.00000000000E+00 0. -1.
</event>
<event>
 8    1  0.7005395E-009  0.1009171E+03  0.7561462E-02  0.1278379E+00
          1   -1    0    0  501    0  0.00000000000E+00  0.00000000000E+00  0.17864318587E+03  0.17864318587E+03  0.00000000000E+00 0. -1.
         -1   -1    0    0    0  501 -0.00000000000E+00 -0.00000000000E+00 -0.13134404129E+03  0.13134404129E+03  0.00000000000E+00 0.  1.
         25    2    1    2    0    0  0.20807928806E+02  0.50055599960E+02 -0.68726577939E+02  0.15267475644E+03  0.12509079003E+03 0.  0.
         23    2    1    2    0    0 -0.20807928806E+02 -0.50055599960E+02  0.11602572252E+03  0.15731247072E+03  0.91360342438E+02 0.  0.
          5    1    3    3  502    0  0.54417014620E+02 -0.13263500146E+02 -0.45189862059E+01  0.56347365090E+02  0.41800000000E+01 0. -1.
         -5    1    3    3    0  502 -0.33609085814E+02  0.63319100106E+02 -0.64207591733E+02  0.96327391346E+02  0.41800000000E+01 0. -1.
        -11    1    4    4    0    0 -0.37500692546E+02 -0.36849797285E+02  0.15868095919E+02  0.54918175219E+02  0.00000000000E+00 0.  1.
         11    1    4    4    0    0  0.16692763740E+02 -0.13205802675E+02  0.10015762660E+03  0.10239429550E+03  0.00000000000E+00 0. -1.
</event>
<event>
 8    1  0.7005395E-009  0.9718919E+02  0.7561462E-02  0.1286320E+00
         -2   -1    0    0    0  501 -0.00000000000E+00  0.00000000000E+00  0.22822269747E+03  0.22822269747E+03  0.00000000000E+00 0.  1.
          2   -1    0    0  501    0  0.00000000000E+00 -0.00000000000E+00 -0.53691283584E+02  0.53691283584E+02  0.00000000000E+00 0. -1.
         25    2    1    2    0    0  0.97039399271E+01 -0.85803906250E+01  0.12433094915E+03  0.17684206464E+03  0.12508853407E+03 0.  0.
         23    2    1    2    0    0 -0.97039399271E+01  0.85803906250E+01  0.50200464733E+02  0.10507191641E+03  0.91390543309E+02 0.  0.
          5    1    3    3  502    0  0.71682255526E+01 -0.63842916926E+02  0.93055821284E+02  0.11315546727E+03  0.41800000000E+01 0.  1.
         -5    1    3    3    0  502  0.25357143745E+01  0.55262526301E+02  0.31275127867E+02  0.63686597363E+02  0.41800000000E+01 0.  1.
        -11    1    4    4    0    0  0.72647956688E+01 -0.30796946703E+02  0.53404265017E+02  0.62074509295E+02  0.00000000000E+00 0.  1.
         11    1    4    4    0    0 -0.16968735596E+02  0.39377337328E+02 -0.32038002830E+01  0.42997407119E+02  0.00000000000E+00 0. -1.
</event>
<event>
 8    1  0.7005395E-009  0.1195645E+03  0.7561462E-02  0.1243817E+00
         -1   -1    0    0    0  501 -0.00000000000E+00  0.00000000000E+00  0.32833950936E+02  0.32833950936E+02  0.00000000000E+00 0.  1.
          1   -1    0    0  501    0  0.00000000000E+00 -0.00000000000E+00 -0.71378798767E+03  0.71378798767E+03  0.00000000000E+00 0. -1.
         25    2    1    2    0    0  0.33055617475E+02 -0.98780729731E+02 -0.29607036102E+03  0.33786941883E+03  0.12509108317E+03 0.  0.
         23    2    1    2    0    0 -0.33055617475E+02  0.98780729731E+02 -0.38488367571E+03  0.40875251978E+03  0.89960392310E+02 0.  0.
          5    1    3    3  502    0  0.15840989531E+02 -0.11131220314E+03 -0.13678495502E+03  0.17711278846E+03  0.41800000000E+01 0.  1.
         -5    1    3    3    0  502  0.17214627944E+02  0.12531473408E+02 -0.15928540600E+03  0.16075663036E+03  0.41800000000E+01 0.  1.
        -11    1    4    4    0    0 -0.92359123002E+01  0.47312879778E+02 -0.51350552311E+02  0.70432165177E+02  0.00000000000E+00 0.  1.
         11    1    4    4    0    0 -0.23819705175E+02  0.51467849953E+02 -0.33353312340E+03  0.33832035461E+03  0.00000000000E+00 0. -1.
</event>
<event>
 8    1  0.7005395E-009  0.1276964E+03  0.7561462E-02  0.1230914E+00
          4   -1    0    0  501    0  0.00000000000E+00  0.00000000000E+00  0.69342668916E+02  0.69342668916E+02  0.00000000000E+00 0. -1.
         -4   -1    0    0    0  501 -0.00000000000E+00 -0.00000000000E+00 -0.33753592006E+03  0.33753592006E+03  0.00000000000E+00 0.  1.
         25    2    1    2    0    0  0.31023714795E+02  0.99399893669E+02 -0.10093613053E+03  0.19151927448E+03  0.12509484526E+03 0.  0.
         23    2    1    2    0    0 -0.31023714795E+02 -0.99399893669E+02 -0.16725712062E+03  0.21535931449E+03  0.86959071990E+02 0.  0.
          5    1    3    3  502    0 -0.36905020153E+02  0.64900787121E+02 -0.14404338952E+02  0.76151494155E+02  0.41800000000E+01 0. -1.
         -5    1    3    3    0  502  0.67928734948E+02  0.34499106548E+02 -0.86531791577E+02  0.11536778033E+03  0.41800000000E+01 0. -1.
        -11    1    4    4    0    0 -0.27187498754E+02 -0.78748926362E+02 -0.17431571717E+03  0.19320073174E+03  0.00000000000E+00 0.  1.
         11    1    4    4    0    0 -0.38362160404E+01 -0.20650967308E+02  0.70585965573E+01  0.22158582753E+02  0.00000000000E+00 0. -1.
</event>
<event>
 8    1  0.7005395E-009  0.6384011E+02  0.7561462E-02  0.1382388E+00
         -1   -1    0    0    0  501 -0.00000000000E+00  0.00000000000E+00  0.67862294170E+02  0.67862294170E+02  0.00000000000E+00 0.  1.
          1   -1    0    0  501    0  0.00000000000E+00 -0.00000000000E+00 -0.18632905389E+03  0.18632905389E+03  0.00000000000E+00 0. -1.
         25    2    1    2    0    0 -0.11162677204E+02  0.73503031078E+01 -0.10257567836E+03  0.16232406333E+03  0.12509476179E+03 0.  0.
         23    2    1    2    0    0  0.11162677204E+02 -0.73503031078E+01 -0.15891081364E+02  0.91867284730E+02  0.89489883332E+02 0.  0.
          5    1    3    3  502    0 -0.18695779595E+01  0.49904866392E+02 -0.10718740357E+03  0.11832414334E+03  0.41800000000E+01 0. -1.
         -5    1    3    3    0  502 -0.92930992446E+01 -0.42554563284E+02  0.46117252180E+01  0.43999919993E+02  0.41800000000E+01 0. -1.
        -11    1    4    4    0    0  0.22062552652E+02 -0.41635953704E+01  0.33975606037E+02  0.40723869677E+02  0.00000000000E+00 0.  1.
         11    1    4    4    0    0 -0.10899875448E+02 -0.31867077373E+01 -0.49866687401E+02  0.51143415053E+02  0.00000000000E+00 0. -1.
</event>
<event>
 8    1  0.7005395E-009  0.1234947E+03  0.7561462E-02  0.1237441E+00
          2   -1    0    0  501    0  0.00000000000E+00  0.00000000000E+00  0.68153043829E+03  0.68153043829E+03  0.00000000000E+00 0. -1.
         -2   -1    0    0    0  501 -0.00000000000E+00 -0.00000000000E+00 -0.39075734255E+02  0.39075734255E+02  0.00000000000E+00 0.  1.
         25    2    1    2    0    0  0.77517514803E+02  0.76366897904E+02  0.46461601088E+03  0.49331255565E+03  0.12509345226E+03 0.  0.
         23    2    1    2    0    0 -0.77517514803E+02 -0.76366897904E+02  0.17783869316E+03  0.22729361690E+03  0.90525793568E+02 0.  0.
          5    1    3    3  502    0  0.73002901724E+02  0.30219567644E+02  0.10914778550E+03  0.13480859545E+03  0.41800000000E+01 0.  1.
         -5    1    3    3    0  502  0.45146130790E+01  0.46147330259E+02  0.35546822538E+03  0.35850396020E+03  0.41800000000E+01 0.  1.
        -11    1    4    4    0    0 -0.54732261505E+02 -0.16358959667E+02  0.26633926110E+02  0.63028581063E+02  0.00000000000E+00 0.  1.
         11    1    4    4    0    0 -0.22785253298E+02 -0.60007938237E+02  0.15120476705E+03  0.16426503583E+03  0.00000000000E+00 0. -1.
</event>
<event>
 8    1  0.7005395E-009  0.1021930E+03  0.7561462E-02  0.1275751E+00
          3   -1    0    0  501    0  0.00000000000E+00  0.00000000000E+00  0.16067419885E+02  0.16067419885E+02  0.00000000000E+00 0. -1.
         -3   -1    0    0    0  501 -0.00000000000E+00 -0.00000000000E+00 -0.11158130939E+04  0.11158130939E+04  0.00000000000E+00 0.  1.
         25    2    1    2    0    0  0.73002769141E+02 -0.31359497890E+02 -0.64505569108E+03  0.66185892581E+03  0.12509025010E+03 0.  0.
         23    2    1    2    0    0 -0.73002769141E+02  0.31359497890E+02 -0.45468998296E+03  0.47002158800E+03  0.88681960803E+02 0.  0.
          5    1    3    3  502    0  0.17027040718E+02 -0.34983506239E+02 -0.55012718443E+03  0.55151714141E+03  0.41800000000E+01 0. -1.
         -5    1    3    3    0  502  0.55975728423E+02  0.36240083483E+01 -0.94928506653E+02  0.11034178440E+03  0.41800000000E+01 0. -1.
        -11    1    4    4    0    0 -0.86104358057E+02  0.38233305778E+02 -0.43661374006E+03  0.44666240513E+03  0.00000000000E+00 0.  1.
         11    1    4    4    0    0  0.13101588916E+02 -0.68738078876E+01 -0.18076242900E+02  0.23359182870E+02  0.00000000000E+00 0. -1.
</event>
<event>
 8    1  0.7005395E-009  0.1155990E+03  0.7561462E-02  0.1250539E+00
         -3   -1    0    0    0  501 -0.00000000000E+00  0.00000000000E+00  0.84916795462E+02  0.84916795462E+02  0.00000000000E+00 0.  1.
          3   -1    0    0  501    0  0.00000000000E+00 -0.00000000000E+00 -0.17210303688E+03  0.17210303688E+03  0.00000000000E+00 0. -1.
         25    2    1    2    0    0  0.44044316945E+02 -0.71300814085E+01 -0.16694063028E+02  0.13385341975E+03  0.12508919346E+03 0.  0.
         23    2    1    2    0    0 -0.44044316945E+02  0.71300814085E+01 -0.70492178390E+02  0.12316641259E+03  0.90609481077E+02 0.  0.
          5    1    3    3  502    0  0.86773335336E+02 -0.81498087167E+01  0.13642087989E+01  0.87266056248E+02  0.41800000000E+01 0. -1.
         -5    1    3    3    0  502 -0.42729018391E+02  0.10197273082E+01 -0.18058271827E+02  0.46587363499E+02  0.41800000000E+01 0. -1.
        -11    1    4    4    0    0 -0.42594958063E+02 -0.37255166641E+02 -0.39160991670E+02  0.68817593408E+02  0.00000000000E+00 0. -1.
         11    1    4    4    0    0 -0.14493588814E+01  0.44385248050E+02 -0.31331186720E+02  0.54348819186E+02  0.00000000000E+00 0.  1.
</event>
<event>
 8    1  0.7005395E-009  0.8722857E+02  0.7561462E-02  0.1309705E+00
          2   -1    0    0  501    0  0.00000000000E+00  0.00000000000E+00  0.62745873259E+03  0.62745873259E+03  0.00000000000E+00 0. -1.
         -2   -1    0    0    0  501 -0.00000000000E+00 -0.00000000000E+00 -0.35981109832E+02  0.35981109832E+02  0.00000000000E+00 0.  1.
         25    2    1    2    0    0 -0.18650350202E+02  0.24537902548E+02  0.53662125476E+03  0.55186903395E+03  0.12508843010E+03 0.  0.
         23    2    1    2    0    0  0.18650350202E+02 -0.24537902548E+02  0.54856367998E+02  0.11157080847E+03  0.92135118003E+02 0.  0.
          5    1    3    3  502    0  0.43598138780E+02  0.13438388153E+02  0.38242856423E+03  0.38516290985E+03  0.41800000000E+01 0. -1.
         -5    1    3    3    0  502 -0.62248488982E+02  0.11099514394E+02  0.15419269053E+03  0.16670612410E+03  0.41800000000E+01 0. -1.
        -11    1    4    4    0    0  0.32500024386E+02  0.47811983281E+01 -0.13809023849E+02  0.35634261353E+02  0.00000000000E+00 0.  1.
         11    1    4    4    0    0 -0.13849674184E+02 -0.29319100876E+02  0.68665391846E+02  0.75936547120E+02  0.00000000000E+00 0. -1.
</event>
<event>
 8    1  0.7005395E-009  0.1752642E+03  0.7561462E-02  0.1172467E+00
         -1   -1    0    0    0  501 -0.00000000000E+00  0.00000000000E+00  0.14241565225E+04  0.14241565225E+04  0.00000000000E+00 0.  1.
          1   -1    0    0  501    0  0.00000000000E+00 -0.00000000000E+00 -0.28717856938E+02  0.28717856938E+02  0.00000000000E+00 0. -1.
         25    2    1    2    0    0 -0.13634367695E+03  0.87952991428E+02  0.90766909384E+03  0.93050409910E+03  0.12509743239E+03 0.  0.
         23    2    1    2    0    0  0.13634367695E+03 -0.87952991428E+02  0.48776957178E+03  0.52237028039E+03  0.92877487769E+02 0.  0.
          5    1    3    3  502    0 -0.52565534776E+02  0.89769043669E+02  0.31096916432E+03  0.32793430776E+03  0.41800000000E+01 0. -1.
         -5    1    3    3    0  502 -0.83778142178E+02 -0.18160522410E+01  0.59669992952E+03  0.60256979134E+03  0.41800000000E+01 0. -1.
        -11    1    4    4    0    0  0.85872319686E+02 -0.50018180195E+02  0.15832158803E+03  0.18692672060E+03  0.00000000000E+00 0. -1.
         11    1    4    4    0    0  0.50471357268E+02 -0.37934811233E+02  0.32944798374E+03  0.33544355978E+03  0.00000000000E+00 0.  1.
</event>
<event>
 8    1  0.7005395E-009  0.1960486E+03  0.7561462E-02  0.1153116E+00
         -1   -1    0    0    0  501 -0.00000000000E+00  0.00000000000E+00  0.34040765502E+02  0.34040765502E+02  0.00000000000E+00 0.  1.
          1   -1    0    0  501    0  0.00000000000E+00 -0.00000000000E+00 -0.15396124813E+04  0.15396124813E+04  0.00000000000E+00 0. -1.
         25    2    1    2    0    0  0.19138177254E+02 -0.17547599807E+03 -0.11110511919E+04  0.11319170159E+04  0.12507311581E+03 0.  0.
         23    2    1    2    0    0 -0.19138177254E+02  0.17547599807E+03 -0.39452052391E+03  0.44173623084E+03  0.91248880127E+02 0.  0.
          5    1    3    3  502    0 -0.40023615460E+02 -0.12954688139E+03 -0.83071686606E+03  0.84171982763E+03  0.41800000000E+01 0. -1.
         -5    1    3    3    0  502  0.59161792714E+02 -0.45929116684E+02 -0.28033432581E+03  0.29019718831E+03  0.41800000000E+01 0. -1.
        -11    1    4    4    0    0 -0.32560537414E+02  0.12993156245E+03 -0.19453321546E+03  0.23618969376E+03  0.00000000000E+00 0.  1.
         11    1    4    4    0    0  0.13422360160E+02  0.45544435619E+02 -0.19998730845E+03  0.20554653709E+03  0.00000000000E+00 0. -1.
</event>
<event>
 8    1  0.7005395E-009  0.1037848E+03  0.7561462E-02  0.1272533E+00
          2   -1    0    0  501    0  0.00000000000E+00  0.00000000000E+00  0.15066418113E+04  0.15066418113E+04  0.00000000000E+00 0. -1.
         -2   -1    0    0    0  501 -0.00000000000E+00 -0.00000000000E+00 -0.15118286704E+02  0.15118286704E+02  0.00000000000E+00 0.  1.
         25    2    1    2    0    0  0.89236680093E+02 -0.33523427056E+02  0.10250978129E+04  0.10370920459E+04  0.12508948949E+03 0.  0.
         23    2    1    2    0    0 -0.89236680093E+02  0.33523427056E+02  0.46642571166E+03  0.48466805209E+03  0.90901985575E+02 0.  0.
          5    1    3    3  502    0  0.82618973025E+02 -0.28849315824E+02  0.10241899251E+04  0.10279302762E+04  0.41800000000E+01 0. -1.
         -5    1    3    3    0  502  0.66177070682E+01 -0.46741112312E+01  0.90788779350E+00  0.91617696374E+01  0.41800000000E+01 0. -1.
        -11    1    4    4    0    0 -0.65236278682E+02 -0.50286209454E+01  0.39243953391E+03  0.39785656569E+03  0.00000000000E+00 0. -1.
         11    1    4    4    0    0 -0.24000401411E+02  0.38552048001E+02  0.73986177747E+02  0.86811486398E+02  0.00000000000E+00 0.  1.
</event>
<event>
 8    1  0.7005395E-009  0.1498326E+03  0.7561462E-02  0.1200679E+00
         -3   -1    0    0    0  501 -0.00000000000E+00  0.00000000000E+00  0.79284972130E+03  0.79284972130E+03  0.00000000000E+00 0.  1.
          3   -1    0    0  501    0  0.00000000000E+00 -0.00000000000E+00 -0.30994098261E+02  0.30994098261E+02  0.00000000000E+00 0. -1.
         25    2    1    2    0    0  0.78981744164E+01 -0.11295450492E+03  0.37579955644E+03  0.41193890385E+03  0.12508897851E+03 0.  0.
         23    2    1    2    0    0 -0.78981744164E+01  0.11295450492E+03  0.38605606659E+03  0.41190491570E+03  0.88347448666E+02 0.  0.
          5    1    3    3  502    0  0.59027305238E+02 -0.42226597392E+02  0.23727050693E+03  0.24815735764E+03  0.41800000000E+01 0. -1.
         -5    1    3    3    0  502 -0.51129130821E+02 -0.70727907530E+02  0.13852904951E+03  0.16378154622E+03  0.41800000000E+01 0. -1.
        -11    1    4    4    0    0 -0.44642539789E+02  0.53221474342E+02  0.14375385389E+03  0.15965792244E+03  0.00000000000E+00 0. -1.
         11    1    4    4    0    0  0.36744365373E+02  0.59733030580E+02  0.24230221270E+03  0.25224699326E+03  0.00000000000E+00 0.  1.
</event>
<event>
 8    1  0.7005395E-009  0.1222256E+03  0.7561462E-02  0.1239470E+00
         -1   -1    0    0    0  501 -0.00000000000E+00  0.00000000000E+00  0.16752564442E+03  0.16752564442E+03  0.00000000000E+00 0.  1.
          1   -1    0    0  501    0  0.00000000000E+00 -0.00000000000E+00 -0.14766761968E+03  0.14766761968E+03  0.00000000000E+00 0. -1.
         25    2    1    2    0    0 -0.25515540163E+02  0.10119788761E+03 -0.38326778357E+02  0.16735384614E+03  0.12508522148E+03 0.  0.
         23    2    1    2    0    0  0.25515540163E+02 -0.10119788761E+03  0.58184803096E+02  0.14783941796E+03  0.87057262457E+02 0.  0.
          5    1    3    3  502    0  0.18243083883E+02  0.41851810403E+02 -0.72656711986E+02  0.85911898711E+02  0.41800000000E+01 0.  1.
         -5    1    3    3    0  502 -0.43758624046E+02  0.59346077205E+02  0.34329933629E+02  0.81441947429E+02  0.41800000000E+01 0.  1.
        -11    1    4    4    0    0  0.35790498080E+02 -0.16460342821E+02  0.47662017592E+02  0.61835026963E+02  0.00000000000E+00 0.  1.
         11    1    4    4    0    0 -0.10274957917E+02 -0.84737544787E+02  0.10522785504E+02  0.86004391001E+02  0.00000000000E+00 0. -1.
</event>
<event>
 8    1  0.7005395E-009  0.6538789E+02  0.7561462E-02  0.1376518E+00
          2   -1    0    0  501    0  0.00000000000E+00  0.00000000000E+00  0.20396463489E+03  0.20396463489E+03  0.00000000000E+00 0. -1.
         -2   -1    0    0    0  501 -0.00000000000E+00 -0.00000000000E+00 -0.71764065569E+02  0.71764065569E+02  0.00000000000E+00 0.  1.
         25    2    1    2    0    0 -0.12637009909E+02 -0.39717385353E+02  0.35673017652E+02  0.13659212396E+03  0.12509068478E+03 0.  0.
         23    2    1    2    0    0  0.12637009909E+02  0.39717385353E+02  0.96527551668E+02  0.13913657650E+03  0.91127679498E+02 0.  0.
          5    1    3    3  502    0  0.15397065519E+01  0.20172205076E+01  0.76327364646E+02  0.76483847109E+02  0.41800000000E+01 0. -1.
         -5    1    3    3    0  502 -0.14176716461E+02 -0.41734605860E+02 -0.40654346994E+02  0.60108276847E+02  0.41800000000E+01 0. -1.
        -11    1    4    4    0    0  0.40218697123E+02  0.10787708093E+02  0.89281044378E+02  0.98514075793E+02  0.00000000000E+00 0. -1.
         11    1    4    4    0    0 -0.27581687214E+02  0.28929677259E+02  0.72465072902E+01  0.40622500708E+02  0.00000000000E+00 0.  1.
</event>
<event>
 8    1  0.7005395E-009  0.9572504E+02  0.7561462E-02  0.1289551E+00
         -2   -1    0    0    0  501 -0.00000000000E+00  0.00000000000E+00  0.68230744673E+02  0.68230744673E+02  0.00000000000E+00 0. -1.
          2   -1    0    0  501    0  0.00000000000E+00 -0.00000000000E+00 -0.17663844984E+03  0.17663844984E+03  0.00000000000E+00 0.  1.
         25    2    1    2    0    0 -0.21978409145E+01  0.17858064723E+01 -0.45772540242E+02  0.13323252833E+03  0.12509101309E+03 0.  0.
         23    2    1    2    0    0  0.21978409145E+01 -0.17858064723E+01 -0.62635164923E+02  0.11163666618E+03  0.92366453547E+02 0.  0.
          5    1    3    3  502    0 -0.20606777648E+02 -0.56747432076E+02 -0.79664469235E+01  0.61039716651E+02  0.41800000000E+01 0. -1.
         -5    1    3    3    0  502  0.18408936733E+02  0.58533238549E+02 -0.37806093319E+02  0.72192811683E+02  0.41800000000E+01 0. -1.
        -11    1    4    4    0    0 -0.24968383657E+02  0.22033895370E+02 -0.67415716835E+02  0.75191699036E+02  0.00000000000E+00 0.  1.
         11    1    4    4    0    0  0.27166224571E+02 -0.23819701842E+02  0.47805519123E+01  0.36444967141E+02  0.00000000000E+00 0. -1.
</event>
<event>
 8    1  0.7005395E-009  0.1421449E+03  0.7561462E-02  0.1210472E+00
         -2   -1    0    0    0  501 -0.00000000000E+00  0.00000000000E+00  0.61941741558E+02  0.61941741558E+02  0.00000000000E+00 0.  1.
          2   -1    0    0  501    0  0.00000000000E+00 -0.00000000000E+00 -0.36373954133E+03  0.36373954133E+03  0.00000000000E+00 0. -1.
         25    2    1    2    0    0  0.76017790566E+02  0.56097621662E+02 -0.10317705818E+03  0.18767129985E+03  0.12509741729E+03 0.  0.
         23    2    1    2    0    0 -0.76017790566E+02 -0.56097621662E+02 -0.19862074159E+03  0.23800998304E+03  0.90955513295E+02 0.  0.
          5    1    3    3  502    0  0.81955205618E+02 -0.16575600206E+02 -0.56165198883E+02  0.10081373029E+03  0.41800000000E+01 0.  1.
         -5    1    3    3    0  502 -0.59374150518E+01  0.72673221868E+02 -0.47011859301E+02  0.86857569555E+02  0.41800000000E+01 0.  1.
        -11    1    4    4    0    0  0.17933392714E+02  0.33935710471E+00 -0.11981725126E+02  0.21570430558E+02  0.00000000000E+00 0.  1.
         11    1    4    4    0    0 -0.93951183280E+02 -0.56436978767E+02 -0.18663901647E+03  0.21643955248E+03  0.00000000000E+00 0. -1.
</event>
<event>
 8    1  0.7005395E-009  0.8867191E+02  0.7561462E-02  0.1306100E+00
          2   -1    0    0  501    0  0.00000000000E+00  0.00000000000E+00  0.34791973215E+03  0.34791973215E+03  0.00000000000E+00 0. -1.
         -2   -1    0    0    0  501 -0.00000000000E+00 -0.00000000000E+00 -0.40494587403E+02  0.40494587403E+02  0.00000000000E+00 0.  1.
         25    2    1    2    0    0  0.12136583125E+02  0.28751975962E+02  0.21809459125E+03  0.25334972452E+03  0.12508740708E+03 0.  0.
         23    2    1    2    0    0 -0.12136583125E+02 -0.28751975962E+02  0.89330553500E+02  0.13506459503E+03  0.96376990364E+02 0.  0.
          5    1    3    3  502    0 -0.30560373815E+01  0.71841689086E+02  0.79109572677E+02  0.10698768408E+03  0.41800000000E+01 0.  1.
         -5    1    3    3    0  502  0.15192620507E+02 -0.43089713124E+02  0.13898501857E+03  0.14636204044E+03  0.41800000000E+01 0.  1.
        -11    1    4    4    0    0  0.17808231681E+02  0.16278846479E+00 -0.14650651878E+02  0.23060815600E+02  0.00000000000E+00 0.  1.
         11    1    4    4    0    0 -0.29944814806E+02 -0.28914764426E+02  0.10398120538E+03  0.11200377943E+03  0.00000000000E+00 0. -1.
</event>
<event>
 8    1  0.7005395E-009  0.2646958E+03  0.7561462E-02  0.1104354E+00
          2   -1    0    0  501    0  0.00000000000E+00  0.00000000000E+00  0.85906752379E+03  0.85906752379E+03  0.00000000000E+00 0. -1.
         -2   -1    0    0    0  501 -0.00000000000E+00 -0.00000000000E+00 -0.87129628124E+02  0.87129628124E+02  0.00000000000E+00 0.  1.
         25    2    1    2    0    0  0.85583569465E+02 -0.23229366877E+03  0.46951964453E+03  0.54532672688E+03  0.12509055334E+03 0.  0.
         23    2    1    2    0    0 -0.85583569465E+02  0.23229366877E+03  0.30241825113E+03  0.40087042503E+03  0.89193066615E+02 0.  0.
          5    1    3    3  502    0  0.11426786200E+03 -0.15212532900E+03  0.29430018974E+03  0.35047016148E+03  0.41800000000E+01 0. -1.
         -5    1    3    3    0  502 -0.28684292540E+02 -0.80168339776E+02  0.17521945479E+03  0.19485656540E+03  0.41800000000E+01 0. -1.
        -11    1    4    4    0    0  0.79573870693E+01  0.28696254229E+02  0.79133175117E+02  0.84550898397E+02  0.00000000000E+00 0. -1.
         11    1    4    4    0    0 -0.93540956534E+02  0.20359741454E+03  0.22328507601E+03  0.31631952663E+03  0.00000000000E+00 0.  1.
</event>
<event>
 8    1  0.7005395E-009  0.1091433E+03  0.7561462E-02  0.1262165E+00
         -1   -1    0    0    0  501 -0.00000000000E+00  0.00000000000E+00  0.18004491653E+03  0.18004491653E+03  0.00000000000E+00 0.  1.
          1   -1    0    0  501    0  0.00000000000E+00 -0.00000000000E+00 -0.87251181643E+02  0.87251181643E+02  0.00000000000E+00 0. -1.
         25    2    1    2    0    0  0.12487933183E+02 -0.48208775042E+02  0.88829739508E+02  0.16129894335E+03  0.12508633834E+03 0.  0.
         23    2    1    2    0    0 -0.12487933183E+02  0.48208775042E+02  0.39639953748E+01  0.10599715482E+03  0.93486090430E+02 0.  0.
          5    1    3    3  502    0  0.24867800752E+02  0.38853322189E+02  0.35613881666E+02  0.58427811243E+02  0.41800000000E+01 0. -1.
         -5    1    3    3    0  502 -0.12379867569E+02 -0.87062097231E+02  0.53215857842E+02  0.10287113211E+03  0.41800000000E+01 0. -1.
        -11    1    4    4    0    0  0.27986388589E+02  0.23206139186E+02  0.33965117575E+02  0.49753311991E+02  0.00000000000E+00 0.  1.
         11    1    4    4    0    0 -0.40474321772E+02  0.25002635856E+02 -0.30001122201E+02  0.56243842827E+02  0.00000000000E+00 0. -1.
</event>
<event>
 8    1  0.7005395E-009  0.1061218E+03  0.7561462E-02  0.1267925E+00
          1   -1    0    0  501    0  0.00000000000E+00  0.00000000000E+00  0.17454719684E+03  0.17454719684E+03  0.00000000000E+00 0. -1.
         -1   -1    0    0    0  501 -0.00000000000E+00 -0.00000000000E+00 -0.14783407427E+03  0.14783407427E+03  0.00000000000E+00 0.  1.
         25    2    1    2    0    0  0.78003107870E+02  0.55944336927E+02  0.83198252144E+02  0.17827867153E+03  0.12508829638E+03 0.  0.
         23    2    1    2    0    0 -0.78003107870E+02 -0.55944336927E+02 -0.56485129566E+02  0.14410259959E+03  0.91437058535E+02 0.  0.
          5    1    3    3  502    0  0.14408991779E+02  0.14622970589E+02  0.98580286745E+02  0.10078192123E+03  0.41800000000E+01 0. -1.
         -5    1    3    3    0  502  0.63594116091E+02  0.41321366339E+02 -0.15382034601E+02  0.77496750293E+02  0.41800000000E+01 0. -1.
        -11    1    4    4    0    0 -0.88683543940E+02 -0.55561399405E+02 -0.20599267410E+02  0.10665912941E+03  0.00000000000E+00 0. -1.
         11    1    4    4    0    0  0.10680436070E+02 -0.38293752277E+00 -0.35885862156E+02  0.37443470171E+02  0.00000000000E+00 0.  1.
</event>
<event>
 8    1  0.7005395E-009  0.1108995E+03  0.7561462E-02  0.1258913E+00
         -2   -1    0    0    0  501 -0.00000000000E+00  0.00000000000E+00  0.42238856765E+02  0.42238856765E+02  0.00000000000E+00 0.  1.
          2   -1    0    0  501    0  0.00000000000E+00 -0.00000000000E+00 -0.42976686360E+03  0.42976686360E+03  0.00000000000E+00 0. -1.
         25    2    1    2    0    0 -0.77323745892E+02  0.11342272204E+02 -0.24279442655E+03  0.28409009220E+03  0.12510171102E+03 0.  0.
         23    2    1    2    0    0  0.77323745892E+02 -0.11342272204E+02 -0.14473358028E+03  0.18791562817E+03  0.90867294625E+02 0.  0.
          5    1    3    3  502    0  0.30886508595E+02  0.13125868703E+02 -0.95145451428E+02  0.10097719629E+03  0.41800000000E+01 0. -1.
         -5    1    3    3    0  502 -0.10821025449E+03 -0.17835964988E+01 -0.14764897513E+03  0.18311289591E+03  0.41800000000E+01 0. -1.
        -11    1    4    4    0    0  0.42569414375E+02  0.15710007412E+01 -0.44672406277E+01  0.42831989475E+02  0.00000000000E+00 0.  1.
         11    1    4    4    0    0  0.34754331517E+02 -0.12913272945E+02 -0.14026633966E+03  0.14508363870E+03  0.00000000000E+00 0. -1.
</event>
<event>
 8    1  0.7005395E-009  0.1087762E+03  0.7561462E-02  0.1262853E+00
          1   -1    0    0  501    0  0.00000000000E+00  0.00000000000E+00  0.53616934105E+02  0.53616934105E+02  0.00000000000E+00 0. -1.
         -1   -1    0    0    0  501 -0.00000000000E+00 -0.00000000000E+00 -0.33123663652E+03  0.33123663652E+03  0.00000000000E+00 0.  1.
         25    2    1    2    0    0 -0.50665080560E+02  0.14739859593E+02 -0.70872843499E+02  0.15314907194E+03  0.12508982549E+03 0.  0.
         23    2    1    2    0    0  0.50665080560E+02 -0.14739859593E+02 -0.20674685891E+03  0.23170449868E+03  0.90324399758E+02 0.  0.
          5    1    3    3  502    0  0.34354668789E+02  0.28959831363E+02 -0.67404613352E+01  0.45626980167E+02  0.41800000000E+01 0. -1.
         -5    1    3    3    0  502 -0.85019749349E+02 -0.14219971770E+02 -0.64132382164E+02  0.10752209177E+03  0.41800000000E+01 0. -1.
        -11    1    4    4    0    0  0.60819519064E+02  0.78815067599E+01 -0.19471280419E+03  0.20414261722E+03  0.00000000000E+00 0.  1.
         11    1    4    4    0    0 -0.10154438504E+02 -0.22621366353E+02 -0.12034054719E+02  0.27561881467E+02  0.00000000000E+00 0. -1.
</event>
<event>
 8    1  0.7005395E-009  0.9836767E+02  0.7561462E-02  0.1283766E+00
          2   -1    0    0  501    0  0.00000000000E+00  0.00000000000E+00  0.11974521425E+04  0.11974521425E+04  0.00000000000E+00 0. -1.
         -2   -1    0    0    0  501 -0.00000000000E+00 -0.00000000000E+00 -0.24410643830E+02  0.24410643830E+02  0.00000000000E+00 0.  1.
         25    2    1    2    0    0 -0.88868435898E+02 -0.27015105849E+02  0.95688939532E+03  0.96949066369E+03  0.12508963689E+03 0.  0.
         23    2    1    2    0    0  0.88868435898E+02  0.27015105849E+02  0.21615210334E+03  0.25237212263E+03  0.91337515082E+02 0.  0.
          5    1    3    3  502    0 -0.27022187924E+02 -0.30579871018E+02  0.79569344910E+03  0.79675018952E+03  0.41800000000E+01 0. -1.
         -5    1    3    3    0  502 -0.61846247974E+02  0.35647651693E+01  0.16119594622E+03  0.17274047417E+03  0.41800000000E+01 0. -1.
        -11    1    4    4    0    0  0.31619289491E+02  0.15556761432E+02  0.79311156593E+01  0.36120560485E+02  0.00000000000E+00 0.  1.
         11    1    4    4    0    0  0.57249146407E+02  0.11458344417E+02  0.20822098768E+03  0.21625156215E+03  0.00000000000E+00 0. -1.
</event>
<event>
 8    1  0.7005395E-009  0.1094343E+03  0.7561462E-02  0.1261621E+00
         -1   -1    0    0    0  501 -0.00000000000E+00  0.00000000000E+00  0.81401015618E+02  0.81401015618E+02  0.00000000000E+00 0.  1.
          1   -1    0    0  501    0  0.00000000000E+00 -0.00000000000E+00 -0.18022501581E+03  0.18022501581E+03  0.00000000000E+00 0. -1.
         25    2    1    2    0    0  0.30521204946E+02  0.43474979994E+02 -0.61565410232E+02  0.14920018143E+03  0.12509507010E+03 0.  0.
         23    2    1    2    0    0 -0.30521204946E+02 -0.43474979994E+02 -0.37258589958E+02  0.11242585000E+03  0.91813677552E+02 0.  0.
          5    1    3    3  502    0  0.60238097477E+02  0.70270957493E+02 -0.27953735070E+02  0.96775614485E+02  0.41800000000E+01 0. -1.
         -5    1    3    3    0  502 -0.29716892530E+02 -0.26795977499E+02 -0.33611675162E+02  0.52424566941E+02  0.41800000000E+01 0. -1.
        -11    1    4    4    0    0 -0.66707955682E+01  0.18454462049E+02  0.17572583236E+02  0.26341267332E+02  0.00000000000E+00 0.  1.
         11    1    4    4    0    0 -0.23850409378E+02 -0.61929442043E+02 -0.54831173194E+02  0.86084582668E+02  0.00000000000E+00 0. -1.
</event>
