<event>
 6    1  0.1045058E-005  0.1648607E+03  0.7546771E-02  0.1188494E+00
         -2   -1    0    0    0  501 -0.00000000000E+00  0.00000000000E+00  0.33023099787E+03  0.33023099787E+03  0.00000000000E+00 0. -1.
          2   -1    0    0  501    0  0.00000000000E+00 -0.00000000000E+00 -0.93302293625E+02  0.93302293625E+02  0.00000000000E+00 0.  1.
          5    1    1    2  502    0  0.29999536688E+02  0.46859231426E+02  0.64576529153E+02  0.85369654378E+02  0.47000000000E+01 0. -1.
         -5    1    1    2    0  502  0.71291633629E+02 -0.10897381899E+02 -0.37944979908E+02  0.81628190338E+02  0.47000000000E+01 0. -1.
        -11    1    1    2    0    0 -0.22187464299E+02 -0.33370046383E+02  0.15471896616E+03  0.15982428494E+03  0.00000000000E+00 0. -1.
         11    1    1    2    0    0 -0.79103706017E+02 -0.25918031439E+01  0.55578188845E+02  0.96711161841E+02  0.00000000000E+00 0.  1.
<mgrwt>
<rscale>  0 0.16017995E+03</rscale>
<asrwt>0</asrwt>
<pdfrwt beam="2">  1        2 0.14354199E-01 0.16486067E+03</pdfrwt>
<pdfrwt beam="1">  1       -2 0.50804768E-01 0.16486067E+03</pdfrwt>
<totfact> 0.14996409E+03</totfact>
</mgrwt>
</event>
<event>
 6    1  0.1045058E-005  0.1778301E+03  0.7546771E-02  0.1175772E+00
         -4   -1    0    0    0  501 -0.00000000000E+00  0.00000000000E+00  0.45598144867E+03  0.45598144867E+03  0.00000000000E+00 0.  1.
          4   -1    0    0  501    0  0.00000000000E+00 -0.00000000000E+00 -0.62102432662E+02  0.62102432662E+02  0.00000000000E+00 0. -1.
          5    1    1    2  502    0  0.40577764555E+02  0.56251121136E+02  0.53443546158E+02  0.87687206771E+02  0.47000000000E+01 0.  1.
         -5    1    1    2    0  502 -0.87362137256E+02  0.61260537690E+02  0.12150789564E+03  0.16177532323E+03  0.47000000000E+01 0.  1.
        -11    1    1    2    0    0  0.59307635366E+02 -0.71455152282E+02  0.82965490072E+02  0.12452512575E+03  0.00000000000E+00 0. -1.
         11    1    1    2    0    0 -0.12523262664E+02 -0.46056506544E+02  0.13596208414E+03  0.14409622558E+03  0.00000000000E+00 0.  1.
<mgrwt>
<rscale>  0 0.17200616E+03</rscale>
<asrwt>0</asrwt>
<pdfrwt beam="2">  1        4 0.95542207E-02 0.17783011E+03</pdfrwt>
<pdfrwt beam="1">  1       -4 0.70150990E-01 0.17783011E+03</pdfrwt>
<totfact> 0.27162006E+02</totfact>
</mgrwt>
</event>
<event>
 6    1  0.1045058E-005  0.1478113E+03  0.7546771E-02  0.1212580E+00
          1   -1    0    0  501    0  0.00000000000E+00  0.00000000000E+00  0.12731623335E+04  0.12731623335E+04  0.00000000000E+00 0. -1.
         -1   -1    0    0    0  501 -0.00000000000E+00 -0.00000000000E+00 -0.22612121724E+02  0.22612121724E+02  0.00000000000E+00 0.  1.
          5    1    1    2  502    0  0.21748354191E+02  0.29515934256E+02  0.22028041045E+03  0.22336009158E+03  0.47000000000E+01 0. -1.
         -5    1    1    2    0  502 -0.97970073668E+02 -0.49853697080E+02  0.83881309627E+03  0.84599824286E+03  0.47000000000E+01 0. -1.
        -11    1    1    2    0    0 -0.14565046779E+02  0.16288783995E+01  0.11085341704E+01  0.14697710044E+02  0.00000000000E+00 0.  1.
         11    1    1    2    0    0  0.90786766256E+02  0.18708884424E+02  0.19034817086E+03  0.21171841071E+03  0.00000000000E+00 0. -1.
<mgrwt>
<rscale>  0 0.14055841E+03</rscale>
<asrwt>0</asrwt>
<pdfrwt beam="1">  1        1 0.19587107E+00 0.14781134E+03</pdfrwt>
<pdfrwt beam="2">  1       -1 0.34787889E-02 0.14781134E+03</pdfrwt>
<totfact> 0.30545865E+03</totfact>
</mgrwt>
</event>
<event>
 6    1  0.1045058E-005  0.2185166E+03  0.7546771E-02  0.1134994E+00
         -2   -1    0    0    0  501 -0.00000000000E+00  0.00000000000E+00  0.22466157136E+02  0.22466157136E+02  0.00000000000E+00 0.  1.
          2   -1    0    0  501    0  0.00000000000E+00 -0.00000000000E+00 -0.53134911926E+03  0.53134911926E+03  0.00000000000E+00 0. -1.
          5    1    1    2  502    0  0.46166866589E+01  0.33332940862E+01 -0.35205299521E+03  0.35213041062E+03  0.47000000000E+01 0. -1.
         -5    1    1    2    0  502 -0.17621608631E+02 -0.39369020925E+01  0.29638641650E+01  0.18891658996E+02  0.47000000000E+01 0. -1.
        -11    1    1    2    0    0 -0.10207096785E+02 -0.28253915268E+02 -0.15463949328E+02  0.33787605443E+02  0.00000000000E+00 0.  1.
         11    1    1    2    0    0  0.23212018757E+02  0.28857523274E+02 -0.14432988174E+03  0.14900560133E+03  0.00000000000E+00 0. -1.
<mgrwt>
<rscale>  0 0.21851657E+03</rscale>
<asrwt>0</asrwt>
<pdfrwt beam="2">  1        2 0.81746015E-01 0.21851657E+03</pdfrwt>
<pdfrwt beam="1">  1       -2 0.34563320E-02 0.21851657E+03</pdfrwt>
<totfact> 0.19466760E+04</totfact>
</mgrwt>
</event>
<event>
 6    1  0.1045058E-005  0.1919222E+03  0.7546771E-02  0.1162007E+00
         -2   -1    0    0    0  501 -0.00000000000E+00  0.00000000000E+00  0.26424664779E+02  0.26424664779E+02  0.00000000000E+00 0. -1.
          2   -1    0    0  501    0  0.00000000000E+00 -0.00000000000E+00 -0.12375646996E+04  0.12375646996E+04  0.00000000000E+00 0.  1.
          5    1    1    2  502    0  0.77171184238E+02  0.30646791195E+01 -0.48918762979E+03  0.49526902899E+03  0.47000000000E+01 0.  1.
         -5    1    1    2    0  502  0.55172355107E+02 -0.63850345920E+02 -0.15071025717E+03  0.17279041367E+03  0.47000000000E+01 0.  1.
        -11    1    1    2    0    0 -0.10090293893E+03  0.70136688694E+02 -0.52528629958E+03  0.53946849279E+03  0.00000000000E+00 0. -1.
         11    1    1    2    0    0 -0.31440600419E+02 -0.93510218933E+01 -0.45955848285E+02  0.56461428929E+02  0.00000000000E+00 0.  1.
<mgrwt>
<rscale>  0 0.18612124E+03</rscale>
<asrwt>0</asrwt>
<pdfrwt beam="2">  1        2 0.19039455E+00 0.19192215E+03</pdfrwt>
<pdfrwt beam="1">  1       -2 0.40653334E-02 0.19192215E+03</pdfrwt>
<totfact> 0.50553446E+03</totfact>
</mgrwt>
</event>
<event>
 6    1  0.1045058E-005  0.1466426E+03  0.7546771E-02  0.1212730E+00
          2   -1    0    0  501    0  0.00000000000E+00  0.00000000000E+00  0.21949161056E+03  0.21949161056E+03  0.00000000000E+00 0. -1.
         -2   -1    0    0    0  501 -0.00000000000E+00 -0.00000000000E+00 -0.10420553369E+03  0.10420553369E+03  0.00000000000E+00 0.  1.
          5    1    1    2  502    0  0.36161650285E+02 -0.90603415879E+02  0.79872962981E+02  0.12616823743E+03  0.47000000000E+01 0. -1.
         -5    1    1    2    0  502 -0.45681961745E+02  0.14525741869E+02  0.54438790644E+02  0.72687761917E+02  0.47000000000E+01 0. -1.
        -11    1    1    2    0    0 -0.25743948377E+02  0.28386704107E+02 -0.45840466492E+02  0.59748675436E+02  0.00000000000E+00 0.  1.
         11    1    1    2    0    0  0.35264259837E+02  0.47690969903E+02  0.26814789744E+02  0.65092469466E+02  0.00000000000E+00 0. -1.
<mgrwt>
<rscale>  0 0.14044585E+03</rscale>
<asrwt>0</asrwt>
<pdfrwt beam="1">  1        2 0.33767940E-01 0.14664263E+03</pdfrwt>
<pdfrwt beam="2">  1       -2 0.16031621E-01 0.14664263E+03</pdfrwt>
<totfact> 0.45371937E+03</totfact>
</mgrwt>
</event>
<event>
 6    1  0.1045058E-005  0.3386416E+03  0.7546771E-02  0.1067376E+00
         -2   -1    0    0    0  501 -0.00000000000E+00  0.00000000000E+00  0.97513031965E+02  0.97513031965E+02  0.00000000000E+00 0.  1.
          2   -1    0    0  501    0  0.00000000000E+00 -0.00000000000E+00 -0.29400721331E+03  0.29400721331E+03  0.00000000000E+00 0. -1.
          5    1    1    2  502    0  0.78521906210E+01  0.33011956901E+02 -0.16016671984E+03  0.16378923756E+03  0.47000000000E+01 0. -1.
         -5    1    1    2    0  502 -0.21949030092E+02 -0.27908193194E+01  0.38532350892E+02  0.44680875771E+02  0.47000000000E+01 0.  1.
        -11    1    1    2    0    0 -0.43617068489E+02 -0.79808206680E+02 -0.41305934673E+02  0.99889833098E+02  0.00000000000E+00 0.  1.
         11    1    1    2    0    0  0.57713907960E+02  0.49587069098E+02 -0.33553877720E+02  0.83160298844E+02  0.00000000000E+00 0. -1.
<mgrwt>
<rscale>  0 0.33864161E+03</rscale>
<asrwt>0</asrwt>
<pdfrwt beam="2">  1        2 0.45231878E-01 0.33864161E+03</pdfrwt>
<pdfrwt beam="1">  1       -2 0.15002005E-01 0.33864161E+03</pdfrwt>
<totfact> 0.38345632E+03</totfact>
</mgrwt>
</event>
<event>
 6    1  0.1045058E-005  0.1433826E+03  0.7546771E-02  0.1218386E+00
         -1   -1    0    0    0  501 -0.00000000000E+00  0.00000000000E+00  0.10825842222E+03  0.10825842222E+03  0.00000000000E+00 0.  1.
          1   -1    0    0  501    0  0.00000000000E+00 -0.00000000000E+00 -0.16470748888E+03  0.16470748888E+03  0.00000000000E+00 0. -1.
          5    1    1    2  502    0 -0.14400602594E+02  0.32387431158E+02  0.24651623010E+02  0.43429432061E+02  0.47000000000E+01 0.  1.
         -5    1    1    2    0  502  0.72305446477E+02  0.74073332345E+01 -0.85533820739E+02  0.11234353860E+03  0.47000000000E+01 0.  1.
        -11    1    1    2    0    0 -0.12083080743E+02 -0.58869428816E+02 -0.17986932639E+02  0.62730696115E+02  0.00000000000E+00 0. -1.
         11    1    1    2    0    0 -0.45821763139E+02  0.19074664423E+02  0.22420063706E+02  0.54462244322E+02  0.00000000000E+00 0.  1.
<mgrwt>
<rscale>  0 0.13630758E+03</rscale>
<asrwt>0</asrwt>
<pdfrwt beam="2">  1        1 0.25339614E-01 0.14338262E+03</pdfrwt>
<pdfrwt beam="1">  1       -1 0.16655142E-01 0.14338262E+03</pdfrwt>
<totfact> 0.48990001E+03</totfact>
</mgrwt>
</event>
<event>
 6    1  0.1045058E-005  0.1276395E+03  0.7546771E-02  0.1244889E+00
         -2   -1    0    0    0  501 -0.00000000000E+00  0.00000000000E+00  0.10888261553E+03  0.10888261553E+03  0.00000000000E+00 0.  1.
          2   -1    0    0  501    0  0.00000000000E+00 -0.00000000000E+00 -0.17412015116E+03  0.17412015116E+03  0.00000000000E+00 0. -1.
          5    1    1    2  502    0 -0.30318068958E+02  0.68930827902E+02 -0.57982511746E+02  0.95156218972E+02  0.47000000000E+01 0.  1.
         -5    1    1    2    0  502  0.14367171759E+02 -0.48625238031E+02 -0.59565738040E+02  0.78364510756E+02  0.47000000000E+01 0.  1.
        -11    1    1    2    0    0  0.11559402747E+02  0.34735091140E+02  0.37298417106E+02  0.52262015527E+02  0.00000000000E+00 0.  1.
         11    1    1    2    0    0  0.43914944521E+01 -0.55040681012E+02  0.15012297053E+02  0.57220021431E+02  0.00000000000E+00 0. -1.
<mgrwt>
<rscale>  0 0.11892033E+03</rscale>
<asrwt>0</asrwt>
<pdfrwt beam="2">  1        2 0.26787715E-01 0.12763954E+03</pdfrwt>
<pdfrwt beam="1">  1       -2 0.16751172E-01 0.12763954E+03</pdfrwt>
<totfact> 0.53781684E+03</totfact>
</mgrwt>
</event>
<event>
 6    1  0.1045058E-005  0.3287935E+03  0.7546771E-02  0.1071672E+00
         -2   -1    0    0    0  501 -0.00000000000E+00  0.00000000000E+00  0.70668090090E+02  0.70668090090E+02  0.00000000000E+00 0.  1.
          2   -1    0    0  501    0  0.00000000000E+00 -0.00000000000E+00 -0.38243979412E+03  0.38243979412E+03  0.00000000000E+00 0. -1.
          5    1    1    2  502    0 -0.15682857610E+02  0.29893964252E+00  0.37883979161E+01  0.16807240895E+02  0.47000000000E+01 0. -1.
         -5    1    1    2    0  502  0.75869827072E+02  0.27514712788E+02 -0.31248257569E+03  0.32277041406E+03  0.47000000000E+01 0. -1.
        -11    1    1    2    0    0 -0.23570303160E+02 -0.56396193279E+02 -0.19660149708E+02  0.64207564149E+02  0.00000000000E+00 0.  1.
         11    1    1    2    0    0 -0.36616666302E+02  0.28582540849E+02  0.16582623457E+02  0.49322665106E+02  0.00000000000E+00 0. -1.
<mgrwt>
<rscale>  0 0.32879349E+03</rscale>
<asrwt>0</asrwt>
<pdfrwt beam="2">  1        2 0.58836892E-01 0.32879349E+03</pdfrwt>
<pdfrwt beam="1">  1       -2 0.10872014E-01 0.32879349E+03</pdfrwt>
<totfact> 0.48728449E+03</totfact>
</mgrwt>
</event>
<event>
 6    1  0.1045058E-005  0.1293406E+03  0.7546771E-02  0.1244572E+00
          1   -1    0    0  501    0  0.00000000000E+00  0.00000000000E+00  0.47574191515E+03  0.47574191515E+03  0.00000000000E+00 0. -1.
         -1   -1    0    0    0  501 -0.00000000000E+00 -0.00000000000E+00 -0.25996414364E+02  0.25996414364E+02  0.00000000000E+00 0.  1.
          5    1    1    2  502    0 -0.46763335578E+02  0.23350191670E+02  0.21327383798E+03  0.21963574612E+03  0.47000000000E+01 0. -1.
         -5    1    1    2    0  502  0.41042464351E+02 -0.31372893667E+02  0.42807398995E+02  0.67255525764E+02  0.47000000000E+01 0.  1.
        -11    1    1    2    0    0  0.14854131722E+02 -0.40611496442E+02  0.81804074123E+02  0.92530240547E+02  0.00000000000E+00 0.  1.
         11    1    1    2    0    0 -0.91332604953E+01  0.48634198440E+02  0.11186018969E+03  0.12231681709E+03  0.00000000000E+00 0. -1.
<mgrwt>
<rscale>  0 0.11911040E+03</rscale>
<asrwt>0</asrwt>
<pdfrwt beam="1">  1        1 0.73191058E-01 0.12934064E+03</pdfrwt>
<pdfrwt beam="2">  1       -1 0.39994487E-02 0.12934064E+03</pdfrwt>
<totfact> 0.11232152E+04</totfact>
</mgrwt>
</event>
<event>
 6    1  0.1045058E-005  0.2261586E+03  0.7546771E-02  0.1132642E+00
          2   -1    0    0  501    0  0.00000000000E+00  0.00000000000E+00  0.15568556418E+04  0.15568556418E+04  0.00000000000E+00 0. -1.
         -2   -1    0    0    0  501 -0.00000000000E+00 -0.00000000000E+00 -0.32236043557E+02  0.32236043557E+02  0.00000000000E+00 0.  1.
          5    1    1    2  502    0  0.37647687605E+02  0.71188755880E+02  0.22134495699E+03  0.23558622059E+03  0.47000000000E+01 0. -1.
         -5    1    1    2    0  502  0.13203666541E+03  0.10848631110E+02  0.76063394819E+03  0.77209938929E+03  0.47000000000E+01 0. -1.
        -11    1    1    2    0    0 -0.10954222378E+03 -0.91136182304E+02  0.43528948962E+03  0.45801991473E+03  0.00000000000E+00 0.  1.
         11    1    1    2    0    0 -0.60142129227E+02  0.90987953142E+01  0.10735120349E+03  0.12338616079E+03  0.00000000000E+00 0. -1.
<mgrwt>
<rscale>  0 0.22167331E+03</rscale>
<asrwt>0</asrwt>
<pdfrwt beam="1">  1        2 0.23951619E+00 0.22615861E+03</pdfrwt>
<pdfrwt beam="2">  1       -2 0.49593925E-02 0.22615861E+03</pdfrwt>
<totfact> 0.25227353E+03</totfact>
</mgrwt>
</event>
<event>
 6    1  0.1045058E-005  0.4645102E+03  0.7546771E-02  0.1023481E+00
         -2   -1    0    0    0  501 -0.00000000000E+00  0.00000000000E+00  0.29404270958E+02  0.29404270958E+02  0.00000000000E+00 0. -1.
          2   -1    0    0  501    0  0.00000000000E+00 -0.00000000000E+00 -0.18345100715E+04  0.18345100715E+04  0.00000000000E+00 0.  1.
          5    1    1    2  502    0 -0.43972387804E+02 -0.17227447831E+03 -0.10136531702E+04  0.10291389149E+04  0.47000000000E+01 0. -1.
         -5    1    1    2    0  502 -0.28250149183E+02  0.17566102643E+02 -0.21253324791E+03  0.21517228065E+03  0.47000000000E+01 0. -1.
        -11    1    1    2    0    0  0.73522572169E+02  0.11116360638E+02 -0.15266721316E+03  0.16981289723E+03  0.00000000000E+00 0. -1.
         11    1    1    2    0    0 -0.13000351820E+01  0.14359201503E+03 -0.42625216926E+03  0.44979024964E+03  0.00000000000E+00 0.  1.
<mgrwt>
<rscale>  0 0.46451020E+03</rscale>
<asrwt>0</asrwt>
<pdfrwt beam="2">  1        2 0.28223231E+00 0.46451020E+03</pdfrwt>
<pdfrwt beam="1">  1       -2 0.45237341E-02 0.46451020E+03</pdfrwt>
<totfact> 0.20519440E+03</totfact>
</mgrwt>
</event>
<event>
 6    1  0.1045058E-005  0.2128382E+03  0.7546771E-02  0.1143163E+00
         -2   -1    0    0    0  501 -0.00000000000E+00  0.00000000000E+00  0.31802942869E+02  0.31802942869E+02  0.00000000000E+00 0.  1.
          2   -1    0    0  501    0  0.00000000000E+00 -0.00000000000E+00 -0.22651549386E+04  0.22651549386E+04  0.00000000000E+00 0. -1.
          5    1    1    2  502    0 -0.12222426493E+02  0.53231068650E+02 -0.24645089709E+03  0.25247389777E+03  0.47000000000E+01 0.  1.
         -5    1    1    2    0  502  0.10465634710E+03  0.92136584207E+02 -0.16482405819E+04  0.16541345794E+04  0.47000000000E+01 0.  1.
        -11    1    1    2    0    0 -0.32516402904E+02 -0.27118541011E+01 -0.26837648363E+02  0.42248431688E+02  0.00000000000E+00 0.  1.
         11    1    1    2    0    0 -0.59917517705E+02 -0.14265579876E+03 -0.31182286837E+03  0.34810097254E+03  0.00000000000E+00 0. -1.
<mgrwt>
<rscale>  0 0.20799527E+03</rscale>
<asrwt>0</asrwt>
<pdfrwt beam="2">  1        2 0.34848549E+00 0.21283817E+03</pdfrwt>
<pdfrwt beam="1">  1       -2 0.48927588E-02 0.21283817E+03</pdfrwt>
<totfact> 0.10969088E+03</totfact>
</mgrwt>
</event>
<event>
 6    1  0.1529479E-005  0.4523245E+03  0.7546771E-02  0.1027031E+00
          1   -1    0    0  501    0  0.00000000000E+00  0.00000000000E+00  0.20131237182E+04  0.20131237182E+04  0.00000000000E+00 0. -1.
         -1   -1    0    0    0  501 -0.00000000000E+00 -0.00000000000E+00 -0.25407960465E+02  0.25407960465E+02  0.00000000000E+00 0.  1.
          5    1    1    2  502    0  0.17998631504E+03 -0.85081753455E+02  0.10579075844E+04  0.10764871228E+04  0.47000000000E+01 0. -1.
         -5    1    1    2    0  502 -0.55613836716E+01  0.18011624428E+02  0.23688136306E+03  0.23767670851E+03  0.47000000000E+01 0. -1.
        -11    1    1    2    0    0 -0.14228887871E+03  0.83086359943E+01  0.42811953149E+03  0.45122221985E+03  0.00000000000E+00 0.  1.
         11    1    1    2    0    0 -0.32136052659E+02  0.58761493033E+02  0.26480727876E+03  0.27314562752E+03  0.00000000000E+00 0. -1.
<mgrwt>
<rscale>  0 0.45232452E+03</rscale>
<asrwt>0</asrwt>
<pdfrwt beam="1">  1        1 0.30971122E+00 0.45232452E+03</pdfrwt>
<pdfrwt beam="2">  1       -1 0.39089186E-02 0.45232452E+03</pdfrwt>
<totfact> 0.82832529E+02</totfact>
</mgrwt>
</event>
<event>
 6    1  0.1045058E-005  0.1614527E+03  0.7546771E-02  0.1193653E+00
          1   -1    0    0  501    0  0.00000000000E+00  0.00000000000E+00  0.76270303512E+03  0.76270303512E+03  0.00000000000E+00 0. -1.
         -1   -1    0    0    0  501 -0.00000000000E+00 -0.00000000000E+00 -0.30439406683E+02  0.30439406683E+02  0.00000000000E+00 0.  1.
          5    1    1    2  502    0  0.33516793235E+01  0.85916849473E+02  0.24387071283E+03  0.25862705456E+03  0.47000000000E+01 0.  1.
         -5    1    1    2    0  502 -0.74183246494E+02 -0.12259969597E+02  0.20952999589E+03  0.22266200864E+03  0.47000000000E+01 0.  1.
        -11    1    1    2    0    0  0.19451535227E+02 -0.69221290227E+02  0.85417426102E+02  0.11165162751E+03  0.00000000000E+00 0.  1.
         11    1    1    2    0    0  0.51380031944E+02 -0.44355896497E+01  0.19344549362E+03  0.20020175109E+03  0.00000000000E+00 0. -1.
<mgrwt>
<rscale>  0 0.15568788E+03</rscale>
<asrwt>0</asrwt>
<pdfrwt beam="1">  1        1 0.11733891E+00 0.16145265E+03</pdfrwt>
<pdfrwt beam="2">  1       -1 0.46829862E-02 0.16145265E+03</pdfrwt>
<totfact> 0.47152747E+03</totfact>
</mgrwt>
</event>
<event>
 6    1  0.1045058E-005  0.1214367E+03  0.7546771E-02  0.1251608E+00
         -1   -1    0    0    0  501 -0.00000000000E+00  0.00000000000E+00  0.94277777218E+02  0.94277777218E+02  0.00000000000E+00 0.  1.
          1   -1    0    0  501    0  0.00000000000E+00 -0.00000000000E+00 -0.76072271206E+03  0.76072271206E+03  0.00000000000E+00 0. -1.
          5    1    1    2  502    0  0.26683814657E+02 -0.31997954967E+02 -0.71253201164E+03  0.71376456392E+03  0.47000000000E+01 0. -1.
         -5    1    1    2    0  502 -0.17056643971E+02 -0.74222415830E+01 -0.16479241711E+02  0.25291780899E+02  0.47000000000E+01 0.  1.
        -11    1    1    2    0    0  0.19345826956E+02  0.53940122419E+02  0.60709583866E+02  0.83483240236E+02  0.00000000000E+00 0.  1.
         11    1    1    2    0    0 -0.28972997642E+02 -0.14519925869E+02  0.18567346472E+01  0.32460904226E+02  0.00000000000E+00 0. -1.
<mgrwt>
<rscale>  0 0.11498483E+03</rscale>
<asrwt>0</asrwt>
<pdfrwt beam="2">  1        1 0.11703426E+00 0.12143670E+03</pdfrwt>
<pdfrwt beam="1">  1       -1 0.14504274E-01 0.12143670E+03</pdfrwt>
<totfact> 0.84889885E+02</totfact>
</mgrwt>
</event>
<event>
 6    1  0.1045058E-005  0.1917960E+03  0.7546771E-02  0.1161683E+00
         -1   -1    0    0    0  501 -0.00000000000E+00  0.00000000000E+00  0.51937713141E+02  0.51937713141E+02  0.00000000000E+00 0.  1.
          1   -1    0    0  501    0  0.00000000000E+00 -0.00000000000E+00 -0.63585093751E+03  0.63585093751E+03  0.00000000000E+00 0. -1.
          5    1    1    2  502    0  0.24301386860E+01 -0.31300335363E+02 -0.16930043746E+03  0.17225081914E+03  0.47000000000E+01 0.  1.
         -5    1    1    2    0  502 -0.10838122886E+03 -0.68390993749E+02 -0.12538142422E+03  0.17934996609E+03  0.47000000000E+01 0.  1.
        -11    1    1    2    0    0  0.10615353991E+02  0.22510191890E+02 -0.33619624361E+01  0.25113686920E+02  0.00000000000E+00 0.  1.
         11    1    1    2    0    0  0.95335736185E+02  0.77181137222E+02 -0.28586940025E+03  0.31107417851E+03  0.00000000000E+00 0. -1.
<mgrwt>
<rscale>  0 0.18647176E+03</rscale>
<asrwt>0</asrwt>
<pdfrwt beam="2">  1        1 0.97823227E-01 0.19179602E+03</pdfrwt>
<pdfrwt beam="1">  1       -1 0.79904170E-02 0.19179602E+03</pdfrwt>
<totfact> 0.27645177E+03</totfact>
</mgrwt>
</event>
<event>
 6    1  0.1045058E-005  0.1432076E+03  0.7546771E-02  0.1219528E+00
          2   -1    0    0  501    0  0.00000000000E+00  0.00000000000E+00  0.28065820464E+03  0.28065820464E+03  0.00000000000E+00 0. -1.
         -2   -1    0    0    0  501 -0.00000000000E+00 -0.00000000000E+00 -0.11084389343E+03  0.11084389343E+03  0.00000000000E+00 0.  1.
          5    1    1    2  502    0  0.52981354633E+02  0.58284697080E+01  0.23035609763E+03  0.23648893571E+03  0.47000000000E+01 0.  1.
         -5    1    1    2    0  502  0.95777698811E+01  0.25426117033E+02 -0.73528013651E+01  0.28537252692E+02  0.47000000000E+01 0.  1.
        -11    1    1    2    0    0 -0.45160599369E+02  0.27661744591E+02 -0.29610260445E+02  0.60674701258E+02  0.00000000000E+00 0. -1.
         11    1    1    2    0    0 -0.17398525145E+02 -0.58916331332E+02 -0.23578724602E+02  0.65801208414E+02  0.00000000000E+00 0.  1.
<mgrwt>
<rscale>  0 0.13549108E+03</rscale>
<asrwt>0</asrwt>
<pdfrwt beam="1">  1        2 0.43178185E-01 0.14320758E+03</pdfrwt>
<pdfrwt beam="2">  1       -2 0.17052907E-01 0.14320758E+03</pdfrwt>
<totfact> 0.31466371E+03</totfact>
</mgrwt>
</event>
<event>
 6    1  0.1045058E-005  0.2497553E+03  0.7546771E-02  0.1119730E+00
          2   -1    0    0  501    0  0.00000000000E+00  0.00000000000E+00  0.12088596500E+03  0.12088596500E+03  0.00000000000E+00 0. -1.
         -2   -1    0    0    0  501 -0.00000000000E+00 -0.00000000000E+00 -0.71286288631E+03  0.71286288631E+03  0.00000000000E+00 0.  1.
          5    1    1    2  502    0  0.10503614446E+03 -0.91422428617E+02 -0.25135739717E+02  0.14157876785E+03  0.47000000000E+01 0. -1.
         -5    1    1    2    0  502 -0.54565210631E+02 -0.95627438661E+02 -0.29554310130E+02  0.11409433151E+03  0.47000000000E+01 0.  1.
        -11    1    1    2    0    0 -0.52084722013E+02  0.84043741419E+02 -0.35691756196E+03  0.37035970998E+03  0.00000000000E+00 0.  1.
         11    1    1    2    0    0  0.16137881890E+01  0.10300612586E+03 -0.18036930950E+03  0.20771604196E+03  0.00000000000E+00 0. -1.
<mgrwt>
<rscale>  0 0.24009373E+03</rscale>
<asrwt>0</asrwt>
<pdfrwt beam="1">  1        2 0.18597841E-01 0.24975534E+03</pdfrwt>
<pdfrwt beam="2">  1       -2 0.10967121E+00 0.24975534E+03</pdfrwt>
<totfact> 0.20920738E+02</totfact>
</mgrwt>
</event>
<event>
 6    1  0.1045058E-005  0.1459785E+03  0.7546771E-02  0.1217816E+00
         -1   -1    0    0    0  501 -0.00000000000E+00  0.00000000000E+00  0.38236137124E+02  0.38236137124E+02  0.00000000000E+00 0.  1.
          1   -1    0    0  501    0  0.00000000000E+00 -0.00000000000E+00 -0.48144858098E+03  0.48144858098E+03  0.00000000000E+00 0. -1.
          5    1    1    2  502    0  0.75496066721E+02  0.26050741713E+02 -0.27820983105E+03  0.28948419185E+03  0.47000000000E+01 0. -1.
         -5    1    1    2    0  502 -0.32120611772E+02  0.35630087946E+02 -0.48613000657E+02  0.68458386634E+02  0.47000000000E+01 0. -1.
        -11    1    1    2    0    0 -0.99350412381E+01  0.13694228442E+02  0.24509939027E+01  0.17095154522E+02  0.00000000000E+00 0.  1.
         11    1    1    2    0    0 -0.33440413710E+02 -0.75375058101E+02 -0.11884060605E+03  0.14464698510E+03  0.00000000000E+00 0. -1.
<mgrwt>
<rscale>  0 0.13671722E+03</rscale>
<asrwt>0</asrwt>
<pdfrwt beam="2">  1        1 0.74069015E-01 0.14597851E+03</pdfrwt>
<pdfrwt beam="1">  1       -1 0.58824824E-02 0.14597851E+03</pdfrwt>
<totfact> 0.63021499E+03</totfact>
</mgrwt>
</event>
<event>
 6    1  0.1045058E-005  0.4177912E+03  0.7546771E-02  0.1037788E+00
         -1   -1    0    0    0  501 -0.00000000000E+00  0.00000000000E+00  0.24831624047E+03  0.24831624047E+03  0.00000000000E+00 0.  1.
          1   -1    0    0  501    0  0.00000000000E+00 -0.00000000000E+00 -0.17573306514E+03  0.17573306514E+03  0.00000000000E+00 0. -1.
          5    1    1    2  502    0 -0.84629827898E+02 -0.11056347703E+03 -0.28754542880E+02  0.14225120020E+03  0.47000000000E+01 0.  1.
         -5    1    1    2    0  502 -0.19991109915E+01  0.12324033068E+02 -0.56168129386E+02  0.57730641729E+02  0.47000000000E+01 0.  1.
        -11    1    1    2    0    0  0.23684526532E+02  0.62405893687E+02  0.13084429999E+03  0.14688663385E+03  0.00000000000E+00 0.  1.
         11    1    1    2    0    0  0.62944412357E+02  0.35833550272E+02  0.26661547612E+02  0.77180829829E+02  0.00000000000E+00 0. -1.
<mgrwt>
<rscale>  0 0.41779121E+03</rscale>
<asrwt>0</asrwt>
<pdfrwt beam="2">  1        1 0.27035856E-01 0.41779121E+03</pdfrwt>
<pdfrwt beam="1">  1       -1 0.38202499E-01 0.41779121E+03</pdfrwt>
<totfact> 0.11650256E+03</totfact>
</mgrwt>
</event>
<event>
 6    1  0.1045058E-005  0.1283162E+03  0.7546771E-02  0.1245075E+00
          2   -1    0    0  501    0  0.00000000000E+00  0.00000000000E+00  0.86186973896E+03  0.86186973896E+03  0.00000000000E+00 0. -1.
         -2   -1    0    0    0  501 -0.00000000000E+00 -0.00000000000E+00 -0.17446622048E+02  0.17446622048E+02  0.00000000000E+00 0.  1.
          5    1    1    2  502    0 -0.13886357326E+02 -0.59393000173E+02  0.50531930378E+03  0.50900888810E+03  0.47000000000E+01 0.  1.
         -5    1    1    2    0  502 -0.13618337577E+02  0.50265827823E+02  0.15269956395E+03  0.16140433512E+03  0.47000000000E+01 0.  1.
        -11    1    1    2    0    0  0.55355254981E+02  0.18890559449E+02  0.84189019088E+02  0.10251267446E+03  0.00000000000E+00 0. -1.
         11    1    1    2    0    0 -0.27850560078E+02 -0.97633870991E+01  0.10221523009E+03  0.10639046333E+03  0.00000000000E+00 0.  1.
<mgrwt>
<rscale>  0 0.11880870E+03</rscale>
<asrwt>0</asrwt>
<pdfrwt beam="1">  1        2 0.13259531E+00 0.12831625E+03</pdfrwt>
<pdfrwt beam="2">  1       -2 0.26840964E-02 0.12831625E+03</pdfrwt>
<totfact> 0.15300746E+04</totfact>
</mgrwt>
</event>
<event>
 6    1  0.1045058E-005  0.2991380E+03  0.7546771E-02  0.1088034E+00
          2   -1    0    0  501    0  0.00000000000E+00  0.00000000000E+00  0.14977774195E+03  0.14977774195E+03  0.00000000000E+00 0. -1.
         -2   -1    0    0    0  501 -0.00000000000E+00 -0.00000000000E+00 -0.11575590963E+04  0.11575590963E+04  0.00000000000E+00 0.  1.
          5    1    1    2  502    0 -0.20875859222E+03 -0.12397249004E+03 -0.54599630166E+02  0.24890266717E+03  0.47000000000E+01 0. -1.
         -5    1    1    2    0  502 -0.40602716469E+02  0.31997549757E+02  0.11933423058E+02  0.53262748342E+02  0.47000000000E+01 0.  1.
        -11    1    1    2    0    0  0.25174910385E+02  0.24572765267E+02 -0.53892855011E+02  0.64358656970E+02  0.00000000000E+00 0. -1.
         11    1    1    2    0    0  0.22418639830E+03  0.67402175021E+02 -0.91122229220E+03  0.94081276574E+03  0.00000000000E+00 0.  1.
<mgrwt>
<rscale>  0 0.29447855E+03</rscale>
<asrwt>0</asrwt>
<pdfrwt beam="1">  1        2 0.23042729E-01 0.29913798E+03</pdfrwt>
<pdfrwt beam="2">  1       -2 0.17808602E+00 0.29913798E+03</pdfrwt>
<totfact> 0.47354147E+01</totfact>
</mgrwt>
</event>
<event>
 6    1  0.1045058E-005  0.1791391E+03  0.7546771E-02  0.1174487E+00
          3   -1    0    0  501    0  0.00000000000E+00  0.00000000000E+00  0.68708496894E+03  0.68708496894E+03  0.00000000000E+00 0. -1.
         -3   -1    0    0    0  501 -0.00000000000E+00 -0.00000000000E+00 -0.43561715228E+02  0.43561715228E+02  0.00000000000E+00 0.  1.
          5    1    1    2  502    0  0.24072129908E+02  0.99219008943E+02  0.30862013866E+03  0.32510361296E+03  0.47000000000E+01 0.  1.
         -5    1    1    2    0  502  0.69961829560E+02 -0.11914442192E+02  0.12078903677E+03  0.14017379545E+03  0.47000000000E+01 0.  1.
        -11    1    1    2    0    0 -0.22715775694E+02 -0.61598960712E+02  0.43738905894E+02  0.78889354890E+02  0.00000000000E+00 0.  1.
         11    1    1    2    0    0 -0.71318183774E+02 -0.25705606039E+02  0.17037517239E+03  0.18647992086E+03  0.00000000000E+00 0. -1.
<mgrwt>
<rscale>  0 0.17326338E+03</rscale>
<asrwt>0</asrwt>
<pdfrwt beam="1">  1        3 0.10570537E+00 0.17913913E+03</pdfrwt>
<pdfrwt beam="2">  1       -3 0.67018028E-02 0.17913913E+03</pdfrwt>
<totfact> 0.27410566E+02</totfact>
</mgrwt>
</event>
<event>
 6    1  0.1045058E-005  0.1226004E+03  0.7546771E-02  0.1250624E+00
          1   -1    0    0  501    0  0.00000000000E+00  0.00000000000E+00  0.72989376300E+03  0.72989376300E+03  0.00000000000E+00 0. -1.
         -1   -1    0    0    0  501 -0.00000000000E+00 -0.00000000000E+00 -0.18907336153E+02  0.18907336153E+02  0.00000000000E+00 0.  1.
          5    1    1    2  502    0 -0.49362798431E+02  0.24390464936E+02  0.30320971882E+03  0.30820415999E+03  0.47000000000E+01 0. -1.
         -5    1    1    2    0  502  0.63991322956E+02  0.43576182549E+01  0.22218511390E+03  0.23130541085E+03  0.47000000000E+01 0.  1.
        -11    1    1    2    0    0  0.38035770877E+02 -0.16580825660E+02  0.64631706820E+02  0.76804304386E+02  0.00000000000E+00 0.  1.
         11    1    1    2    0    0 -0.52664295402E+02 -0.12167257532E+02  0.12095988731E+03  0.13248722393E+03  0.00000000000E+00 0. -1.
<mgrwt>
<rscale>  0 0.11555021E+03</rscale>
<asrwt>0</asrwt>
<pdfrwt beam="1">  1        1 0.11229133E+00 0.12260035E+03</pdfrwt>
<pdfrwt beam="2">  1       -1 0.29088215E-02 0.12260035E+03</pdfrwt>
<totfact> 0.99620365E+03</totfact>
</mgrwt>
</event>
<event>
 6    1  0.1045058E-005  0.1538409E+03  0.7546771E-02  0.1204918E+00
          2   -1    0    0  501    0  0.00000000000E+00  0.00000000000E+00  0.50264214311E+03  0.50264214311E+03  0.00000000000E+00 0.  1.
         -2   -1    0    0    0  501 -0.00000000000E+00 -0.00000000000E+00 -0.43286684998E+02  0.43286684998E+02  0.00000000000E+00 0. -1.
          5    1    1    2  502    0 -0.29818009496E+02  0.77737150271E+02  0.12799533244E+03  0.15276476475E+03  0.47000000000E+01 0. -1.
         -5    1    1    2    0  502  0.60665961302E+02  0.64696853336E+01  0.20722919428E+03  0.21607462750E+03  0.47000000000E+01 0. -1.
        -11    1    1    2    0    0  0.20642555158E+02  0.47175168008E+01  0.96922794169E+01  0.23287557375E+02  0.00000000000E+00 0.  1.
         11    1    1    2    0    0 -0.51490506963E+02 -0.88924352406E+02  0.11443865198E+03  0.15380187848E+03  0.00000000000E+00 0. -1.
<mgrwt>
<rscale>  0 0.14643885E+03</rscale>
<asrwt>0</asrwt>
<pdfrwt beam="1">  1        2 0.77329556E-01 0.15384087E+03</pdfrwt>
<pdfrwt beam="2">  1       -2 0.66594904E-02 0.15384087E+03</pdfrwt>
<totfact> 0.75163266E+03</totfact>
</mgrwt>
</event>
<event>
 6    1  0.1045058E-005  0.1619099E+03  0.7546771E-02  0.1193333E+00
         -1   -1    0    0    0  501 -0.00000000000E+00  0.00000000000E+00  0.52145268805E+02  0.52145268805E+02  0.00000000000E+00 0.  1.
          1   -1    0    0  501    0  0.00000000000E+00 -0.00000000000E+00 -0.99426218016E+03  0.99426218016E+03  0.00000000000E+00 0. -1.
          5    1    1    2  502    0 -0.64745656483E+02  0.86318788924E+02 -0.69047767210E+03  0.69887369318E+03  0.47000000000E+01 0.  1.
         -5    1    1    2    0  502  0.46885489958E+02  0.15028394876E+02 -0.18781834324E+03  0.19422132189E+03  0.47000000000E+01 0.  1.
        -11    1    1    2    0    0  0.21929515961E+02  0.45353064681E+01 -0.38229173583E+02  0.44305105663E+02  0.00000000000E+00 0. -1.
         11    1    1    2    0    0 -0.40693494357E+01 -0.10588249027E+03 -0.25591722436E+02  0.10900732823E+03  0.00000000000E+00 0.  1.
<mgrwt>
<rscale>  0 0.15596193E+03</rscale>
<asrwt>0</asrwt>
<pdfrwt beam="2">  1        1 0.15296340E+00 0.16190990E+03</pdfrwt>
<pdfrwt beam="1">  1       -1 0.80223495E-02 0.16190990E+03</pdfrwt>
<totfact> 0.13844660E+03</totfact>
</mgrwt>
</event>
<event>
 6    1  0.1045058E-005  0.1749843E+03  0.7546771E-02  0.1178656E+00
         -3   -1    0    0    0  501 -0.00000000000E+00  0.00000000000E+00  0.20421345619E+03  0.20421345619E+03  0.00000000000E+00 0.  1.
          3   -1    0    0  501    0  0.00000000000E+00 -0.00000000000E+00 -0.13710646206E+03  0.13710646206E+03  0.00000000000E+00 0. -1.
          5    1    1    2  502    0 -0.11404914224E+02  0.14778261065E+02 -0.46969204943E+02  0.50760863680E+02  0.47000000000E+01 0.  1.
         -5    1    1    2    0  502 -0.11014358643E+03 -0.29643104752E+02  0.49010293254E+02  0.12423534978E+03  0.47000000000E+01 0.  1.
        -11    1    1    2    0    0  0.12145618774E+03 -0.14130686459E+02  0.42050509933E+02  0.12930401087E+03  0.00000000000E+00 0.  1.
         11    1    1    2    0    0  0.92312909987E-01  0.28995530145E+02  0.23015395881E+02  0.37019693915E+02  0.00000000000E+00 0. -1.
<mgrwt>
<rscale>  0 0.16922747E+03</rscale>
<asrwt>0</asrwt>
<pdfrwt beam="2">  1        3 0.21093302E-01 0.17498431E+03</pdfrwt>
<pdfrwt beam="1">  1       -3 0.31417455E-01 0.17498431E+03</pdfrwt>
<totfact> 0.48263402E+02</totfact>
</mgrwt>
</event>
<event>
 6    1  0.1045058E-005  0.1318786E+03  0.7546771E-02  0.1238073E+00
          1   -1    0    0  501    0  0.00000000000E+00  0.00000000000E+00  0.21971691493E+03  0.21971691493E+03  0.00000000000E+00 0. -1.
         -1   -1    0    0    0  501 -0.00000000000E+00 -0.00000000000E+00 -0.67868908855E+02  0.67868908855E+02  0.00000000000E+00 0.  1.
          5    1    1    2  502    0  0.26284892974E+02 -0.55406751420E+02  0.41054279625E+02  0.73948276363E+02  0.47000000000E+01 0. -1.
         -5    1    1    2    0  502  0.14637930072E+02  0.65020347511E+02  0.88823917042E+02  0.11114716742E+03  0.47000000000E+01 0. -1.
        -11    1    1    2    0    0 -0.43091375625E+02  0.92515568569E+01 -0.25810517486E+02  0.51074854580E+02  0.00000000000E+00 0.  1.
         11    1    1    2    0    0  0.21685525782E+01 -0.18865152948E+02  0.47780326892E+02  0.51415525417E+02  0.00000000000E+00 0. -1.
<mgrwt>
<rscale>  0 0.12309716E+03</rscale>
<asrwt>0</asrwt>
<pdfrwt beam="1">  1        1 0.33802602E-01 0.13187865E+03</pdfrwt>
<pdfrwt beam="2">  1       -1 0.10441371E-01 0.13187865E+03</pdfrwt>
<totfact> 0.70300609E+03</totfact>
</mgrwt>
</event>
<event>
 6    1  0.1045058E-005  0.1576953E+03  0.7546771E-02  0.1199082E+00
         -2   -1    0    0    0  501 -0.00000000000E+00  0.00000000000E+00  0.12848758347E+03  0.12848758347E+03  0.00000000000E+00 0.  1.
          2   -1    0    0  501    0  0.00000000000E+00 -0.00000000000E+00 -0.16458839519E+03  0.16458839519E+03  0.00000000000E+00 0. -1.
          5    1    1    2  502    0  0.64083962817E+02 -0.15233111234E+00 -0.55727474005E+02  0.85055386979E+02  0.47000000000E+01 0.  1.
         -5    1    1    2    0  502  0.51763043873E+01 -0.66521591459E+02  0.32458185068E+02  0.74347427899E+02  0.47000000000E+01 0.  1.
        -11    1    1    2    0    0 -0.72104060835E+02  0.69577289394E+01 -0.14455573555E+02  0.73867240287E+02  0.00000000000E+00 0.  1.
         11    1    1    2    0    0  0.28437936302E+01  0.59716193632E+02  0.16240507704E+01  0.59805923494E+02  0.00000000000E+00 0. -1.
<mgrwt>
<rscale>  0 0.15113760E+03</rscale>
<asrwt>0</asrwt>
<pdfrwt beam="2">  1        2 0.25321291E-01 0.15769527E+03</pdfrwt>
<pdfrwt beam="1">  1       -2 0.19767321E-01 0.15769527E+03</pdfrwt>
<totfact> 0.43934540E+03</totfact>
</mgrwt>
</event>
<event>
 6    1  0.1045058E-005  0.2085630E+03  0.7546771E-02  0.1156899E+00
          1   -1    0    0  501    0  0.00000000000E+00  0.00000000000E+00  0.10629225045E+04  0.10629225045E+04  0.00000000000E+00 0. -1.
         -1   -1    0    0    0  501 -0.00000000000E+00 -0.00000000000E+00 -0.47364605500E+02  0.47364605500E+02  0.00000000000E+00 0.  1.
          5    1    1    2  502    0 -0.10539940618E+02 -0.14230271602E+03  0.50646781477E+03  0.52620612951E+03  0.47000000000E+01 0. -1.
         -5    1    1    2    0  502  0.42223869712E+02  0.39000117772E+02  0.38751376142E+03  0.39178166068E+03  0.47000000000E+01 0.  1.
        -11    1    1    2    0    0 -0.65082463748E+02  0.93253587238E+02  0.98802179048E+02  0.15064471184E+03  0.00000000000E+00 0.  1.
         11    1    1    2    0    0  0.33398534655E+02  0.10049011012E+02  0.22774143729E+02  0.41654607933E+02  0.00000000000E+00 0. -1.
<mgrwt>
<rscale>  0 0.19174221E+03</rscale>
<asrwt>0</asrwt>
<pdfrwt beam="1">  1        1 0.16352652E+00 0.20856300E+03</pdfrwt>
<pdfrwt beam="2">  1       -1 0.72868632E-02 0.20856300E+03</pdfrwt>
<totfact> 0.14276554E+03</totfact>
</mgrwt>
</event>
<event>
 6    1  0.1045058E-005  0.1342090E+03  0.7546771E-02  0.1233534E+00
          2   -1    0    0  501    0  0.00000000000E+00  0.00000000000E+00  0.30480913654E+03  0.30480913654E+03  0.00000000000E+00 0.  1.
         -2   -1    0    0    0  501 -0.00000000000E+00 -0.00000000000E+00 -0.46796108352E+02  0.46796108352E+02  0.00000000000E+00 0. -1.
          5    1    1    2  502    0  0.26744448514E+02 -0.48782408213E+01  0.16422900877E+03  0.16653023774E+03  0.47000000000E+01 0.  1.
         -5    1    1    2    0  502  0.10770295825E+02  0.36174597504E+02 -0.85791422827E+01  0.38990927907E+02  0.47000000000E+01 0.  1.
        -11    1    1    2    0    0 -0.35704094066E+02  0.93965469239E+01  0.11008810107E+01  0.36936287932E+02  0.00000000000E+00 0. -1.
         11    1    1    2    0    0 -0.18106502724E+01 -0.40692903606E+02  0.10126228069E+03  0.10914779132E+03  0.00000000000E+00 0.  1.
<mgrwt>
<rscale>  0 0.12598730E+03</rscale>
<asrwt>0</asrwt>
<pdfrwt beam="1">  1        2 0.46893712E-01 0.13420905E+03</pdfrwt>
<pdfrwt beam="2">  1       -2 0.71994015E-02 0.13420905E+03</pdfrwt>
<totfact> 0.11307711E+04</totfact>
</mgrwt>
</event>
<event>
 6    1  0.1045058E-005  0.1357311E+03  0.7546771E-02  0.1231165E+00
          3   -1    0    0  501    0  0.00000000000E+00  0.00000000000E+00  0.20527029207E+03  0.20527029207E+03  0.00000000000E+00 0. -1.
         -3   -1    0    0    0  501 -0.00000000000E+00 -0.00000000000E+00 -0.97561538218E+02  0.97561538218E+02  0.00000000000E+00 0.  1.
          5    1    1    2  502    0  0.59269652259E+02  0.39694245365E+02  0.11838689899E+03  0.13829704496E+03  0.47000000000E+01 0. -1.
         -5    1    1    2    0  502 -0.49645955898E+02  0.12318044473E+02  0.18830428476E+02  0.54709507339E+02  0.47000000000E+01 0. -1.
        -11    1    1    2    0    0 -0.19603266406E+02 -0.64979530373E+02  0.85401573709E+01  0.68407322044E+02  0.00000000000E+00 0. -1.
         11    1    1    2    0    0  0.99795700451E+01  0.12967240536E+02 -0.38048730979E+02  0.41417955943E+02  0.00000000000E+00 0.  1.
<mgrwt>
<rscale>  0 0.12753147E+03</rscale>
<asrwt>0</asrwt>
<pdfrwt beam="1">  1        3 0.31580045E-01 0.13573111E+03</pdfrwt>
<pdfrwt beam="2">  1       -3 0.15009468E-01 0.13573111E+03</pdfrwt>
<totfact> 0.83527389E+02</totfact>
</mgrwt>
</event>
<event>
 6    1  0.1045058E-005  0.1304385E+03  0.7546771E-02  0.1244919E+00
          2   -1    0    0  501    0  0.00000000000E+00  0.00000000000E+00  0.31272570953E+03  0.31272570953E+03  0.00000000000E+00 0. -1.
         -2   -1    0    0    0  501 -0.00000000000E+00 -0.00000000000E+00 -0.38960793669E+02  0.38960793669E+02  0.00000000000E+00 0.  1.
          5    1    1    2  502    0  0.14634398495E+02 -0.64904929156E+02  0.15654263365E+03  0.17016022332E+03  0.47000000000E+01 0.  1.
         -5    1    1    2    0  502 -0.13462018994E+02  0.27651464146E+02 -0.30611789681E+01  0.31261641696E+02  0.47000000000E+01 0.  1.
        -11    1    1    2    0    0 -0.25733841687E+02  0.27573521772E+02  0.13176184438E+02  0.39951740228E+02  0.00000000000E+00 0.  1.
         11    1    1    2    0    0  0.24561462186E+02  0.96799432378E+01  0.10710727673E+03  0.11031289795E+03  0.00000000000E+00 0. -1.
<mgrwt>
<rscale>  0 0.11890252E+03</rscale>
<asrwt>0</asrwt>
<pdfrwt beam="1">  1        2 0.48111646E-01 0.13043853E+03</pdfrwt>
<pdfrwt beam="2">  1       -2 0.59939684E-02 0.13043853E+03</pdfrwt>
<totfact> 0.14515453E+04</totfact>
</mgrwt>
</event>
<event>
 6    1  0.1045058E-005  0.1436084E+03  0.7546771E-02  0.1218978E+00
         -1   -1    0    0    0  501 -0.00000000000E+00  0.00000000000E+00  0.52843701880E+02  0.52843701880E+02  0.00000000000E+00 0.  1.
          1   -1    0    0  501    0  0.00000000000E+00 -0.00000000000E+00 -0.34654675134E+03  0.34654675134E+03  0.00000000000E+00 0. -1.
          5    1    1    2  502    0 -0.40993141190E+02  0.16491027668E+02 -0.25657004739E+02  0.51310461997E+02  0.47000000000E+01 0.  1.
         -5    1    1    2    0  502  0.66935087532E+02  0.49253472351E+02 -0.19427793573E+03  0.21135802988E+03  0.47000000000E+01 0.  1.
        -11    1    1    2    0    0  0.23501035808E+02 -0.27575910934E+02  0.45831313923E+01  0.36520331889E+02  0.00000000000E+00 0.  1.
         11    1    1    2    0    0 -0.49442982150E+02 -0.38168589085E+02 -0.78351240384E+02  0.10020162946E+03  0.00000000000E+00 0. -1.
<mgrwt>
<rscale>  0 0.13588343E+03</rscale>
<asrwt>0</asrwt>
<pdfrwt beam="2">  1        1 0.53314885E-01 0.14360835E+03</pdfrwt>
<pdfrwt beam="1">  1       -1 0.81298002E-02 0.14360835E+03</pdfrwt>
<totfact> 0.58792622E+03</totfact>
</mgrwt>
</event>
<event>
 6    1  0.1045058E-005  0.1493128E+03  0.7546771E-02  0.1211040E+00
         -1   -1    0    0    0  501 -0.00000000000E+00  0.00000000000E+00  0.54618827313E+02  0.54618827313E+02  0.00000000000E+00 0.  1.
          1   -1    0    0  501    0  0.00000000000E+00 -0.00000000000E+00 -0.34659205805E+03  0.34659205805E+03  0.00000000000E+00 0. -1.
          5    1    1    2  502    0 -0.67618239780E+02  0.59529471983E+02 -0.20753117233E+03  0.22629021604E+03  0.47000000000E+01 0.  1.
         -5    1    1    2    0  502  0.17364554680E+02  0.48398349865E+01  0.10142007478E+02  0.21210895257E+02  0.47000000000E+01 0.  1.
        -11    1    1    2    0    0 -0.20405706397E+02 -0.18301551009E+02 -0.58993533361E+00  0.27416922631E+02  0.00000000000E+00 0. -1.
         11    1    1    2    0    0  0.70659391497E+02 -0.46067755960E+02 -0.93994130546E+02  0.12629285143E+03  0.00000000000E+00 0.  1.
<mgrwt>
<rscale>  0 0.14171493E+03</rscale>
<asrwt>0</asrwt>
<pdfrwt beam="2">  1        1 0.53321856E-01 0.14931282E+03</pdfrwt>
<pdfrwt beam="1">  1       -1 0.84028964E-02 0.14931282E+03</pdfrwt>
<totfact> 0.56041763E+03</totfact>
</mgrwt>
</event>
<event>
 6    1  0.1045058E-005  0.1389352E+03  0.7546771E-02  0.1286063E+00
         -2   -1    0    0    0  501 -0.00000000000E+00  0.00000000000E+00  0.22445286214E+03  0.22445286214E+03  0.00000000000E+00 0.  1.
          2   -1    0    0  501    0  0.00000000000E+00 -0.00000000000E+00 -0.33117345093E+02  0.33117345093E+02  0.00000000000E+00 0. -1.
          5    1    1    2  502    0 -0.18227873691E+02 -0.79032169177E+01 -0.22645114289E+02  0.30489464051E+02  0.47000000000E+01 0. -1.
         -5    1    1    2    0  502  0.11898522407E+02  0.13224719619E+02  0.17397773888E+03  0.17494802562E+03  0.47000000000E+01 0.  1.
        -11    1    1    2    0    0 -0.72801657132E+01 -0.13193276480E+02  0.29791417474E+02  0.33385504522E+02  0.00000000000E+00 0. -1.
         11    1    1    2    0    0  0.13609516997E+02  0.78717737786E+01  0.10211474985E+02  0.18747213038E+02  0.00000000000E+00 0.  1.
<mgrwt>
<rscale>  0 0.97307105E+02</rscale>
<asrwt>0</asrwt>
<pdfrwt beam="2">  1        2 0.50949763E-02 0.13893523E+03</pdfrwt>
<pdfrwt beam="1">  1       -2 0.34531209E-01 0.13893523E+03</pdfrwt>
<totfact> 0.11318782E+04</totfact>
</mgrwt>
</event>
<event>
 6    1  0.1045058E-005  0.1473917E+03  0.7546771E-02  0.1213873E+00
         -2   -1    0    0    0  501 -0.00000000000E+00  0.00000000000E+00  0.20478325017E+02  0.20478325017E+02  0.00000000000E+00 0.  1.
          2   -1    0    0  501    0  0.00000000000E+00 -0.00000000000E+00 -0.87299080616E+03  0.87299080616E+03  0.00000000000E+00 0. -1.
          5    1    1    2  502    0  0.88719730364E+02 -0.20234579729E+02 -0.21564995959E+03  0.23411028137E+03  0.47000000000E+01 0. -1.
         -5    1    1    2    0  502 -0.11767083308E+02  0.33481191999E+02 -0.30200073253E+03  0.30411508828E+03  0.47000000000E+01 0. -1.
        -11    1    1    2    0    0 -0.12095621517E+02  0.90856797009E+01 -0.18497811711E+01  0.15240581547E+02  0.00000000000E+00 0.  1.
         11    1    1    2    0    0 -0.64857025539E+02 -0.22332291971E+02 -0.33301200785E+03  0.34000317998E+03  0.00000000000E+00 0. -1.
<mgrwt>
<rscale>  0 0.13959664E+03</rscale>
<asrwt>0</asrwt>
<pdfrwt beam="2">  1        2 0.13430626E+00 0.14739169E+03</pdfrwt>
<pdfrwt beam="1">  1       -2 0.31505119E-02 0.14739169E+03</pdfrwt>
<totfact> 0.12004089E+04</totfact>
</mgrwt>
</event>
<event>
 6    1  0.1045058E-005  0.1348133E+03  0.7546771E-02  0.1232837E+00
         -1   -1    0    0    0  501 -0.00000000000E+00  0.00000000000E+00  0.14923946555E+03  0.14923946555E+03  0.00000000000E+00 0.  1.
          1   -1    0    0  501    0  0.00000000000E+00 -0.00000000000E+00 -0.96274688094E+02  0.96274688094E+02  0.00000000000E+00 0. -1.
          5    1    1    2  502    0 -0.69975105906E+01 -0.78031477047E+02  0.21792349617E+01  0.78515703077E+02  0.47000000000E+01 0. -1.
         -5    1    1    2    0  502 -0.31060451120E+02  0.44839567482E+02  0.18994863304E+02  0.57950265467E+02  0.47000000000E+01 0. -1.
        -11    1    1    2    0    0  0.31790252402E+02  0.22662962775E+02  0.63786671894E+02  0.74786158752E+02  0.00000000000E+00 0.  1.
         11    1    1    2    0    0  0.62677093084E+01  0.10528946790E+02 -0.31995992703E+02  0.34262026349E+02  0.00000000000E+00 0. -1.
<mgrwt>
<rscale>  0 0.12643939E+03</rscale>
<asrwt>0</asrwt>
<pdfrwt beam="2">  1        1 0.14811490E-01 0.13481327E+03</pdfrwt>
<pdfrwt beam="1">  1       -1 0.22959918E-01 0.13481327E+03</pdfrwt>
<totfact> 0.57831497E+03</totfact>
</mgrwt>
</event>
<event>
 6    1  0.1045058E-005  0.1515766E+03  0.7546771E-02  0.1207804E+00
          3   -1    0    0  501    0  0.00000000000E+00  0.00000000000E+00  0.34419029703E+03  0.34419029703E+03  0.00000000000E+00 0. -1.
         -3   -1    0    0    0  501 -0.00000000000E+00 -0.00000000000E+00 -0.57307242876E+02  0.57307242876E+02  0.00000000000E+00 0.  1.
          5    1    1    2  502    0 -0.10845500657E+02 -0.50083977103E+02  0.31854408654E+02  0.60521260707E+02  0.47000000000E+01 0. -1.
         -5    1    1    2    0  502  0.88885966795E+02  0.14600812605E+02  0.16362829067E+03  0.18684273154E+03  0.47000000000E+01 0. -1.
        -11    1    1    2    0    0 -0.67007869798E+02 -0.17926875571E+02  0.46730458858E+02  0.83637092654E+02  0.00000000000E+00 0.  1.
         11    1    1    2    0    0 -0.11032596340E+02  0.53410040068E+02  0.44669895977E+02  0.70496455008E+02  0.00000000000E+00 0. -1.
<mgrwt>
<rscale>  0 0.14418669E+03</rscale>
<asrwt>0</asrwt>
<pdfrwt beam="1">  1        3 0.52952352E-01 0.15157658E+03</pdfrwt>
<pdfrwt beam="2">  1       -3 0.88164991E-02 0.15157658E+03</pdfrwt>
<totfact> 0.76057471E+02</totfact>
</mgrwt>
</event>
<event>
 6    1  0.1045058E-005  0.2866037E+03  0.7546771E-02  0.1092136E+00
         -2   -1    0    0    0  501 -0.00000000000E+00  0.00000000000E+00  0.34527167854E+02  0.34527167854E+02  0.00000000000E+00 0.  1.
          2   -1    0    0  501    0  0.00000000000E+00 -0.00000000000E+00 -0.59476139258E+03  0.59476139258E+03  0.00000000000E+00 0. -1.
          5    1    1    2  502    0  0.76449741797E+01  0.47441242314E+01 -0.43336909812E+03  0.43348796701E+03  0.47000000000E+01 0.  1.
         -5    1    1    2    0  502  0.37328719089E+02 -0.25924635521E+02 -0.47766306701E+02  0.66100151676E+02  0.47000000000E+01 0.  1.
        -11    1    1    2    0    0 -0.71219633518E+01 -0.22104410193E+02 -0.67040440074E+02  0.70948910614E+02  0.00000000000E+00 0. -1.
         11    1    1    2    0    0 -0.37851729917E+02  0.43284921483E+02 -0.12058379832E+02  0.58751531126E+02  0.00000000000E+00 0.  1.
<mgrwt>
<rscale>  0 0.28660374E+03</rscale>
<asrwt>0</asrwt>
<pdfrwt beam="2">  1        2 0.91501751E-01 0.28660374E+03</pdfrwt>
<pdfrwt beam="1">  1       -2 0.53118721E-02 0.28660374E+03</pdfrwt>
<totfact> 0.90740707E+03</totfact>
</mgrwt>
</event>
<event>
 6    1  0.1045058E-005  0.3488885E+03  0.7546771E-02  0.1084747E+00
         -2   -1    0    0    0  501 -0.00000000000E+00  0.00000000000E+00  0.30941494792E+02  0.30941494792E+02  0.00000000000E+00 0.  1.
          2   -1    0    0  501    0  0.00000000000E+00 -0.00000000000E+00 -0.28401949388E+04  0.28401949388E+04  0.00000000000E+00 0. -1.
          5    1    1    2  502    0  0.16215363257E+03 -0.15758679377E+03 -0.21270636063E+04  0.21390533124E+04  0.47000000000E+01 0. -1.
         -5    1    1    2    0  502 -0.71331102053E+02  0.10394955533E+02 -0.17539171116E+03  0.18968532775E+03  0.47000000000E+01 0.  1.
        -11    1    1    2    0    0 -0.59987396144E+02  0.14400446607E+03 -0.35974105110E+03  0.39210891062E+03  0.00000000000E+00 0.  1.
         11    1    1    2    0    0 -0.30835134375E+02  0.31873721607E+01 -0.14705707548E+03  0.15028888283E+03  0.00000000000E+00 0. -1.
<mgrwt>
<rscale>  0 0.30099049E+03</rscale>
<asrwt>0</asrwt>
<pdfrwt beam="2">  1        2 0.43695323E+00 0.34888847E+03</pdfrwt>
<pdfrwt beam="1">  1       -2 0.47602282E-02 0.34888847E+03</pdfrwt>
<totfact> 0.53690578E+02</totfact>
</mgrwt>
</event>
<event>
 6    1  0.1045058E-005  0.1379708E+03  0.7546771E-02  0.1228124E+00
          1   -1    0    0  501    0  0.00000000000E+00  0.00000000000E+00  0.70270779331E+03  0.70270779331E+03  0.00000000000E+00 0. -1.
         -1   -1    0    0    0  501 -0.00000000000E+00 -0.00000000000E+00 -0.26976699310E+02  0.26976699310E+02  0.00000000000E+00 0.  1.
          5    1    1    2  502    0  0.36611396209E+02  0.47475977778E+02  0.24352218851E+03  0.25083761499E+03  0.47000000000E+01 0.  1.
         -5    1    1    2    0  502 -0.77400194533E+02 -0.56786321228E+01  0.29285686542E+03  0.30300209670E+03  0.47000000000E+01 0.  1.
        -11    1    1    2    0    0  0.49196570750E+02 -0.65451228003E+02  0.10121369718E+03  0.13018593748E+03  0.00000000000E+00 0.  1.
         11    1    1    2    0    0 -0.84077724258E+01  0.23653882348E+02  0.38138342889E+02  0.45658843455E+02  0.00000000000E+00 0. -1.
<mgrwt>
<rscale>  0 0.12955044E+03</rscale>
<asrwt>0</asrwt>
<pdfrwt beam="1">  1        1 0.10810888E+00 0.13797078E+03</pdfrwt>
<pdfrwt beam="2">  1       -1 0.41502620E-02 0.13797078E+03</pdfrwt>
<totfact> 0.63047611E+03</totfact>
</mgrwt>
</event>
<event>
 6    1  0.1045058E-005  0.1622523E+03  0.7546771E-02  0.1193667E+00
         -2   -1    0    0    0  501 -0.00000000000E+00  0.00000000000E+00  0.17504919776E+02  0.17504919776E+02  0.00000000000E+00 0.  1.
          2   -1    0    0  501    0  0.00000000000E+00 -0.00000000000E+00 -0.12973265412E+04  0.12973265412E+04  0.00000000000E+00 0. -1.
          5    1    1    2  502    0 -0.17514439435E+02  0.10984574494E+03 -0.55809978446E+03  0.56909603995E+03  0.47000000000E+01 0. -1.
         -5    1    1    2    0  502  0.48651039009E+02 -0.11187810659E+02 -0.20227324694E+03  0.20839541053E+03  0.47000000000E+01 0. -1.
        -11    1    1    2    0    0  0.30771389757E+02 -0.34853631012E+02 -0.13626327773E+03  0.14397685536E+03  0.00000000000E+00 0.  1.
         11    1    1    2    0    0 -0.61907989331E+02 -0.63804303268E+02 -0.38318531234E+03  0.39336315518E+03  0.00000000000E+00 0. -1.
<mgrwt>
<rscale>  0 0.15567621E+03</rscale>
<asrwt>0</asrwt>
<pdfrwt beam="2">  1        2 0.19958873E+00 0.16225230E+03</pdfrwt>
<pdfrwt beam="1">  1       -2 0.26930641E-02 0.16225230E+03</pdfrwt>
<totfact> 0.85916196E+03</totfact>
</mgrwt>
</event>
<event>
 6    1  0.1045058E-005  0.1571623E+03  0.7546771E-02  0.1199982E+00
          2   -1    0    0  501    0  0.00000000000E+00  0.00000000000E+00  0.35070961040E+03  0.35070961040E+03  0.00000000000E+00 0.  1.
         -2   -1    0    0    0  501 -0.00000000000E+00 -0.00000000000E+00 -0.70265267296E+02  0.70265267296E+02  0.00000000000E+00 0. -1.
          5    1    1    2  502    0  0.85714454275E+01 -0.36692594748E+02  0.93865589635E+02  0.10125539543E+03  0.47000000000E+01 0.  1.
         -5    1    1    2    0  502  0.71281972788E+02  0.88644217017E+02  0.13880049068E+03  0.17951763999E+03  0.47000000000E+01 0.  1.
        -11    1    1    2    0    0  0.56102684798E+01 -0.31951053469E+02 -0.11352984319E+02  0.34369102158E+02  0.00000000000E+00 0.  1.
         11    1    1    2    0    0 -0.85463686695E+02 -0.20000568800E+02  0.59131247102E+02  0.10583274011E+03  0.00000000000E+00 0. -1.
<mgrwt>
<rscale>  0 0.15040011E+03</rscale>
<asrwt>0</asrwt>
<pdfrwt beam="1">  1        2 0.53955324E-01 0.15716231E+03</pdfrwt>
<pdfrwt beam="2">  1       -2 0.10810041E-01 0.15716231E+03</pdfrwt>
<totfact> 0.52233882E+03</totfact>
</mgrwt>
</event>
<event>
 6    1  0.1045058E-005  0.1261402E+03  0.7546771E-02  0.1249974E+00
          2   -1    0    0  501    0  0.00000000000E+00  0.00000000000E+00  0.31675280117E+03  0.31675280117E+03  0.00000000000E+00 0. -1.
         -2   -1    0    0    0  501 -0.00000000000E+00 -0.00000000000E+00 -0.50446349877E+02  0.50446349877E+02  0.00000000000E+00 0.  1.
          5    1    1    2  502    0  0.67937622618E+02  0.21181950392E+01  0.12358928536E+03  0.14112550716E+03  0.47000000000E+01 0.  1.
         -5    1    1    2    0  502 -0.55876518418E+02 -0.13925888698E+02  0.12012647277E+03  0.13329881900E+03  0.47000000000E+01 0.  1.
        -11    1    1    2    0    0  0.15402068262E+02  0.19564597593E+02 -0.26267018178E+02  0.36193278792E+02  0.00000000000E+00 0.  1.
         11    1    1    2    0    0 -0.27463172463E+02 -0.77569039344E+01  0.48857711347E+02  0.56581546094E+02  0.00000000000E+00 0. -1.
<mgrwt>
<rscale>  0 0.11592561E+03</rscale>
<asrwt>0</asrwt>
<pdfrwt beam="1">  1        2 0.48731199E-01 0.12614016E+03</pdfrwt>
<pdfrwt beam="2">  1       -2 0.77609771E-02 0.12614016E+03</pdfrwt>
<totfact> 0.96282676E+03</totfact>
</mgrwt>
</event>
<event>
 6    1  0.1045058E-005  0.4138004E+03  0.7546771E-02  0.1039872E+00
          2   -1    0    0  501    0  0.00000000000E+00  0.00000000000E+00  0.72521026090E+03  0.72521026090E+03  0.00000000000E+00 0.  1.
         -2   -1    0    0    0  501 -0.00000000000E+00 -0.00000000000E+00 -0.24480572836E+03  0.24480572836E+03  0.00000000000E+00 0. -1.
          5    1    1    2  502    0  0.82200704707E+02 -0.15117129774E+03  0.10143061466E+03  0.19979984161E+03  0.47000000000E+01 0.  1.
         -5    1    1    2    0  502  0.25768397438E+01 -0.23407884153E+03  0.25684862453E+03  0.34755265799E+03  0.47000000000E+01 0.  1.
        -11    1    1    2    0    0 -0.56764806737E+02  0.81936445590E+02  0.37767307530E+02  0.10659359229E+03  0.00000000000E+00 0.  1.
         11    1    1    2    0    0 -0.28012737713E+02  0.30331369368E+03  0.84357985821E+02  0.31606989737E+03  0.00000000000E+00 0. -1.
<mgrwt>
<rscale>  0 0.41148986E+03</rscale>
<asrwt>0</asrwt>
<pdfrwt beam="1">  1        2 0.11157081E+00 0.41380037E+03</pdfrwt>
<pdfrwt beam="2">  1       -2 0.37662420E-01 0.41380037E+03</pdfrwt>
<totfact> 0.26752162E+02</totfact>
</mgrwt>
</event>
<event>
 6    1  0.1045058E-005  0.2642844E+03  0.7546771E-02  0.1104596E+00
          1   -1    0    0  501    0  0.00000000000E+00  0.00000000000E+00  0.52432157334E+02  0.52432157334E+02  0.00000000000E+00 0. -1.
         -1   -1    0    0    0  501 -0.00000000000E+00 -0.00000000000E+00 -0.33303146098E+03  0.33303146098E+03  0.00000000000E+00 0.  1.
          5    1    1    2  502    0  0.99418966374E+02  0.34024022646E+02 -0.97978046984E+02  0.14374822671E+03  0.47000000000E+01 0. -1.
         -5    1    1    2    0  502 -0.28805072543E+02 -0.10798097119E+02 -0.81578442403E+02  0.87312446825E+02  0.47000000000E+01 0. -1.
        -11    1    1    2    0    0 -0.41564449302E+02  0.30128505391E+02 -0.68144340587E+02  0.85316946951E+02  0.00000000000E+00 0. -1.
         11    1    1    2    0    0 -0.29049444529E+02 -0.53354430918E+02 -0.32898473675E+02  0.69085997830E+02  0.00000000000E+00 0.  1.
<mgrwt>
<rscale>  0 0.26428438E+03</rscale>
<asrwt>0</asrwt>
<pdfrwt beam="1">  1        1 0.80664855E-02 0.26428438E+03</pdfrwt>
<pdfrwt beam="2">  1       -1 0.51235611E-01 0.26428438E+03</pdfrwt>
<totfact> 0.33557101E+03</totfact>
</mgrwt>
</event>
<event>
 6    1  0.1045058E-005  0.4078210E+03  0.7546771E-02  0.1041105E+00
          1   -1    0    0  501    0  0.00000000000E+00  0.00000000000E+00  0.77696140242E+03  0.77696140242E+03  0.00000000000E+00 0. -1.
         -1   -1    0    0    0  501 -0.00000000000E+00 -0.00000000000E+00 -0.53515508121E+02  0.53515508121E+02  0.00000000000E+00 0.  1.
          5    1    1    2  502    0 -0.83642768621E+02  0.71758344607E+02  0.59520967645E+03  0.60534454792E+03  0.47000000000E+01 0. -1.
         -5    1    1    2    0  502 -0.26324340762E+02 -0.74710284163E+01  0.13437929546E+02  0.30845666351E+02  0.47000000000E+01 0.  1.
        -11    1    1    2    0    0  0.65792579989E+02 -0.22225750911E+02  0.11375979695E+03  0.13328142777E+03  0.00000000000E+00 0. -1.
         11    1    1    2    0    0  0.44174529393E+02 -0.42061565280E+02  0.10384913573E+01  0.61005268504E+02  0.00000000000E+00 0.  1.
<mgrwt>
<rscale>  0 0.40782096E+03</rscale>
<asrwt>0</asrwt>
<pdfrwt beam="1">  1        1 0.11953251E+00 0.40782096E+03</pdfrwt>
<pdfrwt beam="2">  1       -1 0.82331557E-02 0.40782096E+03</pdfrwt>
<totfact> 0.19905531E+03</totfact>
</mgrwt>
</event>
<event>
 6    1  0.1045058E-005  0.3145647E+03  0.7546771E-02  0.1078178E+00
         -1   -1    0    0    0  501 -0.00000000000E+00  0.00000000000E+00  0.78473506765E+02  0.78473506765E+02  0.00000000000E+00 0.  1.
          1   -1    0    0  501    0  0.00000000000E+00 -0.00000000000E+00 -0.31523687451E+03  0.31523687451E+03  0.00000000000E+00 0. -1.
          5    1    1    2  502    0 -0.76531609497E+02 -0.70102503993E+02 -0.21864033405E+03  0.24206844898E+03  0.47000000000E+01 0. -1.
         -5    1    1    2    0  502  0.26694833985E+02  0.45751878321E+01 -0.64348473803E+01  0.28231963552E+02  0.47000000000E+01 0. -1.
        -11    1    1    2    0    0  0.38435888448E+02 -0.30167304588E+01  0.23879413616E+02  0.45350243418E+02  0.00000000000E+00 0.  1.
         11    1    1    2    0    0  0.11400887064E+02  0.68544046619E+02 -0.35567599932E+02  0.78059725324E+02  0.00000000000E+00 0. -1.
<mgrwt>
<rscale>  0 0.31456473E+03</rscale>
<asrwt>0</asrwt>
<pdfrwt beam="2">  1        1 0.48497980E-01 0.31456473E+03</pdfrwt>
<pdfrwt beam="1">  1       -1 0.12072847E-01 0.31456473E+03</pdfrwt>
<totfact> 0.37315647E+03</totfact>
</mgrwt>
</event>
<event>
 6    1  0.1045058E-005  0.1328274E+03  0.7546771E-02  0.1236679E+00
          1   -1    0    0  501    0  0.00000000000E+00  0.00000000000E+00  0.57830098824E+02  0.57830098824E+02  0.00000000000E+00 0. -1.
         -1   -1    0    0    0  501 -0.00000000000E+00 -0.00000000000E+00 -0.35213354782E+03  0.35213354782E+03  0.00000000000E+00 0.  1.
          5    1    1    2  502    0  0.89907600237E+01  0.87284102516E+02 -0.36440177244E+02  0.95127939300E+02  0.47000000000E+01 0.  1.
         -5    1    1    2    0  502 -0.11143204241E+02 -0.42416056147E+02 -0.72367972671E+01  0.44696242062E+02  0.47000000000E+01 0.  1.
        -11    1    1    2    0    0  0.33419052379E+02 -0.24894062770E+00 -0.37825213380E+02  0.50474169638E+02  0.00000000000E+00 0. -1.
         11    1    1    2    0    0 -0.31266608161E+02 -0.44619105742E+02 -0.21280126110E+03  0.21966529564E+03  0.00000000000E+00 0.  1.
<mgrwt>
<rscale>  0 0.12397571E+03</rscale>
<asrwt>0</asrwt>
<pdfrwt beam="1">  1        1 0.88969383E-02 0.13282742E+03</pdfrwt>
<pdfrwt beam="2">  1       -1 0.54174392E-01 0.13282742E+03</pdfrwt>
<totfact> 0.25678025E+03</totfact>
</mgrwt>
</event>
<event>
 6    1  0.1045058E-005  0.1304355E+03  0.7546771E-02  0.1239186E+00
         -2   -1    0    0    0  501 -0.00000000000E+00  0.00000000000E+00  0.15991326211E+03  0.15991326211E+03  0.00000000000E+00 0.  1.
          2   -1    0    0  501    0  0.00000000000E+00 -0.00000000000E+00 -0.17617746260E+03  0.17617746260E+03  0.00000000000E+00 0. -1.
          5    1    1    2  502    0 -0.59332033010E+02  0.41509275427E+02 -0.97212103181E+02  0.12130784432E+03  0.47000000000E+01 0. -1.
         -5    1    1    2    0  502  0.14479646006E+02 -0.51368437160E+02 -0.32599389103E+02  0.62715123013E+02  0.47000000000E+01 0.  1.
        -11    1    1    2    0    0  0.62396024865E+01  0.20251558719E+02  0.10988935488E+03  0.11191393383E+03  0.00000000000E+00 0.  1.
         11    1    1    2    0    0  0.38612784517E+02 -0.10392396986E+02  0.36579369187E+01  0.40153823551E+02  0.00000000000E+00 0. -1.
<mgrwt>
<rscale>  0 0.12240241E+03</rscale>
<asrwt>0</asrwt>
<pdfrwt beam="2">  1        2 0.27104225E-01 0.13043554E+03</pdfrwt>
<pdfrwt beam="1">  1       -2 0.24602040E-01 0.13043554E+03</pdfrwt>
<totfact> 0.27718558E+03</totfact>
</mgrwt>
</event>
<event>
 6    1  0.1045058E-005  0.1490395E+03  0.7546771E-02  0.1208299E+00
         -1   -1    0    0    0  501 -0.00000000000E+00  0.00000000000E+00  0.48220779456E+02  0.48220779456E+02  0.00000000000E+00 0.  1.
          1   -1    0    0  501    0  0.00000000000E+00 -0.00000000000E+00 -0.21217266907E+04  0.21217266907E+04  0.00000000000E+00 0. -1.
          5    1    1    2  502    0 -0.37596573515E+02 -0.20237703288E+02 -0.14618674818E+04  0.14624984415E+04  0.47000000000E+01 0. -1.
         -5    1    1    2    0  502 -0.47431736710E+02  0.56787795356E+02 -0.56540571966E+03  0.57024586029E+03  0.47000000000E+01 0.  1.
        -11    1    1    2    0    0  0.45275212748E+02 -0.64877273037E+02 -0.37750198616E+02  0.87658330703E+02  0.00000000000E+00 0.  1.
         11    1    1    2    0    0  0.39753097477E+02  0.28327180969E+02 -0.84825111010E+01  0.49544837624E+02  0.00000000000E+00 0. -1.
<mgrwt>
<rscale>  0 0.14380502E+03</rscale>
<asrwt>0</asrwt>
<pdfrwt beam="2">  1        1 0.32641946E+00 0.14903947E+03</pdfrwt>
<pdfrwt beam="1">  1       -1 0.74185821E-02 0.14903947E+03</pdfrwt>
<totfact> 0.28102211E+02</totfact>
</mgrwt>
</event>
<event>
 6    1  0.1045058E-005  0.1523834E+03  0.7546771E-02  0.1206205E+00
         -2   -1    0    0    0  501 -0.00000000000E+00  0.00000000000E+00  0.20826385338E+03  0.20826385338E+03  0.00000000000E+00 0.  1.
          2   -1    0    0  501    0  0.00000000000E+00 -0.00000000000E+00 -0.15446583089E+03  0.15446583089E+03  0.00000000000E+00 0. -1.
          5    1    1    2  502    0 -0.67712934356E+02 -0.63368422352E+02 -0.83913914206E+02  0.12515683532E+03  0.47000000000E+01 0.  1.
         -5    1    1    2    0  502 -0.17694616697E+02  0.45999007212E+02 -0.14981674839E+01  0.49531228839E+02  0.47000000000E+01 0.  1.
        -11    1    1    2    0    0  0.56981146650E+02  0.44369854042E+02  0.12849328717E+03  0.14739762505E+03  0.00000000000E+00 0.  1.
         11    1    1    2    0    0  0.28426404403E+02 -0.27000438902E+02  0.10716817005E+02  0.40643995065E+02  0.00000000000E+00 0. -1.
<mgrwt>
<rscale>  0 0.14542899E+03</rscale>
<asrwt>0</asrwt>
<pdfrwt beam="2">  1        2 0.23763974E-01 0.15238339E+03</pdfrwt>
<pdfrwt beam="1">  1       -2 0.32040593E-01 0.15238339E+03</pdfrwt>
<totfact> 0.20160466E+03</totfact>
</mgrwt>
</event>
<event>
 6    1  0.1045058E-005  0.2080253E+03  0.7546771E-02  0.1147496E+00
         -2   -1    0    0    0  501 -0.00000000000E+00  0.00000000000E+00  0.55927021301E+03  0.55927021301E+03  0.00000000000E+00 0.  1.
          2   -1    0    0  501    0  0.00000000000E+00 -0.00000000000E+00 -0.69918930709E+02  0.69918930709E+02  0.00000000000E+00 0. -1.
          5    1    1    2  502    0  0.99748908440E+02  0.14291849547E+03  0.20419009509E+03  0.26849809314E+03  0.47000000000E+01 0.  1.
         -5    1    1    2    0  502 -0.31448124872E+02  0.86823131549E+01  0.51211042560E+02  0.60901789792E+02  0.47000000000E+01 0.  1.
        -11    1    1    2    0    0 -0.58283156211E+02 -0.11048984436E+03  0.10216393487E+03  0.16137658316E+03  0.00000000000E+00 0. -1.
         11    1    1    2    0    0 -0.10017627356E+02 -0.41110964267E+02  0.13178620978E+03  0.13841267763E+03  0.00000000000E+00 0.  1.
<mgrwt>
<rscale>  0 0.20268137E+03</rscale>
<asrwt>0</asrwt>
<pdfrwt beam="2">  1        2 0.10756759E-01 0.20802534E+03</pdfrwt>
<pdfrwt beam="1">  1       -2 0.86041568E-01 0.20802534E+03</pdfrwt>
<totfact> 0.70372793E+02</totfact>
</mgrwt>
</event>
<event>
 6    1  0.1045058E-005  0.3459537E+03  0.7546771E-02  0.1064288E+00
          2   -1    0    0  501    0  0.00000000000E+00  0.00000000000E+00  0.22222723236E+03  0.22222723236E+03  0.00000000000E+00 0. -1.
         -2   -1    0    0    0  501 -0.00000000000E+00 -0.00000000000E+00 -0.13464141360E+03  0.13464141360E+03  0.00000000000E+00 0.  1.
          5    1    1    2  502    0  0.71311951502E+02  0.82605941204E+02  0.60826118693E+02  0.12502416832E+03  0.47000000000E+01 0.  1.
         -5    1    1    2    0  502 -0.35108928773E+02  0.91798043466E+01  0.78340808090E+02  0.86465472298E+02  0.47000000000E+01 0.  1.
        -11    1    1    2    0    0 -0.15492849151E+02 -0.39235295085E+02 -0.73537602062E+02  0.84777447899E+02  0.00000000000E+00 0.  1.
         11    1    1    2    0    0 -0.20710173578E+02 -0.52550450466E+02  0.21956494038E+02  0.60601557441E+02  0.00000000000E+00 0. -1.
<mgrwt>
<rscale>  0 0.34595369E+03</rscale>
<asrwt>0</asrwt>
<pdfrwt beam="1">  1        2 0.34188805E-01 0.34595369E+03</pdfrwt>
<pdfrwt beam="2">  1       -2 0.20714064E-01 0.34595369E+03</pdfrwt>
<totfact> 0.30128377E+03</totfact>
</mgrwt>
</event>
<event>
 6    1  0.1045058E-005  0.1706608E+03  0.7546771E-02  0.1197478E+00
         -1   -1    0    0    0  501 -0.00000000000E+00  0.00000000000E+00  0.13458485818E+02  0.13458485818E+02  0.00000000000E+00 0.  1.
          1   -1    0    0  501    0  0.00000000000E+00 -0.00000000000E+00 -0.15062865274E+04  0.15062865274E+04  0.00000000000E+00 0. -1.
          5    1    1    2  502    0 -0.25083720204E+02  0.10620138406E+03 -0.55601223948E+03  0.56663888628E+03  0.47000000000E+01 0. -1.
         -5    1    1    2    0  502 -0.38061671881E+00 -0.55731468524E+02 -0.49335470373E+03  0.49651494957E+03  0.47000000000E+01 0.  1.
        -11    1    1    2    0    0  0.59272220655E+02 -0.40778516210E+02 -0.25897338330E+03  0.26878113174E+03  0.00000000000E+00 0.  1.
         11    1    1    2    0    0 -0.33807883732E+02 -0.96913993281E+01 -0.18448771509E+03  0.18781004564E+03  0.00000000000E+00 0. -1.
<mgrwt>
<rscale>  0 0.15246394E+03</rscale>
<asrwt>0</asrwt>
<pdfrwt beam="2">  1        1 0.23173616E+00 0.17066077E+03</pdfrwt>
<pdfrwt beam="1">  1       -1 0.20705383E-02 0.17066077E+03</pdfrwt>
<totfact> 0.45760025E+03</totfact>
</mgrwt>
</event>
<event>
 6    1  0.1231589E-005  0.1313293E+03  0.7546771E-02  0.1238336E+00
          1   -1    0    0  501    0  0.00000000000E+00  0.00000000000E+00  0.11470217457E+04  0.11470217457E+04  0.00000000000E+00 0. -1.
         -1   -1    0    0    0  501 -0.00000000000E+00 -0.00000000000E+00 -0.14039672021E+02  0.14039672021E+02  0.00000000000E+00 0.  1.
          5    1    1    2  502    0 -0.41582341374E+01  0.39497581304E+02  0.98545074280E+02  0.10635117068E+03  0.47000000000E+01 0. -1.
         -5    1    1    2    0  502 -0.35818123164E+02 -0.44419567552E+02  0.76309547813E+03  0.76524037705E+03  0.47000000000E+01 0. -1.
        -11    1    1    2    0    0  0.47334614756E+02  0.29457106791E+02  0.24996546011E+03  0.25610743477E+03  0.00000000000E+00 0. -1.
         11    1    1    2    0    0 -0.73582574546E+01 -0.24535120543E+02  0.21376061135E+02  0.33362435199E+02  0.00000000000E+00 0.  1.
<mgrwt>
<rscale>  0 0.12293289E+03</rscale>
<asrwt>0</asrwt>
<pdfrwt beam="1">  1        1 0.17646481E+00 0.13132930E+03</pdfrwt>
<pdfrwt beam="2">  1       -1 0.21599504E-02 0.13132930E+03</pdfrwt>
<totfact> 0.74192603E+03</totfact>
</mgrwt>
</event>
<event>
 6    1  0.1045058E-005  0.1562210E+03  0.7546771E-02  0.1214217E+00
         -1   -1    0    0    0  501 -0.00000000000E+00  0.00000000000E+00  0.10493106308E+02  0.10493106308E+02  0.00000000000E+00 0.  1.
          1   -1    0    0  501    0  0.00000000000E+00 -0.00000000000E+00 -0.16119320399E+04  0.16119320399E+04  0.00000000000E+00 0. -1.
          5    1    1    2  502    0 -0.41250438603E+02  0.11184518722E+02 -0.11012372706E+04  0.11020763623E+04  0.47000000000E+01 0. -1.
         -5    1    1    2    0  502  0.19280608068E+02 -0.15592072797E+02 -0.27129570058E+02  0.37053449948E+02  0.47000000000E+01 0.  1.
        -11    1    1    2    0    0  0.50932913091E+02 -0.25712368954E+02 -0.27970712873E+03  0.28546692525E+03  0.00000000000E+00 0. -1.
         11    1    1    2    0    0 -0.28963082556E+02  0.30119923029E+02 -0.19336496413E+03  0.19782840865E+03  0.00000000000E+00 0.  1.
<mgrwt>
<rscale>  0 0.13934174E+03</rscale>
<asrwt>0</asrwt>
<pdfrwt beam="2">  1        1 0.24798946E+00 0.15622100E+03</pdfrwt>
<pdfrwt beam="1">  1       -1 0.16143246E-02 0.15622100E+03</pdfrwt>
<totfact> 0.55888229E+03</totfact>
</mgrwt>
</event>
<event>
 6    1  0.1045058E-005  0.4381153E+03  0.7546771E-02  0.1031909E+00
          1   -1    0    0  501    0  0.00000000000E+00  0.00000000000E+00  0.63428281476E+03  0.63428281476E+03  0.00000000000E+00 0. -1.
         -1   -1    0    0    0  501 -0.00000000000E+00 -0.00000000000E+00 -0.43720069035E+03  0.43720069035E+03  0.00000000000E+00 0.  1.
          5    1    1    2  502    0  0.29395562295E+03  0.84131534936E+02  0.23173850052E+03  0.38368326267E+03  0.47000000000E+01 0. -1.
         -5    1    1    2    0  502  0.89952010117E+02  0.85932786905E+02  0.17024214541E+03  0.21090349941E+03  0.47000000000E+01 0.  1.
        -11    1    1    2    0    0 -0.34629819406E+03 -0.17739268440E+03 -0.16836457305E+03  0.42395428191E+03  0.00000000000E+00 0.  1.
         11    1    1    2    0    0 -0.37609439001E+02  0.73283625571E+01 -0.36533948456E+02  0.52942461120E+02  0.00000000000E+00 0. -1.
<mgrwt>
<rscale>  0 0.43623327E+03</rscale>
<asrwt>0</asrwt>
<pdfrwt beam="1">  1        1 0.97581971E-01 0.43811526E+03</pdfrwt>
<pdfrwt beam="2">  1       -1 0.67261645E-01 0.43811526E+03</pdfrwt>
<totfact> 0.74443497E+01</totfact>
</mgrwt>
</event>
<event>
 6    1  0.1045058E-005  0.1466241E+03  0.7546771E-02  0.1212069E+00
         -1   -1    0    0    0  501 -0.00000000000E+00  0.00000000000E+00  0.11152395291E+03  0.11152395291E+03  0.00000000000E+00 0.  1.
          1   -1    0    0  501    0  0.00000000000E+00 -0.00000000000E+00 -0.16705590358E+03  0.16705590358E+03  0.00000000000E+00 0. -1.
          5    1    1    2  502    0 -0.66843456593E+02  0.42528991354E+02 -0.35569988393E+02  0.86971701543E+02  0.47000000000E+01 0. -1.
         -5    1    1    2    0  502  0.47976745308E+02  0.31748588186E+02  0.18567748621E+02  0.60634909343E+02  0.47000000000E+01 0. -1.
        -11    1    1    2    0    0  0.17363981829E+02  0.73438168344E+00  0.26497022370E+02  0.31688158291E+02  0.00000000000E+00 0.  1.
         11    1    1    2    0    0  0.15027294563E+01 -0.75011961224E+02 -0.65026733272E+02  0.99285087311E+02  0.00000000000E+00 0. -1.
<mgrwt>
<rscale>  0 0.14094050E+03</rscale>
<asrwt>0</asrwt>
<pdfrwt beam="2">  1        1 0.25700908E-01 0.14662413E+03</pdfrwt>
<pdfrwt beam="1">  1       -1 0.17157531E-01 0.14662413E+03</pdfrwt>
<totfact> 0.45972724E+03</totfact>
</mgrwt>
</event>
<event>
 6    1  0.1045058E-005  0.1420453E+03  0.7546771E-02  0.1221077E+00
          2   -1    0    0  501    0  0.00000000000E+00  0.00000000000E+00  0.23525711020E+03  0.23525711020E+03  0.00000000000E+00 0.  1.
         -2   -1    0    0    0  501 -0.00000000000E+00 -0.00000000000E+00 -0.78075016414E+02  0.78075016414E+02  0.00000000000E+00 0. -1.
          5    1    1    2  502    0 -0.57527188502E+02  0.29167353404E+02  0.12949487980E+03  0.14474503728E+03  0.47000000000E+01 0.  1.
         -5    1    1    2    0  502 -0.59853515554E+01 -0.51911715331E+02  0.82340597558E+01  0.53108759748E+02  0.47000000000E+01 0.  1.
        -11    1    1    2    0    0  0.36856530234E+02 -0.15521586386E+02  0.46687046679E+02  0.61473602403E+02  0.00000000000E+00 0.  1.
         11    1    1    2    0    0  0.26656009824E+02  0.38265948313E+02 -0.27233892453E+02  0.54004727183E+02  0.00000000000E+00 0. -1.
<mgrwt>
<rscale>  0 0.13439479E+03</rscale>
<asrwt>0</asrwt>
<pdfrwt beam="1">  1        2 0.36193401E-01 0.14204529E+03</pdfrwt>
<pdfrwt beam="2">  1       -2 0.12011541E-01 0.14204529E+03</pdfrwt>
<totfact> 0.67159646E+03</totfact>
</mgrwt>
</event>
<event>
 6    1  0.1045058E-005  0.2132786E+03  0.7546771E-02  0.1138996E+00
          1   -1    0    0  501    0  0.00000000000E+00  0.00000000000E+00  0.55236498680E+03  0.55236498680E+03  0.00000000000E+00 0. -1.
         -1   -1    0    0    0  501 -0.00000000000E+00 -0.00000000000E+00 -0.20587727328E+02  0.20587727328E+02  0.00000000000E+00 0.  1.
          5    1    1    2  502    0 -0.27338461784E+02  0.38809562605E+02  0.29541492022E+03  0.29924177304E+03  0.47000000000E+01 0. -1.
         -5    1    1    2    0  502  0.70331059632E+01 -0.48153553279E+01 -0.70365116344E+01  0.12010608744E+02  0.47000000000E+01 0.  1.
        -11    1    1    2    0    0 -0.21081982801E+02  0.26028544326E+01  0.13300676859E+02  0.25062578776E+02  0.00000000000E+00 0. -1.
         11    1    1    2    0    0  0.41387338622E+02 -0.36597061709E+02  0.23009817402E+03  0.23663775357E+03  0.00000000000E+00 0.  1.
<mgrwt>
<rscale>  0 0.21327859E+03</rscale>
<asrwt>0</asrwt>
<pdfrwt beam="1">  1        1 0.84979217E-01 0.21327859E+03</pdfrwt>
<pdfrwt beam="2">  1       -1 0.31673431E-02 0.21327859E+03</pdfrwt>
<totfact> 0.13456964E+04</totfact>
</mgrwt>
</event>
<event>
 6    1  0.1045058E-005  0.1133483E+03  0.7546771E-02  0.1265479E+00
         -1   -1    0    0    0  501 -0.00000000000E+00  0.00000000000E+00  0.17712106138E+02  0.17712106138E+02  0.00000000000E+00 0.  1.
          1   -1    0    0  501    0  0.00000000000E+00 -0.00000000000E+00 -0.63074086993E+03  0.63074086993E+03  0.00000000000E+00 0. -1.
          5    1    1    2  502    0 -0.13680712311E+02 -0.20251238527E+02 -0.40066677473E+03  0.40143894794E+03  0.47000000000E+01 0. -1.
         -5    1    1    2    0  502  0.35366330617E+01  0.25848917998E+02 -0.17373277571E+02  0.31695348375E+02  0.47000000000E+01 0.  1.
        -11    1    1    2    0    0 -0.31197715523E+02 -0.18738106060E+02 -0.14325002384E+03  0.14780048512E+03  0.00000000000E+00 0. -1.
         11    1    1    2    0    0  0.41341794772E+02  0.13140426589E+02 -0.51738687649E+02  0.67518194626E+02  0.00000000000E+00 0.  1.
<mgrwt>
<rscale>  0 0.10739077E+03</rscale>
<asrwt>0</asrwt>
<pdfrwt beam="2">  1        1 0.97037034E-01 0.11334828E+03</pdfrwt>
<pdfrwt beam="1">  1       -1 0.27249401E-02 0.11334828E+03</pdfrwt>
<totfact> 0.13370847E+04</totfact>
</mgrwt>
</event>
<event>
 6    1  0.1045058E-005  0.2059670E+03  0.7546771E-02  0.1148700E+00
         -1   -1    0    0    0  501 -0.00000000000E+00  0.00000000000E+00  0.75692243690E+03  0.75692243690E+03  0.00000000000E+00 0.  1.
          1   -1    0    0  501    0  0.00000000000E+00 -0.00000000000E+00 -0.61378014753E+02  0.61378014753E+02  0.00000000000E+00 0. -1.
          5    1    1    2  502    0  0.94187587063E+01 -0.29302534737E+02 -0.10735542656E+02  0.32934684357E+02  0.47000000000E+01 0. -1.
         -5    1    1    2    0  502  0.13519248279E+03 -0.47411551767E+02  0.20536586240E+03  0.25044378627E+03  0.47000000000E+01 0. -1.
        -11    1    1    2    0    0 -0.12265700713E+03  0.37481275295E+02  0.26074676184E+03  0.29058296785E+03  0.00000000000E+00 0. -1.
         11    1    1    2    0    0 -0.21954234366E+02  0.39232811209E+02  0.24016734057E+03  0.24433901318E+03  0.00000000000E+00 0.  1.
<mgrwt>
<rscale>  0 0.20123662E+03</rscale>
<asrwt>0</asrwt>
<pdfrwt beam="2">  1        1 0.94427720E-02 0.20596698E+03</pdfrwt>
<pdfrwt beam="1">  1       -1 0.11644960E+00 0.20596698E+03</pdfrwt>
<totfact> 0.49265853E+02</totfact>
</mgrwt>
</event>
<event>
 6    1  0.1045058E-005  0.1267108E+03  0.7546771E-02  0.1247707E+00
          1   -1    0    0  501    0  0.00000000000E+00  0.00000000000E+00  0.15465121570E+03  0.15465121570E+03  0.00000000000E+00 0. -1.
         -1   -1    0    0    0  501 -0.00000000000E+00 -0.00000000000E+00 -0.77981394303E+02  0.77981394303E+02  0.00000000000E+00 0.  1.
          5    1    1    2  502    0 -0.44176835123E+02 -0.45477625258E+02  0.48449537500E+02  0.79932814567E+02  0.47000000000E+01 0. -1.
         -5    1    1    2    0  502  0.23767471151E+02  0.49246301788E+02 -0.22712492347E+01  0.54930314926E+02  0.47000000000E+01 0. -1.
        -11    1    1    2    0    0 -0.16783441080E+02 -0.27150796951E+02 -0.14347342719E+02  0.34995655626E+02  0.00000000000E+00 0.  1.
         11    1    1    2    0    0  0.37192805051E+02  0.23382120421E+02  0.44838875847E+02  0.62773824881E+02  0.00000000000E+00 0. -1.
<mgrwt>
<rscale>  0 0.11724820E+03</rscale>
<asrwt>0</asrwt>
<pdfrwt beam="1">  1        1 0.23792495E-01 0.12671081E+03</pdfrwt>
<pdfrwt beam="2">  1       -1 0.11997138E-01 0.12671081E+03</pdfrwt>
<totfact> 0.87718726E+03</totfact>
</mgrwt>
</event>
<event>
 6    1  0.1045058E-005  0.3520005E+03  0.7546771E-02  0.1062938E+00
          1   -1    0    0  501    0  0.00000000000E+00  0.00000000000E+00  0.22160993675E+04  0.22160993675E+04  0.00000000000E+00 0. -1.
         -1   -1    0    0    0  501 -0.00000000000E+00 -0.00000000000E+00 -0.54242243199E+02  0.54242243199E+02  0.00000000000E+00 0.  1.
          5    1    1    2  502    0 -0.10098248644E+03 -0.13585537344E+03  0.73910095026E+03  0.75825223359E+03  0.47000000000E+01 0. -1.
         -5    1    1    2    0  502 -0.10215870095E+03 -0.12301518166E+03  0.31902626545E+03  0.35688791398E+03  0.47000000000E+01 0. -1.
        -11    1    1    2    0    0  0.17345653415E+03  0.25678587711E+03  0.10326755731E+04  0.10781674245E+04  0.00000000000E+00 0.  1.
         11    1    1    2    0    0  0.29684653233E+02  0.20846779981E+01  0.71054335479E+02  0.77034038647E+02  0.00000000000E+00 0. -1.
<mgrwt>
<rscale>  0 0.34921367E+03</rscale>
<asrwt>0</asrwt>
<pdfrwt beam="1">  1        1 0.34093829E+00 0.35200049E+03</pdfrwt>
<pdfrwt beam="2">  1       -1 0.83449622E-02 0.35200049E+03</pdfrwt>
<totfact> 0.19379671E+02</totfact>
</mgrwt>
</event>
<event>
 6    1  0.1045058E-005  0.1251058E+03  0.7546771E-02  0.1250068E+00
         -1   -1    0    0    0  501 -0.00000000000E+00  0.00000000000E+00  0.22325418400E+03  0.22325418400E+03  0.00000000000E+00 0.  1.
          1   -1    0    0  501    0  0.00000000000E+00 -0.00000000000E+00 -0.56343605966E+02  0.56343605966E+02  0.00000000000E+00 0. -1.
          5    1    1    2  502    0 -0.21775110443E+02 -0.49292472279E+02  0.61834969174E+02  0.82155685567E+02  0.47000000000E+01 0.  1.
         -5    1    1    2    0  502  0.26794926656E+02  0.49978427697E+02 -0.11003675456E+01  0.56913198279E+02  0.47000000000E+01 0.  1.
        -11    1    1    2    0    0 -0.41237803313E+01 -0.34141071249E+02  0.10096200706E+03  0.10665807602E+03  0.00000000000E+00 0.  1.
         11    1    1    2    0    0 -0.89603588183E+00  0.33455115831E+02  0.52139693467E+01  0.33870830103E+02  0.00000000000E+00 0. -1.
<mgrwt>
<rscale>  0 0.11587128E+03</rscale>
<asrwt>0</asrwt>
<pdfrwt beam="2">  1        1 0.86682472E-02 0.12510581E+03</pdfrwt>
<pdfrwt beam="1">  1       -1 0.34346797E-01 0.12510581E+03</pdfrwt>
<totfact> 0.59492090E+03</totfact>
</mgrwt>
</event>
<event>
 6    1  0.1045058E-005  0.2084159E+03  0.7546771E-02  0.1146940E+00
         -3   -1    0    0    0  501 -0.00000000000E+00  0.00000000000E+00  0.26447653715E+03  0.26447653715E+03  0.00000000000E+00 0.  1.
          3   -1    0    0  501    0  0.00000000000E+00 -0.00000000000E+00 -0.16318181122E+03  0.16318181122E+03  0.00000000000E+00 0. -1.
          5    1    1    2  502    0  0.21106423318E+02 -0.42143587108E+02 -0.60671186467E+02  0.76971721476E+02  0.47000000000E+01 0. -1.
         -5    1    1    2    0  502  0.18783150989E+02 -0.11978771058E+03  0.51101343699E+02  0.13166373720E+03  0.47000000000E+01 0. -1.
        -11    1    1    2    0    0 -0.63104776815E+02  0.13410367035E+03  0.10653384395E+03  0.18252525076E+03  0.00000000000E+00 0.  1.
         11    1    1    2    0    0  0.23215202507E+02  0.27827627334E+02  0.43307247513E+01  0.36497638928E+02  0.00000000000E+00 0. -1.
<mgrwt>
<rscale>  0 0.20335333E+03</rscale>
<asrwt>0</asrwt>
<pdfrwt beam="2">  1        3 0.25104894E-01 0.20841586E+03</pdfrwt>
<pdfrwt beam="1">  1       -3 0.40688698E-01 0.20841586E+03</pdfrwt>
<totfact> 0.21966088E+02</totfact>
</mgrwt>
</event>
<event>
 6    1  0.1045058E-005  0.1319247E+03  0.7546771E-02  0.1238006E+00
          1   -1    0    0  501    0  0.00000000000E+00  0.00000000000E+00  0.14324355409E+03  0.14324355409E+03  0.00000000000E+00 0. -1.
         -1   -1    0    0    0  501 -0.00000000000E+00 -0.00000000000E+00 -0.12468823210E+03  0.12468823210E+03  0.00000000000E+00 0.  1.
          5    1    1    2  502    0  0.51880269563E+02 -0.24532149007E+02  0.57549563929E+02  0.81409035206E+02  0.47000000000E+01 0.  1.
         -5    1    1    2    0  502 -0.31572301709E+02  0.60556418436E+02  0.18685412888E+02  0.70958612612E+02  0.47000000000E+01 0.  1.
        -11    1    1    2    0    0 -0.13654507277E+02  0.23000782176E+02 -0.48600873140E+02  0.55475457814E+02  0.00000000000E+00 0.  1.
         11    1    1    2    0    0 -0.66534605766E+01 -0.59025051605E+02 -0.90787816824E+01  0.60088680560E+02  0.00000000000E+00 0. -1.
<mgrwt>
<rscale>  0 0.12313941E+03</rscale>
<asrwt>0</asrwt>
<pdfrwt beam="1">  1        1 0.22037470E-01 0.13192471E+03</pdfrwt>
<pdfrwt beam="2">  1       -1 0.19182805E-01 0.13192471E+03</pdfrwt>
<totfact> 0.46427585E+03</totfact>
</mgrwt>
</event>
<event>
 6    1  0.1045058E-005  0.2779629E+03  0.7546771E-02  0.1096807E+00
          4   -1    0    0  501    0  0.00000000000E+00  0.00000000000E+00  0.87223341365E+02  0.87223341365E+02  0.00000000000E+00 0.  1.
         -4   -1    0    0    0  501 -0.00000000000E+00 -0.00000000000E+00 -0.22145271011E+03  0.22145271011E+03  0.00000000000E+00 0. -1.
          5    1    1    2  502    0 -0.27854933948E+02  0.25398849462E+02 -0.10674350317E+02  0.39459227741E+02  0.47000000000E+01 0.  1.
         -5    1    1    2    0  502  0.45861753793E+02 -0.95295745119E+02 -0.94591195559E+01  0.10628332156E+03  0.47000000000E+01 0.  1.
        -11    1    1    2    0    0  0.18227123300E+01  0.37091160324E+02 -0.11865470959E+03  0.12433027210E+03  0.00000000000E+00 0. -1.
         11    1    1    2    0    0 -0.19829532175E+02  0.32805735333E+02  0.45588107127E+01  0.38603230074E+02  0.00000000000E+00 0.  1.
<mgrwt>
<rscale>  0 0.27796291E+03</rscale>
<asrwt>0</asrwt>
<pdfrwt beam="1">  1        4 0.13418975E-01 0.27796291E+03</pdfrwt>
<pdfrwt beam="2">  1       -4 0.34069648E-01 0.27796291E+03</pdfrwt>
<totfact> 0.71626799E+02</totfact>
</mgrwt>
</event>
<event>
 6    1  0.1045058E-005  0.1370544E+03  0.7546771E-02  0.1229027E+00
          1   -1    0    0  501    0  0.00000000000E+00  0.00000000000E+00  0.12173588740E+04  0.12173588740E+04  0.00000000000E+00 0. -1.
         -1   -1    0    0    0  501 -0.00000000000E+00 -0.00000000000E+00 -0.12806078587E+02  0.12806078587E+02  0.00000000000E+00 0.  1.
          5    1    1    2  502    0 -0.54908156789E+02  0.15310796569E+02  0.14994558177E+03  0.16048393585E+03  0.47000000000E+01 0.  1.
         -5    1    1    2    0  502  0.36015783526E+01 -0.38274286620E+02  0.64720268303E+03  0.64836046710E+03  0.47000000000E+01 0.  1.
        -11    1    1    2    0    0  0.37124975637E+02 -0.30851593595E+02  0.13718681541E+03  0.14543145109E+03  0.00000000000E+00 0.  1.
         11    1    1    2    0    0  0.14181602800E+02  0.53815083646E+02  0.27021771521E+03  0.27588909855E+03  0.00000000000E+00 0. -1.
<mgrwt>
<rscale>  0 0.12894677E+03</rscale>
<asrwt>0</asrwt>
<pdfrwt beam="1">  1        1 0.18728589E+00 0.13705441E+03</pdfrwt>
<pdfrwt beam="2">  1       -1 0.19701669E-02 0.13705441E+03</pdfrwt>
<totfact> 0.75951602E+03</totfact>
</mgrwt>
</event>
<event>
 6    1  0.1045058E-005  0.3377441E+03  0.7546771E-02  0.1067761E+00
          2   -1    0    0  501    0  0.00000000000E+00  0.00000000000E+00  0.23493503294E+03  0.23493503294E+03  0.00000000000E+00 0. -1.
         -2   -1    0    0    0  501 -0.00000000000E+00 -0.00000000000E+00 -0.12138575121E+03  0.12138575121E+03  0.00000000000E+00 0.  1.
          5    1    1    2  502    0 -0.36739560495E+01  0.29071552951E+02 -0.26110837896E+02  0.39528711080E+02  0.47000000000E+01 0.  1.
         -5    1    1    2    0  502  0.10308733241E+03  0.50442037742E+02  0.10472906566E+03  0.15544022796E+03  0.47000000000E+01 0.  1.
        -11    1    1    2    0    0 -0.25904787892E+02 -0.77361115558E+02  0.32360763031E+02  0.87766845790E+02  0.00000000000E+00 0. -1.
         11    1    1    2    0    0 -0.73508588473E+02 -0.21524751353E+01  0.25702909428E+01  0.73584999314E+02  0.00000000000E+00 0.  1.
<mgrwt>
<rscale>  0 0.33774408E+03</rscale>
<asrwt>0</asrwt>
<pdfrwt beam="1">  1        2 0.36143851E-01 0.33774408E+03</pdfrwt>
<pdfrwt beam="2">  1       -2 0.18674731E-01 0.33774408E+03</pdfrwt>
<totfact> 0.33852174E+03</totfact>
</mgrwt>
</event>
<event>
 6    1  0.1045058E-005  0.1547529E+03  0.7546771E-02  0.1202573E+00
         -2   -1    0    0    0  501 -0.00000000000E+00  0.00000000000E+00  0.13335317153E+03  0.13335317153E+03  0.00000000000E+00 0.  1.
          2   -1    0    0  501    0  0.00000000000E+00 -0.00000000000E+00 -0.15847044537E+03  0.15847044537E+03  0.00000000000E+00 0. -1.
          5    1    1    2  502    0 -0.13428615386E+02  0.17945421948E+02  0.40959961690E+02  0.46927330435E+02  0.47000000000E+01 0.  1.
         -5    1    1    2    0  502  0.28421465608E+02  0.72045495239E+02 -0.82604311392E+02  0.11333091084E+03  0.47000000000E+01 0.  1.
        -11    1    1    2    0    0 -0.42554497875E+02 -0.72475104800E+01  0.25812374935E+01  0.43244357834E+02  0.00000000000E+00 0. -1.
         11    1    1    2    0    0  0.27561647653E+02 -0.82743406708E+02  0.13945838377E+02  0.88321017787E+02  0.00000000000E+00 0.  1.
<mgrwt>
<rscale>  0 0.14830335E+03</rscale>
<asrwt>0</asrwt>
<pdfrwt beam="2">  1        2 0.24380069E-01 0.15475287E+03</pdfrwt>
<pdfrwt beam="1">  1       -2 0.20515873E-01 0.15475287E+03</pdfrwt>
<totfact> 0.42967568E+03</totfact>
</mgrwt>
</event>
<event>
 6    1  0.1045058E-005  0.2527387E+03  0.7546771E-02  0.1111586E+00
         -2   -1    0    0    0  501 -0.00000000000E+00  0.00000000000E+00  0.78001237375E+02  0.78001237375E+02  0.00000000000E+00 0.  1.
          2   -1    0    0  501    0  0.00000000000E+00 -0.00000000000E+00 -0.20473016944E+03  0.20473016944E+03  0.00000000000E+00 0. -1.
          5    1    1    2  502    0 -0.39005993131E+01 -0.17547207974E+02  0.25083502509E+02  0.31215241162E+02  0.47000000000E+01 0. -1.
         -5    1    1    2    0  502  0.54871126172E+02  0.55471416010E+02 -0.10267171061E+03  0.12904064724E+03  0.47000000000E+01 0. -1.
        -11    1    1    2    0    0 -0.62050617946E+02  0.81894817521E+01 -0.39703290492E+02  0.74119485122E+02  0.00000000000E+00 0. -1.
         11    1    1    2    0    0  0.11080091087E+02 -0.46113689788E+02 -0.94374334697E+01  0.48356033283E+02  0.00000000000E+00 0.  1.
<mgrwt>
<rscale>  0 0.25273865E+03</rscale>
<asrwt>0</asrwt>
<pdfrwt beam="2">  1        2 0.31496948E-01 0.25273865E+03</pdfrwt>
<pdfrwt beam="1">  1       -2 0.12000191E-01 0.25273865E+03</pdfrwt>
<totfact> 0.81036722E+03</totfact>
</mgrwt>
</event>
<event>
 6    1  0.1045058E-005  0.1968481E+03  0.7546771E-02  0.1156808E+00
          2   -1    0    0  501    0  0.00000000000E+00  0.00000000000E+00  0.11152999550E+04  0.11152999550E+04  0.00000000000E+00 0.  1.
         -2   -1    0    0    0  501 -0.00000000000E+00 -0.00000000000E+00 -0.36286669581E+02  0.36286669581E+02  0.00000000000E+00 0. -1.
          5    1    1    2  502    0  0.10171026023E+03  0.10300475522E+03  0.59029410847E+03  0.60780274853E+03  0.47000000000E+01 0.  1.
         -5    1    1    2    0  502  0.35447964687E+02 -0.37313229098E+02  0.18373996083E+03  0.19086984695E+03  0.47000000000E+01 0.  1.
        -11    1    1    2    0    0 -0.51473836009E+02  0.10911618900E+02  0.47251371120E+02  0.70719949754E+02  0.00000000000E+00 0. -1.
         11    1    1    2    0    0 -0.85684388908E+02 -0.76603145021E+02  0.25772784496E+03  0.28219407931E+03  0.00000000000E+00 0.  1.
<mgrwt>
<rscale>  0 0.19184444E+03</rscale>
<asrwt>0</asrwt>
<pdfrwt beam="1">  1        2 0.17158458E+00 0.19684810E+03</pdfrwt>
<pdfrwt beam="2">  1       -2 0.55825654E-02 0.19684810E+03</pdfrwt>
<totfact> 0.36736989E+03</totfact>
</mgrwt>
</event>
<event>
 6    1  0.1045058E-005  0.1376774E+03  0.7546771E-02  0.1228041E+00
         -1   -1    0    0    0  501 -0.00000000000E+00  0.00000000000E+00  0.74549590570E+03  0.74549590570E+03  0.00000000000E+00 0.  1.
          1   -1    0    0  501    0  0.00000000000E+00 -0.00000000000E+00 -0.22040006679E+02  0.22040006679E+02  0.00000000000E+00 0. -1.
          5    1    1    2  502    0 -0.63614153150E+02 -0.51144590799E+02  0.23199321315E+03  0.24597859784E+03  0.47000000000E+01 0.  1.
         -5    1    1    2    0  502  0.47858652099E+02 -0.43806788051E+01  0.61412083575E+02  0.78122819563E+02  0.47000000000E+01 0.  1.
        -11    1    1    2    0    0  0.49709348713E+02  0.24453631380E+02  0.30905440917E+03  0.31398029758E+03  0.00000000000E+00 0. -1.
         11    1    1    2    0    0 -0.33953847662E+02  0.31071638224E+02  0.12099619313E+03  0.12945419740E+03  0.00000000000E+00 0.  1.
<mgrwt>
<rscale>  0 0.12960647E+03</rscale>
<asrwt>0</asrwt>
<pdfrwt beam="2">  1        1 0.33907708E-02 0.13767738E+03</pdfrwt>
<pdfrwt beam="1">  1       -1 0.11469166E+00 0.13767738E+03</pdfrwt>
<totfact> 0.20493202E+03</totfact>
</mgrwt>
</event>
<event>
 6    1  0.1045058E-005  0.2929372E+03  0.7546771E-02  0.1088825E+00
         -1   -1    0    0    0  501 -0.00000000000E+00  0.00000000000E+00  0.74762900462E+02  0.74762900462E+02  0.00000000000E+00 0.  1.
          1   -1    0    0  501    0  0.00000000000E+00 -0.00000000000E+00 -0.28694782186E+03  0.28694782186E+03  0.00000000000E+00 0. -1.
          5    1    1    2  502    0 -0.17035865801E+02  0.23042644316E+02 -0.11481103710E+03  0.11842655286E+03  0.47000000000E+01 0. -1.
         -5    1    1    2    0  502 -0.36699689187E+02 -0.85158516873E+02 -0.84447315864E+02  0.12550808476E+03  0.47000000000E+01 0.  1.
        -11    1    1    2    0    0  0.50722208923E+02  0.18098792026E+01 -0.24399125983E+02  0.56314611687E+02  0.00000000000E+00 0.  1.
         11    1    1    2    0    0  0.30133460649E+01  0.60305993354E+02  0.11472557555E+02  0.61461473020E+02  0.00000000000E+00 0. -1.
<mgrwt>
<rscale>  0 0.29293720E+03</rscale>
<asrwt>0</asrwt>
<pdfrwt beam="2">  1        1 0.44145819E-01 0.29293720E+03</pdfrwt>
<pdfrwt beam="1">  1       -1 0.11501984E-01 0.29293720E+03</pdfrwt>
<totfact> 0.45247107E+03</totfact>
</mgrwt>
</event>
<event>
 6    1  0.1045058E-005  0.1323528E+03  0.7546771E-02  0.1239034E+00
          1   -1    0    0  501    0  0.00000000000E+00  0.00000000000E+00  0.33176165615E+03  0.33176165615E+03  0.00000000000E+00 0. -1.
         -1   -1    0    0    0  501 -0.00000000000E+00 -0.00000000000E+00 -0.60094609012E+02  0.60094609012E+02  0.00000000000E+00 0.  1.
          5    1    1    2  502    0  0.49141760644E+02 -0.44621834613E+02  0.23565380915E+03  0.24486900279E+03  0.47000000000E+01 0.  1.
         -5    1    1    2    0  502 -0.40977536161E+02  0.19174682088E+01  0.27255002523E+02  0.49474845293E+02  0.47000000000E+01 0.  1.
        -11    1    1    2    0    0 -0.17902452273E+01  0.10734058020E+02 -0.38551846357E+02  0.40058330433E+02  0.00000000000E+00 0.  1.
         11    1    1    2    0    0 -0.63739792555E+01  0.31970308385E+02  0.47310081823E+02  0.57454086642E+02  0.00000000000E+00 0. -1.
<mgrwt>
<rscale>  0 0.12249689E+03</rscale>
<asrwt>0</asrwt>
<pdfrwt beam="1">  1        1 0.51040254E-01 0.13235278E+03</pdfrwt>
<pdfrwt beam="2">  1       -1 0.92453246E-02 0.13235278E+03</pdfrwt>
<totfact> 0.50846637E+03</totfact>
</mgrwt>
</event>
<event>
 6    1  0.1045058E-005  0.1518984E+03  0.7546771E-02  0.1206533E+00
         -4   -1    0    0    0  501 -0.00000000000E+00  0.00000000000E+00  0.51774552540E+02  0.51774552540E+02  0.00000000000E+00 0.  1.
          4   -1    0    0  501    0  0.00000000000E+00 -0.00000000000E+00 -0.42901330209E+03  0.42901330209E+03  0.00000000000E+00 0. -1.
          5    1    1    2  502    0  0.93623521965E+02  0.50762719797E+02 -0.14029846281E+03  0.17620433097E+03  0.47000000000E+01 0.  1.
         -5    1    1    2    0  502 -0.14787341152E+02 -0.15642019977E+02 -0.14830150871E+03  0.14992920240E+03  0.47000000000E+01 0.  1.
        -11    1    1    2    0    0 -0.94883041002E+02 -0.10450775970E+02 -0.78297613541E+02  0.12346062722E+03  0.00000000000E+00 0. -1.
         11    1    1    2    0    0  0.16046860189E+02 -0.24669923850E+02 -0.10341164496E+02  0.31193694040E+02  0.00000000000E+00 0.  1.
<mgrwt>
<rscale>  0 0.14517338E+03</rscale>
<asrwt>0</asrwt>
<pdfrwt beam="2">  1        4 0.66002047E-01 0.15189845E+03</pdfrwt>
<pdfrwt beam="1">  1       -4 0.79653158E-02 0.15189845E+03</pdfrwt>
<totfact> 0.40880240E+02</totfact>
</mgrwt>
</event>
<event>
 6    1  0.1045058E-005  0.1432561E+03  0.7546771E-02  0.1228483E+00
          1   -1    0    0  501    0  0.00000000000E+00  0.00000000000E+00  0.97052799512E+02  0.97052799512E+02  0.00000000000E+00 0. -1.
         -1   -1    0    0    0  501 -0.00000000000E+00 -0.00000000000E+00 -0.14782621270E+03  0.14782621270E+03  0.00000000000E+00 0.  1.
          5    1    1    2  502    0  0.17187779058E+02  0.24758683736E+02 -0.34578433794E+02  0.46110413714E+02  0.47000000000E+01 0.  1.
         -5    1    1    2    0  502 -0.20724812889E+02 -0.94649413553E+02  0.16099067395E+02  0.98332595441E+02  0.47000000000E+01 0.  1.
        -11    1    1    2    0    0 -0.24683096818E+02  0.59731722901E+02 -0.17311646498E+02  0.66909095747E+02  0.00000000000E+00 0.  1.
         11    1    1    2    0    0  0.28220130649E+02  0.10159006916E+02 -0.14982400293E+02  0.33526907312E+02  0.00000000000E+00 0. -1.
<mgrwt>
<rscale>  0 0.12931018E+03</rscale>
<asrwt>0</asrwt>
<pdfrwt beam="1">  1        1 0.14931200E-01 0.14325605E+03</pdfrwt>
<pdfrwt beam="2">  1       -1 0.22742494E-01 0.14325605E+03</pdfrwt>
<totfact> 0.58358714E+03</totfact>
</mgrwt>
</event>
<event>
 6    1  0.1045058E-005  0.1366736E+03  0.7546771E-02  0.1230312E+00
          1   -1    0    0  501    0  0.00000000000E+00  0.00000000000E+00  0.30099689676E+02  0.30099689676E+02  0.00000000000E+00 0. -1.
         -1   -1    0    0    0  501 -0.00000000000E+00 -0.00000000000E+00 -0.59456165989E+03  0.59456165989E+03  0.00000000000E+00 0.  1.
          5    1    1    2  502    0 -0.11340652706E+02 -0.41548440174E+02 -0.51075181596E+02  0.66974976370E+02  0.47000000000E+01 0. -1.
         -5    1    1    2    0  502  0.55818709770E+02  0.74376563899E+02 -0.12897652545E+03  0.15907430884E+03  0.47000000000E+01 0. -1.
        -11    1    1    2    0    0 -0.27514687850E+02  0.25802751598E+02 -0.22057213766E+03  0.22377423433E+03  0.00000000000E+00 0.  1.
         11    1    1    2    0    0 -0.16963369214E+02 -0.58630875324E+02 -0.16383812551E+03  0.17483783002E+03  0.00000000000E+00 0. -1.
<mgrwt>
<rscale>  0 0.12809379E+03</rscale>
<asrwt>0</asrwt>
<pdfrwt beam="1">  1        1 0.46307211E-02 0.13667356E+03</pdfrwt>
<pdfrwt beam="2">  1       -1 0.91471032E-01 0.13667356E+03</pdfrwt>
<totfact> 0.22035653E+03</totfact>
</mgrwt>
</event>
<event>
 6    1  0.1045058E-005  0.1252308E+03  0.7546771E-02  0.1248895E+00
          1   -1    0    0  501    0  0.00000000000E+00  0.00000000000E+00  0.36802353911E+03  0.36802353911E+03  0.00000000000E+00 0. -1.
         -1   -1    0    0    0  501 -0.00000000000E+00 -0.00000000000E+00 -0.41616303824E+02  0.41616303824E+02  0.00000000000E+00 0.  1.
          5    1    1    2  502    0 -0.33042794623E+02  0.46410510768E+01  0.26353116939E+03  0.26567674507E+03  0.47000000000E+01 0. -1.
         -5    1    1    2    0  502  0.34748969170E+02  0.26563662792E+01  0.12305669592E+02  0.37256766423E+02  0.47000000000E+01 0. -1.
        -11    1    1    2    0    0  0.13931736201E+02 -0.12233666663E+02 -0.24015088324E+02  0.30339418926E+02  0.00000000000E+00 0.  1.
         11    1    1    2    0    0 -0.15637910748E+02  0.49362493069E+01  0.74585484637E+02  0.76366912523E+02  0.00000000000E+00 0. -1.
<mgrwt>
<rscale>  0 0.11655248E+03</rscale>
<asrwt>0</asrwt>
<pdfrwt beam="1">  1        1 0.56619004E-01 0.12523079E+03</pdfrwt>
<pdfrwt beam="2">  1       -1 0.64025085E-02 0.12523079E+03</pdfrwt>
<totfact> 0.77376373E+03</totfact>
</mgrwt>
</event>
<event>
 6    1  0.1045058E-005  0.1398582E+03  0.7546771E-02  0.1224365E+00
         -1   -1    0    0    0  501 -0.00000000000E+00  0.00000000000E+00  0.22861402609E+02  0.22861402609E+02  0.00000000000E+00 0.  1.
          1   -1    0    0  501    0  0.00000000000E+00 -0.00000000000E+00 -0.75894507611E+03  0.75894507611E+03  0.00000000000E+00 0. -1.
          5    1    1    2  502    0 -0.22955900697E+02  0.34893325114E+02 -0.52162668352E+02  0.66989189307E+02  0.47000000000E+01 0. -1.
         -5    1    1    2    0  502 -0.39371982811E+02 -0.42185124511E+02 -0.47101235869E+03  0.47455713017E+03  0.47000000000E+01 0. -1.
        -11    1    1    2    0    0  0.71833269745E+02 -0.22679555691E+02 -0.11542110771E+03  0.13782747546E+03  0.00000000000E+00 0.  1.
         11    1    1    2    0    0 -0.95053862367E+01  0.29971355088E+02 -0.97487538752E+02  0.10243268377E+03  0.00000000000E+00 0. -1.
<mgrwt>
<rscale>  0 0.13210554E+03</rscale>
<asrwt>0</asrwt>
<pdfrwt beam="2">  1        1 0.11676078E+00 0.13985817E+03</pdfrwt>
<pdfrwt beam="1">  1       -1 0.35171389E-02 0.13985817E+03</pdfrwt>
<totfact> 0.71921811E+03</totfact>
</mgrwt>
</event>
<event>
 6    1  0.1045058E-005  0.1414195E+03  0.7546771E-02  0.1223086E+00
          2   -1    0    0  501    0  0.00000000000E+00  0.00000000000E+00  0.67664122545E+03  0.67664122545E+03  0.00000000000E+00 0. -1.
         -2   -1    0    0    0  501 -0.00000000000E+00 -0.00000000000E+00 -0.40102526059E+02  0.40102526059E+02  0.00000000000E+00 0.  1.
          5    1    1    2  502    0  0.19853818710E+02  0.10996854355E+02  0.51488578332E+03  0.51540718348E+03  0.47000000000E+01 0.  1.
         -5    1    1    2    0  502  0.20679438426E+02  0.41275506419E+02  0.55971343583E+02  0.72706175159E+02  0.47000000000E+01 0.  1.
        -11    1    1    2    0    0 -0.20841893684E+02 -0.52317987569E+02 -0.37686662328E+01  0.56442530070E+02  0.00000000000E+00 0.  1.
         11    1    1    2    0    0 -0.19691363452E+02  0.45626793967E-01  0.69450238728E+02  0.72187862801E+02  0.00000000000E+00 0. -1.
<mgrwt>
<rscale>  0 0.13298963E+03</rscale>
<asrwt>0</asrwt>
<pdfrwt beam="1">  1        2 0.10409864E+00 0.14141946E+03</pdfrwt>
<pdfrwt beam="2">  1       -2 0.61696199E-02 0.14141946E+03</pdfrwt>
<totfact> 0.59969089E+03</totfact>
</mgrwt>
</event>
<event>
 6    1  0.1045058E-005  0.3242028E+03  0.7546771E-02  0.1073731E+00
         -2   -1    0    0    0  501 -0.00000000000E+00  0.00000000000E+00  0.13058752675E+03  0.13058752675E+03  0.00000000000E+00 0.  1.
          2   -1    0    0  501    0  0.00000000000E+00 -0.00000000000E+00 -0.20122037711E+03  0.20122037711E+03  0.00000000000E+00 0. -1.
          5    1    1    2  502    0  0.30252254313E+02 -0.47624984481E+01 -0.15466313956E+02  0.34629137296E+02  0.47000000000E+01 0.  1.
         -5    1    1    2    0  502 -0.12629739935E+03 -0.49311673554E+02 -0.70589737205E+02  0.15293029533E+03  0.47000000000E+01 0.  1.
        -11    1    1    2    0    0  0.54550406645E+02  0.68562809012E+02 -0.17483045056E+02  0.89343508490E+02  0.00000000000E+00 0. -1.
         11    1    1    2    0    0  0.41494738394E+02 -0.14488637010E+02  0.32906245858E+02  0.54904962738E+02  0.00000000000E+00 0.  1.
<mgrwt>
<rscale>  0 0.32420285E+03</rscale>
<asrwt>0</asrwt>
<pdfrwt beam="2">  1        2 0.30956981E-01 0.32420285E+03</pdfrwt>
<pdfrwt beam="1">  1       -2 0.20090389E-01 0.32420285E+03</pdfrwt>
<totfact> 0.35365749E+03</totfact>
</mgrwt>
</event>
<event>
 6    1  0.1045058E-005  0.1297179E+03  0.7546771E-02  0.1241689E+00
          1   -1    0    0  501    0  0.00000000000E+00  0.00000000000E+00  0.11521218593E+04  0.11521218593E+04  0.00000000000E+00 0.  1.
         -1   -1    0    0    0  501 -0.00000000000E+00 -0.00000000000E+00 -0.14685132635E+02  0.14685132635E+02  0.00000000000E+00 0. -1.
          5    1    1    2  502    0  0.14122529063E+02  0.44240271516E+02  0.89147712356E+03  0.89269826889E+03  0.47000000000E+01 0. -1.
         -5    1    1    2    0  502 -0.16014907076E+02 -0.96397701087E+01  0.19321222429E+02  0.27291061770E+02  0.47000000000E+01 0. -1.
        -11    1    1    2    0    0  0.34424139916E+02 -0.45218864803E+02  0.18139988716E+03  0.19009388787E+03  0.00000000000E+00 0.  1.
         11    1    1    2    0    0 -0.32531761903E+02  0.10618363396E+02  0.45238493512E+02  0.56723773402E+02  0.00000000000E+00 0. -1.
<mgrwt>
<rscale>  0 0.12085738E+03</rscale>
<asrwt>0</asrwt>
<pdfrwt beam="1">  1        1 0.17724945E+00 0.12971793E+03</pdfrwt>
<pdfrwt beam="2">  1       -1 0.22592521E-02 0.12971793E+03</pdfrwt>
<totfact> 0.68926680E+03</totfact>
</mgrwt>
</event>
<event>
 6    1  0.1045058E-005  0.1428936E+03  0.7546771E-02  0.1221653E+00
         -2   -1    0    0    0  501 -0.00000000000E+00  0.00000000000E+00  0.14273732420E+03  0.14273732420E+03  0.00000000000E+00 0.  1.
          2   -1    0    0  501    0  0.00000000000E+00 -0.00000000000E+00 -0.11337885905E+03  0.11337885905E+03  0.00000000000E+00 0. -1.
          5    1    1    2  502    0  0.40207485041E+02  0.68329908891E+02 -0.28164264701E+02  0.84267040464E+02  0.47000000000E+01 0. -1.
         -5    1    1    2    0  502 -0.48259548649E+02  0.43821110691E+00  0.33103103531E+02  0.58711851684E+02  0.47000000000E+01 0. -1.
        -11    1    1    2    0    0 -0.32824283349E+02 -0.56756643726E+02  0.25929503501E+02  0.70505952487E+02  0.00000000000E+00 0.  1.
         11    1    1    2    0    0  0.40876346957E+02 -0.12011476272E+02 -0.15098771876E+01  0.42631338613E+02  0.00000000000E+00 0. -1.
<mgrwt>
<rscale>  0 0.13398960E+03</rscale>
<asrwt>0</asrwt>
<pdfrwt beam="2">  1        2 0.17442901E-01 0.14289357E+03</pdfrwt>
<pdfrwt beam="1">  1       -2 0.21959588E-01 0.14289357E+03</pdfrwt>
<totfact> 0.55570055E+03</totfact>
</mgrwt>
</event>
<event>
 6    1  0.1045058E-005  0.1547734E+03  0.7546771E-02  0.1203345E+00
          1   -1    0    0  501    0  0.00000000000E+00  0.00000000000E+00  0.96933309661E+03  0.96933309661E+03  0.00000000000E+00 0. -1.
         -1   -1    0    0    0  501 -0.00000000000E+00 -0.00000000000E+00 -0.26361536685E+02  0.26361536685E+02  0.00000000000E+00 0.  1.
          5    1    1    2  502    0  0.64388537453E+02  0.24102888670E+02  0.15159913157E+03  0.16652693383E+03  0.47000000000E+01 0.  1.
         -5    1    1    2    0  502  0.26861023266E+02 -0.24727308384E+02  0.58499917706E+03  0.58615619208E+03  0.47000000000E+01 0.  1.
        -11    1    1    2    0    0 -0.36371395053E+02  0.31568015151E+02  0.15313181091E+03  0.16052653821E+03  0.00000000000E+00 0.  1.
         11    1    1    2    0    0 -0.54878165666E+02 -0.30943595436E+02  0.53241440389E+02  0.82484969177E+02  0.00000000000E+00 0. -1.
<mgrwt>
<rscale>  0 0.14768673E+03</rscale>
<asrwt>0</asrwt>
<pdfrwt beam="1">  1        1 0.14912814E+00 0.15477345E+03</pdfrwt>
<pdfrwt beam="2">  1       -1 0.40556218E-02 0.15477345E+03</pdfrwt>
<totfact> 0.39973595E+03</totfact>
</mgrwt>
</event>
<event>
 6    1  0.1045058E-005  0.1602157E+03  0.7546771E-02  0.1195849E+00
         -1   -1    0    0    0  501 -0.00000000000E+00  0.00000000000E+00  0.29089813644E+02  0.29089813644E+02  0.00000000000E+00 0.  1.
          1   -1    0    0  501    0  0.00000000000E+00 -0.00000000000E+00 -0.75554106558E+03  0.75554106558E+03  0.00000000000E+00 0. -1.
          5    1    1    2  502    0 -0.81318176498E+02 -0.64189461681E+02 -0.23166721195E+03  0.25382025119E+03  0.47000000000E+01 0.  1.
         -5    1    1    2    0  502 -0.18227360387E+02  0.52784355879E+02 -0.14891363652E+03  0.15910935244E+03  0.47000000000E+01 0.  1.
        -11    1    1    2    0    0  0.41340595228E+02  0.23126585216E+02 -0.46070153094E+02  0.66078307815E+02  0.00000000000E+00 0.  1.
         11    1    1    2    0    0  0.58204941657E+02 -0.11721479414E+02 -0.29980025038E+03  0.30562296779E+03  0.00000000000E+00 0. -1.
<mgrwt>
<rscale>  0 0.15382587E+03</rscale>
<asrwt>0</asrwt>
<pdfrwt beam="2">  1        1 0.11623707E+00 0.16021571E+03</pdfrwt>
<pdfrwt beam="1">  1       -1 0.44753567E-02 0.16021571E+03</pdfrwt>
<totfact> 0.51123444E+03</totfact>
</mgrwt>
</event>
<event>
 6    1  0.1045058E-005  0.3100107E+03  0.7546771E-02  0.1080341E+00
          2   -1    0    0  501    0  0.00000000000E+00  0.00000000000E+00  0.79526883132E+02  0.79526883132E+02  0.00000000000E+00 0. -1.
         -2   -1    0    0    0  501 -0.00000000000E+00 -0.00000000000E+00 -0.30211988238E+03  0.30211988238E+03  0.00000000000E+00 0.  1.
          5    1    1    2  502    0  0.73424638835E+01  0.34933728463E+01 -0.91942843638E+02  0.92421274206E+02  0.47000000000E+01 0. -1.
         -5    1    1    2    0  502 -0.79899609270E+02 -0.84094039979E+02 -0.53219979674E+02  0.12771143785E+03  0.47000000000E+01 0. -1.
        -11    1    1    2    0    0  0.42604812015E+01  0.14591614938E+02 -0.63767399396E+02  0.65554161975E+02  0.00000000000E+00 0.  1.
         11    1    1    2    0    0  0.68296664185E+02  0.66009052195E+02 -0.13662776545E+02  0.95959891483E+02  0.00000000000E+00 0. -1.
<mgrwt>
<rscale>  0 0.31001066E+03</rscale>
<asrwt>0</asrwt>
<pdfrwt beam="1">  1        2 0.12234905E-01 0.31001066E+03</pdfrwt>
<pdfrwt beam="2">  1       -2 0.46479982E-01 0.31001066E+03</pdfrwt>
<totfact> 0.22201689E+03</totfact>
</mgrwt>
</event>
<event>
 6    1  0.1045058E-005  0.1372960E+03  0.7546771E-02  0.1233878E+00
         -2   -1    0    0    0  501 -0.00000000000E+00  0.00000000000E+00  0.43047325775E+02  0.43047325775E+02  0.00000000000E+00 0.  1.
          2   -1    0    0  501    0  0.00000000000E+00 -0.00000000000E+00 -0.31831149448E+03  0.31831149448E+03  0.00000000000E+00 0. -1.
          5    1    1    2  502    0 -0.15411444172E+02  0.68628574639E+02 -0.61458477594E+02  0.93523410634E+02  0.47000000000E+01 0.  1.
         -5    1    1    2    0  502  0.55374934481E+02 -0.28281424395E+02 -0.10647907626E+03  0.12339410851E+03  0.47000000000E+01 0.  1.
        -11    1    1    2    0    0 -0.36224262475E+02  0.31982384698E+00 -0.95170689364E+02  0.10183201654E+03  0.00000000000E+00 0. -1.
         11    1    1    2    0    0 -0.37392278338E+01 -0.40666974091E+02 -0.12155925485E+02  0.42609284563E+02  0.00000000000E+00 0.  1.
<mgrwt>
<rscale>  0 0.12576554E+03</rscale>
<asrwt>0</asrwt>
<pdfrwt beam="2">  1        2 0.48971001E-01 0.13729599E+03</pdfrwt>
<pdfrwt beam="1">  1       -2 0.66226652E-02 0.13729599E+03</pdfrwt>
<totfact> 0.12292677E+04</totfact>
</mgrwt>
</event>
<event>
 6    1  0.1045058E-005  0.1402231E+03  0.7546771E-02  0.1224228E+00
          1   -1    0    0  501    0  0.00000000000E+00  0.00000000000E+00  0.12917607563E+03  0.12917607563E+03  0.00000000000E+00 0. -1.
         -1   -1    0    0    0  501 -0.00000000000E+00 -0.00000000000E+00 -0.12874793220E+03  0.12874793220E+03  0.00000000000E+00 0.  1.
          5    1    1    2  502    0 -0.59466311058E+02 -0.77321324001E+02  0.18787577421E+02  0.99447937944E+02  0.47000000000E+01 0.  1.
         -5    1    1    2    0  502  0.38531300763E+02  0.17322912723E+02  0.10930425237E+02  0.43889732736E+02  0.47000000000E+01 0.  1.
        -11    1    1    2    0    0 -0.32971554549E+02  0.43895876963E+01 -0.69563990535E+01  0.33982103780E+02  0.00000000000E+00 0.  1.
         11    1    1    2    0    0  0.53906564844E+02  0.55608823581E+02 -0.22333460172E+02  0.80604233366E+02  0.00000000000E+00 0. -1.
<mgrwt>
<rscale>  0 0.13219949E+03</rscale>
<asrwt>0</asrwt>
<pdfrwt beam="1">  1        1 0.19873242E-01 0.14022314E+03</pdfrwt>
<pdfrwt beam="2">  1       -1 0.19807374E-01 0.14022314E+03</pdfrwt>
<totfact> 0.50465346E+03</totfact>
</mgrwt>
</event>
<event>
 6    1  0.1045058E-005  0.1272683E+03  0.7546771E-02  0.1248394E+00
          2   -1    0    0  501    0  0.00000000000E+00  0.00000000000E+00  0.10397199381E+04  0.10397199381E+04  0.00000000000E+00 0. -1.
         -2   -1    0    0    0  501 -0.00000000000E+00 -0.00000000000E+00 -0.13140804819E+02  0.13140804819E+02  0.00000000000E+00 0.  1.
          5    1    1    2  502    0 -0.20909445143E+01 -0.13578114109E+02  0.71581680930E+03  0.71596405756E+03  0.47000000000E+01 0. -1.
         -5    1    1    2    0  502 -0.51892500399E+01  0.36395373909E+02  0.62291280744E+02  0.72483413376E+02  0.47000000000E+01 0. -1.
        -11    1    1    2    0    0  0.35722123405E+02 -0.29941754007E+02  0.73718942515E+02  0.87218468337E+02  0.00000000000E+00 0.  1.
         11    1    1    2    0    0 -0.28441928851E+02  0.71244942074E+01  0.17475210076E+03  0.17719480369E+03  0.00000000000E+00 0. -1.
<mgrwt>
<rscale>  0 0.11684528E+03</rscale>
<asrwt>0</asrwt>
<pdfrwt beam="1">  1        2 0.15995685E+00 0.12726828E+03</pdfrwt>
<pdfrwt beam="2">  1       -2 0.20216631E-02 0.12726828E+03</pdfrwt>
<totfact> 0.17980200E+04</totfact>
</mgrwt>
</event>
<event>
 6    1  0.1045058E-005  0.3224355E+03  0.7546771E-02  0.1083046E+00
          2   -1    0    0  501    0  0.00000000000E+00  0.00000000000E+00  0.83393783978E+03  0.83393783978E+03  0.00000000000E+00 0. -1.
         -2   -1    0    0    0  501 -0.00000000000E+00 -0.00000000000E+00 -0.16154259295E+03  0.16154259295E+03  0.00000000000E+00 0.  1.
          5    1    1    2  502    0 -0.89538930294E+02 -0.11683237904E+03  0.61775556349E+03  0.63506775312E+03  0.47000000000E+01 0. -1.
         -5    1    1    2    0  502 -0.44798339866E+02 -0.80997351677E+02  0.47352655868E+02  0.10407605993E+03  0.47000000000E+01 0.  1.
        -11    1    1    2    0    0  0.14495543397E+03  0.17792692926E+03 -0.70502957084E+01  0.22960787587E+03  0.00000000000E+00 0.  1.
         11    1    1    2    0    0 -0.10618163815E+02  0.19902801465E+02  0.14337323181E+02  0.26728743796E+02  0.00000000000E+00 0. -1.
<mgrwt>
<rscale>  0 0.30443241E+03</rscale>
<asrwt>0</asrwt>
<pdfrwt beam="1">  1        2 0.12829813E+00 0.32243547E+03</pdfrwt>
<pdfrwt beam="2">  1       -2 0.24852707E-01 0.32243547E+03</pdfrwt>
<totfact> 0.48391167E+02</totfact>
</mgrwt>
</event>
<event>
 6    1  0.1045058E-005  0.1681120E+03  0.7546771E-02  0.1186408E+00
         -1   -1    0    0    0  501 -0.00000000000E+00  0.00000000000E+00  0.55370926102E+02  0.55370926102E+02  0.00000000000E+00 0.  1.
          1   -1    0    0  501    0  0.00000000000E+00 -0.00000000000E+00 -0.69659607955E+03  0.69659607955E+03  0.00000000000E+00 0. -1.
          5    1    1    2  502    0 -0.32581595206E+02  0.68797121321E+02 -0.11648116496E+03  0.13922843114E+03  0.47000000000E+01 0.  1.
         -5    1    1    2    0  502  0.48476360556E+01  0.40147139023E+02 -0.44556451752E+03  0.44742051989E+03  0.47000000000E+01 0.  1.
        -11    1    1    2    0    0  0.38223473570E+02 -0.28629582290E+01 -0.17222999883E+02  0.42022163040E+02  0.00000000000E+00 0.  1.
         11    1    1    2    0    0 -0.10489514421E+02 -0.10608130212E+03 -0.61956471091E+02  0.12329589158E+03  0.00000000000E+00 0. -1.
<mgrwt>
<rscale>  0 0.16204404E+03</rscale>
<asrwt>0</asrwt>
<pdfrwt beam="2">  1        1 0.10716863E+00 0.16811199E+03</pdfrwt>
<pdfrwt beam="1">  1       -1 0.85186034E-02 0.16811199E+03</pdfrwt>
<totfact> 0.21960423E+03</totfact>
</mgrwt>
</event>
<event>
 6    1  0.1045058E-005  0.1758933E+03  0.7546771E-02  0.1178026E+00
          1   -1    0    0  501    0  0.00000000000E+00  0.00000000000E+00  0.80902358603E+03  0.80902358603E+03  0.00000000000E+00 0. -1.
         -1   -1    0    0    0  501 -0.00000000000E+00 -0.00000000000E+00 -0.33714975443E+02  0.33714975443E+02  0.00000000000E+00 0.  1.
          5    1    1    2  502    0  0.16377407946E+02  0.68284869278E+01 -0.15928364329E+01  0.18424843355E+02  0.47000000000E+01 0.  1.
         -5    1    1    2    0  502  0.59033985495E+02  0.91286190938E+02  0.45685413140E+03  0.46963386535E+03  0.47000000000E+01 0.  1.
        -11    1    1    2    0    0 -0.44253533503E+01  0.16256747683E+02  0.53181796411E+02  0.55786818040E+02  0.00000000000E+00 0. -1.
         11    1    1    2    0    0 -0.70986040091E+02 -0.11437142555E+03  0.26686551920E+03  0.29889303473E+03  0.00000000000E+00 0.  1.
<mgrwt>
<rscale>  0 0.16982967E+03</rscale>
<asrwt>0</asrwt>
<pdfrwt beam="1">  1        1 0.12446515E+00 0.17589331E+03</pdfrwt>
<pdfrwt beam="2">  1       -1 0.51869199E-02 0.17589331E+03</pdfrwt>
<totfact> 0.37173666E+03</totfact>
</mgrwt>
</event>
<event>
 6    1  0.1045058E-005  0.1507023E+03  0.7546771E-02  0.1205407E+00
         -2   -1    0    0    0  501 -0.00000000000E+00  0.00000000000E+00  0.19671183264E+02  0.19671183264E+02  0.00000000000E+00 0.  1.
          2   -1    0    0  501    0  0.00000000000E+00 -0.00000000000E+00 -0.10717013654E+04  0.10717013654E+04  0.00000000000E+00 0. -1.
          5    1    1    2  502    0 -0.11153731893E+02 -0.66289930578E+02 -0.18355046634E+03  0.19552908818E+03  0.47000000000E+01 0. -1.
         -5    1    1    2    0  502 -0.62578674774E+02  0.25650534849E+02 -0.49048458984E+03  0.49514771871E+03  0.47000000000E+01 0. -1.
        -11    1    1    2    0    0  0.67397713822E+02 -0.32275166030E+01 -0.10989360502E+03  0.12895531442E+03  0.00000000000E+00 0.  1.
         11    1    1    2    0    0  0.63346928454E+01  0.43866912331E+02 -0.26810152090E+03  0.27174042732E+03  0.00000000000E+00 0. -1.
<mgrwt>
<rscale>  0 0.14605463E+03</rscale>
<asrwt>0</asrwt>
<pdfrwt beam="2">  1        2 0.16487714E+00 0.15070234E+03</pdfrwt>
<pdfrwt beam="1">  1       -2 0.30263358E-02 0.15070234E+03</pdfrwt>
<totfact> 0.96494066E+03</totfact>
</mgrwt>
</event>
<event>
 6    1  0.1045058E-005  0.2152838E+03  0.7546771E-02  0.1142065E+00
         -2   -1    0    0    0  501 -0.00000000000E+00  0.00000000000E+00  0.97063991811E+03  0.97063991811E+03  0.00000000000E+00 0.  1.
          2   -1    0    0  501    0  0.00000000000E+00 -0.00000000000E+00 -0.60133194848E+02  0.60133194848E+02  0.00000000000E+00 0. -1.
          5    1    1    2  502    0 -0.20349601670E+02 -0.26703236716E+02  0.30504585600E+01  0.34037691413E+02  0.47000000000E+01 0. -1.
         -5    1    1    2    0  502 -0.12776245714E+03  0.11169575481E+03  0.19423917038E+03  0.25797312342E+03  0.47000000000E+01 0.  1.
        -11    1    1    2    0    0  0.13938394030E+03 -0.49740758919E+02  0.64179973351E+03  0.65864172647E+03  0.00000000000E+00 0. -1.
         11    1    1    2    0    0  0.87281185109E+01 -0.35251759177E+02  0.71417360817E+02  0.80120571664E+02  0.00000000000E+00 0.  1.
<mgrwt>
<rscale>  0 0.20937135E+03</rscale>
<asrwt>0</asrwt>
<pdfrwt beam="2">  1        2 0.92512614E-02 0.21528381E+03</pdfrwt>
<pdfrwt beam="1">  1       -2 0.14932921E+00 0.21528381E+03</pdfrwt>
<totfact> 0.22667593E+02</totfact>
</mgrwt>
</event>
<event>
 6    1  0.1045058E-005  0.2800863E+03  0.7546771E-02  0.1097650E+00
          2   -1    0    0  501    0  0.00000000000E+00  0.00000000000E+00  0.40274884140E+04  0.40274884140E+04  0.00000000000E+00 0. -1.
         -2   -1    0    0    0  501 -0.00000000000E+00 -0.00000000000E+00 -0.24729918060E+02  0.24729918060E+02  0.00000000000E+00 0.  1.
          5    1    1    2  502    0 -0.14798467295E+03  0.19748083820E+03  0.30216717057E+04  0.30317354983E+04  0.47000000000E+01 0. -1.
         -5    1    1    2    0  502 -0.12544982788E+02 -0.49915597514E+01  0.35958564172E+02  0.38696260791E+02  0.47000000000E+01 0. -1.
        -11    1    1    2    0    0  0.78888083638E+02 -0.14247998721E+03  0.69830680466E+03  0.71704690916E+03  0.00000000000E+00 0.  1.
         11    1    1    2    0    0  0.81641572100E+02 -0.50009291240E+02  0.24682142136E+03  0.26473966372E+03  0.00000000000E+00 0. -1.
<mgrwt>
<rscale>  0 0.27643835E+03</rscale>
<asrwt>0</asrwt>
<pdfrwt beam="1">  1        2 0.61961308E+00 0.28008627E+03</pdfrwt>
<pdfrwt beam="2">  1       -2 0.38046060E-02 0.28008627E+03</pdfrwt>
<totfact> 0.12586156E+02</totfact>
</mgrwt>
</event>
<event>
 6    1  0.1045058E-005  0.1339885E+03  0.7546771E-02  0.1233804E+00
         -2   -1    0    0    0  501 -0.00000000000E+00  0.00000000000E+00  0.29080613170E+02  0.29080613170E+02  0.00000000000E+00 0.  1.
          2   -1    0    0  501    0  0.00000000000E+00 -0.00000000000E+00 -0.48769472561E+03  0.48769472561E+03  0.00000000000E+00 0. -1.
          5    1    1    2  502    0  0.23892069666E+02  0.34049794889E+02 -0.20963320149E+02  0.46816346681E+02  0.47000000000E+01 0. -1.
         -5    1    1    2    0  502 -0.55702882472E+02  0.23303886555E+01 -0.24118265884E+03  0.24758717000E+03  0.47000000000E+01 0. -1.
        -11    1    1    2    0    0 -0.57125452468E+01 -0.43796685505E+02 -0.34770420066E+02  0.56211786540E+02  0.00000000000E+00 0.  1.
         11    1    1    2    0    0  0.37523358053E+02  0.74165019604E+01 -0.16169771339E+03  0.16616003556E+03  0.00000000000E+00 0. -1.
<mgrwt>
<rscale>  0 0.12581338E+03</rscale>
<asrwt>0</asrwt>
<pdfrwt beam="2">  1        2 0.75029960E-01 0.13398849E+03</pdfrwt>
<pdfrwt beam="1">  1       -2 0.44739404E-02 0.13398849E+03</pdfrwt>
<totfact> 0.14038717E+04</totfact>
</mgrwt>
</event>
<event>
 6    1  0.1045058E-005  0.1263657E+03  0.7546771E-02  0.1248087E+00
          2   -1    0    0  501    0  0.00000000000E+00  0.00000000000E+00  0.60443957924E+03  0.60443957924E+03  0.00000000000E+00 0. -1.
         -2   -1    0    0    0  501 -0.00000000000E+00 -0.00000000000E+00 -0.23035462656E+02  0.23035462656E+02  0.00000000000E+00 0.  1.
          5    1    1    2  502    0  0.37880420264E+01 -0.70364336619E+02  0.20605084374E+03  0.21781765157E+03  0.47000000000E+01 0.  1.
         -5    1    1    2    0  502  0.24231134817E+01  0.52915734299E+02  0.23761473694E+03  0.24349291494E+03  0.47000000000E+01 0.  1.
        -11    1    1    2    0    0 -0.35976988896E+02  0.12412272179E+02  0.12934882916E+03  0.13483147939E+03  0.00000000000E+00 0. -1.
         11    1    1    2    0    0  0.29765833388E+02  0.50363301417E+01  0.83897067467E+01  0.31332995992E+02  0.00000000000E+00 0.  1.
<mgrwt>
<rscale>  0 0.11702486E+03</rscale>
<asrwt>0</asrwt>
<pdfrwt beam="1">  1        2 0.92990693E-01 0.12636570E+03</pdfrwt>
<pdfrwt beam="2">  1       -2 0.35439178E-02 0.12636570E+03</pdfrwt>
<totfact> 0.15552178E+04</totfact>
</mgrwt>
</event>
<event>
 6    1  0.1045058E-005  0.3562437E+03  0.7546771E-02  0.1061093E+00
         -1   -1    0    0    0  501 -0.00000000000E+00  0.00000000000E+00  0.31079293870E+03  0.31079293870E+03  0.00000000000E+00 0.  1.
          1   -1    0    0  501    0  0.00000000000E+00 -0.00000000000E+00 -0.56960012494E+03  0.56960012494E+03  0.00000000000E+00 0. -1.
          5    1    1    2  502    0 -0.22816783437E+02 -0.20638534255E+02 -0.71101301232E+02  0.77614687654E+02  0.47000000000E+01 0. -1.
         -5    1    1    2    0  502 -0.30070881385E+03  0.10200446933E+03 -0.30185304070E+03  0.43814158747E+03  0.47000000000E+01 0. -1.
        -11    1    1    2    0    0  0.11872781928E+03 -0.59237067440E+02  0.82468173316E+02  0.15622523753E+03  0.00000000000E+00 0.  1.
         11    1    1    2    0    0  0.20479777801E+03 -0.22128867633E+02  0.31678982382E+02  0.20841155099E+03  0.00000000000E+00 0. -1.
<mgrwt>
<rscale>  0 0.35373382E+03</rscale>
<asrwt>0</asrwt>
<pdfrwt beam="2">  1        1 0.87630787E-01 0.35624373E+03</pdfrwt>
<pdfrwt beam="1">  1       -1 0.47814299E-01 0.35624373E+03</pdfrwt>
<totfact> 0.16876412E+02</totfact>
</mgrwt>
</event>
<event>
 6    1  0.1045058E-005  0.1327715E+03  0.7546771E-02  0.1236279E+00
         -2   -1    0    0    0  501 -0.00000000000E+00  0.00000000000E+00  0.29487981165E+02  0.29487981165E+02  0.00000000000E+00 0.  1.
          2   -1    0    0  501    0  0.00000000000E+00 -0.00000000000E+00 -0.49768215884E+03  0.49768215884E+03  0.00000000000E+00 0. -1.
          5    1    1    2  502    0 -0.71280157143E+02  0.50027797029E+02 -0.18425877041E+03  0.20385540403E+03  0.47000000000E+01 0.  1.
         -5    1    1    2    0  502  0.33207454412E+02 -0.26578095115E+02 -0.14444475196E+03  0.15065027891E+03  0.47000000000E+01 0.  1.
        -11    1    1    2    0    0  0.27154903184E+02 -0.39895721802E+02 -0.21154543152E+02  0.52693188184E+02  0.00000000000E+00 0.  1.
         11    1    1    2    0    0  0.10917799548E+02  0.16446019889E+02 -0.11833611215E+03  0.11997126888E+03  0.00000000000E+00 0. -1.
<mgrwt>
<rscale>  0 0.12422940E+03</rscale>
<asrwt>0</asrwt>
<pdfrwt beam="2">  1        2 0.76566480E-01 0.13277151E+03</pdfrwt>
<pdfrwt beam="1">  1       -2 0.45366128E-02 0.13277151E+03</pdfrwt>
<totfact> 0.13438942E+04</totfact>
</mgrwt>
</event>
<event>
 6    1  0.1045058E-005  0.1272071E+03  0.7546771E-02  0.1250539E+00
         -2   -1    0    0    0  501 -0.00000000000E+00  0.00000000000E+00  0.68954623392E+02  0.68954623392E+02  0.00000000000E+00 0.  1.
          2   -1    0    0  501    0  0.00000000000E+00 -0.00000000000E+00 -0.16698912875E+03  0.16698912875E+03  0.00000000000E+00 0. -1.
          5    1    1    2  502    0 -0.27573208773E+02  0.23337806499E+02 -0.65601335798E+02  0.75037059595E+02  0.47000000000E+01 0.  1.
         -5    1    1    2    0  502  0.49521614369E+02 -0.31946838500E+02  0.16402926494E+02  0.61352561295E+02  0.47000000000E+01 0.  1.
        -11    1    1    2    0    0 -0.34519487846E+02  0.37618967607E+02 -0.14931056702E+02  0.53195095820E+02  0.00000000000E+00 0. -1.
         11    1    1    2    0    0  0.12571082251E+02 -0.29009935606E+02 -0.33905039354E+02  0.46359035435E+02  0.00000000000E+00 0.  1.
<mgrwt>
<rscale>  0 0.11559910E+03</rscale>
<asrwt>0</asrwt>
<pdfrwt beam="2">  1        2 0.25690635E-01 0.12720710E+03</pdfrwt>
<pdfrwt beam="1">  1       -2 0.10608404E-01 0.12720710E+03</pdfrwt>
<totfact> 0.11755894E+04</totfact>
</mgrwt>
</event>
<event>
 6    1  0.1045058E-005  0.3233170E+03  0.7546771E-02  0.1074133E+00
         -2   -1    0    0    0  501 -0.00000000000E+00  0.00000000000E+00  0.71461309916E+02  0.71461309916E+02  0.00000000000E+00 0.  1.
          2   -1    0    0  501    0  0.00000000000E+00 -0.00000000000E+00 -0.36570101015E+03  0.36570101015E+03  0.00000000000E+00 0. -1.
          5    1    1    2  502    0 -0.98975293971E+02 -0.14171094453E+02 -0.40525264102E+02  0.10798757227E+03  0.47000000000E+01 0.  1.
         -5    1    1    2    0  502 -0.18246887923E+02  0.59299036072E+01 -0.13877538276E+03  0.14017421138E+03  0.47000000000E+01 0.  1.
        -11    1    1    2    0    0  0.38120527457E+02 -0.32225094044E+02 -0.89783650400E+01  0.50717278500E+02  0.00000000000E+00 0. -1.
         11    1    1    2    0    0  0.79101654437E+02  0.40466284890E+02 -0.10596068833E+03  0.13828325791E+03  0.00000000000E+00 0.  1.
<mgrwt>
<rscale>  0 0.32331702E+03</rscale>
<asrwt>0</asrwt>
<pdfrwt beam="2">  1        2 0.56261694E-01 0.32331702E+03</pdfrwt>
<pdfrwt beam="1">  1       -2 0.10994048E-01 0.32331702E+03</pdfrwt>
<totfact> 0.50229710E+03</totfact>
</mgrwt>
</event>
<event>
 6    1  0.1045058E-005  0.1432838E+03  0.7546771E-02  0.1217019E+00
          1   -1    0    0  501    0  0.00000000000E+00  0.00000000000E+00  0.10835032418E+04  0.10835032418E+04  0.00000000000E+00 0. -1.
         -1   -1    0    0    0  501 -0.00000000000E+00 -0.00000000000E+00 -0.45051769986E+02  0.45051769986E+02  0.00000000000E+00 0.  1.
          5    1    1    2  502    0  0.27144419340E+01  0.65770946291E+02  0.83663286834E+03  0.83923169146E+03  0.47000000000E+01 0. -1.
         -5    1    1    2    0  502  0.48203520139E+02 -0.65346917843E+01  0.15024267424E+03  0.15799124252E+03  0.47000000000E+01 0.  1.
        -11    1    1    2    0    0 -0.35308175581E+02 -0.58757133970E+02 -0.86691231224E+01  0.69095743363E+02  0.00000000000E+00 0.  1.
         11    1    1    2    0    0 -0.15609786492E+02 -0.47912053686E+00  0.60245052358E+02  0.62236334439E+02  0.00000000000E+00 0. -1.
<mgrwt>
<rscale>  0 0.13729269E+03</rscale>
<asrwt>0</asrwt>
<pdfrwt beam="1">  1        1 0.16669279E+00 0.14328379E+03</pdfrwt>
<pdfrwt beam="2">  1       -1 0.69310423E-02 0.14328379E+03</pdfrwt>
<totfact> 0.14865724E+03</totfact>
</mgrwt>
</event>
<event>
 6    1  0.1045058E-005  0.3878008E+03  0.7546771E-02  0.1048088E+00
         -2   -1    0    0    0  501 -0.00000000000E+00  0.00000000000E+00  0.16536305122E+02  0.16536305122E+02  0.00000000000E+00 0. -1.
          2   -1    0    0  501    0  0.00000000000E+00 -0.00000000000E+00 -0.22736249744E+04  0.22736249744E+04  0.00000000000E+00 0.  1.
          5    1    1    2  502    0 -0.12737935967E+03  0.22006311168E+02 -0.17669364935E+04  0.17716648783E+04  0.47000000000E+01 0. -1.
         -5    1    1    2    0  502  0.22414832582E+02 -0.77937467110E+01 -0.12273943698E+03  0.12510086570E+03  0.47000000000E+01 0. -1.
        -11    1    1    2    0    0  0.36628808424E+02 -0.32598278765E+02 -0.57791892690E+02  0.75790634288E+02  0.00000000000E+00 0. -1.
         11    1    1    2    0    0  0.68335718665E+02  0.18385714308E+02 -0.30962084611E+03  0.31760490123E+03  0.00000000000E+00 0.  1.
<mgrwt>
<rscale>  0 0.38780075E+03</rscale>
<asrwt>0</asrwt>
<pdfrwt beam="2">  1        2 0.34978843E+00 0.38780075E+03</pdfrwt>
<pdfrwt beam="1">  1       -2 0.25440471E-02 0.38780075E+03</pdfrwt>
<totfact> 0.28610796E+03</totfact>
</mgrwt>
</event>
<event>
 6    1  0.1045058E-005  0.1274611E+03  0.7546771E-02  0.1247904E+00
         -2   -1    0    0    0  501 -0.00000000000E+00  0.00000000000E+00  0.11461217782E+03  0.11461217782E+03  0.00000000000E+00 0.  1.
          2   -1    0    0  501    0  0.00000000000E+00 -0.00000000000E+00 -0.11431271251E+03  0.11431271251E+03  0.00000000000E+00 0. -1.
          5    1    1    2  502    0 -0.33246532836E+02  0.66490305832E+02 -0.17979756325E+02  0.76626720880E+02  0.47000000000E+01 0. -1.
         -5    1    1    2    0  502  0.32417441453E+02 -0.41573248482E+02 -0.15771836597E+02  0.55227405600E+02  0.47000000000E+01 0. -1.
        -11    1    1    2    0    0 -0.12879399955E+02 -0.25210319093E+01 -0.27325193122E+02  0.30313375336E+02  0.00000000000E+00 0. -1.
         11    1    1    2    0    0  0.13708491339E+02 -0.22396025441E+02  0.61376251361E+02  0.66757388516E+02  0.00000000000E+00 0.  1.
<mgrwt>
<rscale>  0 0.11713246E+03</rscale>
<asrwt>0</asrwt>
<pdfrwt beam="2">  1        2 0.17586571E-01 0.12746113E+03</pdfrwt>
<pdfrwt beam="1">  1       -2 0.17632643E-01 0.12746113E+03</pdfrwt>
<totfact> 0.79089126E+03</totfact>
</mgrwt>
</event>
<event>
 6    1  0.1045058E-005  0.1457217E+03  0.7546771E-02  0.1216406E+00
          2   -1    0    0  501    0  0.00000000000E+00  0.00000000000E+00  0.11726913103E+03  0.11726913103E+03  0.00000000000E+00 0. -1.
         -2   -1    0    0    0  501 -0.00000000000E+00 -0.00000000000E+00 -0.14759265330E+03  0.14759265330E+03  0.00000000000E+00 0.  1.
          5    1    1    2  502    0 -0.50530329418E+01 -0.43378764771E+02  0.98504186129E+01  0.45015232109E+02  0.47000000000E+01 0. -1.
         -5    1    1    2    0  502 -0.60968489657E+02  0.78746532907E+02 -0.14774655616E+02  0.10078965038E+03  0.47000000000E+01 0. -1.
        -11    1    1    2    0    0  0.55287755814E+02 -0.13246381652E+02  0.25668201564E+02  0.62378354750E+02  0.00000000000E+00 0. -1.
         11    1    1    2    0    0  0.10733766785E+02 -0.22121386484E+02 -0.51067486828E+02  0.56678547091E+02  0.00000000000E+00 0.  1.
<mgrwt>
<rscale>  0 0.13773778E+03</rscale>
<asrwt>0</asrwt>
<pdfrwt beam="1">  1        2 0.18041405E-01 0.14572171E+03</pdfrwt>
<pdfrwt beam="2">  1       -2 0.22706562E-01 0.14572171E+03</pdfrwt>
<totfact> 0.50531414E+03</totfact>
</mgrwt>
</event>
<event>
 6    1  0.1045058E-005  0.1326836E+03  0.7546771E-02  0.1241131E+00
         -1   -1    0    0    0  501 -0.00000000000E+00  0.00000000000E+00  0.19374697532E+03  0.19374697532E+03  0.00000000000E+00 0.  1.
          1   -1    0    0  501    0  0.00000000000E+00 -0.00000000000E+00 -0.66924977222E+02  0.66924977222E+02  0.00000000000E+00 0. -1.
          5    1    1    2  502    0 -0.63823817514E+02  0.42241889665E+02  0.94860172521E+00  0.76686679220E+02  0.47000000000E+01 0. -1.
         -5    1    1    2    0  502  0.20127652026E+02 -0.33764742352E+02  0.53923816555E+02  0.66895801020E+02  0.47000000000E+01 0. -1.
        -11    1    1    2    0    0  0.62354499813E+02  0.54168470791E+01  0.30655511185E+02  0.69693516522E+02  0.00000000000E+00 0. -1.
         11    1    1    2    0    0 -0.18658334326E+02 -0.13893994392E+02  0.41294068629E+02  0.47395955776E+02  0.00000000000E+00 0.  1.
<mgrwt>
<rscale>  0 0.12119983E+03</rscale>
<asrwt>0</asrwt>
<pdfrwt beam="2">  1        1 0.10296150E-01 0.13268363E+03</pdfrwt>
<pdfrwt beam="1">  1       -1 0.29807227E-01 0.13268363E+03</pdfrwt>
<totfact> 0.60432896E+03</totfact>
</mgrwt>
</event>
<event>
 6    1  0.1045058E-005  0.1342605E+03  0.7546771E-02  0.1232534E+00
         -1   -1    0    0    0  501 -0.00000000000E+00  0.00000000000E+00  0.29189184521E+02  0.29189184521E+02  0.00000000000E+00 0.  1.
          1   -1    0    0  501    0  0.00000000000E+00 -0.00000000000E+00 -0.78680716335E+03  0.78680716335E+03  0.00000000000E+00 0. -1.
          5    1    1    2  502    0 -0.77503462335E+02  0.72497774326E+01 -0.60723664738E+03  0.61222363713E+03  0.47000000000E+01 0. -1.
         -5    1    1    2    0  502  0.29273503200E+02  0.12737101150E+01 -0.46537095766E+02  0.55193764226E+02  0.47000000000E+01 0. -1.
        -11    1    1    2    0    0 -0.22977401084E+02 -0.15197607652E+02 -0.56356833279E+02  0.62729744908E+02  0.00000000000E+00 0.  1.
         11    1    1    2    0    0  0.71207360220E+02  0.66741201046E+01 -0.47487402406E+02  0.85849201603E+02  0.00000000000E+00 0. -1.
<mgrwt>
<rscale>  0 0.12663621E+03</rscale>
<asrwt>0</asrwt>
<pdfrwt beam="2">  1        1 0.12104725E+00 0.13426049E+03</pdfrwt>
<pdfrwt beam="1">  1       -1 0.44906441E-02 0.13426049E+03</pdfrwt>
<totfact> 0.47525706E+03</totfact>
</mgrwt>
</event>
<event>
 6    1  0.1045058E-005  0.2942132E+03  0.7546771E-02  0.1088170E+00
         -1   -1    0    0    0  501 -0.00000000000E+00  0.00000000000E+00  0.38954200232E+03  0.38954200232E+03  0.00000000000E+00 0. -1.
          1   -1    0    0  501    0  0.00000000000E+00 -0.00000000000E+00 -0.55553310802E+02  0.55553310802E+02  0.00000000000E+00 0.  1.
          5    1    1    2  502    0  0.56732269498E+02 -0.11262605079E+03  0.12316550847E+03  0.17633777303E+03  0.47000000000E+01 0.  1.
         -5    1    1    2    0  502  0.12007995706E+00  0.31144138139E+02  0.51013101748E+02  0.59953301073E+02  0.47000000000E+01 0.  1.
        -11    1    1    2    0    0 -0.29658983668E+02  0.47541405847E+02  0.15527682358E+03  0.16507795893E+03  0.00000000000E+00 0. -1.
         11    1    1    2    0    0 -0.27193365786E+02  0.33940506803E+02  0.45332577089E+01  0.43726280088E+02  0.00000000000E+00 0.  1.
<mgrwt>
<rscale>  0 0.29421317E+03</rscale>
<asrwt>0</asrwt>
<pdfrwt beam="2">  1        1 0.85466635E-02 0.29421317E+03</pdfrwt>
<pdfrwt beam="1">  1       -1 0.59929537E-01 0.29421317E+03</pdfrwt>
<totfact> 0.23127351E+03</totfact>
</mgrwt>
</event>
<event>
 6    1  0.1045058E-005  0.1750072E+03  0.7546771E-02  0.1179132E+00
         -2   -1    0    0    0  501 -0.00000000000E+00  0.00000000000E+00  0.37026429490E+02  0.37026429490E+02  0.00000000000E+00 0. -1.
          2   -1    0    0  501    0  0.00000000000E+00 -0.00000000000E+00 -0.10646081125E+04  0.10646081125E+04  0.00000000000E+00 0.  1.
          5    1    1    2  502    0 -0.45069435436E+02 -0.27359998835E+02 -0.61545054749E+03  0.61772266427E+03  0.47000000000E+01 0. -1.
         -5    1    1    2    0  502 -0.76649034740E+02  0.41060671285E+02 -0.23663371167E+03  0.25214808496E+03  0.47000000000E+01 0. -1.
        -11    1    1    2    0    0  0.33016689178E+02 -0.36690881376E+02 -0.24420686108E+02  0.55069886966E+02  0.00000000000E+00 0. -1.
         11    1    1    2    0    0  0.88701780997E+02  0.22990208926E+02 -0.15107673778E+03  0.17669390583E+03  0.00000000000E+00 0.  1.
<mgrwt>
<rscale>  0 0.16877467E+03</rscale>
<asrwt>0</asrwt>
<pdfrwt beam="2">  1        2 0.16378585E+00 0.17500724E+03</pdfrwt>
<pdfrwt beam="1">  1       -2 0.56963743E-02 0.17500724E+03</pdfrwt>
<totfact> 0.38030978E+03</totfact>
</mgrwt>
</event>
<event>
 6    1  0.1045058E-005  0.4326266E+03  0.7546771E-02  0.1033033E+00
         -4   -1    0    0    0  501 -0.00000000000E+00  0.00000000000E+00  0.94197048478E+03  0.94197048478E+03  0.00000000000E+00 0.  1.
          4   -1    0    0  501    0  0.00000000000E+00 -0.00000000000E+00 -0.49673992455E+02  0.49673992455E+02  0.00000000000E+00 0. -1.
          5    1    1    2  502    0  0.28968291174E+02 -0.32151772964E+02  0.19227670287E+03  0.19714288946E+03  0.47000000000E+01 0. -1.
         -5    1    1    2    0  502  0.15256937744E+03  0.95337955417E+01  0.18122654070E+03  0.23713594675E+03  0.47000000000E+01 0. -1.
        -11    1    1    2    0    0 -0.65105604882E+02  0.66475020758E+01  0.31837739568E+03  0.32503399076E+03  0.00000000000E+00 0. -1.
         11    1    1    2    0    0 -0.11643206373E+03  0.15970475346E+02  0.20041585307E+03  0.23233165026E+03  0.00000000000E+00 0.  1.
<mgrwt>
<rscale>  0 0.43262656E+03</rscale>
<asrwt>0</asrwt>
<pdfrwt beam="2">  1        4 0.76421534E-02 0.43262656E+03</pdfrwt>
<pdfrwt beam="1">  1       -4 0.14491852E+00 0.43262656E+03</pdfrwt>
<totfact> 0.79520779E+01</totfact>
</mgrwt>
</event>
<event>
 6    1  0.1045058E-005  0.1267012E+03  0.7546771E-02  0.1247444E+00
         -2   -1    0    0    0  501 -0.00000000000E+00  0.00000000000E+00  0.46896244036E+02  0.46896244036E+02  0.00000000000E+00 0.  1.
          2   -1    0    0  501    0  0.00000000000E+00 -0.00000000000E+00 -0.34057065728E+03  0.34057065728E+03  0.00000000000E+00 0. -1.
          5    1    1    2  502    0  0.57598961766E+02 -0.18843596372E+02 -0.22757198169E+03  0.23555003369E+03  0.47000000000E+01 0. -1.
         -5    1    1    2    0  502 -0.41353322234E+02  0.60437453328E+01 -0.30515866713E+02  0.51960872189E+02  0.47000000000E+01 0. -1.
        -11    1    1    2    0    0  0.21123976253E+02 -0.25264906466E+02 -0.32893106713E+02  0.46545615698E+02  0.00000000000E+00 0. -1.
         11    1    1    2    0    0 -0.37369615785E+02  0.38064757505E+02 -0.26934581350E+01  0.53410379746E+02  0.00000000000E+00 0.  1.
<mgrwt>
<rscale>  0 0.11740318E+03</rscale>
<asrwt>0</asrwt>
<pdfrwt beam="2">  1        2 0.52395485E-01 0.12670116E+03</pdfrwt>
<pdfrwt beam="1">  1       -2 0.72148068E-02 0.12670116E+03</pdfrwt>
<totfact> 0.99773868E+03</totfact>
</mgrwt>
</event>
<event>
 6    1  0.1045058E-005  0.2095715E+03  0.7546771E-02  0.1164470E+00
          1   -1    0    0  501    0  0.00000000000E+00  0.00000000000E+00  0.49352616452E+02  0.49352616452E+02  0.00000000000E+00 0. -1.
         -1   -1    0    0    0  501 -0.00000000000E+00 -0.00000000000E+00 -0.56163380067E+03  0.56163380067E+03  0.00000000000E+00 0.  1.
          5    1    1    2  502    0  0.83305954299E+00  0.13956217015E+03 -0.28635139835E+03  0.31858673334E+03  0.47000000000E+01 0. -1.
         -5    1    1    2    0  502  0.10195988489E+02 -0.57793374333E+02 -0.47748662689E+02  0.75802751181E+02  0.47000000000E+01 0.  1.
        -11    1    1    2    0    0 -0.15426195907E+01 -0.96306044574E+02 -0.17378239701E+03  0.19868959562E+03  0.00000000000E+00 0.  1.
         11    1    1    2    0    0 -0.94864284415E+01  0.14537248756E+02 -0.43987261773E+01  0.17907336987E+02  0.00000000000E+00 0. -1.
<mgrwt>
<rscale>  0 0.18348774E+03</rscale>
<asrwt>0</asrwt>
<pdfrwt beam="1">  1        1 0.75927095E-02 0.20957150E+03</pdfrwt>
<pdfrwt beam="2">  1       -1 0.86405208E-01 0.20957150E+03</pdfrwt>
<totfact> 0.12856727E+03</totfact>
</mgrwt>
</event>
<event>
 6    1  0.1045058E-005  0.1346631E+03  0.7546771E-02  0.1232602E+00
         -1   -1    0    0    0  501 -0.00000000000E+00  0.00000000000E+00  0.46329104064E+02  0.46329104064E+02  0.00000000000E+00 0.  1.
          1   -1    0    0  501    0  0.00000000000E+00 -0.00000000000E+00 -0.49663148759E+03  0.49663148759E+03  0.00000000000E+00 0. -1.
          5    1    1    2  502    0  0.64867881700E+02 -0.25064467493E+02 -0.11142199741E+03  0.13142686603E+03  0.47000000000E+01 0.  1.
         -5    1    1    2    0  502 -0.14799560482E+02  0.27180352899E+02 -0.29650177324E+03  0.29814961028E+03  0.47000000000E+01 0.  1.
        -11    1    1    2    0    0 -0.69330092852E+02  0.53549010225E+01 -0.38223900091E+01  0.69641563776E+02  0.00000000000E+00 0. -1.
         11    1    1    2    0    0  0.19261771634E+02 -0.74707864288E+01 -0.38556222858E+02  0.43742551565E+02  0.00000000000E+00 0.  1.
<mgrwt>
<rscale>  0 0.12659188E+03</rscale>
<asrwt>0</asrwt>
<pdfrwt beam="2">  1        1 0.76404835E-01 0.13466308E+03</pdfrwt>
<pdfrwt beam="1">  1       -1 0.71275553E-02 0.13466308E+03</pdfrwt>
<totfact> 0.45228286E+03</totfact>
</mgrwt>
</event>
<event>
 6    1  0.1045058E-005  0.1308693E+03  0.7546771E-02  0.1240406E+00
          1   -1    0    0  501    0  0.00000000000E+00  0.00000000000E+00  0.26905911931E+02  0.26905911931E+02  0.00000000000E+00 0. -1.
         -1   -1    0    0    0  501 -0.00000000000E+00 -0.00000000000E+00 -0.50439935268E+03  0.50439935268E+03  0.00000000000E+00 0.  1.
          5    1    1    2  502    0  0.74156094558E+02 -0.91749571259E+01 -0.17590301522E+03  0.19117339502E+03  0.47000000000E+01 0.  1.
         -5    1    1    2    0  502 -0.44726332596E+02 -0.16064185616E+02 -0.45183591805E+02  0.65743059371E+02  0.47000000000E+01 0.  1.
        -11    1    1    2    0    0 -0.27808377669E+01  0.52161418963E+02 -0.93166076227E+02  0.10681041357E+03  0.00000000000E+00 0.  1.
         11    1    1    2    0    0 -0.26648924195E+02 -0.26922276221E+02 -0.16324075749E+03  0.16757839665E+03  0.00000000000E+00 0. -1.
<mgrwt>
<rscale>  0 0.12164632E+03</rscale>
<asrwt>0</asrwt>
<pdfrwt beam="1">  1        1 0.41393712E-02 0.13086931E+03</pdfrwt>
<pdfrwt beam="2">  1       -1 0.77599898E-01 0.13086931E+03</pdfrwt>
<totfact> 0.36087445E+03</totfact>
</mgrwt>
</event>
<event>
 6    1  0.1045058E-005  0.1462906E+03  0.7546771E-02  0.1216298E+00
         -1   -1    0    0    0  501 -0.00000000000E+00  0.00000000000E+00  0.56881402452E+02  0.56881402452E+02  0.00000000000E+00 0.  1.
          1   -1    0    0  501    0  0.00000000000E+00 -0.00000000000E+00 -0.33940495421E+03  0.33940495421E+03  0.00000000000E+00 0. -1.
          5    1    1    2  502    0  0.57897855165E+02 -0.66013820463E+01 -0.48517235477E+02  0.75972047596E+02  0.47000000000E+01 0. -1.
         -5    1    1    2    0  502 -0.22171261775E+02  0.73679055493E+02 -0.17419615894E+03  0.19049031434E+03  0.47000000000E+01 0. -1.
        -11    1    1    2    0    0 -0.47859639006E+02 -0.78912237189E+02 -0.32819746683E+02  0.97953162257E+02  0.00000000000E+00 0.  1.
         11    1    1    2    0    0  0.12133045615E+02  0.11834563742E+02 -0.26990410650E+02  0.31870832464E+02  0.00000000000E+00 0. -1.
<mgrwt>
<rscale>  0 0.13781606E+03</rscale>
<asrwt>0</asrwt>
<pdfrwt beam="2">  1        1 0.52216148E-01 0.14629058E+03</pdfrwt>
<pdfrwt beam="1">  1       -1 0.87509849E-02 0.14629058E+03</pdfrwt>
<totfact> 0.54029852E+03</totfact>
</mgrwt>
</event>
<event>
 6    1  0.1045058E-005  0.1615307E+03  0.7546771E-02  0.1194478E+00
         -4   -1    0    0    0  501 -0.00000000000E+00  0.00000000000E+00  0.93024573827E+02  0.93024573827E+02  0.00000000000E+00 0.  1.
          4   -1    0    0  501    0  0.00000000000E+00 -0.00000000000E+00 -0.36655052900E+03  0.36655052900E+03  0.00000000000E+00 0. -1.
          5    1    1    2  502    0  0.50298808851E+02 -0.87925490573E+02 -0.16592679493E+03  0.19445990162E+03  0.47000000000E+01 0. -1.
         -5    1    1    2    0  502 -0.57947690949E+02 -0.14097204491E+02 -0.11327374929E+03  0.12810034480E+03  0.47000000000E+01 0. -1.
        -11    1    1    2    0    0  0.38562348949E+02  0.48601423989E+02 -0.26438010515E+02  0.67439762530E+02  0.00000000000E+00 0. -1.
         11    1    1    2    0    0 -0.30913466851E+02  0.53421271076E+02  0.32112599561E+02  0.69575093867E+02  0.00000000000E+00 0.  1.
<mgrwt>
<rscale>  0 0.15498513E+03</rscale>
<asrwt>0</asrwt>
<pdfrwt beam="2">  1        4 0.56392388E-01 0.16153071E+03</pdfrwt>
<pdfrwt beam="1">  1       -4 0.14311473E-01 0.16153071E+03</pdfrwt>
<totfact> 0.21278406E+02</totfact>
</mgrwt>
</event>
<event>
 6    1  0.1045058E-005  0.1253442E+03  0.7546771E-02  0.1249550E+00
         -2   -1    0    0    0  501 -0.00000000000E+00  0.00000000000E+00  0.45656312810E+02  0.45656312810E+02  0.00000000000E+00 0.  1.
          2   -1    0    0  501    0  0.00000000000E+00 -0.00000000000E+00 -0.27715064407E+03  0.27715064407E+03  0.00000000000E+00 0. -1.
          5    1    1    2  502    0  0.61174806994E+02 -0.19114227934E+02 -0.76661290129E+02  0.10003376492E+03  0.47000000000E+01 0. -1.
         -5    1    1    2    0  502 -0.59228456124E+02  0.10116974571E+02 -0.95374320487E+02  0.11282160342E+03  0.47000000000E+01 0. -1.
        -11    1    1    2    0    0  0.59293506631E+01  0.45988265333E+02 -0.95674676577E+01  0.47345688135E+02  0.00000000000E+00 0.  1.
         11    1    1    2    0    0 -0.78757015328E+01 -0.36991011970E+02 -0.49891252988E+02  0.62605900408E+02  0.00000000000E+00 0. -1.
<mgrwt>
<rscale>  0 0.11617142E+03</rscale>
<asrwt>0</asrwt>
<pdfrwt beam="2">  1        2 0.42638562E-01 0.12534415E+03</pdfrwt>
<pdfrwt beam="1">  1       -2 0.70240480E-02 0.12534415E+03</pdfrwt>
<totfact> 0.12913675E+04</totfact>
</mgrwt>
</event>
<event>
 6    1  0.1045058E-005  0.1602166E+03  0.7546771E-02  0.1195053E+00
          2   -1    0    0  501    0  0.00000000000E+00  0.00000000000E+00  0.41461950242E+02  0.41461950242E+02  0.00000000000E+00 0. -1.
         -2   -1    0    0    0  501 -0.00000000000E+00 -0.00000000000E+00 -0.53842715893E+03  0.53842715893E+03  0.00000000000E+00 0.  1.
          5    1    1    2  502    0  0.60514409259E+02 -0.98710389521E+02 -0.21528742084E+03  0.24449232769E+03  0.47000000000E+01 0.  1.
         -5    1    1    2    0  502 -0.41114758290E+02  0.38146172495E+00 -0.44859177108E+02  0.61032816035E+02  0.47000000000E+01 0.  1.
        -11    1    1    2    0    0 -0.32842570232E+02  0.15057627544E+02 -0.19080453375E+02  0.40858662089E+02  0.00000000000E+00 0. -1.
         11    1    1    2    0    0  0.13442919264E+02  0.83271300252E+02 -0.21773815736E+03  0.23350530336E+03  0.00000000000E+00 0.  1.
<mgrwt>
<rscale>  0 0.15449776E+03</rscale>
<asrwt>0</asrwt>
<pdfrwt beam="1">  1        2 0.63787612E-02 0.16021661E+03</pdfrwt>
<pdfrwt beam="2">  1       -2 0.82834953E-01 0.16021661E+03</pdfrwt>
<totfact> 0.14659058E+03</totfact>
</mgrwt>
</event>
<event>
 6    1  0.1045058E-005  0.2236799E+03  0.7546771E-02  0.1134301E+00
          2   -1    0    0  501    0  0.00000000000E+00  0.00000000000E+00  0.50566464636E+03  0.50566464636E+03  0.00000000000E+00 0. -1.
         -2   -1    0    0    0  501 -0.00000000000E+00 -0.00000000000E+00 -0.92248277394E+02  0.92248277394E+02  0.00000000000E+00 0.  1.
          5    1    1    2  502    0  0.34189479587E+02  0.28007626775E+02  0.10146350214E+03  0.11077129565E+03  0.47000000000E+01 0.  1.
         -5    1    1    2    0  502 -0.30619247048E+02  0.15744935734E+03  0.92023179935E+02  0.18498160466E+03  0.47000000000E+01 0.  1.
        -11    1    1    2    0    0 -0.37135886614E+02 -0.31025597694E+02  0.40936584560E+02  0.63383481621E+02  0.00000000000E+00 0.  1.
         11    1    1    2    0    0  0.33565654075E+02 -0.15443138642E+03  0.17899310233E+03  0.23877654183E+03  0.00000000000E+00 0. -1.
<mgrwt>
<rscale>  0 0.21944077E+03</rscale>
<asrwt>0</asrwt>
<pdfrwt beam="1">  1        2 0.77794560E-01 0.22367986E+03</pdfrwt>
<pdfrwt beam="2">  1       -2 0.14192043E-01 0.22367986E+03</pdfrwt>
<totfact> 0.22911911E+03</totfact>
</mgrwt>
</event>
<event>
 6    1  0.1045058E-005  0.1923626E+03  0.7546771E-02  0.1159928E+00
          1   -1    0    0  501    0  0.00000000000E+00  0.00000000000E+00  0.12672778248E+04  0.12672778248E+04  0.00000000000E+00 0. -1.
         -1   -1    0    0    0  501 -0.00000000000E+00 -0.00000000000E+00 -0.27290050003E+02  0.27290050003E+02  0.00000000000E+00 0.  1.
          5    1    1    2  502    0 -0.90134360862E+02  0.10648565296E+03  0.55992129535E+03  0.57705922077E+03  0.47000000000E+01 0.  1.
         -5    1    1    2    0  502  0.40978848321E+02  0.31216945549E+02  0.16254339356E+03  0.17057610762E+03  0.47000000000E+01 0.  1.
        -11    1    1    2    0    0  0.23203294104E+02  0.10675111254E+02  0.58688758943E+02  0.64005634782E+02  0.00000000000E+00 0.  1.
         11    1    1    2    0    0  0.25952218437E+02 -0.14837770976E+03  0.45883432697E+03  0.48292691166E+03  0.00000000000E+00 0. -1.
<mgrwt>
<rscale>  0 0.18838324E+03</rscale>
<asrwt>0</asrwt>
<pdfrwt beam="1">  1        1 0.19496577E+00 0.19236257E+03</pdfrwt>
<pdfrwt beam="2">  1       -1 0.41984702E-02 0.19236257E+03</pdfrwt>
<totfact> 0.23453680E+03</totfact>
</mgrwt>
</event>
<event>
 6    1  0.1045058E-005  0.2080840E+03  0.7546771E-02  0.1146869E+00
         -1   -1    0    0    0  501 -0.00000000000E+00  0.00000000000E+00  0.35582599357E+02  0.35582599357E+02  0.00000000000E+00 0.  1.
          1   -1    0    0  501    0  0.00000000000E+00 -0.00000000000E+00 -0.11192065184E+04  0.11192065184E+04  0.00000000000E+00 0. -1.
          5    1    1    2  502    0 -0.33107368023E+02  0.10429272856E+02 -0.35920328623E+03  0.36090713264E+03  0.47000000000E+01 0.  1.
         -5    1    1    2    0  502 -0.12318106944E+03  0.46556412916E+02 -0.24598397092E+03  0.27905425889E+03  0.47000000000E+01 0.  1.
        -11    1    1    2    0    0  0.56657377873E+02  0.95061864663E+01 -0.78086879916E+02  0.96943214635E+02  0.00000000000E+00 0. -1.
         11    1    1    2    0    0  0.99631059590E+02 -0.66491872238E+02 -0.40034978199E+03  0.41788451162E+03  0.00000000000E+00 0.  1.
<mgrwt>
<rscale>  0 0.20344008E+03</rscale>
<asrwt>0</asrwt>
<pdfrwt beam="2">  1        1 0.17218561E+00 0.20808404E+03</pdfrwt>
<pdfrwt beam="1">  1       -1 0.54742464E-02 0.20808404E+03</pdfrwt>
<totfact> 0.20026647E+03</totfact>
</mgrwt>
</event>
<event>
 6    1  0.1045058E-005  0.1349428E+03  0.7546771E-02  0.1232430E+00
         -1   -1    0    0    0  501 -0.00000000000E+00  0.00000000000E+00  0.41685444170E+02  0.41685444170E+02  0.00000000000E+00 0. -1.
          1   -1    0    0  501    0  0.00000000000E+00 -0.00000000000E+00 -0.35253832428E+03  0.35253832428E+03  0.00000000000E+00 0.  1.
          5    1    1    2  502    0 -0.34562220145E+02 -0.31590637101E+02 -0.14796007817E+02  0.49330794248E+02  0.47000000000E+01 0.  1.
         -5    1    1    2    0  502  0.30297994009E+01  0.71465318463E+02 -0.13099604582E+03  0.14932690798E+03  0.47000000000E+01 0.  1.
        -11    1    1    2    0    0  0.43047339169E+02 -0.58356922191E+02 -0.80943819112E+02  0.10867615023E+03  0.00000000000E+00 0. -1.
         11    1    1    2    0    0 -0.11514918426E+02  0.18482240829E+02 -0.84117007368E+02  0.86889915991E+02  0.00000000000E+00 0.  1.
<mgrwt>
<rscale>  0 0.12670430E+03</rscale>
<asrwt>0</asrwt>
<pdfrwt beam="2">  1        1 0.54236668E-01 0.13494280E+03</pdfrwt>
<pdfrwt beam="1">  1       -1 0.64131450E-02 0.13494280E+03</pdfrwt>
<totfact> 0.81863332E+03</totfact>
</mgrwt>
</event>
<event>
 6    1  0.1045058E-005  0.2153345E+03  0.7546771E-02  0.1141240E+00
          2   -1    0    0  501    0  0.00000000000E+00  0.00000000000E+00  0.12302946869E+03  0.12302946869E+03  0.00000000000E+00 0. -1.
         -2   -1    0    0    0  501 -0.00000000000E+00 -0.00000000000E+00 -0.42531539977E+03  0.42531539977E+03  0.00000000000E+00 0.  1.
          5    1    1    2  502    0 -0.56962409123E+02  0.21931433042E+02  0.14200991033E+02  0.62844744846E+02  0.47000000000E+01 0.  1.
         -5    1    1    2    0  502 -0.91923644878E+02 -0.11453734943E+03 -0.51464219088E+02  0.15569013054E+03  0.47000000000E+01 0.  1.
        -11    1    1    2    0    0  0.15998413735E+03  0.91890017578E+02 -0.24263434181E+03  0.30481161947E+03  0.00000000000E+00 0.  1.
         11    1    1    2    0    0 -0.11098083351E+02  0.71589880623E+00 -0.22388361217E+02  0.24998373610E+02  0.00000000000E+00 0. -1.
<mgrwt>
<rscale>  0 0.21041213E+03</rscale>
<asrwt>0</asrwt>
<pdfrwt beam="1">  1        2 0.18927611E-01 0.21533449E+03</pdfrwt>
<pdfrwt beam="2">  1       -2 0.65433138E-01 0.21533449E+03</pdfrwt>
<totfact> 0.65098821E+02</totfact>
</mgrwt>
</event>
<event>
 6    1  0.1045058E-005  0.3201636E+03  0.7546771E-02  0.1075574E+00
          2   -1    0    0  501    0  0.00000000000E+00  0.00000000000E+00  0.79472574554E+03  0.79472574554E+03  0.00000000000E+00 0.  1.
         -2   -1    0    0    0  501 -0.00000000000E+00 -0.00000000000E+00 -0.32245318865E+02  0.32245318865E+02  0.00000000000E+00 0. -1.
          5    1    1    2  502    0 -0.64616486271E+02 -0.10710434577E+03  0.21697339351E+03  0.25049186548E+03  0.47000000000E+01 0.  1.
         -5    1    1    2    0  502 -0.20367949411E+01  0.10143359503E+02  0.20154507843E+03  0.20186516518E+03  0.47000000000E+01 0.  1.
        -11    1    1    2    0    0  0.76792499712E+02  0.47658452863E+02  0.15864783851E+03  0.18258574097E+03  0.00000000000E+00 0.  1.
         11    1    1    2    0    0 -0.10139218500E+02  0.49302533403E+02  0.18531411623E+03  0.19202829277E+03  0.00000000000E+00 0. -1.
<mgrwt>
<rscale>  0 0.32016361E+03</rscale>
<asrwt>0</asrwt>
<pdfrwt beam="1">  1        2 0.12226548E+00 0.32016361E+03</pdfrwt>
<pdfrwt beam="2">  1       -2 0.49608189E-02 0.32016361E+03</pdfrwt>
<totfact> 0.71065210E+03</totfact>
</mgrwt>
</event>
<event>
 6    1  0.1045058E-005  0.1299220E+03  0.7546771E-02  0.1241331E+00
         -1   -1    0    0    0  501 -0.00000000000E+00  0.00000000000E+00  0.15028369134E+03  0.15028369134E+03  0.00000000000E+00 0.  1.
          1   -1    0    0  501    0  0.00000000000E+00 -0.00000000000E+00 -0.86615462075E+02  0.86615462075E+02  0.00000000000E+00 0. -1.
          5    1    1    2  502    0 -0.53438380371E+02 -0.37732395518E+02 -0.21577193630E+02  0.69043895118E+02  0.47000000000E+01 0. -1.
         -5    1    1    2    0  502  0.18371467650E+02  0.32707595614E+02  0.52174025743E+02  0.64432263631E+02  0.47000000000E+01 0. -1.
        -11    1    1    2    0    0 -0.57326985087E+01 -0.92713448106E+01 -0.27169607288E+02  0.29274719930E+02  0.00000000000E+00 0. -1.
         11    1    1    2    0    0  0.40799611230E+02  0.14296144715E+02  0.60241004444E+02  0.74148274738E+02  0.00000000000E+00 0.  1.
<mgrwt>
<rscale>  0 0.12107669E+03</rscale>
<asrwt>0</asrwt>
<pdfrwt beam="2">  1        1 0.13325456E-01 0.12992197E+03</pdfrwt>
<pdfrwt beam="1">  1       -1 0.23120568E-01 0.12992197E+03</pdfrwt>
<totfact> 0.65423835E+03</totfact>
</mgrwt>
</event>
<event>
 6    1  0.1045058E-005  0.1282832E+03  0.7546771E-02  0.1246001E+00
         -2   -1    0    0    0  501 -0.00000000000E+00  0.00000000000E+00  0.24428921706E+03  0.24428921706E+03  0.00000000000E+00 0.  1.
          2   -1    0    0  501    0  0.00000000000E+00 -0.00000000000E+00 -0.50611163877E+02  0.50611163877E+02  0.00000000000E+00 0. -1.
          5    1    1    2  502    0  0.29839154990E+02  0.65038310974E+02  0.54581140029E+02  0.90119631111E+02  0.47000000000E+01 0. -1.
         -5    1    1    2    0  502 -0.23928553594E+01 -0.56312597622E+02  0.41007032230E+02  0.69860583307E+02  0.47000000000E+01 0. -1.
        -11    1    1    2    0    0  0.31205688235E+02 -0.13050811897E+02  0.35381117894E+02  0.48948362310E+02  0.00000000000E+00 0.  1.
         11    1    1    2    0    0 -0.58651987866E+02  0.43250985451E+01  0.62708763029E+02  0.85971804208E+02  0.00000000000E+00 0. -1.
<mgrwt>
<rscale>  0 0.11825642E+03</rscale>
<asrwt>0</asrwt>
<pdfrwt beam="2">  1        2 0.77863330E-02 0.12828316E+03</pdfrwt>
<pdfrwt beam="1">  1       -2 0.37582956E-01 0.12828316E+03</pdfrwt>
<totfact> 0.55794448E+03</totfact>
</mgrwt>
</event>
<event>
 6    1  0.1045058E-005  0.1404068E+03  0.7546771E-02  0.1223559E+00
         -2   -1    0    0    0  501 -0.00000000000E+00  0.00000000000E+00  0.10339626172E+03  0.10339626172E+03  0.00000000000E+00 0.  1.
          2   -1    0    0  501    0  0.00000000000E+00 -0.00000000000E+00 -0.16361269911E+03  0.16361269911E+03  0.00000000000E+00 0. -1.
          5    1    1    2  502    0 -0.17081838429E+01 -0.39338597927E+02 -0.27757685845E+02  0.48404775616E+02  0.47000000000E+01 0. -1.
         -5    1    1    2    0  502 -0.29940629416E+02  0.94905340455E+02 -0.37859588123E+02  0.10657815606E+03  0.47000000000E+01 0. -1.
        -11    1    1    2    0    0  0.47961345924E+02 -0.73301935795E+02  0.69937090461E+01  0.87877053093E+02  0.00000000000E+00 0.  1.
         11    1    1    2    0    0 -0.16312532665E+02  0.17735193268E+02 -0.15928724632E+01  0.24148976063E+02  0.00000000000E+00 0. -1.
<mgrwt>
<rscale>  0 0.13266142E+03</rscale>
<asrwt>0</asrwt>
<pdfrwt beam="2">  1        2 0.25171184E-01 0.14040685E+03</pdfrwt>
<pdfrwt beam="1">  1       -2 0.15907117E-01 0.14040685E+03</pdfrwt>
<totfact> 0.63108448E+03</totfact>
</mgrwt>
</event>
<event>
 6    1  0.1045058E-005  0.1273259E+03  0.7546771E-02  0.1247715E+00
         -2   -1    0    0    0  501 -0.00000000000E+00  0.00000000000E+00  0.36641536779E+02  0.36641536779E+02  0.00000000000E+00 0.  1.
          2   -1    0    0  501    0  0.00000000000E+00 -0.00000000000E+00 -0.33927299045E+03  0.33927299045E+03  0.00000000000E+00 0. -1.
          5    1    1    2  502    0 -0.15515735618E+02  0.36500379480E+02 -0.17904195139E+02  0.43768321393E+02  0.47000000000E+01 0.  1.
         -5    1    1    2    0  502  0.11421249379E+02 -0.60413210964E+02 -0.19278149099E+03  0.20240304905E+03  0.47000000000E+01 0.  1.
        -11    1    1    2    0    0 -0.34878822010E+02 -0.89437990857E+01 -0.18891211967E+02  0.40662041961E+02  0.00000000000E+00 0.  1.
         11    1    1    2    0    0  0.38973308249E+02  0.32856630569E+02 -0.73054555575E+02  0.89081114826E+02  0.00000000000E+00 0. -1.
<mgrwt>
<rscale>  0 0.11724337E+03</rscale>
<asrwt>0</asrwt>
<pdfrwt beam="2">  1        2 0.52195844E-01 0.12732590E+03</pdfrwt>
<pdfrwt beam="1">  1       -2 0.56371596E-02 0.12732590E+03</pdfrwt>
<totfact> 0.14580141E+04</totfact>
</mgrwt>
</event>
<event>
 6    1  0.1045058E-005  0.1557158E+03  0.7546771E-02  0.1201249E+00
         -4   -1    0    0    0  501 -0.00000000000E+00  0.00000000000E+00  0.22466779850E+03  0.22466779850E+03  0.00000000000E+00 0.  1.
          4   -1    0    0  501    0  0.00000000000E+00 -0.00000000000E+00 -0.99935784020E+02  0.99935784020E+02  0.00000000000E+00 0. -1.
          5    1    1    2  502    0  0.37447911985E+02  0.75313888292E+01 -0.25382415557E+02  0.46102331278E+02  0.47000000000E+01 0.  1.
         -5    1    1    2    0  502 -0.19585057617E+02 -0.98652534494E+02  0.46964550652E+02  0.11110200746E+03  0.47000000000E+01 0.  1.
        -11    1    1    2    0    0  0.17415943487E+02  0.27415036979E+02  0.86920625159E+02  0.92790594449E+02  0.00000000000E+00 0.  1.
         11    1    1    2    0    0 -0.35278797855E+02  0.63706108685E+02  0.16229254222E+02  0.74608649328E+02  0.00000000000E+00 0. -1.
<mgrwt>
<rscale>  0 0.14937018E+03</rscale>
<asrwt>0</asrwt>
<pdfrwt beam="2">  1        4 0.15374736E-01 0.15571582E+03</pdfrwt>
<pdfrwt beam="1">  1       -4 0.34564277E-01 0.15571582E+03</pdfrwt>
<totfact> 0.49776988E+02</totfact>
</mgrwt>
</event>
<event>
 6    1  0.1045058E-005  0.4208214E+03  0.7546771E-02  0.1036799E+00
          2   -1    0    0  501    0  0.00000000000E+00  0.00000000000E+00  0.29352476921E+03  0.29352476921E+03  0.00000000000E+00 0. -1.
         -2   -1    0    0    0  501 -0.00000000000E+00 -0.00000000000E+00 -0.15083109246E+03  0.15083109246E+03  0.00000000000E+00 0.  1.
          5    1    1    2  502    0 -0.35074947175E+02  0.82651364964E+01  0.11816034647E+03  0.12362249746E+03  0.47000000000E+01 0.  1.
         -5    1    1    2    0  502  0.17099988775E+01 -0.11447559421E+03  0.10561751336E+03  0.15583560214E+03  0.47000000000E+01 0.  1.
        -11    1    1    2    0    0  0.41435455183E+02  0.26573772702E+02 -0.67758913489E+02  0.83751613113E+02  0.00000000000E+00 0.  1.
         11    1    1    2    0    0 -0.80705068860E+01  0.79636685012E+02 -0.13325269589E+02  0.81146148958E+02  0.00000000000E+00 0. -1.
<mgrwt>
<rscale>  0 0.42082139E+03</rscale>
<asrwt>0</asrwt>
<pdfrwt beam="1">  1        2 0.45157657E-01 0.42082139E+03</pdfrwt>
<pdfrwt beam="2">  1       -2 0.23204784E-01 0.42082139E+03</pdfrwt>
<totfact> 0.18287513E+03</totfact>
</mgrwt>
</event>
<event>
 6    1  0.1045058E-005  0.1364252E+03  0.7546771E-02  0.1231050E+00
         -1   -1    0    0    0  501 -0.00000000000E+00  0.00000000000E+00  0.14822745199E+02  0.14822745199E+02  0.00000000000E+00 0.  1.
          1   -1    0    0  501    0  0.00000000000E+00 -0.00000000000E+00 -0.10593396074E+04  0.10593396074E+04  0.00000000000E+00 0. -1.
          5    1    1    2  502    0  0.76434887795E+02  0.36973880661E+02 -0.31911598466E+03  0.33025211822E+03  0.47000000000E+01 0. -1.
         -5    1    1    2    0  502 -0.34200997848E+02 -0.22962228253E+01 -0.41446687796E+03  0.41590848010E+03  0.47000000000E+01 0. -1.
        -11    1    1    2    0    0 -0.25100767972E+02  0.28127307465E+02 -0.87464299418E+02  0.95242835168E+02  0.00000000000E+00 0.  1.
         11    1    1    2    0    0 -0.17133121975E+02 -0.62804965301E+02 -0.22346970014E+03  0.23275891909E+03  0.00000000000E+00 0. -1.
<mgrwt>
<rscale>  0 0.12760716E+03</rscale>
<asrwt>0</asrwt>
<pdfrwt beam="2">  1        1 0.16297525E+00 0.13642515E+03</pdfrwt>
<pdfrwt beam="1">  1       -1 0.22804234E-02 0.13642515E+03</pdfrwt>
<totfact> 0.79213500E+03</totfact>
</mgrwt>
</event>
<event>
 6    1  0.1045058E-005  0.4124057E+03  0.7546771E-02  0.1039567E+00
          3   -1    0    0  501    0  0.00000000000E+00  0.00000000000E+00  0.13813686138E+03  0.13813686138E+03  0.00000000000E+00 0. -1.
         -3   -1    0    0    0  501 -0.00000000000E+00 -0.00000000000E+00 -0.30780795202E+03  0.30780795202E+03  0.00000000000E+00 0.  1.
          5    1    1    2  502    0  0.14183628350E+02 -0.22537483487E+02  0.36692458653E+02  0.45580039459E+02  0.47000000000E+01 0. -1.
         -5    1    1    2    0  502 -0.78723010790E+02  0.93696704867E+02  0.33374248725E+02  0.12693429564E+03  0.47000000000E+01 0. -1.
        -11    1    1    2    0    0  0.19434317428E+01 -0.42277334731E+02 -0.27982597774E+02  0.50736335472E+02  0.00000000000E+00 0. -1.
         11    1    1    2    0    0  0.62595950698E+02 -0.28881886648E+02 -0.21175520025E+03  0.22269414283E+03  0.00000000000E+00 0.  1.
<mgrwt>
<rscale>  0 0.41240574E+03</rscale>
<asrwt>0</asrwt>
<pdfrwt beam="1">  1        3 0.21251825E-01 0.41240574E+03</pdfrwt>
<pdfrwt beam="2">  1       -3 0.47355070E-01 0.41240574E+03</pdfrwt>
<totfact> 0.23398646E+02</totfact>
</mgrwt>
</event>
<event>
 6    1  0.1045058E-005  0.1612367E+03  0.7546771E-02  0.1196869E+00
          2   -1    0    0  501    0  0.00000000000E+00  0.00000000000E+00  0.35813854415E+03  0.35813854415E+03  0.00000000000E+00 0. -1.
         -2   -1    0    0    0  501 -0.00000000000E+00 -0.00000000000E+00 -0.66191886086E+02  0.66191886086E+02  0.00000000000E+00 0.  1.
          5    1    1    2  502    0 -0.11324642815E+03  0.23589572522E+02  0.20761307594E+03  0.23771096045E+03  0.47000000000E+01 0. -1.
         -5    1    1    2    0  502  0.24249386799E+02  0.25946072650E+02  0.19412020680E+02  0.40744913707E+02  0.47000000000E+01 0. -1.
        -11    1    1    2    0    0  0.10343196496E+03 -0.41246552935E+02  0.45484971525E+02  0.12028438028E+03  0.00000000000E+00 0.  1.
         11    1    1    2    0    0 -0.14434923609E+02 -0.82890922382E+01  0.19436589919E+02  0.25590175799E+02  0.00000000000E+00 0. -1.
<mgrwt>
<rscale>  0 0.15297128E+03</rscale>
<asrwt>0</asrwt>
<pdfrwt beam="1">  1        2 0.55098236E-01 0.16123672E+03</pdfrwt>
<pdfrwt beam="2">  1       -2 0.10183367E-01 0.16123672E+03</pdfrwt>
<totfact> 0.56221944E+03</totfact>
</mgrwt>
</event>
<event>
 6    1  0.1045058E-005  0.1462103E+03  0.7546771E-02  0.1214922E+00
          2   -1    0    0  501    0  0.00000000000E+00  0.00000000000E+00  0.14014160016E+04  0.14014160016E+04  0.00000000000E+00 0.  1.
         -2   -1    0    0    0  501 -0.00000000000E+00 -0.00000000000E+00 -0.14835349377E+02  0.14835349377E+02  0.00000000000E+00 0. -1.
          5    1    1    2  502    0  0.58887736986E+01 -0.14068758152E+02  0.82265697708E+03  0.82281176435E+03  0.47000000000E+01 0.  1.
         -5    1    1    2    0  502  0.63860353318E+02 -0.15718305162E+02  0.20897674714E+03  0.21913142332E+03  0.47000000000E+01 0.  1.
        -11    1    1    2    0    0 -0.62897068112E+02  0.11888948944E+02  0.34813160800E+03  0.35396751938E+03  0.00000000000E+00 0.  1.
         11    1    1    2    0    0 -0.68520589048E+01  0.17898114370E+02  0.68153200232E+01  0.20340643949E+02  0.00000000000E+00 0. -1.
<mgrwt>
<rscale>  0 0.13882259E+03</rscale>
<asrwt>0</asrwt>
<pdfrwt beam="1">  1        2 0.21560236E+00 0.14621035E+03</pdfrwt>
<pdfrwt beam="2">  1       -2 0.22823625E-02 0.14621035E+03</pdfrwt>
<totfact> 0.95864444E+03</totfact>
</mgrwt>
</event>
<event>
 6    1  0.1045058E-005  0.1402448E+03  0.7546771E-02  0.1223841E+00
          1   -1    0    0  501    0  0.00000000000E+00  0.00000000000E+00  0.15629050517E+03  0.15629050517E+03  0.00000000000E+00 0. -1.
         -1   -1    0    0    0  501 -0.00000000000E+00 -0.00000000000E+00 -0.10237485918E+03  0.10237485918E+03  0.00000000000E+00 0.  1.
          5    1    1    2  502    0  0.44107547147E+02  0.66098489467E+02  0.63925413746E+02  0.10209326397E+03  0.47000000000E+01 0.  1.
         -5    1    1    2    0  502 -0.38136825852E+02 -0.27938005024E+01 -0.21895674137E+02  0.44314031111E+02  0.47000000000E+01 0.  1.
        -11    1    1    2    0    0 -0.37628127761E+02 -0.14900901005E+02 -0.21136147863E+02  0.45657963118E+02  0.00000000000E+00 0.  1.
         11    1    1    2    0    0  0.31657406466E+02 -0.48403787960E+02  0.33022054243E+02  0.66600106152E+02  0.00000000000E+00 0. -1.
<mgrwt>
<rscale>  0 0.13246690E+03</rscale>
<asrwt>0</asrwt>
<pdfrwt beam="1">  1        1 0.24044693E-01 0.14024478E+03</pdfrwt>
<pdfrwt beam="2">  1       -1 0.15749978E-01 0.14024478E+03</pdfrwt>
<totfact> 0.57077529E+03</totfact>
</mgrwt>
</event>
<event>
 6    1  0.1045058E-005  0.1412249E+03  0.7546771E-02  0.1221569E+00
          1   -1    0    0  501    0  0.00000000000E+00  0.00000000000E+00  0.25436195088E+03  0.25436195088E+03  0.00000000000E+00 0. -1.
         -1   -1    0    0    0  501 -0.00000000000E+00 -0.00000000000E+00 -0.64788807075E+02  0.64788807075E+02  0.00000000000E+00 0.  1.
          5    1    1    2  502    0 -0.57608255593E+02 -0.14956091124E+02  0.12113283926E+03  0.13504684566E+03  0.47000000000E+01 0. -1.
         -5    1    1    2    0  502  0.24542491207E+02 -0.41823853537E+02 -0.33677951892E+01  0.48836468379E+02  0.47000000000E+01 0. -1.
        -11    1    1    2    0    0  0.33620230049E+02 -0.19087393206E+02  0.21541158563E+02  0.44256863424E+02  0.00000000000E+00 0.  1.
         11    1    1    2    0    0 -0.55446566340E+00  0.75867337867E+02  0.50266941163E+02  0.91010580490E+02  0.00000000000E+00 0. -1.
<mgrwt>
<rscale>  0 0.13404835E+03</rscale>
<asrwt>0</asrwt>
<pdfrwt beam="1">  1        1 0.39132607E-01 0.14122488E+03</pdfrwt>
<pdfrwt beam="2">  1       -1 0.99675089E-02 0.14122488E+03</pdfrwt>
<totfact> 0.63242869E+03</totfact>
</mgrwt>
</event>
<event>
 6    1  0.1045058E-005  0.1261982E+03  0.7546771E-02  0.1248384E+00
          4   -1    0    0  501    0  0.00000000000E+00  0.00000000000E+00  0.64658048703E+03  0.64658048703E+03  0.00000000000E+00 0. -1.
         -4   -1    0    0    0  501 -0.00000000000E+00 -0.00000000000E+00 -0.18971468465E+02  0.18971468465E+02  0.00000000000E+00 0.  1.
          5    1    1    2  502    0 -0.18928781698E+02  0.67699750363E+02  0.14362327866E+03  0.15997278252E+03  0.47000000000E+01 0. -1.
         -5    1    1    2    0  502  0.16355404049E+02 -0.50515713085E+02  0.16724543949E+03  0.17553479296E+03  0.47000000000E+01 0. -1.
        -11    1    1    2    0    0 -0.47700181375E+00  0.35343931880E+02  0.78937896400E+02  0.86490534393E+02  0.00000000000E+00 0.  1.
         11    1    1    2    0    0  0.30503794632E+01 -0.52527969158E+02  0.23780240402E+03  0.24355384562E+03  0.00000000000E+00 0. -1.
<mgrwt>
<rscale>  0 0.11685110E+03</rscale>
<asrwt>0</asrwt>
<pdfrwt beam="1">  1        4 0.99473904E-01 0.12619815E+03</pdfrwt>
<pdfrwt beam="2">  1       -4 0.29186880E-02 0.12619815E+03</pdfrwt>
<totfact> 0.79674566E+02</totfact>
</mgrwt>
</event>
<event>
 6    1  0.1045058E-005  0.1649305E+03  0.7546771E-02  0.1190498E+00
          2   -1    0    0  501    0  0.00000000000E+00  0.00000000000E+00  0.41829779381E+02  0.41829779381E+02  0.00000000000E+00 0.  1.
         -2   -1    0    0    0  501 -0.00000000000E+00 -0.00000000000E+00 -0.56168940326E+03  0.56168940326E+03  0.00000000000E+00 0. -1.
          5    1    1    2  502    0 -0.52299075280E+02 -0.11907059451E+02 -0.26686591337E+02  0.60093556203E+02  0.47000000000E+01 0.  1.
         -5    1    1    2    0  502 -0.31724422993E+02  0.79115564777E+02 -0.22671124391E+03  0.24225150097E+03  0.47000000000E+01 0.  1.
        -11    1    1    2    0    0  0.52062245613E+01 -0.61095406651E+02 -0.11645964326E+03  0.13161535623E+03  0.00000000000E+00 0.  1.
         11    1    1    2    0    0  0.78817273711E+02 -0.61130986752E+01 -0.15000214538E+03  0.16955876925E+03  0.00000000000E+00 0. -1.
<mgrwt>
<rscale>  0 0.15841451E+03</rscale>
<asrwt>0</asrwt>
<pdfrwt beam="1">  1        2 0.64353507E-02 0.16493050E+03</pdfrwt>
<pdfrwt beam="2">  1       -2 0.86413754E-01 0.16493050E+03</pdfrwt>
<totfact> 0.13211983E+03</totfact>
</mgrwt>
</event>
<event>
 6    1  0.1045058E-005  0.1293811E+03  0.7546771E-02  0.1242732E+00
          3   -1    0    0  501    0  0.00000000000E+00  0.00000000000E+00  0.56886055613E+02  0.56886055613E+02  0.00000000000E+00 0. -1.
         -3   -1    0    0    0  501 -0.00000000000E+00 -0.00000000000E+00 -0.23340289691E+03  0.23340289691E+03  0.00000000000E+00 0.  1.
          5    1    1    2  502    0  0.17314884404E+02 -0.36348842394E+02  0.25863070106E+02  0.48083593466E+02  0.47000000000E+01 0.  1.
         -5    1    1    2    0  502  0.10057119929E+02  0.17217490625E+02 -0.97858841904E+02  0.99980150947E+02  0.47000000000E+01 0.  1.
        -11    1    1    2    0    0 -0.37783357353E+02  0.95073750478E+00 -0.22847461860E+01  0.37864311162E+02  0.00000000000E+00 0. -1.
         11    1    1    2    0    0  0.10411353020E+02  0.18180614264E+02 -0.10223632331E+03  0.10436089694E+03  0.00000000000E+00 0.  1.
<mgrwt>
<rscale>  0 0.12022179E+03</rscale>
<asrwt>0</asrwt>
<pdfrwt beam="1">  1        3 0.87517006E-02 0.12938115E+03</pdfrwt>
<pdfrwt beam="2">  1       -3 0.35908139E-01 0.12938115E+03</pdfrwt>
<totfact> 0.16031638E+03</totfact>
</mgrwt>
</event>
<event>
 6    1  0.1045058E-005  0.2538357E+03  0.7546771E-02  0.1110904E+00
          1   -1    0    0  501    0  0.00000000000E+00  0.00000000000E+00  0.21060519132E+03  0.21060519132E+03  0.00000000000E+00 0. -1.
         -1   -1    0    0    0  501 -0.00000000000E+00 -0.00000000000E+00 -0.76484995017E+02  0.76484995017E+02  0.00000000000E+00 0.  1.
          5    1    1    2  502    0 -0.37268790495E+02 -0.54313278160E+02  0.11343899289E+03  0.13126077113E+03  0.47000000000E+01 0.  1.
         -5    1    1    2    0  502  0.91710326435E+01 -0.40540097969E+01 -0.30287869632E+02  0.32248843112E+02  0.47000000000E+01 0.  1.
        -11    1    1    2    0    0  0.45721644506E+02  0.20687856501E+02 -0.86094447563E+01  0.50917371514E+02  0.00000000000E+00 0.  1.
         11    1    1    2    0    0 -0.17623886655E+02  0.37679431455E+02  0.59578517805E+02  0.72663200586E+02  0.00000000000E+00 0. -1.
<mgrwt>
<rscale>  0 0.25383567E+03</rscale>
<asrwt>0</asrwt>
<pdfrwt beam="1">  1        1 0.32400798E-01 0.25383567E+03</pdfrwt>
<pdfrwt beam="2">  1       -1 0.11766922E-01 0.25383567E+03</pdfrwt>
<totfact> 0.64097736E+03</totfact>
</mgrwt>
</event>
<event>
 6    1  0.1045058E-005  0.2894734E+03  0.7546771E-02  0.1090624E+00
         -1   -1    0    0    0  501 -0.00000000000E+00  0.00000000000E+00  0.30448731018E+02  0.30448731018E+02  0.00000000000E+00 0.  1.
          1   -1    0    0  501    0  0.00000000000E+00 -0.00000000000E+00 -0.68799965460E+03  0.68799965460E+03  0.00000000000E+00 0. -1.
          5    1    1    2  502    0  0.79267337691E+02  0.89824440118E+02 -0.29659883504E+03  0.31991358179E+03  0.47000000000E+01 0.  1.
         -5    1    1    2    0  502 -0.18002493001E+02 -0.22752613587E+02 -0.14478524929E+03  0.14773838225E+03  0.47000000000E+01 0.  1.
        -11    1    1    2    0    0 -0.54795385715E+02  0.45258589855E+01 -0.85315666501E+02  0.10149768788E+03  0.00000000000E+00 0.  1.
         11    1    1    2    0    0 -0.64694589756E+01 -0.71597685517E+02 -0.13085117275E+03  0.14929873369E+03  0.00000000000E+00 0. -1.
<mgrwt>
<rscale>  0 0.28947343E+03</rscale>
<asrwt>0</asrwt>
<pdfrwt beam="2">  1        1 0.10584610E+00 0.28947343E+03</pdfrwt>
<pdfrwt beam="1">  1       -1 0.46844200E-02 0.28947343E+03</pdfrwt>
<totfact> 0.56073114E+03</totfact>
</mgrwt>
</event>
<event>
 6    1  0.1045058E-005  0.2519391E+03  0.7546771E-02  0.1112085E+00
          3   -1    0    0  501    0  0.00000000000E+00  0.00000000000E+00  0.18094406713E+03  0.18094406713E+03  0.00000000000E+00 0. -1.
         -3   -1    0    0    0  501 -0.00000000000E+00 -0.00000000000E+00 -0.87697393390E+02  0.87697393390E+02  0.00000000000E+00 0.  1.
          5    1    1    2  502    0 -0.20127854327E+02  0.37053759572E+02  0.23927284365E+02  0.48710538442E+02  0.47000000000E+01 0. -1.
         -5    1    1    2    0  502  0.83724581432E+02 -0.50547051315E+02  0.34344576684E+02  0.10376150481E+03  0.47000000000E+01 0. -1.
        -11    1    1    2    0    0 -0.42750456650E+02 -0.34134987002E+02  0.33518782311E+02  0.64158457346E+02  0.00000000000E+00 0.  1.
         11    1    1    2    0    0 -0.20846270454E+02  0.47628278745E+02  0.14560303839E+01  0.52010959927E+02  0.00000000000E+00 0. -1.
<mgrwt>
<rscale>  0 0.25193906E+03</rscale>
<asrwt>0</asrwt>
<pdfrwt beam="1">  1        3 0.27837549E-01 0.25193906E+03</pdfrwt>
<pdfrwt beam="2">  1       -3 0.13491907E-01 0.25193906E+03</pdfrwt>
<totfact> 0.13836957E+03</totfact>
</mgrwt>
</event>
<event>
 6    1  0.1045058E-005  0.2454623E+03  0.7546771E-02  0.1146667E+00
         -1   -1    0    0    0  501 -0.00000000000E+00  0.00000000000E+00  0.98175760918E+02  0.98175760918E+02  0.00000000000E+00 0.  1.
          1   -1    0    0  501    0  0.00000000000E+00 -0.00000000000E+00 -0.34163655169E+03  0.34163655169E+03  0.00000000000E+00 0. -1.
          5    1    1    2  502    0  0.12063187452E+03 -0.69777734207E+02 -0.85714148439E+02  0.16367646925E+03  0.47000000000E+01 0. -1.
         -5    1    1    2    0  502 -0.49865707449E+02  0.89208158304E+02 -0.11033979803E+03  0.15047141030E+03  0.47000000000E+01 0.  1.
        -11    1    1    2    0    0 -0.84330983712E+02 -0.36022554116E+02 -0.49362363893E+02  0.10414404538E+03  0.00000000000E+00 0.  1.
         11    1    1    2    0    0  0.13564816638E+02  0.16592130019E+02  0.19555195983E+01  0.21520387679E+02  0.00000000000E+00 0. -1.
<mgrwt>
<rscale>  0 0.20368429E+03</rscale>
<asrwt>0</asrwt>
<pdfrwt beam="2">  1        1 0.52559469E-01 0.24546230E+03</pdfrwt>
<pdfrwt beam="1">  1       -1 0.15103963E-01 0.24546230E+03</pdfrwt>
<totfact> 0.23461085E+03</totfact>
</mgrwt>
</event>
<event>
 6    1  0.1045058E-005  0.3484214E+03  0.7546771E-02  0.1063265E+00
          2   -1    0    0  501    0  0.00000000000E+00  0.00000000000E+00  0.85711527141E+03  0.85711527141E+03  0.00000000000E+00 0. -1.
         -2   -1    0    0    0  501 -0.00000000000E+00 -0.00000000000E+00 -0.35408733997E+02  0.35408733997E+02  0.00000000000E+00 0.  1.
          5    1    1    2  502    0  0.79078619855E+01  0.12895440949E+03  0.23901231862E+03  0.27173654973E+03  0.47000000000E+01 0. -1.
         -5    1    1    2    0  502  0.24879473113E+02  0.10106947083E+01  0.23681104110E+03  0.23816290407E+03  0.47000000000E+01 0.  1.
        -11    1    1    2    0    0  0.36370450921E+01 -0.97254282496E+02  0.13680088950E+03  0.16788718512E+03  0.00000000000E+00 0.  1.
         11    1    1    2    0    0 -0.36424380191E+02 -0.32710821703E+02  0.20908228820E+03  0.21473736649E+03  0.00000000000E+00 0. -1.
<mgrwt>
<rscale>  0 0.34842139E+03</rscale>
<asrwt>0</asrwt>
<pdfrwt beam="1">  1        2 0.13186387E+00 0.34842139E+03</pdfrwt>
<pdfrwt beam="2">  1       -2 0.54474982E-02 0.34842139E+03</pdfrwt>
<totfact> 0.55915162E+03</totfact>
</mgrwt>
</event>
<event>
 6    1  0.1045058E-005  0.1259308E+03  0.7546771E-02  0.1249090E+00
         -1   -1    0    0    0  501 -0.00000000000E+00  0.00000000000E+00  0.63853710711E+03  0.63853710711E+03  0.00000000000E+00 0.  1.
          1   -1    0    0  501    0  0.00000000000E+00 -0.00000000000E+00 -0.18866705954E+02  0.18866705954E+02  0.00000000000E+00 0. -1.
          5    1    1    2  502    0 -0.27660350683E+02 -0.20528479482E+02  0.29674750759E+03  0.29877698494E+03  0.47000000000E+01 0. -1.
         -5    1    1    2    0  502  0.18649212100E+02  0.32903305158E+02  0.22141121691E+02  0.44076522911E+02  0.47000000000E+01 0. -1.
        -11    1    1    2    0    0  0.28896946536E+02 -0.38737139360E+02  0.24505178135E+03  0.24977184595E+03  0.00000000000E+00 0.  1.
         11    1    1    2    0    0 -0.19885807953E+02  0.26362313684E+02  0.55729990521E+02  0.64778459261E+02  0.00000000000E+00 0. -1.
<mgrwt>
<rscale>  0 0.11643905E+03</rscale>
<asrwt>0</asrwt>
<pdfrwt beam="2">  1        1 0.29025706E-02 0.12593081E+03</pdfrwt>
<pdfrwt beam="1">  1       -1 0.98236461E-01 0.12593081E+03</pdfrwt>
<totfact> 0.35786663E+03</totfact>
</mgrwt>
</event>
<event>
 6    1  0.1045058E-005  0.2824839E+03  0.7546771E-02  0.1096193E+00
         -1   -1    0    0    0  501 -0.00000000000E+00  0.00000000000E+00  0.52564510967E+02  0.52564510967E+02  0.00000000000E+00 0.  1.
          1   -1    0    0  501    0  0.00000000000E+00 -0.00000000000E+00 -0.16955612957E+04  0.16955612957E+04  0.00000000000E+00 0. -1.
          5    1    1    2  502    0 -0.20253056057E+03 -0.74011589155E+02 -0.86680973278E+03  0.89323991521E+03  0.47000000000E+01 0.  1.
         -5    1    1    2    0  502 -0.49057254580E+02  0.44411534001E+02 -0.30622278860E+03  0.31332648282E+03  0.47000000000E+01 0.  1.
        -11    1    1    2    0    0  0.19521650291E+03 -0.16968770233E+02 -0.34629488802E+03  0.39789140685E+03  0.00000000000E+00 0.  1.
         11    1    1    2    0    0  0.56371312242E+02  0.46568825388E+02 -0.12366937536E+03  0.14366800181E+03  0.00000000000E+00 0. -1.
<mgrwt>
<rscale>  0 0.27907940E+03</rscale>
<asrwt>0</asrwt>
<pdfrwt beam="2">  1        1 0.26085553E+00 0.28248394E+03</pdfrwt>
<pdfrwt beam="1">  1       -1 0.80868495E-02 0.28248394E+03</pdfrwt>
<totfact> 0.45053674E+02</totfact>
</mgrwt>
</event>
<event>
 6    1  0.1045058E-005  0.1553631E+03  0.7546771E-02  0.1214959E+00
          2   -1    0    0  501    0  0.00000000000E+00  0.00000000000E+00  0.12947251774E+04  0.12947251774E+04  0.00000000000E+00 0. -1.
         -2   -1    0    0    0  501 -0.00000000000E+00 -0.00000000000E+00 -0.12539348789E+02  0.12539348789E+02  0.00000000000E+00 0.  1.
          5    1    1    2  502    0 -0.75879938393E+01  0.10163856719E+01  0.57792856419E+03  0.57799837889E+03  0.47000000000E+01 0. -1.
         -5    1    1    2    0  502 -0.80994616672E+02 -0.26801079487E+02  0.24510684603E+03  0.25957249809E+03  0.47000000000E+01 0. -1.
        -11    1    1    2    0    0  0.44812029142E+02  0.27561777757E+02  0.19677984822E+03  0.20369113435E+03  0.00000000000E+00 0.  1.
         11    1    1    2    0    0  0.43770581370E+02 -0.17770839414E+01  0.26237057016E+03  0.26600251485E+03  0.00000000000E+00 0. -1.
<mgrwt>
<rscale>  0 0.13879552E+03</rscale>
<asrwt>0</asrwt>
<pdfrwt beam="1">  1        2 0.19918838E+00 0.15536308E+03</pdfrwt>
<pdfrwt beam="2">  1       -2 0.19291316E-02 0.15536308E+03</pdfrwt>
<totfact> 0.14014237E+04</totfact>
</mgrwt>
</event>
<event>
 6    1  0.1045058E-005  0.1391793E+03  0.7546771E-02  0.1226072E+00
         -2   -1    0    0    0  501 -0.00000000000E+00  0.00000000000E+00  0.37582757925E+02  0.37582757925E+02  0.00000000000E+00 0.  1.
          2   -1    0    0  501    0  0.00000000000E+00 -0.00000000000E+00 -0.42082474382E+03  0.42082474382E+03  0.00000000000E+00 0. -1.
          5    1    1    2  502    0  0.64811041251E+02 -0.24302998360E+02 -0.22573334235E+03  0.23615405702E+03  0.47000000000E+01 0.  1.
         -5    1    1    2    0  502 -0.33573945851E+02 -0.28338635049E+02 -0.25395906723E+02  0.50964008425E+02  0.47000000000E+01 0.  1.
        -11    1    1    2    0    0  0.57496549847E+01  0.30008085599E+02 -0.12331466228E+03  0.12704349518E+03  0.00000000000E+00 0. -1.
         11    1    1    2    0    0 -0.36986750385E+02  0.22633547810E+02 -0.87980745437E+01  0.44245941126E+02  0.00000000000E+00 0.  1.
<mgrwt>
<rscale>  0 0.13093684E+03</rscale>
<asrwt>0</asrwt>
<pdfrwt beam="2">  1        2 0.64742266E-01 0.13917932E+03</pdfrwt>
<pdfrwt beam="1">  1       -2 0.57819630E-02 0.13917932E+03</pdfrwt>
<totfact> 0.11233359E+04</totfact>
</mgrwt>
</event>
<event>
 6    1  0.1045058E-005  0.2652643E+03  0.7546771E-02  0.1104021E+00
          1   -1    0    0  501    0  0.00000000000E+00  0.00000000000E+00  0.41988117086E+02  0.41988117086E+02  0.00000000000E+00 0. -1.
         -1   -1    0    0    0  501 -0.00000000000E+00 -0.00000000000E+00 -0.41895867446E+03  0.41895867446E+03  0.00000000000E+00 0.  1.
          5    1    1    2  502    0  0.65661131891E+02 -0.83498837917E+02 -0.16170720701E+03  0.19353229957E+03  0.47000000000E+01 0. -1.
         -5    1    1    2    0  502 -0.30624114884E+02  0.11118525723E+02 -0.11888624898E+02  0.34998391800E+02  0.47000000000E+01 0. -1.
        -11    1    1    2    0    0 -0.22033612138E+02  0.35023726736E+02 -0.22167356210E+02  0.46941806310E+02  0.00000000000E+00 0. -1.
         11    1    1    2    0    0 -0.13003404869E+02  0.37356585458E+02 -0.18120736926E+03  0.18547429387E+03  0.00000000000E+00 0.  1.
<mgrwt>
<rscale>  0 0.26526429E+03</rscale>
<asrwt>0</asrwt>
<pdfrwt beam="1">  1        1 0.64597105E-02 0.26526429E+03</pdfrwt>
<pdfrwt beam="2">  1       -1 0.64455179E-01 0.26526429E+03</pdfrwt>
<totfact> 0.29354173E+03</totfact>
</mgrwt>
</event>
<event>
 6    1  0.1045058E-005  0.1394283E+03  0.7546771E-02  0.1222974E+00
          2   -1    0    0  501    0  0.00000000000E+00  0.00000000000E+00  0.30407446233E+03  0.30407446233E+03  0.00000000000E+00 0.  1.
         -2   -1    0    0    0  501 -0.00000000000E+00 -0.00000000000E+00 -0.53815592899E+02  0.53815592899E+02  0.00000000000E+00 0. -1.
          5    1    1    2  502    0  0.68776508616E+01  0.40326249508E+02  0.16386626723E+03  0.16896080024E+03  0.47000000000E+01 0.  1.
         -5    1    1    2    0  502  0.32171548794E+02  0.75224128816E+01 -0.13591669613E+02  0.36033577816E+02  0.47000000000E+01 0.  1.
        -11    1    1    2    0    0 -0.19649662075E+02  0.25918429299E+02  0.56237355294E+02  0.64965485663E+02  0.00000000000E+00 0.  1.
         11    1    1    2    0    0 -0.19399537580E+02 -0.73767091688E+02  0.43746916521E+02  0.87930191513E+02  0.00000000000E+00 0. -1.
<mgrwt>
<rscale>  0 0.13306722E+03</rscale>
<asrwt>0</asrwt>
<pdfrwt beam="1">  1        2 0.46780686E-01 0.13942826E+03</pdfrwt>
<pdfrwt beam="2">  1       -2 0.82793222E-02 0.13942826E+03</pdfrwt>
<totfact> 0.91659284E+03</totfact>
</mgrwt>
</event>
<event>
 6    1  0.1045058E-005  0.1328172E+03  0.7546771E-02  0.1233589E+00
         -2   -1    0    0    0  501 -0.00000000000E+00  0.00000000000E+00  0.37509514399E+03  0.37509514399E+03  0.00000000000E+00 0.  1.
          2   -1    0    0  501    0  0.00000000000E+00 -0.00000000000E+00 -0.50858222240E+02  0.50858222240E+02  0.00000000000E+00 0. -1.
          5    1    1    2  502    0  0.84922179487E+02  0.31885229685E+02  0.60009149061E+02  0.10886520294E+03  0.47000000000E+01 0. -1.
         -5    1    1    2    0  502 -0.30831136761E+02 -0.25255435405E+02  0.10381354691E+02  0.41451882185E+02  0.47000000000E+01 0.  1.
        -11    1    1    2    0    0 -0.40201770389E+02  0.19074183267E+02  0.23853670357E+03  0.24265153154E+03  0.00000000000E+00 0.  1.
         11    1    1    2    0    0 -0.13889272336E+02 -0.25703977547E+02  0.15309714430E+02  0.32984749562E+02  0.00000000000E+00 0. -1.
<mgrwt>
<rscale>  0 0.12595168E+03</rscale>
<asrwt>0</asrwt>
<pdfrwt beam="2">  1        2 0.78243421E-02 0.13281718E+03</pdfrwt>
<pdfrwt beam="1">  1       -2 0.57706943E-01 0.13281718E+03</pdfrwt>
<totfact> 0.24095326E+03</totfact>
</mgrwt>
</event>
<event>
 6    1  0.1045058E-005  0.1556485E+03  0.7546771E-02  0.1201814E+00
         -1   -1    0    0    0  501 -0.00000000000E+00  0.00000000000E+00  0.32423970266E+03  0.32423970266E+03  0.00000000000E+00 0.  1.
          1   -1    0    0  501    0  0.00000000000E+00 -0.00000000000E+00 -0.11236573430E+03  0.11236573430E+03  0.00000000000E+00 0. -1.
          5    1    1    2  502    0  0.75468131180E+02  0.43983681305E+02  0.24212498770E+02  0.90765291503E+02  0.47000000000E+01 0. -1.
         -5    1    1    2    0  502 -0.20578180866E+02  0.30772959345E+02 -0.57270261189E+02  0.68355024477E+02  0.47000000000E+01 0. -1.
        -11    1    1    2    0    0 -0.42857421354E+02 -0.82117258524E+01  0.32109841012E+02  0.54177789697E+02  0.00000000000E+00 0. -1.
         11    1    1    2    0    0 -0.12032528960E+02 -0.66544914798E+02  0.21282188977E+03  0.22330733128E+03  0.00000000000E+00 0.  1.
<mgrwt>
<rscale>  0 0.14891396E+03</rscale>
<asrwt>0</asrwt>
<pdfrwt beam="2">  1        1 0.17287036E-01 0.15564851E+03</pdfrwt>
<pdfrwt beam="1">  1       -1 0.49883031E-01 0.15564851E+03</pdfrwt>
<totfact> 0.12586073E+03</totfact>
</mgrwt>
</event>
<event>
 6    1  0.1045058E-005  0.1256852E+03  0.7546771E-02  0.1252823E+00
         -1   -1    0    0    0  501 -0.00000000000E+00  0.00000000000E+00  0.22636146370E+02  0.22636146370E+02  0.00000000000E+00 0.  1.
          1   -1    0    0  501    0  0.00000000000E+00 -0.00000000000E+00 -0.74727251131E+03  0.74727251131E+03  0.00000000000E+00 0. -1.
          5    1    1    2  502    0  0.21245157204E+02  0.49054569687E+02 -0.16826913146E+03  0.17661907630E+03  0.47000000000E+01 0. -1.
         -5    1    1    2    0  502 -0.13716708936E+02 -0.59784489127E+02 -0.46029412654E+03  0.46438680663E+03  0.47000000000E+01 0. -1.
        -11    1    1    2    0    0  0.26904040267E+02 -0.15726429153E+02 -0.73780674860E+02  0.80092046667E+02  0.00000000000E+00 0.  1.
         11    1    1    2    0    0 -0.34432488535E+02  0.26456348592E+02 -0.22292432078E+02  0.48810728078E+02  0.00000000000E+00 0. -1.
<mgrwt>
<rscale>  0 0.11429137E+03</rscale>
<asrwt>0</asrwt>
<pdfrwt beam="2">  1        1 0.11496501E+00 0.12568521E+03</pdfrwt>
<pdfrwt beam="1">  1       -1 0.34824838E-02 0.12568521E+03</pdfrwt>
<totfact> 0.74204155E+03</totfact>
</mgrwt>
</event>
<event>
 6    1  0.1045058E-005  0.1369733E+03  0.7546771E-02  0.1230110E+00
         -2   -1    0    0    0  501 -0.00000000000E+00  0.00000000000E+00  0.11168341023E+03  0.11168341023E+03  0.00000000000E+00 0.  1.
          2   -1    0    0  501    0  0.00000000000E+00 -0.00000000000E+00 -0.17254912204E+03  0.17254912204E+03  0.00000000000E+00 0. -1.
          5    1    1    2  502    0 -0.69564207926E+01  0.41511567983E+02 -0.12533753526E+03  0.13229962136E+03  0.47000000000E+01 0. -1.
         -5    1    1    2    0  502 -0.31005755863E+02 -0.44005495221E+00  0.22822633670E+02  0.38788054252E+02  0.47000000000E+01 0. -1.
        -11    1    1    2    0    0 -0.17441161015E+02 -0.43520488690E+02  0.61212138979E+01  0.47283150201E+02  0.00000000000E+00 0.  1.
         11    1    1    2    0    0  0.55403337670E+02  0.24489756590E+01  0.35527975885E+02  0.65861706456E+02  0.00000000000E+00 0. -1.
<mgrwt>
<rscale>  0 0.12822751E+03</rscale>
<asrwt>0</asrwt>
<pdfrwt beam="2">  1        2 0.26546018E-01 0.13697331E+03</pdfrwt>
<pdfrwt beam="1">  1       -2 0.17182063E-01 0.13697331E+03</pdfrwt>
<totfact> 0.52317847E+03</totfact>
</mgrwt>
</event>
<event>
 6    1  0.1045058E-005  0.3400982E+03  0.7546771E-02  0.1066754E+00
         -1   -1    0    0    0  501 -0.00000000000E+00  0.00000000000E+00  0.38701640378E+02  0.38701640378E+02  0.00000000000E+00 0.  1.
          1   -1    0    0  501    0  0.00000000000E+00 -0.00000000000E+00 -0.74716994174E+03  0.74716994174E+03  0.00000000000E+00 0. -1.
          5    1    1    2  502    0 -0.96711682299E+02 -0.11739430337E+03 -0.39621132753E+03  0.42442912013E+03  0.47000000000E+01 0. -1.
         -5    1    1    2    0  502  0.11446613863E+02  0.22511915391E+02 -0.50355229180E+02  0.56529199617E+02  0.47000000000E+01 0. -1.
        -11    1    1    2    0    0 -0.92705662222E+01  0.50080352572E+02 -0.98573161026E+02  0.11095338294E+03  0.00000000000E+00 0. -1.
         11    1    1    2    0    0  0.94535634658E+02  0.44802035405E+02 -0.16332858363E+03  0.19395987943E+03  0.00000000000E+00 0.  1.
<mgrwt>
<rscale>  0 0.34009824E+03</rscale>
<asrwt>0</asrwt>
<pdfrwt beam="2">  1        1 0.11494921E+00 0.34009824E+03</pdfrwt>
<pdfrwt beam="1">  1       -1 0.59540991E-02 0.34009824E+03</pdfrwt>
<totfact> 0.34672355E+03</totfact>
</mgrwt>
</event>
<event>
 6    1  0.1045058E-005  0.1254551E+03  0.7546771E-02  0.1248412E+00
         -1   -1    0    0    0  501 -0.00000000000E+00  0.00000000000E+00  0.77280644020E+02  0.77280644020E+02  0.00000000000E+00 0.  1.
          1   -1    0    0  501    0  0.00000000000E+00 -0.00000000000E+00 -0.27846616108E+03  0.27846616108E+03  0.00000000000E+00 0. -1.
          5    1    1    2  502    0 -0.15876005833E+01  0.57395925362E+02 -0.17860020687E+03  0.18766176120E+03  0.47000000000E+01 0. -1.
         -5    1    1    2    0  502 -0.75088938669E+01 -0.51795216352E+02 -0.47121147488E+02  0.70580595525E+02  0.47000000000E+01 0. -1.
        -11    1    1    2    0    0  0.35564563125E+02  0.22188393266E+02  0.38253593341E+02  0.56749452416E+02  0.00000000000E+00 0.  1.
         11    1    1    2    0    0 -0.26468068675E+02 -0.27789102276E+02 -0.13717756046E+02  0.40754995959E+02  0.00000000000E+00 0. -1.
<mgrwt>
<rscale>  0 0.11683452E+03</rscale>
<asrwt>0</asrwt>
<pdfrwt beam="2">  1        1 0.42840948E-01 0.12545511E+03</pdfrwt>
<pdfrwt beam="1">  1       -1 0.11889330E-01 0.12545511E+03</pdfrwt>
<totfact> 0.42855827E+03</totfact>
</mgrwt>
</event>
<event>
 6    1  0.1045058E-005  0.1415952E+03  0.7546771E-02  0.1220892E+00
          2   -1    0    0  501    0  0.00000000000E+00  0.00000000000E+00  0.33844597321E+03  0.33844597321E+03  0.00000000000E+00 0. -1.
         -2   -1    0    0    0  501 -0.00000000000E+00 -0.00000000000E+00 -0.59788886743E+02  0.59788886743E+02  0.00000000000E+00 0.  1.
          5    1    1    2  502    0 -0.13643260578E+02 -0.48392394131E+02  0.60455094751E+02  0.78771002598E+02  0.47000000000E+01 0.  1.
         -5    1    1    2    0  502  0.79342960929E+02  0.38179248895E+02  0.17558284636E+03  0.19647998990E+03  0.47000000000E+01 0.  1.
        -11    1    1    2    0    0  0.24721519354E+01 -0.33326647014E+02  0.50576300189E+01  0.33798765625E+02  0.00000000000E+00 0.  1.
         11    1    1    2    0    0 -0.68171852287E+02  0.43539792250E+02  0.37561515330E+02  0.89185101823E+02  0.00000000000E+00 0. -1.
<mgrwt>
<rscale>  0 0.13452503E+03</rscale>
<asrwt>0</asrwt>
<pdfrwt beam="1">  1        2 0.52068610E-01 0.14159519E+03</pdfrwt>
<pdfrwt beam="2">  1       -2 0.91982905E-02 0.14159519E+03</pdfrwt>
<totfact> 0.69527973E+03</totfact>
</mgrwt>
</event>
<event>
 6    1  0.1045058E-005  0.1254299E+03  0.7546771E-02  0.1248458E+00
          1   -1    0    0  501    0  0.00000000000E+00  0.00000000000E+00  0.10800866346E+03  0.10800866346E+03  0.00000000000E+00 0. -1.
         -1   -1    0    0    0  501 -0.00000000000E+00 -0.00000000000E+00 -0.12037933307E+03  0.12037933307E+03  0.00000000000E+00 0.  1.
          5    1    1    2  502    0  0.21050955514E+01  0.49938265269E+02  0.47353102550E+02  0.69012086525E+02  0.47000000000E+01 0. -1.
         -5    1    1    2    0  502  0.79497874285E+01 -0.52537077831E+02 -0.24135225999E+02  0.58548636203E+02  0.47000000000E+01 0. -1.
        -11    1    1    2    0    0 -0.49673608144E+02 -0.96688280164E+01 -0.30386131851E+02  0.59027710357E+02  0.00000000000E+00 0. -1.
         11    1    1    2    0    0  0.39618725164E+02  0.12267640579E+02 -0.52024143101E+01  0.41799563438E+02  0.00000000000E+00 0.  1.
<mgrwt>
<rscale>  0 0.11680789E+03</rscale>
<asrwt>0</asrwt>
<pdfrwt beam="1">  1        1 0.16616717E-01 0.12542993E+03</pdfrwt>
<pdfrwt beam="2">  1       -1 0.18519897E-01 0.12542993E+03</pdfrwt>
<totfact> 0.70093488E+03</totfact>
</mgrwt>
</event>
<event>
 6    1  0.1045058E-005  0.3721985E+03  0.7546771E-02  0.1053855E+00
          1   -1    0    0  501    0  0.00000000000E+00  0.00000000000E+00  0.19479987040E+03  0.19479987040E+03  0.00000000000E+00 0. -1.
         -1   -1    0    0    0  501 -0.00000000000E+00 -0.00000000000E+00 -0.17778723557E+03  0.17778723557E+03  0.00000000000E+00 0.  1.
          5    1    1    2  502    0  0.13335203952E+03 -0.47215608299E+02  0.34071148683E+02  0.14558507232E+03  0.47000000000E+01 0. -1.
         -5    1    1    2    0  502 -0.25316898021E+01 -0.26913884920E+02 -0.41919943206E+02  0.50101280354E+02  0.47000000000E+01 0. -1.
        -11    1    1    2    0    0 -0.63225880784E+02  0.56306338227E+02 -0.28093554601E+02  0.89202934568E+02  0.00000000000E+00 0.  1.
         11    1    1    2    0    0 -0.67594468931E+02  0.17823154993E+02  0.52954983956E+02  0.87697818729E+02  0.00000000000E+00 0. -1.
<mgrwt>
<rscale>  0 0.37219850E+03</rscale>
<asrwt>0</asrwt>
<pdfrwt beam="1">  1        1 0.29969211E-01 0.37219850E+03</pdfrwt>
<pdfrwt beam="2">  1       -1 0.27351882E-01 0.37219850E+03</pdfrwt>
<totfact> 0.18226339E+03</totfact>
</mgrwt>
</event>
<event>
 6    1  0.1045058E-005  0.3338345E+03  0.7546771E-02  0.1069453E+00
          2   -1    0    0  501    0  0.00000000000E+00  0.00000000000E+00  0.35690562353E+02  0.35690562353E+02  0.00000000000E+00 0.  1.
         -2   -1    0    0    0  501 -0.00000000000E+00 -0.00000000000E+00 -0.78063677887E+03  0.78063677887E+03  0.00000000000E+00 0. -1.
          5    1    1    2  502    0  0.12670572904E+03 -0.57439676673E+02 -0.20697864672E+03  0.24943116971E+03  0.47000000000E+01 0.  1.
         -5    1    1    2    0  502 -0.17381157463E+02 -0.12563283916E+01 -0.12577116877E+03  0.12705967059E+03  0.47000000000E+01 0.  1.
        -11    1    1    2    0    0 -0.65822840082E+02  0.16848575506E+01 -0.10161134214E+03  0.12107993175E+03  0.00000000000E+00 0.  1.
         11    1    1    2    0    0 -0.43501731495E+02  0.57011147514E+02 -0.31058505889E+03  0.31875656917E+03  0.00000000000E+00 0. -1.
<mgrwt>
<rscale>  0 0.33383448E+03</rscale>
<asrwt>0</asrwt>
<pdfrwt beam="1">  1        2 0.54908563E-02 0.33383448E+03</pdfrwt>
<pdfrwt beam="2">  1       -2 0.12009795E+00 0.33383448E+03</pdfrwt>
<totfact> 0.77311343E+02</totfact>
</mgrwt>
</event>
<event>
 6    1  0.1045058E-005  0.1470903E+03  0.7546771E-02  0.1214167E+00
          3   -1    0    0  501    0  0.00000000000E+00  0.00000000000E+00  0.11252549450E+03  0.11252549450E+03  0.00000000000E+00 0. -1.
         -3   -1    0    0    0  501 -0.00000000000E+00 -0.00000000000E+00 -0.15763130337E+03  0.15763130337E+03  0.00000000000E+00 0.  1.
          5    1    1    2  502    0  0.45839909728E+02 -0.23015713174E+02 -0.32790938306E+02  0.61060265408E+02  0.47000000000E+01 0. -1.
         -5    1    1    2    0  502  0.84708962395E+00  0.84917452413E+02  0.17464937657E+02  0.86826294016E+02  0.47000000000E+01 0. -1.
        -11    1    1    2    0    0 -0.80681830986E+01 -0.28480727292E+02 -0.57124278791E+02  0.64338407137E+02  0.00000000000E+00 0.  1.
         11    1    1    2    0    0 -0.38618816253E+02 -0.33421011946E+02  0.27344470572E+02  0.57931831312E+02  0.00000000000E+00 0. -1.
<mgrwt>
<rscale>  0 0.13937933E+03</rscale>
<asrwt>0</asrwt>
<pdfrwt beam="1">  1        3 0.17311615E-01 0.14709027E+03</pdfrwt>
<pdfrwt beam="2">  1       -3 0.24250970E-01 0.14709027E+03</pdfrwt>
<totfact> 0.10724155E+03</totfact>
</mgrwt>
</event>
<event>
 6    1  0.1045058E-005  0.1331679E+03  0.7546771E-02  0.1232628E+00
         -2   -1    0    0    0  501 -0.00000000000E+00  0.00000000000E+00  0.33633199700E+03  0.33633199700E+03  0.00000000000E+00 0.  1.
          2   -1    0    0  501    0  0.00000000000E+00 -0.00000000000E+00 -0.44608957501E+02  0.44608957501E+02  0.00000000000E+00 0. -1.
          5    1    1    2  502    0 -0.35814956494E+02  0.60267844916E+02  0.45904108733E+02  0.83929741082E+02  0.47000000000E+01 0. -1.
         -5    1    1    2    0  502  0.56106565654E+02 -0.13926507603E+02  0.84210486980E+02  0.10225160361E+03  0.47000000000E+01 0.  1.
        -11    1    1    2    0    0  0.30593448734E+02  0.10393548879E+02  0.53205410589E+02  0.62247896990E+02  0.00000000000E+00 0. -1.
         11    1    1    2    0    0 -0.50885057894E+02 -0.56734886192E+02  0.10840303319E+03  0.13251171282E+03  0.00000000000E+00 0.  1.
<mgrwt>
<rscale>  0 0.12657540E+03</rscale>
<asrwt>0</asrwt>
<pdfrwt beam="2">  1        2 0.68629168E-02 0.13316788E+03</pdfrwt>
<pdfrwt beam="1">  1       -2 0.51743382E-01 0.13316788E+03</pdfrwt>
<totfact> 0.35433529E+03</totfact>
</mgrwt>
</event>
<event>
 6    1  0.1045058E-005  0.3048795E+03  0.7546771E-02  0.1126361E+00
          2   -1    0    0  501    0  0.00000000000E+00  0.00000000000E+00  0.21320013977E+04  0.21320013977E+04  0.00000000000E+00 0. -1.
         -2   -1    0    0    0  501 -0.00000000000E+00 -0.00000000000E+00 -0.20523391397E+02  0.20523391397E+02  0.00000000000E+00 0.  1.
          5    1    1    2  502    0 -0.54637387571E+02 -0.69349740037E+02  0.16999565491E+04  0.17022540908E+04  0.47000000000E+01 0. -1.
         -5    1    1    2    0  502  0.63180446669E+02  0.33188838917E+02  0.97747289440E+02  0.12111932324E+03  0.47000000000E+01 0.  1.
        -11    1    1    2    0    0 -0.21972465916E+01  0.66697963062E+02  0.23877826898E+03  0.24792843303E+03  0.00000000000E+00 0.  1.
         11    1    1    2    0    0 -0.63458125059E+01 -0.30537061943E+02  0.74995898791E+02  0.81222942103E+02  0.00000000000E+00 0. -1.
<mgrwt>
<rscale>  0 0.23039654E+03</rscale>
<asrwt>0</asrwt>
<pdfrwt beam="1">  1        2 0.32800004E+00 0.30487951E+03</pdfrwt>
<pdfrwt beam="2">  1       -2 0.31574465E-02 0.30487951E+03</pdfrwt>
<totfact> 0.24761627E+03</totfact>
</mgrwt>
</event>
<event>
 6    1  0.1045058E-005  0.2526882E+03  0.7546771E-02  0.1113682E+00
         -1   -1    0    0    0  501 -0.00000000000E+00  0.00000000000E+00  0.10589640930E+03  0.10589640930E+03  0.00000000000E+00 0.  1.
          1   -1    0    0  501    0  0.00000000000E+00 -0.00000000000E+00 -0.58742287915E+03  0.58742287915E+03  0.00000000000E+00 0. -1.
          5    1    1    2  502    0  0.14415901998E+03 -0.14915203192E+03 -0.20237749000E+03  0.28983942128E+03  0.47000000000E+01 0. -1.
         -5    1    1    2    0  502 -0.83956086435E+01 -0.23456312171E+02  0.10501968722E+02  0.27442051166E+02  0.47000000000E+01 0. -1.
        -11    1    1    2    0    0 -0.94904938794E+02  0.10228107871E+03 -0.24824532343E+03  0.28477027070E+03  0.00000000000E+00 0. -1.
         11    1    1    2    0    0 -0.40858472546E+02  0.70327265378E+02 -0.41405625138E+02  0.91267545313E+02  0.00000000000E+00 0.  1.
<mgrwt>
<rscale>  0 0.24940409E+03</rscale>
<asrwt>0</asrwt>
<pdfrwt beam="2">  1        1 0.90372752E-01 0.25268818E+03</pdfrwt>
<pdfrwt beam="1">  1       -1 0.16291755E-01 0.25268818E+03</pdfrwt>
<totfact> 0.10213091E+03</totfact>
</mgrwt>
</event>
<event>
 6    1  0.1045058E-005  0.1782449E+03  0.7546771E-02  0.1175187E+00
          2   -1    0    0  501    0  0.00000000000E+00  0.00000000000E+00  0.21604381684E+03  0.21604381684E+03  0.00000000000E+00 0. -1.
         -2   -1    0    0    0  501 -0.00000000000E+00 -0.00000000000E+00 -0.14322031670E+03  0.14322031670E+03  0.00000000000E+00 0.  1.
          5    1    1    2  502    0 -0.92275081203E+02 -0.10907975736E+02  0.98282918170E+02  0.13533401845E+03  0.47000000000E+01 0. -1.
         -5    1    1    2    0  502 -0.97187145729E+01 -0.64873835678E+02 -0.47941376831E+01  0.65940440737E+02  0.47000000000E+01 0. -1.
        -11    1    1    2    0    0  0.10233473334E+03  0.35726629950E+02 -0.37280434770E+02  0.11462382192E+03  0.00000000000E+00 0.  1.
         11    1    1    2    0    0 -0.34093756381E+00  0.40055181463E+02  0.16615154421E+02  0.43365852429E+02  0.00000000000E+00 0. -1.
<mgrwt>
<rscale>  0 0.17257713E+03</rscale>
<asrwt>0</asrwt>
<pdfrwt beam="1">  1        2 0.33237510E-01 0.17824493E+03</pdfrwt>
<pdfrwt beam="2">  1       -2 0.22033895E-01 0.17824493E+03</pdfrwt>
<totfact> 0.27259724E+03</totfact>
</mgrwt>
</event>
<event>
 6    1  0.1045058E-005  0.1303846E+03  0.7546771E-02  0.1237982E+00
         -2   -1    0    0    0  501 -0.00000000000E+00  0.00000000000E+00  0.12228407728E+02  0.12228407728E+02  0.00000000000E+00 0.  1.
          2   -1    0    0  501    0  0.00000000000E+00 -0.00000000000E+00 -0.13735270311E+04  0.13735270311E+04  0.00000000000E+00 0. -1.
          5    1    1    2  502    0  0.26709140991E+02  0.72956640785E+02 -0.83922796051E+03  0.84282958500E+03  0.47000000000E+01 0. -1.
         -5    1    1    2    0  502 -0.34473664080E+02 -0.25072776293E+02 -0.20004120667E+03  0.20458653912E+03  0.47000000000E+01 0.  1.
        -11    1    1    2    0    0  0.41163553172E+02  0.50106649880E+00 -0.17949937607E+03  0.18415948303E+03  0.00000000000E+00 0. -1.
         11    1    1    2    0    0 -0.33399030084E+02 -0.48384930990E+02 -0.14253008014E+03  0.15417983169E+03  0.00000000000E+00 0.  1.
<mgrwt>
<rscale>  0 0.12315420E+03</rscale>
<asrwt>0</asrwt>
<pdfrwt beam="2">  1        2 0.21131168E+00 0.13038457E+03</pdfrwt>
<pdfrwt beam="1">  1       -2 0.18812951E-02 0.13038457E+03</pdfrwt>
<totfact> 0.13064297E+04</totfact>
</mgrwt>
</event>
<event>
 6    1  0.1045058E-005  0.1313948E+03  0.7546771E-02  0.1239228E+00
         -1   -1    0    0    0  501 -0.00000000000E+00  0.00000000000E+00  0.11669876312E+02  0.11669876312E+02  0.00000000000E+00 0.  1.
          1   -1    0    0  501    0  0.00000000000E+00 -0.00000000000E+00 -0.11470217613E+04  0.11470217613E+04  0.00000000000E+00 0. -1.
          5    1    1    2  502    0  0.57319350974E+01  0.19350789457E+02 -0.67557043581E+03  0.67588816521E+03  0.47000000000E+01 0. -1.
         -5    1    1    2    0  502  0.27799822425E+02  0.34343072533E+01 -0.28133422856E+02  0.39977544631E+02  0.47000000000E+01 0. -1.
        -11    1    1    2    0    0 -0.54139165142E+02  0.14685664370E+02 -0.24777076919E+03  0.25404147694E+03  0.00000000000E+00 0. -1.
         11    1    1    2    0    0  0.20607407620E+02 -0.37470761080E+02 -0.18387725710E+03  0.18878445080E+03  0.00000000000E+00 0.  1.
<mgrwt>
<rscale>  0 0.12237622E+03</rscale>
<asrwt>0</asrwt>
<pdfrwt beam="2">  1        1 0.17646498E+00 0.13139480E+03</pdfrwt>
<pdfrwt beam="1">  1       -1 0.17953646E-02 0.13139480E+03</pdfrwt>
<totfact> 0.96840008E+03</totfact>
</mgrwt>
</event>
<event>
 6    1  0.1045058E-005  0.1964730E+03  0.7546771E-02  0.1155482E+00
         -1   -1    0    0    0  501 -0.00000000000E+00  0.00000000000E+00  0.80374863745E+02  0.80374863745E+02  0.00000000000E+00 0.  1.
          1   -1    0    0  501    0  0.00000000000E+00 -0.00000000000E+00 -0.72728370323E+03  0.72728370323E+03  0.00000000000E+00 0. -1.
          5    1    1    2  502    0 -0.31250885897E+01 -0.19948875658E+02 -0.29391473767E+02  0.35967659764E+02  0.47000000000E+01 0. -1.
         -5    1    1    2    0  502  0.15476961063E+03  0.71483245626E+02 -0.54939872481E+03  0.57526040678E+03  0.47000000000E+01 0.  1.
        -11    1    1    2    0    0 -0.15541798209E+03 -0.37907874660E+02 -0.39911240274E+02  0.16487772202E+03  0.00000000000E+00 0. -1.
         11    1    1    2    0    0  0.37734600565E+01 -0.13626495308E+02 -0.28207400631E+02  0.31552778412E+02  0.00000000000E+00 0.  1.
<mgrwt>
<rscale>  0 0.19334096E+03</rscale>
<asrwt>0</asrwt>
<pdfrwt beam="2">  1        1 0.11188980E+00 0.19647304E+03</pdfrwt>
<pdfrwt beam="1">  1       -1 0.12365364E-01 0.19647304E+03</pdfrwt>
<totfact> 0.11643393E+03</totfact>
</mgrwt>
</event>
<event>
 6    1  0.1045058E-005  0.1695277E+03  0.7546771E-02  0.1185374E+00
          1   -1    0    0  501    0  0.00000000000E+00  0.00000000000E+00  0.32446468977E+03  0.32446468977E+03  0.00000000000E+00 0. -1.
         -1   -1    0    0    0  501 -0.00000000000E+00 -0.00000000000E+00 -0.77282055826E+02  0.77282055826E+02  0.00000000000E+00 0.  1.
          5    1    1    2  502    0  0.67586328659E+02 -0.43717961161E+02  0.91347191368E+02  0.12184240362E+03  0.47000000000E+01 0.  1.
         -5    1    1    2    0  502  0.42195445583E+02  0.76325583272E+02  0.66242253618E+02  0.10961832171E+03  0.47000000000E+01 0.  1.
        -11    1    1    2    0    0 -0.10470944706E+03 -0.57222289150E+02  0.69339795271E+02  0.13800893409E+03  0.00000000000E+00 0. -1.
         11    1    1    2    0    0 -0.50723271809E+01  0.24614667038E+02  0.20253393691E+02  0.32277086183E+02  0.00000000000E+00 0.  1.
<mgrwt>
<rscale>  0 0.16297886E+03</rscale>
<asrwt>0</asrwt>
<pdfrwt beam="1">  1        1 0.49917644E-01 0.16952768E+03</pdfrwt>
<pdfrwt beam="2">  1       -1 0.11889547E-01 0.16952768E+03</pdfrwt>
<totfact> 0.35983014E+03</totfact>
</mgrwt>
</event>
<event>
 6    1  0.1045058E-005  0.1261294E+03  0.7546771E-02  0.1250116E+00
         -2   -1    0    0    0  501 -0.00000000000E+00  0.00000000000E+00  0.14281513119E+03  0.14281513119E+03  0.00000000000E+00 0.  1.
          2   -1    0    0  501    0  0.00000000000E+00 -0.00000000000E+00 -0.91267033283E+02  0.91267033283E+02  0.00000000000E+00 0. -1.
          5    1    1    2  502    0  0.53155036244E+02  0.82293037816E+01 -0.11702042925E+02  0.55246783865E+02  0.47000000000E+01 0.  1.
         -5    1    1    2    0  502 -0.70032758866E+02 -0.10940868136E+02  0.37179487460E+01  0.71135104223E+02  0.47000000000E+01 0.  1.
        -11    1    1    2    0    0 -0.83781762174E+01 -0.25046020734E+02  0.64639282613E+02  0.69826455216E+02  0.00000000000E+00 0.  1.
         11    1    1    2    0    0  0.25255898839E+02  0.27757585088E+02 -0.51070905289E+01  0.37873821166E+02  0.00000000000E+00 0. -1.
<mgrwt>
<rscale>  0 0.11584368E+03</rscale>
<asrwt>0</asrwt>
<pdfrwt beam="2">  1        2 0.14041082E-01 0.12612944E+03</pdfrwt>
<pdfrwt beam="1">  1       -2 0.21971559E-01 0.12612944E+03</pdfrwt>
<totfact> 0.70837682E+03</totfact>
</mgrwt>
</event>
<event>
 6    1  0.1045058E-005  0.2498388E+03  0.7546771E-02  0.1116801E+00
         -2   -1    0    0    0  501 -0.00000000000E+00  0.00000000000E+00  0.39267179617E+02  0.39267179617E+02  0.00000000000E+00 0.  1.
          2   -1    0    0  501    0  0.00000000000E+00 -0.00000000000E+00 -0.16319009027E+04  0.16319009027E+04  0.00000000000E+00 0. -1.
          5    1    1    2  502    0  0.17221364555E+03  0.16555498196E+02 -0.80352837026E+03  0.82195593316E+03  0.47000000000E+01 0. -1.
         -5    1    1    2    0  502  0.30841451821E+02 -0.69202720979E+02 -0.29285030098E+03  0.30252867720E+03  0.47000000000E+01 0.  1.
        -11    1    1    2    0    0 -0.19349963049E+03  0.35546365035E+02 -0.48655262131E+03  0.52482292668E+03  0.00000000000E+00 0.  1.
         11    1    1    2    0    0 -0.95554668857E+01  0.17100857748E+02 -0.97024305784E+01  0.21860545333E+02  0.00000000000E+00 0. -1.
<mgrwt>
<rscale>  0 0.24454666E+03</rscale>
<asrwt>0</asrwt>
<pdfrwt beam="2">  1        2 0.25106169E+00 0.24983884E+03</pdfrwt>
<pdfrwt beam="1">  1       -2 0.60411042E-02 0.24983884E+03</pdfrwt>
<totfact> 0.17018724E+03</totfact>
</mgrwt>
</event>
<event>
 6    1  0.1045058E-005  0.2519792E+03  0.7546771E-02  0.1138247E+00
         -3   -1    0    0    0  501 -0.00000000000E+00  0.00000000000E+00  0.20011190809E+03  0.20011190809E+03  0.00000000000E+00 0.  1.
          3   -1    0    0  501    0  0.00000000000E+00 -0.00000000000E+00 -0.18414849448E+03  0.18414849448E+03  0.00000000000E+00 0. -1.
          5    1    1    2  502    0 -0.12606158232E+02 -0.13854918062E+03  0.13187418268E+02  0.13982413481E+03  0.47000000000E+01 0. -1.
         -5    1    1    2    0  502  0.83656076483E+02  0.74005514452E+02 -0.93787950721E+01  0.11218380943E+03  0.47000000000E+01 0.  1.
        -11    1    1    2    0    0 -0.49830384969E+02  0.34839564344E+02  0.50698425767E+02  0.79165604179E+02  0.00000000000E+00 0.  1.
         11    1    1    2    0    0 -0.21219533283E+02  0.29704101822E+02 -0.38543635351E+02  0.53086854153E+02  0.00000000000E+00 0. -1.
<mgrwt>
<rscale>  0 0.21424659E+03</rscale>
<asrwt>0</asrwt>
<pdfrwt beam="2">  1        3 0.28330538E-01 0.25197916E+03</pdfrwt>
<pdfrwt beam="1">  1       -3 0.30786447E-01 0.25197916E+03</pdfrwt>
<totfact> 0.30566784E+02</totfact>
</mgrwt>
</event>
<event>
 6    1  0.1045058E-005  0.2920483E+03  0.7546771E-02  0.1089285E+00
         -2   -1    0    0    0  501 -0.00000000000E+00  0.00000000000E+00  0.26202689962E+03  0.26202689962E+03  0.00000000000E+00 0.  1.
          2   -1    0    0  501    0  0.00000000000E+00 -0.00000000000E+00 -0.81377350568E+02  0.81377350568E+02  0.00000000000E+00 0. -1.
          5    1    1    2  502    0  0.65163404275E+02  0.61234144367E+02  0.13729758672E+03  0.16391646352E+03  0.47000000000E+01 0.  1.
         -5    1    1    2    0  502  0.48084782823E+01  0.79337778462E+01 -0.27490038444E+02  0.29391469986E+02  0.47000000000E+01 0.  1.
        -11    1    1    2    0    0 -0.50756151616E+02 -0.38263803839E+01 -0.12554444232E+01  0.50915658244E+02  0.00000000000E+00 0. -1.
         11    1    1    2    0    0 -0.19215730941E+02 -0.65341541829E+02  0.72097445196E+02  0.99180658437E+02  0.00000000000E+00 0.  1.
<mgrwt>
<rscale>  0 0.29204832E+03</rscale>
<asrwt>0</asrwt>
<pdfrwt beam="2">  1        2 0.12519593E-01 0.29204832E+03</pdfrwt>
<pdfrwt beam="1">  1       -2 0.40311830E-01 0.29204832E+03</pdfrwt>
<totfact> 0.28429491E+03</totfact>
</mgrwt>
</event>
<event>
 6    1  0.1045058E-005  0.3865714E+03  0.7546771E-02  0.1048531E+00
          1   -1    0    0  501    0  0.00000000000E+00  0.00000000000E+00  0.24942237403E+03  0.24942237403E+03  0.00000000000E+00 0. -1.
         -1   -1    0    0    0  501 -0.00000000000E+00 -0.00000000000E+00 -0.14978355118E+03  0.14978355118E+03  0.00000000000E+00 0.  1.
          5    1    1    2  502    0  0.68617831079E+02  0.11783209748E+03  0.16001750346E+02  0.13737159805E+03  0.47000000000E+01 0.  1.
         -5    1    1    2    0  502 -0.75117680304E+01  0.23872363395E+02  0.78554956522E+02  0.82578977876E+02  0.47000000000E+01 0.  1.
        -11    1    1    2    0    0 -0.22147947686E+02 -0.11356497992E+03  0.37101652391E+02  0.12150748479E+03  0.00000000000E+00 0. -1.
         11    1    1    2    0    0 -0.38958115363E+02 -0.28139480951E+02 -0.32019536411E+02  0.57747864487E+02  0.00000000000E+00 0.  1.
<mgrwt>
<rscale>  0 0.38657144E+03</rscale>
<asrwt>0</asrwt>
<pdfrwt beam="1">  1        1 0.38372673E-01 0.38657144E+03</pdfrwt>
<pdfrwt beam="2">  1       -1 0.23043623E-01 0.38657144E+03</pdfrwt>
<totfact> 0.17757085E+03</totfact>
</mgrwt>
</event>
<event>
 6    1  0.1045058E-005  0.1804431E+03  0.7546771E-02  0.1172498E+00
          2   -1    0    0  501    0  0.00000000000E+00  0.00000000000E+00  0.66769998301E+02  0.66769998301E+02  0.00000000000E+00 0.  1.
         -2   -1    0    0    0  501 -0.00000000000E+00 -0.00000000000E+00 -0.45020080662E+03  0.45020080662E+03  0.00000000000E+00 0. -1.
          5    1    1    2  502    0 -0.13596572316E+02 -0.55234116721E+02 -0.62675973106E+02  0.84770525736E+02  0.47000000000E+01 0.  1.
         -5    1    1    2    0  502 -0.11557370680E+03  0.39304290478E+02 -0.92784435600E+02  0.15340518389E+03  0.47000000000E+01 0.  1.
        -11    1    1    2    0    0  0.28768958871E+02 -0.12458766183E+02 -0.38606165552E+01  0.31587627475E+02  0.00000000000E+00 0.  1.
         11    1    1    2    0    0  0.10040132024E+03  0.28388592426E+02 -0.22410978306E+03  0.24720746783E+03  0.00000000000E+00 0. -1.
<mgrwt>
<rscale>  0 0.17523285E+03</rscale>
<asrwt>0</asrwt>
<pdfrwt beam="1">  1        2 0.10272308E-01 0.18044315E+03</pdfrwt>
<pdfrwt beam="2">  1       -2 0.69261660E-01 0.18044315E+03</pdfrwt>
<totfact> 0.11911311E+03</totfact>
</mgrwt>
</event>
<event>
 6    1  0.1045058E-005  0.3190494E+03  0.7546771E-02  0.1076088E+00
         -2   -1    0    0    0  501 -0.00000000000E+00  0.00000000000E+00  0.14596424374E+02  0.14596424374E+02  0.00000000000E+00 0.  1.
          2   -1    0    0  501    0  0.00000000000E+00 -0.00000000000E+00 -0.17434491057E+04  0.17434491057E+04  0.00000000000E+00 0. -1.
          5    1    1    2  502    0  0.35361517638E+01  0.12180952429E+03 -0.83477962901E+03  0.84364043502E+03  0.47000000000E+01 0. -1.
         -5    1    1    2    0  502  0.22382125708E+02 -0.24645154984E+02 -0.42190552684E+03  0.42324308240E+03  0.47000000000E+01 0. -1.
        -11    1    1    2    0    0  0.28854597641E+02 -0.66431315377E+02 -0.25857697348E+03  0.26852887867E+03  0.00000000000E+00 0.  1.
         11    1    1    2    0    0 -0.54772875113E+02 -0.30733053927E+02 -0.21359055204E+03  0.22263313404E+03  0.00000000000E+00 0. -1.
<mgrwt>
<rscale>  0 0.31904936E+03</rscale>
<asrwt>0</asrwt>
<pdfrwt beam="2">  1        2 0.26822289E+00 0.31904936E+03</pdfrwt>
<pdfrwt beam="1">  1       -2 0.22456041E-02 0.31904936E+03</pdfrwt>
<totfact> 0.66124009E+03</totfact>
</mgrwt>
</event>
<event>
 6    1  0.1045058E-005  0.1541666E+03  0.7546771E-02  0.1203766E+00
         -3   -1    0    0    0  501 -0.00000000000E+00  0.00000000000E+00  0.42133987233E+02  0.42133987233E+02  0.00000000000E+00 0.  1.
          3   -1    0    0  501    0  0.00000000000E+00 -0.00000000000E+00 -0.56141678581E+03  0.56141678581E+03  0.00000000000E+00 0. -1.
          5    1    1    2  502    0  0.24666109103E+02  0.24094816413E+02 -0.30807161653E+03  0.31003094689E+03  0.47000000000E+01 0. -1.
         -5    1    1    2    0  502 -0.34936841532E+02  0.65548713333E+02 -0.89607685984E+02  0.11648538150E+03  0.47000000000E+01 0. -1.
        -11    1    1    2    0    0 -0.14359685911E+02 -0.24255732449E+02  0.84263533869E+01  0.29420138808E+02  0.00000000000E+00 0.  1.
         11    1    1    2    0    0  0.24630418339E+02 -0.65387797297E+02 -0.13002984945E+03  0.14761430585E+03  0.00000000000E+00 0. -1.
<mgrwt>
<rscale>  0 0.14735163E+03</rscale>
<asrwt>0</asrwt>
<pdfrwt beam="2">  1        3 0.86371806E-01 0.15416663E+03</pdfrwt>
<pdfrwt beam="1">  1       -3 0.64821524E-02 0.15416663E+03</pdfrwt>
<totfact> 0.44783817E+02</totfact>
</mgrwt>
</event>
<event>
 6    1  0.1045058E-005  0.1270325E+03  0.7546771E-02  0.1261827E+00
          2   -1    0    0  501    0  0.00000000000E+00  0.00000000000E+00  0.34672557807E+03  0.34672557807E+03  0.00000000000E+00 0.  1.
         -2   -1    0    0    0  501 -0.00000000000E+00 -0.00000000000E+00 -0.28125649246E+02  0.28125649246E+02  0.00000000000E+00 0. -1.
          5    1    1    2  502    0  0.19058573139E+02  0.62277354332E+02  0.63318038164E+02  0.90955824605E+02  0.47000000000E+01 0.  1.
         -5    1    1    2    0  502 -0.54104066395E+01 -0.44193345226E+02  0.15808053506E+03  0.16429811267E+03  0.47000000000E+01 0.  1.
        -11    1    1    2    0    0  0.24833483786E+02 -0.82469782694E+01  0.58755910841E+02  0.64319294355E+02  0.00000000000E+00 0.  1.
         11    1    1    2    0    0 -0.38481650286E+02 -0.98370308364E+01  0.38445444761E+02  0.55277995688E+02  0.00000000000E+00 0. -1.
<mgrwt>
<rscale>  0 0.10932368E+03</rscale>
<asrwt>0</asrwt>
<pdfrwt beam="1">  1        2 0.53342393E-01 0.12703245E+03</pdfrwt>
<pdfrwt beam="2">  1       -2 0.43270232E-02 0.12703245E+03</pdfrwt>
<totfact> 0.21172860E+04</totfact>
</mgrwt>
</event>
<event>
 6    1  0.1045058E-005  0.1341832E+03  0.7546771E-02  0.1230447E+00
         -2   -1    0    0    0  501 -0.00000000000E+00  0.00000000000E+00  0.41574814746E+02  0.41574814746E+02  0.00000000000E+00 0.  1.
          2   -1    0    0  501    0  0.00000000000E+00 -0.00000000000E+00 -0.36355160050E+03  0.36355160050E+03  0.00000000000E+00 0. -1.
          5    1    1    2  502    0 -0.35924405694E+02 -0.96119975545E+01 -0.54154115927E+01  0.37873078884E+02  0.47000000000E+01 0.  1.
         -5    1    1    2    0  502  0.24273645034E+02  0.56966527675E+02 -0.18443986187E+03  0.19461384268E+03  0.47000000000E+01 0.  1.
        -11    1    1    2    0    0 -0.88546241845E+01 -0.52594545167E+02 -0.14018736101E+03  0.14999028881E+03  0.00000000000E+00 0. -1.
         11    1    1    2    0    0  0.20505384844E+02  0.52400150464E+01  0.80658487216E+01  0.22649204862E+02  0.00000000000E+00 0.  1.
<mgrwt>
<rscale>  0 0.12800432E+03</rscale>
<asrwt>0</asrwt>
<pdfrwt beam="2">  1        2 0.55931017E-01 0.13418325E+03</pdfrwt>
<pdfrwt beam="1">  1       -2 0.63961251E-02 0.13418325E+03</pdfrwt>
<totfact> 0.11237034E+04</totfact>
</mgrwt>
</event>
<event>
 6    1  0.1045058E-005  0.1441390E+03  0.7546771E-02  0.1218790E+00
          3   -1    0    0  501    0  0.00000000000E+00  0.00000000000E+00  0.11544105293E+03  0.11544105293E+03  0.00000000000E+00 0. -1.
         -3   -1    0    0    0  501 -0.00000000000E+00 -0.00000000000E+00 -0.14470193620E+03  0.14470193620E+03  0.00000000000E+00 0.  1.
          5    1    1    2  502    0  0.77890837823E+02 -0.21425531824E+02  0.38827686207E+02  0.89753636399E+02  0.47000000000E+01 0.  1.
         -5    1    1    2    0  502 -0.64430572483E+01  0.14584074320E+02 -0.52457884172E+02  0.55028427402E+02  0.47000000000E+01 0.  1.
        -11    1    1    2    0    0  0.92893877704E+01 -0.12703784874E+02  0.19594108415E+02  0.25131811711E+02  0.00000000000E+00 0.  1.
         11    1    1    2    0    0 -0.80737168345E+02  0.19545242378E+02 -0.35224793725E+02  0.90229113622E+02  0.00000000000E+00 0. -1.
<mgrwt>
<rscale>  0 0.13601757E+03</rscale>
<asrwt>0</asrwt>
<pdfrwt beam="1">  1        3 0.17760162E-01 0.14413904E+03</pdfrwt>
<pdfrwt beam="2">  1       -3 0.22261836E-01 0.14413904E+03</pdfrwt>
<totfact> 0.11921729E+03</totfact>
</mgrwt>
</event>
<event>
 6    1  0.1045058E-005  0.1293538E+03  0.7546771E-02  0.1242051E+00
          2   -1    0    0  501    0  0.00000000000E+00  0.00000000000E+00  0.25221833005E+03  0.25221833005E+03  0.00000000000E+00 0. -1.
         -2   -1    0    0    0  501 -0.00000000000E+00 -0.00000000000E+00 -0.51257779915E+02  0.51257779915E+02  0.00000000000E+00 0.  1.
          5    1    1    2  502    0  0.47293878702E+02 -0.65909242381E+01 -0.18578623430E+00  0.47982035820E+02  0.47000000000E+01 0.  1.
         -5    1    1    2    0  502 -0.45628359263E+02 -0.26651357699E+02  0.10833208239E+03  0.12062409424E+03  0.47000000000E+01 0.  1.
        -11    1    1    2    0    0  0.11515068835E+02 -0.17900947998E+02 -0.66110301825E+01  0.22287809887E+02  0.00000000000E+00 0.  1.
         11    1    1    2    0    0 -0.13180588273E+02  0.51143229935E+02  0.99425284164E+02  0.11258217002E+03  0.00000000000E+00 0. -1.
<mgrwt>
<rscale>  0 0.12063662E+03</rscale>
<asrwt>0</asrwt>
<pdfrwt beam="1">  1        2 0.38802819E-01 0.12935380E+03</pdfrwt>
<pdfrwt beam="2">  1       -2 0.78858125E-02 0.12935380E+03</pdfrwt>
<totfact> 0.11980563E+04</totfact>
</mgrwt>
</event>
<event>
 6    1  0.1045058E-005  0.1545289E+03  0.7546771E-02  0.1203343E+00
         -3   -1    0    0    0  501 -0.00000000000E+00  0.00000000000E+00  0.65327538306E+02  0.65327538306E+02  0.00000000000E+00 0.  1.
          3   -1    0    0  501    0  0.00000000000E+00 -0.00000000000E+00 -0.31986263171E+03  0.31986263171E+03  0.00000000000E+00 0. -1.
          5    1    1    2  502    0 -0.51661781269E+02  0.47282634525E+02 -0.85956094910E+02  0.11097354380E+03  0.47000000000E+01 0. -1.
         -5    1    1    2    0  502  0.73351662866E+02  0.40957245679E+02 -0.90098461162E+02  0.12327929722E+03  0.47000000000E+01 0. -1.
        -11    1    1    2    0    0  0.49860813389E+01 -0.31319953311E+02 -0.82059407318E+02  0.87974694157E+02  0.00000000000E+00 0. -1.
         11    1    1    2    0    0 -0.26675962936E+02 -0.56919926893E+02  0.35788699834E+01  0.62962634844E+02  0.00000000000E+00 0.  1.
<mgrwt>
<rscale>  0 0.14768814E+03</rscale>
<asrwt>0</asrwt>
<pdfrwt beam="2">  1        3 0.49209635E-01 0.15452892E+03</pdfrwt>
<pdfrwt beam="1">  1       -3 0.10050391E-01 0.15452892E+03</pdfrwt>
<totfact> 0.71187126E+02</totfact>
</mgrwt>
</event>
<event>
 6    1  0.1045058E-005  0.1663343E+03  0.7546771E-02  0.1189645E+00
          1   -1    0    0  501    0  0.00000000000E+00  0.00000000000E+00  0.43584400463E+02  0.43584400463E+02  0.00000000000E+00 0. -1.
         -1   -1    0    0    0  501 -0.00000000000E+00 -0.00000000000E+00 -0.54615124814E+03  0.54615124814E+03  0.00000000000E+00 0.  1.
          5    1    1    2  502    0 -0.82733049677E+02 -0.48685063615E+02 -0.95142743126E+02  0.13523765932E+03  0.47000000000E+01 0. -1.
         -5    1    1    2    0  502  0.36070797344E+02 -0.49671178454E+02 -0.13848069814E+03  0.15154973490E+03  0.47000000000E+01 0.  1.
        -11    1    1    2    0    0  0.65207252929E+02  0.10135060349E+03 -0.23730270752E+03  0.26615128340E+03  0.00000000000E+00 0.  1.
         11    1    1    2    0    0 -0.18545000596E+02 -0.29943614166E+01 -0.31640698893E+02  0.36796970988E+02  0.00000000000E+00 0. -1.
<mgrwt>
<rscale>  0 0.15916339E+03</rscale>
<asrwt>0</asrwt>
<pdfrwt beam="1">  1        1 0.67052924E-02 0.16633429E+03</pdfrwt>
<pdfrwt beam="2">  1       -1 0.84023269E-01 0.16633429E+03</pdfrwt>
<totfact> 0.16032907E+03</totfact>
</mgrwt>
</event>
<event>
 6    1  0.1045058E-005  0.1487138E+03  0.7546771E-02  0.1211036E+00
         -2   -1    0    0    0  501 -0.00000000000E+00  0.00000000000E+00  0.13946956703E+02  0.13946956703E+02  0.00000000000E+00 0.  1.
          2   -1    0    0  501    0  0.00000000000E+00 -0.00000000000E+00 -0.14923973177E+04  0.14923973177E+04  0.00000000000E+00 0. -1.
          5    1    1    2  502    0 -0.88090216412E+01 -0.59905535030E+02 -0.34062058021E+03  0.34599240115E+03  0.47000000000E+01 0.  1.
         -5    1    1    2    0  502 -0.70747455512E+02  0.47083505223E+02 -0.71642724755E+03  0.72146527980E+03  0.47000000000E+01 0.  1.
        -11    1    1    2    0    0 -0.19886806171E+01  0.33190513564E+02 -0.68918522252E+02  0.76520113374E+02  0.00000000000E+00 0.  1.
         11    1    1    2    0    0  0.81545157770E+02 -0.20368483758E+02 -0.35248401098E+03  0.36236648007E+03  0.00000000000E+00 0. -1.
<mgrwt>
<rscale>  0 0.14171776E+03</rscale>
<asrwt>0</asrwt>
<pdfrwt beam="2">  1        2 0.22959958E+00 0.14871379E+03</pdfrwt>
<pdfrwt beam="1">  1       -2 0.21456857E-02 0.14871379E+03</pdfrwt>
<totfact> 0.94009720E+03</totfact>
</mgrwt>
</event>
<event>
 6    1  0.1045058E-005  0.1294349E+03  0.7546771E-02  0.1240854E+00
         -2   -1    0    0    0  501 -0.00000000000E+00  0.00000000000E+00  0.44920426210E+02  0.44920426210E+02  0.00000000000E+00 0.  1.
          2   -1    0    0  501    0  0.00000000000E+00 -0.00000000000E+00 -0.44268116762E+03  0.44268116762E+03  0.00000000000E+00 0. -1.
          5    1    1    2  502    0 -0.76230436339E+02  0.86042492741E+01 -0.30471451676E+03  0.31425807747E+03  0.47000000000E+01 0. -1.
         -5    1    1    2    0  502  0.38353186099E+02  0.74045418599E+01 -0.51951180374E+02  0.65167547647E+02  0.47000000000E+01 0.  1.
        -11    1    1    2    0    0  0.58675026401E+02 -0.17813896385E+02 -0.55585511010E+02  0.82763776266E+02  0.00000000000E+00 0.  1.
         11    1    1    2    0    0 -0.20797776161E+02  0.18051052513E+01  0.14490466742E+02  0.25412192440E+02  0.00000000000E+00 0. -1.
<mgrwt>
<rscale>  0 0.12136970E+03</rscale>
<asrwt>0</asrwt>
<pdfrwt beam="2">  1        2 0.68104797E-01 0.12943487E+03</pdfrwt>
<pdfrwt beam="1">  1       -2 0.69108346E-02 0.12943487E+03</pdfrwt>
<totfact> 0.80701447E+03</totfact>
</mgrwt>
</event>
<event>
 6    1  0.1129882E-005  0.3249128E+03  0.7546771E-02  0.1074542E+00
          1   -1    0    0  501    0  0.00000000000E+00  0.00000000000E+00  0.81533562168E+03  0.81533562168E+03  0.00000000000E+00 0. -1.
         -1   -1    0    0    0  501 -0.00000000000E+00 -0.00000000000E+00 -0.13457265434E+03  0.13457265434E+03  0.00000000000E+00 0.  1.
          5    1    1    2  502    0 -0.38817822027E+02  0.27967922313E+03  0.45717128124E+03  0.53735924813E+03  0.47000000000E+01 0.  1.
         -5    1    1    2    0  502 -0.27300272027E+02  0.12846552301E+02  0.10886510068E+02  0.32418279723E+02  0.47000000000E+01 0.  1.
        -11    1    1    2    0    0  0.77563687990E+02 -0.12490514724E+03  0.97800843060E+02  0.17658546487E+03  0.00000000000E+00 0.  1.
         11    1    1    2    0    0 -0.11445593937E+02 -0.16762062819E+03  0.11490433297E+03  0.20354528330E+03  0.00000000000E+00 0. -1.
<mgrwt>
<rscale>  0 0.32241829E+03</rscale>
<asrwt>0</asrwt>
<pdfrwt beam="1">  1        1 0.12543625E+00 0.32491281E+03</pdfrwt>
<pdfrwt beam="2">  1       -1 0.20703486E-01 0.32491281E+03</pdfrwt>
<totfact> 0.42681315E+02</totfact>
</mgrwt>
</event>
<event>
 6    1  0.1045058E-005  0.1253756E+03  0.7546771E-02  0.1250082E+00
         -2   -1    0    0    0  501 -0.00000000000E+00  0.00000000000E+00  0.16007113162E+03  0.16007113162E+03  0.00000000000E+00 0. -1.
          2   -1    0    0  501    0  0.00000000000E+00 -0.00000000000E+00 -0.77042147386E+02  0.77042147386E+02  0.00000000000E+00 0.  1.
          5    1    1    2  502    0 -0.26084737292E+02 -0.54202422339E+02  0.32773126915E+02  0.68662099843E+02  0.47000000000E+01 0.  1.
         -5    1    1    2    0  502  0.32866631313E+02  0.47238878595E+02 -0.10472914830E+02  0.58681334765E+02  0.47000000000E+01 0.  1.
        -11    1    1    2    0    0 -0.23409266542E+02 -0.35202367467E+02  0.45122843944E+02  0.61832608557E+02  0.00000000000E+00 0. -1.
         11    1    1    2    0    0  0.16627372521E+02  0.42165911211E+02  0.15605928207E+02  0.47937235845E+02  0.00000000000E+00 0.  1.
<mgrwt>
<rscale>  0 0.11586305E+03</rscale>
<asrwt>0</asrwt>
<pdfrwt beam="2">  1        2 0.11852638E-01 0.12537564E+03</pdfrwt>
<pdfrwt beam="1">  1       -2 0.24626328E-01 0.12537564E+03</pdfrwt>
<totfact> 0.71140477E+03</totfact>
</mgrwt>
</event>
<event>
 6    1  0.1045058E-005  0.1626625E+03  0.7546771E-02  0.1190301E+00
         -3   -1    0    0    0  501 -0.00000000000E+00  0.00000000000E+00  0.10723599118E+03  0.10723599118E+03  0.00000000000E+00 0.  1.
          3   -1    0    0  501    0  0.00000000000E+00 -0.00000000000E+00 -0.90349785634E+03  0.90349785634E+03  0.00000000000E+00 0. -1.
          5    1    1    2  502    0  0.51976550897E+02  0.79804577054E+02 -0.32833138963E+03  0.34189753403E+03  0.47000000000E+01 0. -1.
         -5    1    1    2    0  502  0.44124051361E+02 -0.10016590247E+02 -0.51308123230E+03  0.51509387972E+03  0.47000000000E+01 0.  1.
        -11    1    1    2    0    0 -0.38055545774E+02 -0.49189724098E+01 -0.21612812517E+02  0.44040146669E+02  0.00000000000E+00 0. -1.
         11    1    1    2    0    0 -0.58045056484E+02 -0.64869014397E+02  0.66763569282E+02  0.10970228710E+03  0.00000000000E+00 0.  1.
<mgrwt>
<rscale>  0 0.15858701E+03</rscale>
<asrwt>0</asrwt>
<pdfrwt beam="2">  1        3 0.13899967E+00 0.16266248E+03</pdfrwt>
<pdfrwt beam="1">  1       -3 0.16497845E-01 0.16266248E+03</pdfrwt>
<totfact> 0.31513434E+01</totfact>
</mgrwt>
</event>
<event>
 6    1  0.1045058E-005  0.2937219E+03  0.7546771E-02  0.1088422E+00
          2   -1    0    0  501    0  0.00000000000E+00  0.00000000000E+00  0.99557545366E+03  0.99557545366E+03  0.00000000000E+00 0. -1.
         -2   -1    0    0    0  501 -0.00000000000E+00 -0.00000000000E+00 -0.21663995781E+02  0.21663995781E+02  0.00000000000E+00 0.  1.
          5    1    1    2  502    0  0.16451382658E+02 -0.11775453534E+02  0.22693456114E+02  0.30763488874E+02  0.47000000000E+01 0. -1.
         -5    1    1    2    0  502 -0.56165772536E+02  0.74840529917E+02  0.71849153903E+03  0.72457427541E+03  0.47000000000E+01 0. -1.
        -11    1    1    2    0    0  0.49678783529E+02 -0.24432215457E+02  0.49123101990E+02  0.74013470627E+02  0.00000000000E+00 0.  1.
         11    1    1    2    0    0 -0.99643936517E+01 -0.38632860926E+02  0.18360336075E+03  0.18788821454E+03  0.00000000000E+00 0. -1.
<mgrwt>
<rscale>  0 0.29372193E+03</rscale>
<asrwt>0</asrwt>
<pdfrwt beam="1">  1        2 0.15316542E+00 0.29372193E+03</pdfrwt>
<pdfrwt beam="2">  1       -2 0.33329232E-02 0.29372193E+03</pdfrwt>
<totfact> 0.95599584E+03</totfact>
</mgrwt>
</event>
<event>
 6    1  0.1045058E-005  0.1301290E+03  0.7546771E-02  0.1241887E+00
          1   -1    0    0  501    0  0.00000000000E+00  0.00000000000E+00  0.32614735315E+03  0.32614735315E+03  0.00000000000E+00 0. -1.
         -1   -1    0    0    0  501 -0.00000000000E+00 -0.00000000000E+00 -0.66469413469E+02  0.66469413469E+02  0.00000000000E+00 0.  1.
          5    1    1    2  502    0 -0.65145656976E+02 -0.15690296496E+02  0.12867308660E+03  0.14515162845E+03  0.47000000000E+01 0.  1.
         -5    1    1    2    0  502  0.59283353349E+02 -0.19949130261E+02  0.13717323463E+03  0.15083457853E+03  0.47000000000E+01 0.  1.
        -11    1    1    2    0    0  0.34046926116E+02 -0.15773418151E+00  0.24292157778E+02  0.41824956515E+02  0.00000000000E+00 0. -1.
         11    1    1    2    0    0 -0.28184622489E+02  0.35797160939E+02 -0.30460539333E+02  0.54805603113E+02  0.00000000000E+00 0.  1.
<mgrwt>
<rscale>  0 0.12073624E+03</rscale>
<asrwt>0</asrwt>
<pdfrwt beam="1">  1        1 0.50176515E-01 0.13012904E+03</pdfrwt>
<pdfrwt beam="2">  1       -1 0.10226064E-01 0.13012904E+03</pdfrwt>
<totfact> 0.44501241E+03</totfact>
</mgrwt>
</event>
<event>
 6    1  0.1045058E-005  0.1294559E+03  0.7546771E-02  0.1242384E+00
         -1   -1    0    0    0  501 -0.00000000000E+00  0.00000000000E+00  0.34960371136E+02  0.34960371136E+02  0.00000000000E+00 0.  1.
          1   -1    0    0  501    0  0.00000000000E+00 -0.00000000000E+00 -0.43431402371E+03  0.43431402371E+03  0.00000000000E+00 0. -1.
          5    1    1    2  502    0  0.77922839867E+02  0.12669217499E+02 -0.15253994818E+03  0.17182259408E+03  0.47000000000E+01 0.  1.
         -5    1    1    2    0  502 -0.44785519136E+02 -0.66037002691E+01 -0.16315801609E+03  0.16938707092E+03  0.47000000000E+01 0.  1.
        -11    1    1    2    0    0  0.89539792511E+01 -0.18673807079E+02 -0.81481215919E+02  0.84071834540E+02  0.00000000000E+00 0. -1.
         11    1    1    2    0    0 -0.42091299982E+02  0.12608289849E+02 -0.21744723838E+01  0.43992895304E+02  0.00000000000E+00 0.  1.
<mgrwt>
<rscale>  0 0.12043304E+03</rscale>
<asrwt>0</asrwt>
<pdfrwt beam="2">  1        1 0.66817540E-01 0.12945590E+03</pdfrwt>
<pdfrwt beam="1">  1       -1 0.53785188E-02 0.12945590E+03</pdfrwt>
<totfact> 0.81572316E+03</totfact>
</mgrwt>
</event>
<event>
 6    1  0.1045058E-005  0.1272737E+03  0.7546771E-02  0.1245886E+00
          2   -1    0    0  501    0  0.00000000000E+00  0.00000000000E+00  0.80146000302E+02  0.80146000302E+02  0.00000000000E+00 0.  1.
         -2   -1    0    0    0  501 -0.00000000000E+00 -0.00000000000E+00 -0.15649412919E+03  0.15649412919E+03  0.00000000000E+00 0. -1.
          5    1    1    2  502    0  0.23752209973E+02 -0.45763646987E+02 -0.26201373676E+02  0.58026552945E+02  0.47000000000E+01 0.  1.
         -5    1    1    2    0  502 -0.45057492433E+02  0.56665558248E+02 -0.33096207798E+01  0.72623733762E+02  0.47000000000E+01 0.  1.
        -11    1    1    2    0    0 -0.35570183608E+02  0.40664933300E+01 -0.22860937176E+02  0.42478191798E+02  0.00000000000E+00 0.  1.
         11    1    1    2    0    0  0.56875466068E+02 -0.14968404591E+02 -0.23976197261E+02  0.63511650990E+02  0.00000000000E+00 0. -1.
<mgrwt>
<rscale>  0 0.11832483E+03</rscale>
<asrwt>0</asrwt>
<pdfrwt beam="1">  1        2 0.12330154E-01 0.12727372E+03</pdfrwt>
<pdfrwt beam="2">  1       -2 0.24076020E-01 0.12727372E+03</pdfrwt>
<totfact> 0.70650842E+03</totfact>
</mgrwt>
</event>
<event>
 6    1  0.1045058E-005  0.2112393E+03  0.7546771E-02  0.1144187E+00
         -2   -1    0    0    0  501 -0.00000000000E+00  0.00000000000E+00  0.41911600743E+02  0.41911600743E+02  0.00000000000E+00 0.  1.
          2   -1    0    0  501    0  0.00000000000E+00 -0.00000000000E+00 -0.12096203836E+04  0.12096203836E+04  0.00000000000E+00 0. -1.
          5    1    1    2  502    0 -0.63770429026E+02  0.13200282712E+02 -0.44583283298E+03  0.45058841535E+03  0.47000000000E+01 0. -1.
         -5    1    1    2    0  502 -0.76362990353E+02 -0.10999004371E+03 -0.43183211654E+03  0.45213956129E+03  0.47000000000E+01 0. -1.
        -11    1    1    2    0    0  0.12479534446E+03  0.46389087674E+02 -0.15785853771E+03  0.20650700565E+03  0.00000000000E+00 0.  1.
         11    1    1    2    0    0  0.15338074916E+02  0.50400673326E+02 -0.13218529565E+03  0.14229700207E+03  0.00000000000E+00 0. -1.
<mgrwt>
<rscale>  0 0.20672409E+03</rscale>
<asrwt>0</asrwt>
<pdfrwt beam="2">  1        2 0.18609543E+00 0.21123929E+03</pdfrwt>
<pdfrwt beam="1">  1       -2 0.64479389E-02 0.21123929E+03</pdfrwt>
<totfact> 0.26057665E+03</totfact>
</mgrwt>
</event>
<event>
 6    1  0.1045058E-005  0.2278874E+03  0.7546771E-02  0.1131179E+00
         -1   -1    0    0    0  501 -0.00000000000E+00  0.00000000000E+00  0.15218179913E+03  0.15218179913E+03  0.00000000000E+00 0.  1.
          1   -1    0    0  501    0  0.00000000000E+00 -0.00000000000E+00 -0.42580521737E+03  0.42580521737E+03  0.00000000000E+00 0. -1.
          5    1    1    2  502    0  0.81043317101E+02 -0.57553773995E+02 -0.10989436592E+03  0.14825423370E+03  0.47000000000E+01 0. -1.
         -5    1    1    2    0  502 -0.25745212088E+02 -0.12479208495E+03 -0.17666623662E+03  0.21787365507E+03  0.47000000000E+01 0. -1.
        -11    1    1    2    0    0 -0.17939977623E+02 -0.55086820287E+01  0.76127094417E+01  0.20251955951E+02  0.00000000000E+00 0.  1.
         11    1    1    2    0    0 -0.37358127390E+02  0.18785454097E+03  0.53244748674E+01  0.19160717178E+03  0.00000000000E+00 0. -1.
<mgrwt>
<rscale>  0 0.22366559E+03</rscale>
<asrwt>0</asrwt>
<pdfrwt beam="2">  1        1 0.65508494E-01 0.22788737E+03</pdfrwt>
<pdfrwt beam="1">  1       -1 0.23412585E-01 0.22788737E+03</pdfrwt>
<totfact> 0.86970798E+02</totfact>
</mgrwt>
</event>
<event>
 6    1  0.1045058E-005  0.3651052E+03  0.7546771E-02  0.1056581E+00
         -2   -1    0    0    0  501 -0.00000000000E+00  0.00000000000E+00  0.19021519363E+03  0.19021519363E+03  0.00000000000E+00 0.  1.
          2   -1    0    0  501    0  0.00000000000E+00 -0.00000000000E+00 -0.17519870641E+03  0.17519870641E+03  0.00000000000E+00 0. -1.
          5    1    1    2  502    0  0.99302258319E+02 -0.16212372355E+00 -0.81544023569E+02  0.12857870186E+03  0.47000000000E+01 0.  1.
         -5    1    1    2    0  502 -0.38522604428E+02 -0.27386533395E+01 -0.44140702795E+02  0.58838617567E+02  0.47000000000E+01 0.  1.
        -11    1    1    2    0    0 -0.26717904504E+02 -0.38741071133E+02  0.32602562730E+02  0.57250712748E+02  0.00000000000E+00 0. -1.
         11    1    1    2    0    0 -0.34061749388E+02  0.41641848196E+02  0.10809865085E+03  0.12074586787E+03  0.00000000000E+00 0.  1.
<mgrwt>
<rscale>  0 0.36510522E+03</rscale>
<asrwt>0</asrwt>
<pdfrwt beam="2">  1        2 0.26953647E-01 0.36510522E+03</pdfrwt>
<pdfrwt beam="1">  1       -2 0.29263876E-01 0.36510522E+03</pdfrwt>
<totfact> 0.21264657E+03</totfact>
</mgrwt>
</event>
<event>
 6    1  0.1045058E-005  0.1255360E+03  0.7546771E-02  0.1250545E+00
         -2   -1    0    0    0  501 -0.00000000000E+00  0.00000000000E+00  0.10875058205E+03  0.10875058205E+03  0.00000000000E+00 0.  1.
          2   -1    0    0  501    0  0.00000000000E+00 -0.00000000000E+00 -0.10743048895E+03  0.10743048895E+03  0.00000000000E+00 0. -1.
          5    1    1    2  502    0 -0.18867030047E+01  0.30296981418E+02  0.54399806844E+02  0.62473159965E+02  0.47000000000E+01 0. -1.
         -5    1    1    2    0  502  0.36042069384E+01 -0.18860786462E+02 -0.60016417790E+02  0.63188448137E+02  0.47000000000E+01 0. -1.
        -11    1    1    2    0    0  0.13026665009E+02 -0.16758309899E+02  0.44781243754E+02  0.49556984816E+02  0.00000000000E+00 0.  1.
         11    1    1    2    0    0 -0.14744168943E+02  0.53221149422E+01 -0.37844539709E+02  0.40962478087E+02  0.00000000000E+00 0. -1.
<mgrwt>
<rscale>  0 0.11559579E+03</rscale>
<asrwt>0</asrwt>
<pdfrwt beam="2">  1        2 0.16527767E-01 0.12553602E+03</pdfrwt>
<pdfrwt beam="1">  1       -2 0.16730859E-01 0.12553602E+03</pdfrwt>
<totfact> 0.92550010E+03</totfact>
</mgrwt>
</event>
<event>
 6    1  0.1045058E-005  0.1257968E+03  0.7546771E-02  0.1251298E+00
         -1   -1    0    0    0  501 -0.00000000000E+00  0.00000000000E+00  0.33518997933E+02  0.33518997933E+02  0.00000000000E+00 0.  1.
          1   -1    0    0  501    0  0.00000000000E+00 -0.00000000000E+00 -0.42080732146E+03  0.42080732146E+03  0.00000000000E+00 0. -1.
          5    1    1    2  502    0  0.31780031152E+02  0.26310306545E+02 -0.27845742259E+02  0.49996779621E+02  0.47000000000E+01 0. -1.
         -5    1    1    2    0  502 -0.29685729361E+02 -0.12341894062E+02 -0.29036325793E+03  0.29217542065E+03  0.47000000000E+01 0. -1.
        -11    1    1    2    0    0 -0.19389566359E+02 -0.28596535641E+00  0.15450930098E+02  0.24794521585E+02  0.00000000000E+00 0.  1.
         11    1    1    2    0    0  0.17295264568E+02 -0.13682447127E+02 -0.84530253435E+02  0.87359597536E+02  0.00000000000E+00 0. -1.
<mgrwt>
<rscale>  0 0.11516222E+03</rscale>
<asrwt>0</asrwt>
<pdfrwt beam="2">  1        1 0.64739593E-01 0.12579685E+03</pdfrwt>
<pdfrwt beam="1">  1       -1 0.51567685E-02 0.12579685E+03</pdfrwt>
<totfact> 0.90182598E+03</totfact>
</mgrwt>
</event>
<event>
 6    1  0.1045058E-005  0.2145072E+03  0.7546771E-02  0.1141442E+00
          1   -1    0    0  501    0  0.00000000000E+00  0.00000000000E+00  0.18475288021E+04  0.18475288021E+04  0.00000000000E+00 0. -1.
         -1   -1    0    0    0  501 -0.00000000000E+00 -0.00000000000E+00 -0.23284081367E+02  0.23284081367E+02  0.00000000000E+00 0.  1.
          5    1    1    2  502    0  0.10917274103E+03  0.30640674309E+02  0.84283320736E+03  0.85043955914E+03  0.47000000000E+01 0. -1.
         -5    1    1    2    0  502  0.64628769062E+02 -0.43943429489E+02  0.21229020247E+03  0.22626781223E+03  0.47000000000E+01 0. -1.
        -11    1    1    2    0    0 -0.52037799596E+02 -0.37297116124E+02  0.20429610642E+03  0.21409321931E+03  0.00000000000E+00 0.  1.
         11    1    1    2    0    0 -0.12176371050E+03  0.50599871303E+02  0.56482520447E+03  0.58001229278E+03  0.00000000000E+00 0. -1.
<mgrwt>
<rscale>  0 0.21015629E+03</rscale>
<asrwt>0</asrwt>
<pdfrwt beam="1">  1        1 0.28423509E+00 0.21450723E+03</pdfrwt>
<pdfrwt beam="2">  1       -1 0.35821678E-02 0.21450723E+03</pdfrwt>
<totfact> 0.12330352E+03</totfact>
</mgrwt>
</event>
<event>
 6    1  0.1045058E-005  0.1582676E+03  0.7546771E-02  0.1198465E+00
          2   -1    0    0  501    0  0.00000000000E+00  0.00000000000E+00  0.62155730030E+03  0.62155730030E+03  0.00000000000E+00 0.  1.
         -2   -1    0    0    0  501 -0.00000000000E+00 -0.00000000000E+00 -0.35610569391E+02  0.35610569391E+02  0.00000000000E+00 0. -1.
          5    1    1    2  502    0  0.15110750946E+02  0.26026275932E+02  0.30250731645E+03  0.30403695226E+03  0.47000000000E+01 0.  1.
         -5    1    1    2    0  502 -0.25805850253E+02  0.70449952116E+02  0.79277737515E+02  0.10925285958E+03  0.47000000000E+01 0.  1.
        -11    1    1    2    0    0  0.26723169706E+02 -0.82409828286E+02  0.80075765937E+02  0.11797303034E+03  0.00000000000E+00 0. -1.
         11    1    1    2    0    0 -0.16028070400E+02 -0.14066399762E+02  0.12408591101E+03  0.12590502752E+03  0.00000000000E+00 0.  1.
<mgrwt>
<rscale>  0 0.15164561E+03</rscale>
<asrwt>0</asrwt>
<pdfrwt beam="1">  1        2 0.95624192E-01 0.15826763E+03</pdfrwt>
<pdfrwt beam="2">  1       -2 0.54785496E-02 0.15826763E+03</pdfrwt>
<totfact> 0.79762870E+03</totfact>
</mgrwt>
</event>
<event>
 6    1  0.1045058E-005  0.2465769E+03  0.7546771E-02  0.1133422E+00
          1   -1    0    0  501    0  0.00000000000E+00  0.00000000000E+00  0.28838389992E+04  0.28838389992E+04  0.00000000000E+00 0. -1.
         -1   -1    0    0    0  501 -0.00000000000E+00 -0.00000000000E+00 -0.18812695628E+02  0.18812695628E+02  0.00000000000E+00 0.  1.
          5    1    1    2  502    0 -0.59475340654E+02 -0.74367738534E+02  0.23267104565E+04  0.23286630317E+04  0.47000000000E+01 0. -1.
         -5    1    1    2    0  502 -0.12401368097E+02 -0.31475481313E+02  0.48543973494E+02  0.59355768188E+02  0.47000000000E+01 0.  1.
        -11    1    1    2    0    0  0.20454309540E+02  0.10416295825E+03  0.34699317495E+03  0.36286714389E+03  0.00000000000E+00 0.  1.
         11    1    1    2    0    0  0.51422399211E+02  0.16802615958E+01  0.14277869861E+03  0.15176575106E+03  0.00000000000E+00 0. -1.
<mgrwt>
<rscale>  0 0.22061894E+03</rscale>
<asrwt>0</asrwt>
<pdfrwt beam="1">  1        1 0.44366719E+00 0.24657693E+03</pdfrwt>
<pdfrwt beam="2">  1       -1 0.28942631E-02 0.24657693E+03</pdfrwt>
<totfact> 0.34838670E+02</totfact>
</mgrwt>
</event>
<event>
 6    1  0.1045058E-005  0.3022183E+03  0.7546771E-02  0.1084137E+00
          1   -1    0    0  501    0  0.00000000000E+00  0.00000000000E+00  0.77593555020E+03  0.77593555020E+03  0.00000000000E+00 0. -1.
         -1   -1    0    0    0  501 -0.00000000000E+00 -0.00000000000E+00 -0.29427679330E+02  0.29427679330E+02  0.00000000000E+00 0.  1.
          5    1    1    2  502    0  0.25367858847E+02  0.44571997515E+01  0.36221957968E+03  0.36316457536E+03  0.47000000000E+01 0. -1.
         -5    1    1    2    0  502  0.76010875449E+01 -0.89737180705E+02  0.17319067220E+03  0.19526299462E+03  0.47000000000E+01 0.  1.
        -11    1    1    2    0    0 -0.40926387099E+02  0.47930355869E+02  0.47448822604E+02  0.78890296876E+02  0.00000000000E+00 0.  1.
         11    1    1    2    0    0  0.79574407070E+01  0.37349625084E+02  0.16364879639E+03  0.16804536268E+03  0.00000000000E+00 0. -1.
<mgrwt>
<rscale>  0 0.30221835E+03</rscale>
<asrwt>0</asrwt>
<pdfrwt beam="1">  1        1 0.11937468E+00 0.30221835E+03</pdfrwt>
<pdfrwt beam="2">  1       -1 0.45273359E-02 0.30221835E+03</pdfrwt>
<totfact> 0.49386551E+03</totfact>
</mgrwt>
</event>
<event>
 6    1  0.1045058E-005  0.2046672E+03  0.7546771E-02  0.1149747E+00
          1   -1    0    0  501    0  0.00000000000E+00  0.00000000000E+00  0.22919902481E+04  0.22919902481E+04  0.00000000000E+00 0. -1.
         -1   -1    0    0    0  501 -0.00000000000E+00 -0.00000000000E+00 -0.16825179359E+02  0.16825179359E+02  0.00000000000E+00 0.  1.
          5    1    1    2  502    0 -0.10710919857E+03 -0.14747576853E+02  0.55702060283E+03  0.56743626375E+03  0.47000000000E+01 0. -1.
         -5    1    1    2    0  502 -0.16434988587E+02 -0.90131383881E+02  0.73315080696E+03  0.73886803352E+03  0.47000000000E+01 0. -1.
        -11    1    1    2    0    0  0.83785428977E+02  0.11792034371E+03  0.77687570353E+03  0.79022848867E+03  0.00000000000E+00 0.  1.
         11    1    1    2    0    0  0.39758758181E+02 -0.13041382976E+02  0.20811795540E+03  0.21228264150E+03  0.00000000000E+00 0. -1.
<mgrwt>
<rscale>  0 0.19999014E+03</rscale>
<asrwt>0</asrwt>
<pdfrwt beam="1">  1        1 0.35261364E+00 0.20466717E+03</pdfrwt>
<pdfrwt beam="2">  1       -1 0.25884910E-02 0.20466717E+03</pdfrwt>
<totfact> 0.10277159E+03</totfact>
</mgrwt>
</event>
<event>
 6    1  0.1045058E-005  0.1305305E+03  0.7546771E-02  0.1240123E+00
          1   -1    0    0  501    0  0.00000000000E+00  0.00000000000E+00  0.99510804939E+02  0.99510804939E+02  0.00000000000E+00 0. -1.
         -1   -1    0    0    0  501 -0.00000000000E+00 -0.00000000000E+00 -0.18412753693E+03  0.18412753693E+03  0.00000000000E+00 0.  1.
          5    1    1    2  502    0 -0.73142237797E+02  0.14720894632E+02 -0.13977148821E+02  0.76052234536E+02  0.47000000000E+01 0. -1.
         -5    1    1    2    0  502  0.38791773230E+02  0.54345110870E+00  0.42159942096E+02  0.57486065502E+02  0.47000000000E+01 0. -1.
        -11    1    1    2    0    0  0.28773458993E+02 -0.50634122275E+02 -0.45640232745E+02  0.73991601726E+02  0.00000000000E+00 0. -1.
         11    1    1    2    0    0  0.55770055739E+01  0.35369776534E+02 -0.67159292522E+02  0.76108440106E+02  0.00000000000E+00 0.  1.
<mgrwt>
<rscale>  0 0.12182097E+03</rscale>
<asrwt>0</asrwt>
<pdfrwt beam="1">  1        1 0.15309355E-01 0.13053049E+03</pdfrwt>
<pdfrwt beam="2">  1       -1 0.28327313E-01 0.13053049E+03</pdfrwt>
<totfact> 0.39134084E+03</totfact>
</mgrwt>
</event>
<event>
 6    1  0.1045058E-005  0.1433593E+03  0.7546771E-02  0.1217978E+00
         -1   -1    0    0    0  501 -0.00000000000E+00  0.00000000000E+00  0.36111602488E+02  0.36111602488E+02  0.00000000000E+00 0.  1.
          1   -1    0    0  501    0  0.00000000000E+00 -0.00000000000E+00 -0.49200575173E+03  0.49200575173E+03  0.00000000000E+00 0. -1.
          5    1    1    2  502    0 -0.93864100150E+02 -0.75817554059E+01 -0.25189369836E+03  0.26896185154E+03  0.47000000000E+01 0. -1.
         -5    1    1    2    0  502  0.27581600108E+02  0.30648270170E+02 -0.48112011082E+02  0.63536735353E+02  0.47000000000E+01 0. -1.
        -11    1    1    2    0    0  0.24751336758E+02  0.54008300607E+01  0.60390671317E+01  0.26043578258E+02  0.00000000000E+00 0.  1.
         11    1    1    2    0    0  0.41531163284E+02 -0.28467344825E+02 -0.16192750693E+03  0.16957518906E+03  0.00000000000E+00 0. -1.
<mgrwt>
<rscale>  0 0.13660023E+03</rscale>
<asrwt>0</asrwt>
<pdfrwt beam="2">  1        1 0.75693187E-01 0.14335928E+03</pdfrwt>
<pdfrwt beam="1">  1       -1 0.55556315E-02 0.14335928E+03</pdfrwt>
<totfact> 0.66643399E+03</totfact>
</mgrwt>
</event>
<event>
 6    1  0.1045058E-005  0.1303633E+03  0.7546771E-02  0.1240602E+00
          4   -1    0    0  501    0  0.00000000000E+00  0.00000000000E+00  0.16710869927E+03  0.16710869927E+03  0.00000000000E+00 0.  1.
         -4   -1    0    0    0  501 -0.00000000000E+00 -0.00000000000E+00 -0.78566008095E+02  0.78566008095E+02  0.00000000000E+00 0. -1.
          5    1    1    2  502    0  0.25397082495E+02  0.20763813178E+02  0.71519478266E+02  0.78824320538E+02  0.47000000000E+01 0. -1.
         -5    1    1    2    0  502 -0.60865459100E+02 -0.10207865087E+02 -0.14330312549E+02  0.63531507765E+02  0.47000000000E+01 0. -1.
        -11    1    1    2    0    0  0.62133233346E+02  0.11819190111E+02  0.24587288430E+02  0.67858431261E+02  0.00000000000E+00 0.  1.
         11    1    1    2    0    0 -0.26664856741E+02 -0.22375138202E+02  0.67662370265E+01  0.35460447798E+02  0.00000000000E+00 0. -1.
<mgrwt>
<rscale>  0 0.12152530E+03</rscale>
<asrwt>0</asrwt>
<pdfrwt beam="1">  1        4 0.25709031E-01 0.13036327E+03</pdfrwt>
<pdfrwt beam="2">  1       -4 0.12087078E-01 0.13036327E+03</pdfrwt>
<totfact> 0.12751824E+03</totfact>
</mgrwt>
</event>
<event>
 6    1  0.1045058E-005  0.1280926E+03  0.7546771E-02  0.1244373E+00
         -1   -1    0    0    0  501 -0.00000000000E+00  0.00000000000E+00  0.77214884301E+03  0.77214884301E+03  0.00000000000E+00 0.  1.
          1   -1    0    0  501    0  0.00000000000E+00 -0.00000000000E+00 -0.16295458746E+02  0.16295458746E+02  0.00000000000E+00 0. -1.
          5    1    1    2  502    0 -0.19869497891E+02 -0.71321789083E+02  0.19076782187E+03  0.20468523739E+03  0.47000000000E+01 0.  1.
         -5    1    1    2    0  502  0.14008457916E+02  0.43949803517E+02  0.25238029714E+03  0.25660422153E+03  0.47000000000E+01 0.  1.
        -11    1    1    2    0    0  0.77267071087E+01  0.58059347329E+02  0.25637947400E+03  0.26298483702E+03  0.00000000000E+00 0.  1.
         11    1    1    2    0    0 -0.18656671339E+01 -0.30687361763E+02  0.56325791250E+02  0.64170005811E+02  0.00000000000E+00 0. -1.
<mgrwt>
<rscale>  0 0.11922999E+03</rscale>
<asrwt>0</asrwt>
<pdfrwt beam="2">  1        1 0.25069943E-02 0.12809258E+03</pdfrwt>
<pdfrwt beam="1">  1       -1 0.11879210E+00 0.12809258E+03</pdfrwt>
<totfact> 0.28586328E+03</totfact>
</mgrwt>
</event>
<event>
 6    1  0.1045058E-005  0.1524463E+03  0.7546771E-02  0.1219414E+00
          1   -1    0    0  501    0  0.00000000000E+00  0.00000000000E+00  0.79442187960E+03  0.79442187960E+03  0.00000000000E+00 0. -1.
         -1   -1    0    0    0  501 -0.00000000000E+00 -0.00000000000E+00 -0.19337555785E+02  0.19337555785E+02  0.00000000000E+00 0.  1.
          5    1    1    2  502    0  0.51476045478E+02 -0.55800199940E+02  0.16230943805E+03  0.17924812203E+03  0.47000000000E+01 0. -1.
         -5    1    1    2    0  502 -0.18662200640E+02  0.61611796182E+02  0.32507966963E+03  0.33142596876E+03  0.47000000000E+01 0.  1.
        -11    1    1    2    0    0  0.29393888514E+02 -0.50895872951E+01  0.59466031451E+02  0.66529042360E+02  0.00000000000E+00 0.  1.
         11    1    1    2    0    0 -0.62207733351E+02 -0.72200894717E+00  0.22822918469E+03  0.23655630224E+03  0.00000000000E+00 0. -1.
<mgrwt>
<rscale>  0 0.13557240E+03</rscale>
<asrwt>0</asrwt>
<pdfrwt beam="1">  1        1 0.12221873E+00 0.15244633E+03</pdfrwt>
<pdfrwt beam="2">  1       -1 0.29750092E-02 0.15244633E+03</pdfrwt>
<totfact> 0.86219115E+03</totfact>
</mgrwt>
</event>
<event>
 6    1  0.1045058E-005  0.2803218E+03  0.7546771E-02  0.1095513E+00
          1   -1    0    0  501    0  0.00000000000E+00  0.00000000000E+00  0.18866032935E+02  0.18866032935E+02  0.00000000000E+00 0. -1.
         -1   -1    0    0    0  501 -0.00000000000E+00 -0.00000000000E+00 -0.10412936305E+04  0.10412936305E+04  0.00000000000E+00 0.  1.
          5    1    1    2  502    0  0.14420312551E+02  0.87110617038E+02 -0.28130239462E+03  0.29487172165E+03  0.47000000000E+01 0.  1.
         -5    1    1    2    0  502  0.93640823949E+01 -0.17588703778E+02 -0.46118143664E+03  0.46163563125E+03  0.47000000000E+01 0.  1.
        -11    1    1    2    0    0  0.14073703425E+01 -0.27815162017E+02 -0.10382843872E+02  0.29723179106E+02  0.00000000000E+00 0. -1.
         11    1    1    2    0    0 -0.25191765288E+02 -0.41706751243E+02 -0.26956092248E+03  0.27392913147E+03  0.00000000000E+00 0.  1.
<mgrwt>
<rscale>  0 0.28032181E+03</rscale>
<asrwt>0</asrwt>
<pdfrwt beam="1">  1        1 0.29024665E-02 0.28032181E+03</pdfrwt>
<pdfrwt beam="2">  1       -1 0.16019903E+00 0.28032181E+03</pdfrwt>
<totfact> 0.11325485E+03</totfact>
</mgrwt>
</event>
<event>
 6    1  0.1045058E-005  0.2784473E+03  0.7546771E-02  0.1096540E+00
          2   -1    0    0  501    0  0.00000000000E+00  0.00000000000E+00  0.66342827411E+02  0.66342827411E+02  0.00000000000E+00 0. -1.
         -2   -1    0    0    0  501 -0.00000000000E+00 -0.00000000000E+00 -0.29216763024E+03  0.29216763024E+03  0.00000000000E+00 0.  1.
          5    1    1    2  502    0  0.59978618539E+01 -0.26086676064E+02 -0.66917208069E+02  0.72225284704E+02  0.47000000000E+01 0.  1.
         -5    1    1    2    0  502  0.51541090091E+02  0.50055397111E+02  0.20678741648E+02  0.74911461765E+02  0.47000000000E+01 0.  1.
        -11    1    1    2    0    0 -0.25926604302E+02 -0.58631612528E+02 -0.94133791517E+02  0.11389041006E+03  0.00000000000E+00 0.  1.
         11    1    1    2    0    0 -0.31612347643E+02  0.34662891481E+02 -0.85452544891E+02  0.97483301122E+02  0.00000000000E+00 0. -1.
<mgrwt>
<rscale>  0 0.27844731E+03</rscale>
<asrwt>0</asrwt>
<pdfrwt beam="1">  1        2 0.10206589E-01 0.27844731E+03</pdfrwt>
<pdfrwt beam="2">  1       -2 0.44948866E-01 0.27844731E+03</pdfrwt>
<totfact> 0.29552658E+03</totfact>
</mgrwt>
</event>
<event>
 6    1  0.1045058E-005  0.1250246E+03  0.7546771E-02  0.1252386E+00
          2   -1    0    0  501    0  0.00000000000E+00  0.00000000000E+00  0.22421645584E+03  0.22421645584E+03  0.00000000000E+00 0.  1.
         -2   -1    0    0    0  501 -0.00000000000E+00 -0.00000000000E+00 -0.53505906553E+02  0.53505906553E+02  0.00000000000E+00 0. -1.
          5    1    1    2  502    0  0.11604431249E+02 -0.28444921002E+02  0.14286257701E+03  0.14620390647E+03  0.47000000000E+01 0.  1.
         -5    1    1    2    0  502 -0.98408671317E+01  0.31033308022E+02 -0.11782264394E+02  0.34940243659E+02  0.47000000000E+01 0.  1.
        -11    1    1    2    0    0 -0.36645056274E+01  0.38164049836E+02 -0.18676029333E+01  0.38385039300E+02  0.00000000000E+00 0. -1.
         11    1    1    2    0    0  0.19009415103E+01 -0.40752436855E+02  0.41497839601E+02  0.58193172966E+02  0.00000000000E+00 0.  1.
<mgrwt>
<rscale>  0 0.11453994E+03</rscale>
<asrwt>0</asrwt>
<pdfrwt beam="1">  1        2 0.34494839E-01 0.12502462E+03</pdfrwt>
<pdfrwt beam="2">  1       -2 0.82316781E-02 0.12502462E+03</pdfrwt>
<totfact> 0.12675681E+04</totfact>
</mgrwt>
</event>
<event>
 6    1  0.1045058E-005  0.1616879E+03  0.7546771E-02  0.1196404E+00
          2   -1    0    0  501    0  0.00000000000E+00  0.00000000000E+00  0.67056702802E+03  0.67056702802E+03  0.00000000000E+00 0. -1.
         -2   -1    0    0    0  501 -0.00000000000E+00 -0.00000000000E+00 -0.32387022008E+02  0.32387022008E+02  0.00000000000E+00 0.  1.
          5    1    1    2  502    0  0.18909931786E+02 -0.20098953675E+02  0.10974193284E+03  0.11325606069E+03  0.47000000000E+01 0.  1.
         -5    1    1    2    0  502 -0.82958682929E+02  0.10018889634E+03  0.28498018845E+03  0.31329818996E+03  0.47000000000E+01 0.  1.
        -11    1    1    2    0    0  0.26612906976E+02 -0.86567142023E+02  0.14612099998E+03  0.17191120827E+03  0.00000000000E+00 0.  1.
         11    1    1    2    0    0  0.37435844167E+02  0.64771993614E+01  0.97336884744E+02  0.10448859111E+03  0.00000000000E+00 0. -1.
<mgrwt>
<rscale>  0 0.15336007E+03</rscale>
<asrwt>0</asrwt>
<pdfrwt beam="1">  1        2 0.10316415E+00 0.16168790E+03</pdfrwt>
<pdfrwt beam="2">  1       -2 0.49826193E-02 0.16168790E+03</pdfrwt>
<totfact> 0.84354392E+03</totfact>
</mgrwt>
</event>
<event>
 6    1  0.1045058E-005  0.2530204E+03  0.7546771E-02  0.1111411E+00
          2   -1    0    0  501    0  0.00000000000E+00  0.00000000000E+00  0.16517770441E+04  0.16517770441E+04  0.00000000000E+00 0. -1.
         -2   -1    0    0    0  501 -0.00000000000E+00 -0.00000000000E+00 -0.96894641808E+01  0.96894641808E+01  0.00000000000E+00 0.  1.
          5    1    1    2  502    0  0.55882698469E+01  0.10390749572E+01  0.97526568977E+03  0.97529357841E+03  0.47000000000E+01 0.  1.
         -5    1    1    2    0  502 -0.50072925726E+02  0.20798381460E+02  0.18813575659E+03  0.19584949188E+03  0.47000000000E+01 0.  1.
        -11    1    1    2    0    0  0.53620873808E+02 -0.51988745226E+02  0.33722721330E+03  0.34539864089E+03  0.00000000000E+00 0.  1.
         11    1    1    2    0    0 -0.91362179285E+01  0.30151288808E+02  0.14145892021E+03  0.14492479706E+03  0.00000000000E+00 0. -1.
<mgrwt>
<rscale>  0 0.25302043E+03</rscale>
<asrwt>0</asrwt>
<pdfrwt beam="1">  1        2 0.25411932E+00 0.25302043E+03</pdfrwt>
<pdfrwt beam="2">  1       -2 0.14906881E-02 0.25302043E+03</pdfrwt>
<totfact> 0.13454774E+04</totfact>
</mgrwt>
</event>
<event>
 6    1  0.1045058E-005  0.2042491E+03  0.7546771E-02  0.1153895E+00
          1   -1    0    0  501    0  0.00000000000E+00  0.00000000000E+00  0.46780417723E+02  0.46780417723E+02  0.00000000000E+00 0. -1.
         -1   -1    0    0    0  501 -0.00000000000E+00 -0.00000000000E+00 -0.85404087754E+03  0.85404087754E+03  0.00000000000E+00 0.  1.
          5    1    1    2  502    0  0.72670493270E+02  0.51202750819E+02 -0.11883402313E+03  0.14848009070E+03  0.47000000000E+01 0. -1.
         -5    1    1    2    0  502  0.61828853746E+02 -0.97091862646E+02 -0.15988894603E+03  0.19706902854E+03  0.47000000000E+01 0.  1.
        -11    1    1    2    0    0  0.41374472853E+01 -0.14134628139E+02 -0.20455396527E+02  0.25205741999E+02  0.00000000000E+00 0. -1.
         11    1    1    2    0    0 -0.13863679430E+03  0.60023739966E+02 -0.50808209413E+03  0.53006643401E+03  0.00000000000E+00 0.  1.
<mgrwt>
<rscale>  0 0.19515229E+03</rscale>
<asrwt>0</asrwt>
<pdfrwt beam="1">  1        1 0.71969879E-02 0.20424911E+03</pdfrwt>
<pdfrwt beam="2">  1       -1 0.13139089E+00 0.20424911E+03</pdfrwt>
<totfact> 0.53243588E+02</totfact>
</mgrwt>
</event>
<event>
 6    1  0.1045058E-005  0.1419303E+03  0.7546771E-02  0.1220958E+00
          1   -1    0    0  501    0  0.00000000000E+00  0.00000000000E+00  0.99651193882E+02  0.99651193882E+02  0.00000000000E+00 0.  1.
         -1   -1    0    0    0  501 -0.00000000000E+00 -0.00000000000E+00 -0.16648765730E+03  0.16648765730E+03  0.00000000000E+00 0. -1.
          5    1    1    2  502    0  0.18834474235E+02 -0.64639695683E+01  0.40893470086E+02  0.45726209311E+02  0.47000000000E+01 0.  1.
         -5    1    1    2    0  502 -0.52658469140E+02 -0.51629136644E+02 -0.64637880205E+02  0.98176512875E+02  0.47000000000E+01 0.  1.
        -11    1    1    2    0    0  0.11991445469E+02 -0.39382281923E+01 -0.54106213690E+02  0.55558858570E+02  0.00000000000E+00 0. -1.
         11    1    1    2    0    0  0.21832549437E+02  0.62031334404E+02  0.11014160388E+02  0.66677270429E+02  0.00000000000E+00 0.  1.
<mgrwt>
<rscale>  0 0.13447820E+03</rscale>
<asrwt>0</asrwt>
<pdfrwt beam="1">  1        1 0.15330953E-01 0.14193025E+03</pdfrwt>
<pdfrwt beam="2">  1       -1 0.25613485E-01 0.14193025E+03</pdfrwt>
<totfact> 0.46386541E+03</totfact>
</mgrwt>
</event>
<event>
 6    1  0.1045058E-005  0.1336263E+03  0.7546771E-02  0.1234423E+00
          2   -1    0    0  501    0  0.00000000000E+00  0.00000000000E+00  0.27147121107E+03  0.27147121107E+03  0.00000000000E+00 0. -1.
         -2   -1    0    0    0  501 -0.00000000000E+00 -0.00000000000E+00 -0.57037774773E+02  0.57037774773E+02  0.00000000000E+00 0.  1.
          5    1    1    2  502    0 -0.19431341848E+02 -0.46229639247E+02  0.31689380326E+02  0.59506835039E+02  0.47000000000E+01 0.  1.
         -5    1    1    2    0  502  0.65219979091E+02  0.34611980173E+02  0.13694676850E+03  0.15565391818E+03  0.47000000000E+01 0.  1.
        -11    1    1    2    0    0 -0.34295020178E+02 -0.12431785421E+02 -0.20534525224E+02  0.41861252059E+02  0.00000000000E+00 0.  1.
         11    1    1    2    0    0 -0.11493617065E+02  0.24049444495E+02  0.66331812695E+02  0.71486980557E+02  0.00000000000E+00 0. -1.
<mgrwt>
<rscale>  0 0.12541437E+03</rscale>
<asrwt>0</asrwt>
<pdfrwt beam="1">  1        2 0.41764801E-01 0.13362634E+03</pdfrwt>
<pdfrwt beam="2">  1       -2 0.87750424E-02 0.13362634E+03</pdfrwt>
<totfact> 0.94163128E+03</totfact>
</mgrwt>
</event>
<event>
 6    1  0.1045058E-005  0.2326740E+03  0.7546771E-02  0.1127890E+00
         -1   -1    0    0    0  501 -0.00000000000E+00  0.00000000000E+00  0.58676970615E+02  0.58676970615E+02  0.00000000000E+00 0.  1.
          1   -1    0    0  501    0  0.00000000000E+00 -0.00000000000E+00 -0.10186644450E+04  0.10186644450E+04  0.00000000000E+00 0. -1.
          5    1    1    2  502    0 -0.46722510534E+02  0.16200276215E+03 -0.43297876445E+03  0.46467256041E+03  0.47000000000E+01 0.  1.
         -5    1    1    2    0  502  0.42949382633E+02  0.34205279080E+02 -0.27803862586E+03  0.28344702866E+03  0.47000000000E+01 0.  1.
        -11    1    1    2    0    0  0.42754540903E+02 -0.90878818079E+02 -0.14347475590E+03  0.17513399420E+03  0.00000000000E+00 0.  1.
         11    1    1    2    0    0 -0.38981413002E+02 -0.10532922316E+03 -0.10549532817E+03  0.15408783234E+03  0.00000000000E+00 0. -1.
<mgrwt>
<rscale>  0 0.22823209E+03</rscale>
<asrwt>0</asrwt>
<pdfrwt beam="2">  1        1 0.15671760E+00 0.23267400E+03</pdfrwt>
<pdfrwt beam="1">  1       -1 0.90272268E-02 0.23267400E+03</pdfrwt>
<totfact> 0.11087854E+03</totfact>
</mgrwt>
</event>
<event>
 6    1  0.1045058E-005  0.1359518E+03  0.7546771E-02  0.1231329E+00
          2   -1    0    0  501    0  0.00000000000E+00  0.00000000000E+00  0.74185962783E+03  0.74185962783E+03  0.00000000000E+00 0. -1.
         -2   -1    0    0    0  501 -0.00000000000E+00 -0.00000000000E+00 -0.22569447693E+02  0.22569447693E+02  0.00000000000E+00 0.  1.
          5    1    1    2  502    0  0.79685071564E+02 -0.36884334865E+02  0.46727005293E+03  0.47547193099E+03  0.47000000000E+01 0. -1.
         -5    1    1    2    0  502 -0.28283754844E+02  0.22195720601E+02  0.71269695501E+02  0.79962993303E+02  0.47000000000E+01 0. -1.
        -11    1    1    2    0    0 -0.37094528263E+02  0.38293905966E+02  0.42967537829E+02  0.68473619506E+02  0.00000000000E+00 0.  1.
         11    1    1    2    0    0 -0.14306788457E+02 -0.23605291702E+02  0.13778289388E+03  0.14052053173E+03  0.00000000000E+00 0. -1.
<mgrwt>
<rscale>  0 0.12742408E+03</rscale>
<asrwt>0</asrwt>
<pdfrwt beam="1">  1        2 0.11413223E+00 0.13595181E+03</pdfrwt>
<pdfrwt beam="2">  1       -2 0.34722233E-02 0.13595181E+03</pdfrwt>
<totfact> 0.12678568E+04</totfact>
</mgrwt>
</event>
<event>
 6    1  0.1045058E-005  0.2735029E+03  0.7546771E-02  0.1099291E+00
         -4   -1    0    0    0  501 -0.00000000000E+00  0.00000000000E+00  0.77204026357E+02  0.77204026357E+02  0.00000000000E+00 0.  1.
          4   -1    0    0  501    0  0.00000000000E+00 -0.00000000000E+00 -0.24222778147E+03  0.24222778147E+03  0.00000000000E+00 0. -1.
          5    1    1    2  502    0 -0.10961628849E+03 -0.26976553536E+01 -0.51781525084E+02  0.12135247993E+03  0.47000000000E+01 0.  1.
         -5    1    1    2    0  502  0.27558146183E+02 -0.27622990112E+01 -0.57282094976E+02  0.63799765843E+02  0.47000000000E+01 0.  1.
        -11    1    1    2    0    0  0.53392569253E+02  0.37206232678E+02 -0.63410598778E+02  0.90862391775E+02  0.00000000000E+00 0.  1.
         11    1    1    2    0    0  0.28665573051E+02 -0.31746278314E+02  0.74504637246E+01  0.43417170276E+02  0.00000000000E+00 0. -1.
<mgrwt>
<rscale>  0 0.27350291E+03</rscale>
<asrwt>0</asrwt>
<pdfrwt beam="2">  1        4 0.37265813E-01 0.27350291E+03</pdfrwt>
<pdfrwt beam="1">  1       -4 0.11877542E-01 0.27350291E+03</pdfrwt>
<totfact> 0.74113480E+02</totfact>
</mgrwt>
</event>
<event>
 6    1  0.1045058E-005  0.1301235E+03  0.7546771E-02  0.1239379E+00
         -2   -1    0    0    0  501 -0.00000000000E+00  0.00000000000E+00  0.19838244671E+02  0.19838244671E+02  0.00000000000E+00 0.  1.
          2   -1    0    0  501    0  0.00000000000E+00 -0.00000000000E+00 -0.68403261902E+03  0.68403261902E+03  0.00000000000E+00 0. -1.
          5    1    1    2  502    0  0.37610995260E+02 -0.52219172286E+02 -0.20845344973E+03  0.21821173117E+03  0.47000000000E+01 0.  1.
         -5    1    1    2    0  502 -0.58209451006E+02  0.22425669961E+02 -0.12631516043E+03  0.14095694596E+03  0.47000000000E+01 0.  1.
        -11    1    1    2    0    0 -0.19085211867E+02 -0.26331318392E+02 -0.11672032600E+03  0.12116607669E+03  0.00000000000E+00 0. -1.
         11    1    1    2    0    0  0.39683667612E+02  0.56124820718E+02 -0.21270543819E+03  0.22353610986E+03  0.00000000000E+00 0.  1.
<mgrwt>
<rscale>  0 0.12228191E+03</rscale>
<asrwt>0</asrwt>
<pdfrwt beam="2">  1        2 0.10523576E+00 0.13012347E+03</pdfrwt>
<pdfrwt beam="1">  1       -2 0.30520385E-02 0.13012347E+03</pdfrwt>
<totfact> 0.16836742E+04</totfact>
</mgrwt>
</event>
<event>
 6    1  0.1045058E-005  0.1301460E+03  0.7546771E-02  0.1241385E+00
         -2   -1    0    0    0  501 -0.00000000000E+00  0.00000000000E+00  0.48093646673E+02  0.48093646673E+02  0.00000000000E+00 0.  1.
          2   -1    0    0  501    0  0.00000000000E+00 -0.00000000000E+00 -0.35683654815E+03  0.35683654815E+03  0.00000000000E+00 0. -1.
          5    1    1    2  502    0 -0.69022315038E+02  0.38270347609E+01 -0.75978478865E+02  0.10282774635E+03  0.47000000000E+01 0.  1.
         -5    1    1    2    0  502  0.32799096453E+02 -0.18798508448E+01 -0.19476173704E+03  0.19756907345E+03  0.47000000000E+01 0.  1.
        -11    1    1    2    0    0  0.61454711244E+02 -0.11901070066E+02 -0.44301980530E+02  0.76687564061E+02  0.00000000000E+00 0. -1.
         11    1    1    2    0    0 -0.25231492658E+02  0.99538861499E+01  0.62992949618E+01  0.27845810964E+02  0.00000000000E+00 0.  1.
<mgrwt>
<rscale>  0 0.12104351E+03</rscale>
<asrwt>0</asrwt>
<pdfrwt beam="2">  1        2 0.54897927E-01 0.13014601E+03</pdfrwt>
<pdfrwt beam="1">  1       -2 0.73990230E-02 0.13014601E+03</pdfrwt>
<totfact> 0.91542049E+03</totfact>
</mgrwt>
</event>
<event>
 6    1  0.1045058E-005  0.1677271E+03  0.7546771E-02  0.1186745E+00
          2   -1    0    0  501    0  0.00000000000E+00  0.00000000000E+00  0.63075658804E+03  0.63075658804E+03  0.00000000000E+00 0. -1.
         -2   -1    0    0    0  501 -0.00000000000E+00 -0.00000000000E+00 -0.51579962345E+02  0.51579962345E+02  0.00000000000E+00 0.  1.
          5    1    1    2  502    0 -0.94105735064E+01 -0.11769133241E+03  0.38090091723E+03  0.39880748158E+03  0.47000000000E+01 0.  1.
         -5    1    1    2    0  502 -0.42326363414E+02  0.18543608156E+02  0.94158086688E+02  0.10499153172E+03  0.47000000000E+01 0.  1.
        -11    1    1    2    0    0  0.30032812796E+02  0.16902455628E+02 -0.10297121289E+02  0.35967951812E+02  0.00000000000E+00 0.  1.
         11    1    1    2    0    0  0.21704124124E+02  0.82245268623E+02  0.11441474306E+03  0.14256958527E+03  0.00000000000E+00 0. -1.
<mgrwt>
<rscale>  0 0.16174123E+03</rscale>
<asrwt>0</asrwt>
<pdfrwt beam="1">  1        2 0.97039470E-01 0.16772713E+03</pdfrwt>
<pdfrwt beam="2">  1       -2 0.79353793E-02 0.16772713E+03</pdfrwt>
<totfact> 0.44576324E+03</totfact>
</mgrwt>
</event>
<event>
 6    1  0.1045058E-005  0.1274266E+03  0.7546771E-02  0.1252343E+00
         -2   -1    0    0    0  501 -0.00000000000E+00  0.00000000000E+00  0.44318067593E+02  0.44318067593E+02  0.00000000000E+00 0.  1.
          2   -1    0    0  501    0  0.00000000000E+00 -0.00000000000E+00 -0.31550942826E+03  0.31550942826E+03  0.00000000000E+00 0. -1.
          5    1    1    2  502    0 -0.50603095239E+02 -0.20688736006E+02 -0.11498589779E+03  0.12740700034E+03  0.47000000000E+01 0.  1.
         -5    1    1    2    0  502  0.56360934192E+02  0.44657487777E+02 -0.12346639625E+03  0.14295764100E+03  0.47000000000E+01 0.  1.
        -11    1    1    2    0    0  0.95587706785E+01 -0.19929980052E+02  0.22772338370E+02  0.31735683332E+02  0.00000000000E+00 0.  1.
         11    1    1    2    0    0 -0.15316609631E+02 -0.40387717188E+01 -0.55511405008E+02  0.57727171189E+02  0.00000000000E+00 0. -1.
<mgrwt>
<rscale>  0 0.11456462E+03</rscale>
<asrwt>0</asrwt>
<pdfrwt beam="2">  1        2 0.48539911E-01 0.12742662E+03</pdfrwt>
<pdfrwt beam="1">  1       -2 0.68181644E-02 0.12742662E+03</pdfrwt>
<totfact> 0.11799416E+04</totfact>
</mgrwt>
</event>
<event>
 6    1  0.1045058E-005  0.8880914E+03  0.7546771E-02  0.9440591E-01
          1   -1    0    0  501    0  0.00000000000E+00  0.00000000000E+00  0.15279941706E+04  0.15279941706E+04  0.00000000000E+00 0. -1.
         -1   -1    0    0    0  501 -0.00000000000E+00 -0.00000000000E+00 -0.12904274880E+03  0.12904274880E+03  0.00000000000E+00 0.  1.
          5    1    1    2  502    0  0.13299811687E+02  0.50125863900E+01  0.14084616664E+04  0.14085412194E+04  0.47000000000E+01 0. -1.
         -5    1    1    2    0  502 -0.21975708062E+02  0.28952731156E+02  0.97010205662E+02  0.10370275979E+03  0.47000000000E+01 0.  1.
        -11    1    1    2    0    0 -0.60746282987E+01 -0.20252684647E+02 -0.11915603118E+03  0.12101748680E+03  0.00000000000E+00 0.  1.
         11    1    1    2    0    0  0.14750524674E+02 -0.13712632899E+02  0.12635580879E+02  0.23775453378E+02  0.00000000000E+00 0. -1.
<mgrwt>
<rscale>  0 0.88809136E+03</rscale>
<asrwt>0</asrwt>
<pdfrwt beam="1">  1        1 0.23507601E+00 0.88809136E+03</pdfrwt>
<pdfrwt beam="2">  1       -1 0.19852732E-01 0.88809136E+03</pdfrwt>
<totfact> 0.13082581E+02</totfact>
</mgrwt>
</event>
<event>
 6    1  0.1045058E-005  0.1466570E+03  0.7546771E-02  0.1214457E+00
          2   -1    0    0  501    0  0.00000000000E+00  0.00000000000E+00  0.49994552484E+02  0.49994552484E+02  0.00000000000E+00 0.  1.
         -2   -1    0    0    0  501 -0.00000000000E+00 -0.00000000000E+00 -0.35332325224E+03  0.35332325224E+03  0.00000000000E+00 0. -1.
          5    1    1    2  502    0 -0.36198339688E+02  0.36432715476E+02 -0.66299817879E+02  0.83996538047E+02  0.47000000000E+01 0. -1.
         -5    1    1    2    0  502  0.93078290303E+02  0.15026204836E+02 -0.92521989365E+02  0.13218079843E+03  0.47000000000E+01 0. -1.
        -11    1    1    2    0    0 -0.67916386485E+02 -0.28109653673E+02 -0.14357612892E+03  0.16129752936E+03  0.00000000000E+00 0. -1.
         11    1    1    2    0    0  0.11036435869E+02 -0.23349266640E+02 -0.93076359210E+00  0.25842938884E+02  0.00000000000E+00 0.  1.
<mgrwt>
<rscale>  0 0.13916519E+03</rscale>
<asrwt>0</asrwt>
<pdfrwt beam="1">  1        2 0.76914693E-02 0.14665700E+03</pdfrwt>
<pdfrwt beam="2">  1       -2 0.54357426E-01 0.14665700E+03</pdfrwt>
<totfact> 0.27953733E+03</totfact>
</mgrwt>
</event>
<event>
 6    1  0.1045058E-005  0.4477477E+03  0.7546771E-02  0.1028396E+00
          1   -1    0    0  501    0  0.00000000000E+00  0.00000000000E+00  0.23161017144E+04  0.23161017144E+04  0.00000000000E+00 0. -1.
         -1   -1    0    0    0  501 -0.00000000000E+00 -0.00000000000E+00 -0.21639591187E+02  0.21639591187E+02  0.00000000000E+00 0.  1.
          5    1    1    2  502    0  0.64295709441E+02 -0.38012621308E+02  0.75599546740E+03  0.75969081498E+03  0.47000000000E+01 0. -1.
         -5    1    1    2    0  502 -0.34184482895E+02  0.65362338061E+01  0.10631811802E+04  0.10637610696E+04  0.47000000000E+01 0.  1.
        -11    1    1    2    0    0  0.43550428102E+02 -0.62802967396E+01  0.14799620767E+02  0.46423169753E+02  0.00000000000E+00 0.  1.
         11    1    1    2    0    0 -0.73661654648E+02  0.37756684241E+02  0.46048585481E+03  0.46786625124E+03  0.00000000000E+00 0. -1.
<mgrwt>
<rscale>  0 0.44774767E+03</rscale>
<asrwt>0</asrwt>
<pdfrwt beam="1">  1        1 0.35632314E+00 0.44774767E+03</pdfrwt>
<pdfrwt beam="2">  1       -1 0.33291697E-02 0.44774767E+03</pdfrwt>
<totfact> 0.66474394E+02</totfact>
</mgrwt>
</event>
<event>
 6    1  0.1045058E-005  0.1811298E+03  0.7546771E-02  0.1172307E+00
          2   -1    0    0  501    0  0.00000000000E+00  0.00000000000E+00  0.10223267846E+04  0.10223267846E+04  0.00000000000E+00 0. -1.
         -2   -1    0    0    0  501 -0.00000000000E+00 -0.00000000000E+00 -0.31278626269E+02  0.31278626269E+02  0.00000000000E+00 0.  1.
          5    1    1    2  502    0  0.98143840774E+00  0.45463912453E+02  0.51637631811E+03  0.51839610575E+03  0.47000000000E+01 0.  1.
         -5    1    1    2    0  502 -0.30824648997E+02  0.82176488684E+02  0.16873486888E+03  0.19025425161E+03  0.47000000000E+01 0.  1.
        -11    1    1    2    0    0  0.61199688254E+02 -0.10150984309E+03  0.22551445395E+03  0.25476738219E+03  0.00000000000E+00 0. -1.
         11    1    1    2    0    0 -0.31356477665E+02 -0.26130558049E+02  0.80422517431E+02  0.90187671361E+02  0.00000000000E+00 0.  1.
<mgrwt>
<rscale>  0 0.17542408E+03</rscale>
<asrwt>0</asrwt>
<pdfrwt beam="1">  1        2 0.15728102E+00 0.18112976E+03</pdfrwt>
<pdfrwt beam="2">  1       -2 0.48120971E-02 0.18112976E+03</pdfrwt>
<totfact> 0.52074534E+03</totfact>
</mgrwt>
</event>
<event>
 6    1  0.1045058E-005  0.1272589E+03  0.7546771E-02  0.1246422E+00
         -2   -1    0    0    0  501 -0.00000000000E+00  0.00000000000E+00  0.13628148425E+02  0.13628148425E+02  0.00000000000E+00 0.  1.
          2   -1    0    0  501    0  0.00000000000E+00 -0.00000000000E+00 -0.96984116520E+03  0.96984116520E+03  0.00000000000E+00 0. -1.
          5    1    1    2  502    0 -0.32963239691E+02  0.51602207185E+02 -0.21636518126E+03  0.22491185966E+03  0.47000000000E+01 0.  1.
         -5    1    1    2    0  502  0.92531294679E+01 -0.54411715432E+02 -0.45980193851E+03  0.46312651386E+03  0.47000000000E+01 0.  1.
        -11    1    1    2    0    0 -0.14923761537E+01  0.39695477587E+02 -0.68194318917E+02  0.78920360238E+02  0.00000000000E+00 0.  1.
         11    1    1    2    0    0  0.25202486377E+02 -0.36885969341E+02 -0.21185157809E+03  0.21651057987E+03  0.00000000000E+00 0. -1.
<mgrwt>
<rscale>  0 0.11800678E+03</rscale>
<asrwt>0</asrwt>
<pdfrwt beam="2">  1        2 0.14920639E+00 0.12725891E+03</pdfrwt>
<pdfrwt beam="1">  1       -2 0.20966374E-02 0.12725891E+03</pdfrwt>
<totfact> 0.18766663E+04</totfact>
</mgrwt>
</event>
<event>
 6    1  0.1045058E-005  0.1342730E+03  0.7546771E-02  0.1231653E+00
         -1   -1    0    0    0  501 -0.00000000000E+00  0.00000000000E+00  0.79703842453E+03  0.79703842453E+03  0.00000000000E+00 0.  1.
          1   -1    0    0  501    0  0.00000000000E+00 -0.00000000000E+00 -0.19579504607E+02  0.19579504607E+02  0.00000000000E+00 0. -1.
          5    1    1    2  502    0 -0.24557360475E+02  0.12067391109E+02  0.29235980000E+03  0.29367503901E+03  0.47000000000E+01 0. -1.
         -5    1    1    2    0  502 -0.73598992201E+01 -0.49273943554E+02  0.37705883804E+02  0.62657108961E+02  0.47000000000E+01 0. -1.
        -11    1    1    2    0    0 -0.22823201155E+02  0.44723838264E+02  0.26468425450E+03  0.26940466737E+03  0.00000000000E+00 0.  1.
         11    1    1    2    0    0  0.54740460849E+02 -0.75172858191E+01  0.18270898162E+03  0.19088111379E+03  0.00000000000E+00 0. -1.
<mgrwt>
<rscale>  0 0.12721123E+03</rscale>
<asrwt>0</asrwt>
<pdfrwt beam="2">  1        1 0.30122321E-02 0.13427302E+03</pdfrwt>
<pdfrwt beam="1">  1       -1 0.12262127E+00 0.13427302E+03</pdfrwt>
<totfact> 0.20619930E+03</totfact>
</mgrwt>
</event>
<event>
 6    1  0.1045058E-005  0.3543268E+03  0.7546771E-02  0.1060853E+00
         -2   -1    0    0    0  501 -0.00000000000E+00  0.00000000000E+00  0.11549915289E+03  0.11549915289E+03  0.00000000000E+00 0.  1.
          2   -1    0    0  501    0  0.00000000000E+00 -0.00000000000E+00 -0.27174984096E+03  0.27174984096E+03  0.00000000000E+00 0. -1.
          5    1    1    2  502    0  0.55608009303E+02  0.13750440058E+03 -0.10049387604E+03  0.17922282220E+03  0.47000000000E+01 0. -1.
         -5    1    1    2    0  502  0.23113300250E+02 -0.23287828232E+02 -0.70109163455E+00  0.33153116320E+02  0.47000000000E+01 0. -1.
        -11    1    1    2    0    0 -0.60304983986E+02 -0.40282382483E+02  0.11838571852E+02  0.73481380060E+02  0.00000000000E+00 0.  1.
         11    1    1    2    0    0 -0.18416325567E+02 -0.73934189866E+02 -0.66894292249E+02  0.10139167527E+03  0.00000000000E+00 0. -1.
<mgrwt>
<rscale>  0 0.35432683E+03</rscale>
<asrwt>0</asrwt>
<pdfrwt beam="2">  1        2 0.41807668E-01 0.35432683E+03</pdfrwt>
<pdfrwt beam="1">  1       -2 0.17769100E-01 0.35432683E+03</pdfrwt>
<totfact> 0.31467684E+03</totfact>
</mgrwt>
</event>
<event>
 6    1  0.1045058E-005  0.1255287E+03  0.7546771E-02  0.1247228E+00
         -2   -1    0    0    0  501 -0.00000000000E+00  0.00000000000E+00  0.11352584925E+02  0.11352584925E+02  0.00000000000E+00 0.  1.
          2   -1    0    0  501    0  0.00000000000E+00 -0.00000000000E+00 -0.10865887436E+04  0.10865887436E+04  0.00000000000E+00 0. -1.
          5    1    1    2  502    0 -0.90394474391E+01 -0.38741487364E+02 -0.70308562564E+02  0.80919703552E+02  0.47000000000E+01 0. -1.
         -5    1    1    2    0  502 -0.76130152319E+00  0.44915587031E+02 -0.55680564176E+03  0.55863458740E+03  0.47000000000E+01 0. -1.
        -11    1    1    2    0    0  0.43549389673E+02  0.24626058112E+02 -0.26244545331E+03  0.26717149556E+03  0.00000000000E+00 0. -1.
         11    1    1    2    0    0 -0.33748640711E+02 -0.30800157779E+02 -0.18567650107E+03  0.19121554204E+03  0.00000000000E+00 0.  1.
<mgrwt>
<rscale>  0 0.11753013E+03</rscale>
<asrwt>0</asrwt>
<pdfrwt beam="2">  1        2 0.16716748E+00 0.12552874E+03</pdfrwt>
<pdfrwt beam="1">  1       -2 0.17465517E-02 0.12552874E+03</pdfrwt>
<totfact> 0.20851502E+04</totfact>
</mgrwt>
</event>
<event>
 6    1  0.1045058E-005  0.1408683E+03  0.7546771E-02  0.1222108E+00
          1   -1    0    0  501    0  0.00000000000E+00  0.00000000000E+00  0.29356189919E+02  0.29356189919E+02  0.00000000000E+00 0. -1.
         -1   -1    0    0    0  501 -0.00000000000E+00 -0.00000000000E+00 -0.55412843760E+03  0.55412843760E+03  0.00000000000E+00 0.  1.
          5    1    1    2  502    0 -0.33223189898E+02  0.16861205488E+01 -0.71397634889E+01  0.34346609326E+02  0.47000000000E+01 0. -1.
         -5    1    1    2    0  502 -0.91449027209E+00  0.53569418643E+02 -0.28441964942E+03  0.28946009376E+03  0.47000000000E+01 0. -1.
        -11    1    1    2    0    0  0.53034656743E+02 -0.70814845161E+01 -0.16866258325E+03  0.17694600653E+03  0.00000000000E+00 0.  1.
         11    1    1    2    0    0 -0.18896976573E+02 -0.48174054676E+02 -0.64550251530E+02  0.82731917904E+02  0.00000000000E+00 0. -1.
<mgrwt>
<rscale>  0 0.13367126E+03</rscale>
<asrwt>0</asrwt>
<pdfrwt beam="1">  1        1 0.45163376E-02 0.14086834E+03</pdfrwt>
<pdfrwt beam="2">  1       -1 0.85250517E-01 0.14086834E+03</pdfrwt>
<totfact> 0.26498952E+03</totfact>
</mgrwt>
</event>
<event>
 6    1  0.1045058E-005  0.2262342E+03  0.7546771E-02  0.1132241E+00
          2   -1    0    0  501    0  0.00000000000E+00  0.00000000000E+00  0.10492786476E+03  0.10492786476E+03  0.00000000000E+00 0. -1.
         -2   -1    0    0    0  501 -0.00000000000E+00 -0.00000000000E+00 -0.45692578416E+03  0.45692578416E+03  0.00000000000E+00 0.  1.
          5    1    1    2  502    0 -0.94262824808E+01 -0.22453653653E+02 -0.11308204097E+03  0.11576985512E+03  0.47000000000E+01 0.  1.
         -5    1    1    2    0  502 -0.18373680546E+02 -0.16404876489E+03 -0.89107061719E+02  0.18764793590E+03  0.47000000000E+01 0.  1.
        -11    1    1    2    0    0  0.26504658686E+02  0.19704006243E+03 -0.14754062416E+03  0.24757931843E+03  0.00000000000E+00 0. -1.
         11    1    1    2    0    0  0.12953043406E+01 -0.10537643882E+02 -0.22681925517E+01  0.10856539474E+02  0.00000000000E+00 0.  1.
<mgrwt>
<rscale>  0 0.22221636E+03</rscale>
<asrwt>0</asrwt>
<pdfrwt beam="1">  1        2 0.16142749E-01 0.22623422E+03</pdfrwt>
<pdfrwt beam="2">  1       -2 0.70296274E-01 0.22623422E+03</pdfrwt>
<totfact> 0.67335444E+02</totfact>
</mgrwt>
</event>
<event>
 6    1  0.1045058E-005  0.1640010E+03  0.7546771E-02  0.1190838E+00
         -2   -1    0    0    0  501 -0.00000000000E+00  0.00000000000E+00  0.81476090189E+02  0.81476090189E+02  0.00000000000E+00 0.  1.
          2   -1    0    0  501    0  0.00000000000E+00 -0.00000000000E+00 -0.28690345437E+03  0.28690345437E+03  0.00000000000E+00 0. -1.
          5    1    1    2  502    0 -0.70376810340E+02  0.41947767051E+02 -0.12886108531E+03  0.15277362306E+03  0.47000000000E+01 0. -1.
         -5    1    1    2    0  502 -0.34858340324E+02 -0.27780700915E+02  0.14562323168E+02  0.47127725274E+02  0.47000000000E+01 0. -1.
        -11    1    1    2    0    0  0.69152859283E+02  0.17406253069E+02 -0.96764998120E+02  0.12020216493E+03  0.00000000000E+00 0. -1.
         11    1    1    2    0    0  0.36082291381E+02 -0.31573319205E+02  0.56363960844E+01  0.48276031296E+02  0.00000000000E+00 0.  1.
<mgrwt>
<rscale>  0 0.15811815E+03</rscale>
<asrwt>0</asrwt>
<pdfrwt beam="2">  1        2 0.44138992E-01 0.16400104E+03</pdfrwt>
<pdfrwt beam="1">  1       -2 0.12534783E-01 0.16400104E+03</pdfrwt>
<totfact> 0.51185774E+03</totfact>
</mgrwt>
</event>
<event>
 6    1  0.1045058E-005  0.1959923E+03  0.7546771E-02  0.1157566E+00
          2   -1    0    0  501    0  0.00000000000E+00  0.00000000000E+00  0.94195722534E+03  0.94195722534E+03  0.00000000000E+00 0.  1.
         -2   -1    0    0    0  501 -0.00000000000E+00 -0.00000000000E+00 -0.52357663840E+02  0.52357663840E+02  0.00000000000E+00 0. -1.
          5    1    1    2  502    0 -0.11950136658E+03 -0.85510318715E+02  0.50558690475E+03  0.52652901105E+03  0.47000000000E+01 0. -1.
         -5    1    1    2    0  502  0.29993034856E+02 -0.36057133849E+02  0.22546707491E+03  0.23034146590E+03  0.47000000000E+01 0. -1.
        -11    1    1    2    0    0 -0.14417163483E+02  0.45607928818E+02  0.38026403753E+02  0.61106015713E+02  0.00000000000E+00 0.  1.
         11    1    1    2    0    0  0.10392549521E+03  0.75959523746E+02  0.12051917808E+03  0.17633839652E+03  0.00000000000E+00 0. -1.
<mgrwt>
<rscale>  0 0.19099574E+03</rscale>
<asrwt>0</asrwt>
<pdfrwt beam="1">  1        2 0.14491648E+00 0.19599234E+03</pdfrwt>
<pdfrwt beam="2">  1       -2 0.80550259E-02 0.19599234E+03</pdfrwt>
<totfact> 0.26531922E+03</totfact>
</mgrwt>
</event>
<event>
 6    1  0.1045058E-005  0.1154172E+03  0.7546771E-02  0.1257855E+00
         -1   -1    0    0    0  501 -0.00000000000E+00  0.00000000000E+00  0.31865852941E+02  0.31865852941E+02  0.00000000000E+00 0.  1.
          1   -1    0    0  501    0  0.00000000000E+00 -0.00000000000E+00 -0.39023251394E+03  0.39023251394E+03  0.00000000000E+00 0. -1.
          5    1    1    2  502    0  0.63905970430E+02  0.62926128740E+01 -0.12416704881E+03  0.13986820955E+03  0.47000000000E+01 0. -1.
         -5    1    1    2    0  502 -0.46221981667E+02  0.19907867670E+02 -0.11956816799E+03  0.12981306399E+03  0.47000000000E+01 0.  1.
        -11    1    1    2    0    0 -0.37987234071E+02 -0.33514634950E+02 -0.18559301509E+02  0.53950981277E+02  0.00000000000E+00 0.  1.
         11    1    1    2    0    0  0.20303245308E+02  0.73141544066E+01 -0.96072142691E+02  0.98466112069E+02  0.00000000000E+00 0. -1.
<mgrwt>
<rscale>  0 0.11147888E+03</rscale>
<asrwt>0</asrwt>
<pdfrwt beam="2">  1        1 0.60035775E-01 0.11541721E+03</pdfrwt>
<pdfrwt beam="1">  1       -1 0.49024386E-02 0.11541721E+03</pdfrwt>
<totfact> 0.10614601E+04</totfact>
</mgrwt>
</event>
<event>
 6    1  0.1045058E-005  0.1306515E+03  0.7546771E-02  0.1242287E+00
          1   -1    0    0  501    0  0.00000000000E+00  0.00000000000E+00  0.44253799444E+03  0.44253799444E+03  0.00000000000E+00 0. -1.
         -1   -1    0    0    0  501 -0.00000000000E+00 -0.00000000000E+00 -0.30447523944E+02  0.30447523944E+02  0.00000000000E+00 0.  1.
          5    1    1    2  502    0 -0.68810542997E+02  0.44924895112E+02  0.22317667552E+03  0.23787193093E+03  0.47000000000E+01 0. -1.
         -5    1    1    2    0  502  0.39597706862E+02 -0.20629956665E+02  0.70872843805E+02  0.83896504634E+02  0.47000000000E+01 0. -1.
        -11    1    1    2    0    0  0.15364155346E+02 -0.52812164983E+02  0.43200222333E+02  0.69938839347E+02  0.00000000000E+00 0.  1.
         11    1    1    2    0    0  0.13848680789E+02  0.28517226536E+02  0.74840728838E+02  0.81278243472E+02  0.00000000000E+00 0. -1.
<mgrwt>
<rscale>  0 0.12049250E+03</rscale>
<asrwt>0</asrwt>
<pdfrwt beam="1">  1        1 0.68082763E-01 0.13065147E+03</pdfrwt>
<pdfrwt beam="2">  1       -1 0.46842348E-02 0.13065147E+03</pdfrwt>
<totfact> 0.97759961E+03</totfact>
</mgrwt>
</event>
<event>
 6    1  0.1045058E-005  0.1270375E+03  0.7546771E-02  0.1246016E+00
         -2   -1    0    0    0  501 -0.00000000000E+00  0.00000000000E+00  0.94245442171E+02  0.94245442171E+02  0.00000000000E+00 0.  1.
          2   -1    0    0  501    0  0.00000000000E+00 -0.00000000000E+00 -0.19185626245E+03  0.19185626245E+03  0.00000000000E+00 0. -1.
          5    1    1    2  502    0  0.58866323206E+02  0.21106427064E+02 -0.62136663109E+02  0.88282388807E+02  0.47000000000E+01 0.  1.
         -5    1    1    2    0  502 -0.64034643909E+02  0.11870388290E+01 -0.71293901093E+02  0.95951836954E+02  0.47000000000E+01 0.  1.
        -11    1    1    2    0    0 -0.29091893202E+02 -0.27161697174E+02  0.50482206456E+02  0.64284906565E+02  0.00000000000E+00 0.  1.
         11    1    1    2    0    0  0.34260213906E+02  0.48682312813E+01 -0.14662462529E+02  0.37582572292E+02  0.00000000000E+00 0. -1.
<mgrwt>
<rscale>  0 0.11824778E+03</rscale>
<asrwt>0</asrwt>
<pdfrwt beam="2">  1        2 0.29516348E-01 0.12703753E+03</pdfrwt>
<pdfrwt beam="1">  1       -2 0.14499299E-01 0.12703753E+03</pdfrwt>
<totfact> 0.61293851E+03</totfact>
</mgrwt>
</event>
<event>
 6    1  0.1045058E-005  0.1270814E+03  0.7546771E-02  0.1246457E+00
         -1   -1    0    0    0  501 -0.00000000000E+00  0.00000000000E+00  0.25921812101E+02  0.25921812101E+02  0.00000000000E+00 0.  1.
          1   -1    0    0  501    0  0.00000000000E+00 -0.00000000000E+00 -0.53353254735E+03  0.53353254735E+03  0.00000000000E+00 0. -1.
          5    1    1    2  502    0 -0.94731800839E+01  0.49885652266E+02 -0.19452465157E+03  0.20109761190E+03  0.47000000000E+01 0.  1.
         -5    1    1    2    0  502  0.16679857247E+02 -0.71662207054E+02 -0.18562679135E+03  0.19973253422E+03  0.47000000000E+01 0.  1.
        -11    1    1    2    0    0 -0.15605805459E+00 -0.22501681632E+02 -0.10700046837E+03  0.10934098162E+03  0.00000000000E+00 0. -1.
         11    1    1    2    0    0 -0.70506191087E+01  0.44278236421E+02 -0.20458823955E+02  0.49283231712E+02  0.00000000000E+00 0.  1.
<mgrwt>
<rscale>  0 0.11798625E+03</rscale>
<asrwt>0</asrwt>
<pdfrwt beam="2">  1        1 0.82081926E-01 0.12708142E+03</pdfrwt>
<pdfrwt beam="1">  1       -1 0.39879713E-02 0.12708142E+03</pdfrwt>
<totfact> 0.97011603E+03</totfact>
</mgrwt>
</event>
<event>
 6    1  0.1045058E-005  0.1389114E+03  0.7546771E-02  0.1227134E+00
          1   -1    0    0  501    0  0.00000000000E+00  0.00000000000E+00  0.91655389119E+03  0.91655389119E+03  0.00000000000E+00 0. -1.
         -1   -1    0    0    0  501 -0.00000000000E+00 -0.00000000000E+00 -0.16539886443E+02  0.16539886443E+02  0.00000000000E+00 0.  1.
          5    1    1    2  502    0 -0.12076058593E+02 -0.13642220412E+02  0.47418829014E+03  0.47456144583E+03  0.47000000000E+01 0.  1.
         -5    1    1    2    0  502 -0.11854356996E+02 -0.42026995081E+02  0.44964195796E+02  0.62854299765E+02  0.47000000000E+01 0.  1.
        -11    1    1    2    0    0  0.28898184882E+02 -0.17591177610E+02  0.11848811026E+03  0.12322332122E+03  0.00000000000E+00 0.  1.
         11    1    1    2    0    0 -0.49677692933E+01  0.73260393102E+02  0.26237340855E+03  0.27245471081E+03  0.00000000000E+00 0. -1.
<mgrwt>
<rscale>  0 0.13021684E+03</rscale>
<asrwt>0</asrwt>
<pdfrwt beam="1">  1        1 0.14100825E+00 0.13891141E+03</pdfrwt>
<pdfrwt beam="2">  1       -1 0.25445986E-02 0.13891141E+03</pdfrwt>
<totfact> 0.86191590E+03</totfact>
</mgrwt>
</event>
<event>
 6    1  0.1045058E-005  0.4771385E+03  0.7546771E-02  0.1020459E+00
         -1   -1    0    0    0  501 -0.00000000000E+00  0.00000000000E+00  0.51986512154E+03  0.51986512154E+03  0.00000000000E+00 0.  1.
          1   -1    0    0  501    0  0.00000000000E+00 -0.00000000000E+00 -0.79862216900E+03  0.79862216900E+03  0.00000000000E+00 0. -1.
          5    1    1    2  502    0  0.29526197090E+03  0.29841381867E+03 -0.54688614465E+03  0.68944686803E+03  0.47000000000E+01 0.  1.
         -5    1    1    2    0  502  0.17008630092E+01  0.53513166159E+02 -0.40415564283E+02  0.67246261782E+02  0.47000000000E+01 0.  1.
        -11    1    1    2    0    0 -0.24286161221E+03 -0.32697367980E+03  0.24805584903E+03  0.47689123938E+03  0.00000000000E+00 0. -1.
         11    1    1    2    0    0 -0.54101221702E+02 -0.24953305039E+02  0.60488812437E+02  0.84902921340E+02  0.00000000000E+00 0.  1.
<mgrwt>
<rscale>  0 0.47521266E+03</rscale>
<asrwt>0</asrwt>
<pdfrwt beam="2">  1        1 0.12286495E+00 0.47713855E+03</pdfrwt>
<pdfrwt beam="1">  1       -1 0.79979250E-01 0.47713855E+03</pdfrwt>
<totfact> 0.36702134E+01</totfact>
</mgrwt>
</event>
<event>
 6    1  0.1045058E-005  0.2612762E+03  0.7546771E-02  0.1108448E+00
         -2   -1    0    0    0  501 -0.00000000000E+00  0.00000000000E+00  0.17567670888E+03  0.17567670888E+03  0.00000000000E+00 0. -1.
          2   -1    0    0  501    0  0.00000000000E+00 -0.00000000000E+00 -0.45192718415E+03  0.45192718415E+03  0.00000000000E+00 0.  1.
          5    1    1    2  502    0 -0.11417646806E+03 -0.25460298135E+02 -0.21976747179E+03  0.24900667521E+03  0.47000000000E+01 0. -1.
         -5    1    1    2    0  502 -0.11525295031E+03  0.26063705887E+02 -0.55889883564E+02  0.13079880888E+03  0.47000000000E+01 0. -1.
        -11    1    1    2    0    0  0.41661160099E+02  0.31060087832E+02 -0.21495080859E+02  0.56235396487E+02  0.00000000000E+00 0.  1.
         11    1    1    2    0    0  0.18776825827E+03 -0.31663495584E+02  0.20901960949E+02  0.19156301245E+03  0.00000000000E+00 0. -1.
<mgrwt>
<rscale>  0 0.25783932E+03</rscale>
<asrwt>0</asrwt>
<pdfrwt beam="2">  1        2 0.69527259E-01 0.26127615E+03</pdfrwt>
<pdfrwt beam="1">  1       -2 0.27027186E-01 0.26127615E+03</pdfrwt>
<totfact> 0.86405920E+02</totfact>
</mgrwt>
</event>
<event>
 6    1  0.1045058E-005  0.1289897E+03  0.7546771E-02  0.1242892E+00
         -1   -1    0    0    0  501 -0.00000000000E+00  0.00000000000E+00  0.10718264899E+03  0.10718264899E+03  0.00000000000E+00 0.  1.
          1   -1    0    0  501    0  0.00000000000E+00 -0.00000000000E+00 -0.14073832720E+03  0.14073832720E+03  0.00000000000E+00 0. -1.
          5    1    1    2  502    0 -0.47822755966E+02  0.81274094273E+01 -0.94335233473E+02  0.10618049278E+03  0.47000000000E+01 0.  1.
         -5    1    1    2    0  502  0.18461985139E+02 -0.20445232081E+02  0.27404421115E+02  0.39140065237E+02  0.47000000000E+01 0.  1.
        -11    1    1    2    0    0  0.12617850825E+02  0.29713876635E+02 -0.24083056906E+02  0.40275529222E+02  0.00000000000E+00 0. -1.
         11    1    1    2    0    0  0.16742920002E+02 -0.17396053982E+02  0.57458191047E+02  0.62324888951E+02  0.00000000000E+00 0.  1.
<mgrwt>
<rscale>  0 0.12012457E+03</rscale>
<asrwt>0</asrwt>
<pdfrwt beam="2">  1        1 0.21652050E-01 0.12898965E+03</pdfrwt>
<pdfrwt beam="1">  1       -1 0.16489638E-01 0.12898965E+03</pdfrwt>
<totfact> 0.60266565E+03</totfact>
</mgrwt>
</event>
<event>
 6    1  0.1045058E-005  0.5130711E+03  0.7546771E-02  0.1010422E+00
         -2   -1    0    0    0  501 -0.00000000000E+00  0.00000000000E+00  0.26893248110E+02  0.26893248110E+02  0.00000000000E+00 0.  1.
          2   -1    0    0  501    0  0.00000000000E+00 -0.00000000000E+00 -0.24471008751E+04  0.24471008751E+04  0.00000000000E+00 0. -1.
          5    1    1    2  502    0  0.14197102289E+03 -0.13588279469E+03 -0.10689997783E+04  0.10869234202E+04  0.47000000000E+01 0. -1.
         -5    1    1    2    0  502 -0.24257708649E+02 -0.53414952826E+02 -0.29555510880E+03  0.30135777069E+03  0.47000000000E+01 0. -1.
        -11    1    1    2    0    0 -0.51971075634E+02  0.17393460472E+03 -0.85324668592E+03  0.87234405280E+03  0.00000000000E+00 0.  1.
         11    1    1    2    0    0 -0.65742238609E+02  0.15363142794E+02 -0.20240605397E+03  0.21336887959E+03  0.00000000000E+00 0. -1.
<mgrwt>
<rscale>  0 0.51307111E+03</rscale>
<asrwt>0</asrwt>
<pdfrwt beam="2">  1        2 0.37647692E+00 0.51307111E+03</pdfrwt>
<pdfrwt beam="1">  1       -2 0.41374243E-02 0.51307111E+03</pdfrwt>
<totfact> 0.10905715E+03</totfact>
</mgrwt>
</event>
<event>
 6    1  0.1045058E-005  0.2944669E+03  0.7546771E-02  0.1088040E+00
          1   -1    0    0  501    0  0.00000000000E+00  0.00000000000E+00  0.65217883896E+03  0.65217883896E+03  0.00000000000E+00 0. -1.
         -1   -1    0    0    0  501 -0.00000000000E+00 -0.00000000000E+00 -0.33238874067E+02  0.33238874067E+02  0.00000000000E+00 0.  1.
          5    1    1    2  502    0 -0.32455798368E+02 -0.14530726869E+02  0.21662670865E+03  0.21957627780E+03  0.47000000000E+01 0.  1.
         -5    1    1    2    0  502  0.58125728151E+02  0.82313724265E+02  0.27867395711E+03  0.29637039975E+03  0.47000000000E+01 0.  1.
        -11    1    1    2    0    0  0.16812611366E+02 -0.48089796455E+02  0.10915339200E+03  0.12045644611E+03  0.00000000000E+00 0. -1.
         11    1    1    2    0    0 -0.42482541149E+02 -0.19693200941E+02  0.14485907131E+02  0.49014589370E+02  0.00000000000E+00 0.  1.
<mgrwt>
<rscale>  0 0.29446691E+03</rscale>
<asrwt>0</asrwt>
<pdfrwt beam="1">  1        1 0.10033520E+00 0.29446691E+03</pdfrwt>
<pdfrwt beam="2">  1       -1 0.51136734E-02 0.29446691E+03</pdfrwt>
<totfact> 0.53122734E+03</totfact>
</mgrwt>
</event>
<event>
 6    1  0.1045058E-005  0.2946194E+03  0.7546771E-02  0.1087962E+00
          2   -1    0    0  501    0  0.00000000000E+00  0.00000000000E+00  0.14398644892E+03  0.14398644892E+03  0.00000000000E+00 0. -1.
         -2   -1    0    0    0  501 -0.00000000000E+00 -0.00000000000E+00 -0.15070968965E+03  0.15070968965E+03  0.00000000000E+00 0.  1.
          5    1    1    2  502    0  0.78154565986E+00  0.30012603933E+01  0.12153044220E+03  0.12166082672E+03  0.47000000000E+01 0. -1.
         -5    1    1    2    0  502 -0.10738637728E+02  0.18820294387E+02 -0.25190484093E+02  0.33558490877E+02  0.47000000000E+01 0.  1.
        -11    1    1    2    0    0 -0.21436414600E+02 -0.10460552612E+02  0.66778759845E+01  0.24769680247E+02  0.00000000000E+00 0. -1.
         11    1    1    2    0    0  0.31393506668E+02 -0.11361002168E+02 -0.10974107481E+03  0.11470714072E+03  0.00000000000E+00 0.  1.
<mgrwt>
<rscale>  0 0.29461944E+03</rscale>
<asrwt>0</asrwt>
<pdfrwt beam="1">  1        2 0.22151761E-01 0.29461944E+03</pdfrwt>
<pdfrwt beam="2">  1       -2 0.23186106E-01 0.29461944E+03</pdfrwt>
<totfact> 0.39987765E+03</totfact>
</mgrwt>
</event>
<event>
 6    1  0.1045058E-005  0.2737766E+03  0.7546771E-02  0.1099137E+00
          3   -1    0    0  501    0  0.00000000000E+00  0.00000000000E+00  0.19485010671E+03  0.19485010671E+03  0.00000000000E+00 0. -1.
         -3   -1    0    0    0  501 -0.00000000000E+00 -0.00000000000E+00 -0.96168303260E+02  0.96168303260E+02  0.00000000000E+00 0.  1.
          5    1    1    2  502    0  0.89176606566E+01  0.12079060103E+02  0.12324659498E+03  0.12424669629E+03  0.47000000000E+01 0.  1.
         -5    1    1    2    0  502 -0.61645213630E+02 -0.57025056866E+01  0.45807576027E+01  0.62255315234E+02  0.47000000000E+01 0.  1.
        -11    1    1    2    0    0  0.21204617819E+02 -0.32391489769E+02  0.17509977053E+02  0.42490513326E+02  0.00000000000E+00 0.  1.
         11    1    1    2    0    0  0.31522935155E+02  0.26014935353E+02 -0.46655526182E+02  0.62025885125E+02  0.00000000000E+00 0. -1.
<mgrwt>
<rscale>  0 0.27377658E+03</rscale>
<asrwt>0</asrwt>
<pdfrwt beam="1">  1        3 0.29976939E-01 0.27377658E+03</pdfrwt>
<pdfrwt beam="2">  1       -3 0.14795124E-01 0.27377658E+03</pdfrwt>
<totfact> 0.10389438E+03</totfact>
</mgrwt>
</event>
<event>
 6    1  0.1045058E-005  0.1408001E+03  0.7546771E-02  0.1223200E+00
         -3   -1    0    0    0  501 -0.00000000000E+00  0.00000000000E+00  0.55158602003E+02  0.55158602003E+02  0.00000000000E+00 0.  1.
          3   -1    0    0  501    0  0.00000000000E+00 -0.00000000000E+00 -0.41098510064E+03  0.41098510064E+03  0.00000000000E+00 0. -1.
          5    1    1    2  502    0 -0.24710037223E+02  0.29807235242E+02 -0.71320051549E+02  0.81287741790E+02  0.47000000000E+01 0. -1.
         -5    1    1    2    0  502  0.84520618429E+02 -0.54736406381E+02 -0.24725742865E+03  0.26701710647E+03  0.47000000000E+01 0. -1.
        -11    1    1    2    0    0 -0.78954638028E+02  0.25600806805E+02 -0.86964142304E+01  0.83455759511E+02  0.00000000000E+00 0.  1.
         11    1    1    2    0    0  0.19144056823E+02 -0.67163566668E+00 -0.28552604206E+02  0.34383094873E+02  0.00000000000E+00 0. -1.
<mgrwt>
<rscale>  0 0.13291053E+03</rscale>
<asrwt>0</asrwt>
<pdfrwt beam="2">  1        3 0.63228476E-01 0.14080006E+03</pdfrwt>
<pdfrwt beam="1">  1       -3 0.84859390E-02 0.14080006E+03</pdfrwt>
<totfact> 0.55711387E+02</totfact>
</mgrwt>
</event>
<event>
 6    1  0.1045058E-005  0.3525248E+03  0.7546771E-02  0.1061584E+00
          1   -1    0    0  501    0  0.00000000000E+00  0.00000000000E+00  0.31028266371E+03  0.31028266371E+03  0.00000000000E+00 0. -1.
         -1   -1    0    0    0  501 -0.00000000000E+00 -0.00000000000E+00 -0.10012945563E+03  0.10012945563E+03  0.00000000000E+00 0.  1.
          5    1    1    2  502    0  0.22153575888E+02  0.20637777721E+02  0.71886828149E+02  0.78144128732E+02  0.47000000000E+01 0.  1.
         -5    1    1    2    0  502 -0.11728714529E+03  0.72735070074E+02  0.80851060790E+02  0.16001765184E+03  0.47000000000E+01 0.  1.
        -11    1    1    2    0    0  0.47424173717E+02 -0.99179175795E+02  0.20930043452E+02  0.11190901609E+03  0.00000000000E+00 0.  1.
         11    1    1    2    0    0  0.47709395680E+02  0.58063280011E+01  0.36485275684E+02  0.60341322680E+02  0.00000000000E+00 0. -1.
<mgrwt>
<rscale>  0 0.35252480E+03</rscale>
<asrwt>0</asrwt>
<pdfrwt beam="1">  1        1 0.47735794E-01 0.35252480E+03</pdfrwt>
<pdfrwt beam="2">  1       -1 0.15404532E-01 0.35252480E+03</pdfrwt>
<totfact> 0.25932917E+03</totfact>
</mgrwt>
</event>
<event>
 6    1  0.1045058E-005  0.1341393E+03  0.7546771E-02  0.1232386E+00
         -1   -1    0    0    0  501 -0.00000000000E+00  0.00000000000E+00  0.13890967815E+03  0.13890967815E+03  0.00000000000E+00 0.  1.
          1   -1    0    0  501    0  0.00000000000E+00 -0.00000000000E+00 -0.17448241421E+03  0.17448241421E+03  0.00000000000E+00 0. -1.
          5    1    1    2  502    0  0.15539697099E+02  0.62214362714E+02 -0.13153499511E+03  0.14640920071E+03  0.47000000000E+01 0.  1.
         -5    1    1    2    0  502 -0.24769339351E+02 -0.14427192309E+02  0.13718465979E+02  0.32123984165E+02  0.47000000000E+01 0.  1.
        -11    1    1    2    0    0  0.30965203005E+02 -0.30915639196E+02  0.94953318017E+02  0.10455024221E+03  0.00000000000E+00 0.  1.
         11    1    1    2    0    0 -0.21735560753E+02 -0.16871531208E+02 -0.12709524949E+02  0.30308665279E+02  0.00000000000E+00 0. -1.
<mgrwt>
<rscale>  0 0.12673282E+03</rscale>
<asrwt>0</asrwt>
<pdfrwt beam="2">  1        1 0.26843448E-01 0.13413934E+03</pdfrwt>
<pdfrwt beam="1">  1       -1 0.21370720E-01 0.13413934E+03</pdfrwt>
<totfact> 0.30490412E+03</totfact>
</mgrwt>
</event>
<event>
 6    1  0.1045058E-005  0.1263728E+03  0.7546771E-02  0.1248160E+00
          3   -1    0    0  501    0  0.00000000000E+00  0.00000000000E+00  0.43991224520E+03  0.43991224520E+03  0.00000000000E+00 0. -1.
         -3   -1    0    0    0  501 -0.00000000000E+00 -0.00000000000E+00 -0.28505591929E+02  0.28505591929E+02  0.00000000000E+00 0.  1.
          5    1    1    2  502    0 -0.10087640142E+02  0.59089484871E+02  0.94191595043E+02  0.11174736812E+03  0.47000000000E+01 0. -1.
         -5    1    1    2    0  502  0.27704358597E+02 -0.53207184809E+02  0.18936168486E+03  0.19869190646E+03  0.47000000000E+01 0. -1.
        -11    1    1    2    0    0 -0.18627942661E+02  0.15328726445E+02  0.13377537364E+03  0.13593314789E+03  0.00000000000E+00 0. -1.
         11    1    1    2    0    0  0.10112242062E+01 -0.21211026506E+02 -0.59220002757E+01  0.22045414651E+02  0.00000000000E+00 0.  1.
<mgrwt>
<rscale>  0 0.11698232E+03</rscale>
<asrwt>0</asrwt>
<pdfrwt beam="1">  1        3 0.67678802E-01 0.12637278E+03</pdfrwt>
<pdfrwt beam="2">  1       -3 0.43854760E-02 0.12637278E+03</pdfrwt>
<totfact> 0.13660890E+03</totfact>
</mgrwt>
</event>
<event>
 6    1  0.1045058E-005  0.1417266E+03  0.7546771E-02  0.1222120E+00
          2   -1    0    0  501    0  0.00000000000E+00  0.00000000000E+00  0.74294838103E+03  0.74294838103E+03  0.00000000000E+00 0. -1.
         -2   -1    0    0    0  501 -0.00000000000E+00 -0.00000000000E+00 -0.23315144353E+02  0.23315144353E+02  0.00000000000E+00 0.  1.
          5    1    1    2  502    0 -0.31982567096E+02 -0.29165124679E+02  0.41725036612E+02  0.60303878614E+02  0.47000000000E+01 0. -1.
         -5    1    1    2    0  502  0.43130510830E+01 -0.31635974404E+02  0.45784116975E+03  0.45897719334E+03  0.47000000000E+01 0. -1.
        -11    1    1    2    0    0  0.34444058722E+02  0.93233858961E+01  0.21325078047E+02  0.41570153471E+02  0.00000000000E+00 0.  1.
         11    1    1    2    0    0 -0.67745427091E+01  0.51477713187E+02  0.19874195226E+03  0.20541229996E+03  0.00000000000E+00 0. -1.
<mgrwt>
<rscale>  0 0.13366235E+03</rscale>
<asrwt>0</asrwt>
<pdfrwt beam="1">  1        2 0.11429973E+00 0.14172663E+03</pdfrwt>
<pdfrwt beam="2">  1       -2 0.35869459E-02 0.14172663E+03</pdfrwt>
<totfact> 0.12095193E+04</totfact>
</mgrwt>
</event>
<event>
 6    1  0.1045058E-005  0.2825457E+03  0.7546771E-02  0.1096401E+00
          2   -1    0    0  501    0  0.00000000000E+00  0.00000000000E+00  0.11636505268E+04  0.11636505268E+04  0.00000000000E+00 0. -1.
         -2   -1    0    0    0  501 -0.00000000000E+00 -0.00000000000E+00 -0.83546396937E+02  0.83546396937E+02  0.00000000000E+00 0.  1.
          5    1    1    2  502    0  0.69156407190E+02 -0.96930460417E+02  0.50063102808E+03  0.51461795450E+03  0.47000000000E+01 0. -1.
         -5    1    1    2    0  502 -0.16481576470E+02 -0.15092407691E+03  0.34470526841E+03  0.37668757801E+03  0.47000000000E+01 0. -1.
        -11    1    1    2    0    0 -0.18096145913E+02  0.18193455462E+03  0.20764311889E+03  0.27666462998E+03  0.00000000000E+00 0. -1.
         11    1    1    2    0    0 -0.34578684807E+02  0.65919982700E+02  0.27124714481E+02  0.79226761248E+02  0.00000000000E+00 0.  1.
<mgrwt>
<rscale>  0 0.27870020E+03</rscale>
<asrwt>0</asrwt>
<pdfrwt beam="1">  1        2 0.17902315E+00 0.28254575E+03</pdfrwt>
<pdfrwt beam="2">  1       -2 0.12853293E-01 0.28254575E+03</pdfrwt>
<totfact> 0.92797383E+02</totfact>
</mgrwt>
</event>
<event>
 6    1  0.1045058E-005  0.2680116E+03  0.7546771E-02  0.1102423E+00
         -2   -1    0    0    0  501 -0.00000000000E+00  0.00000000000E+00  0.37177826271E+02  0.37177826271E+02  0.00000000000E+00 0.  1.
          2   -1    0    0  501    0  0.00000000000E+00 -0.00000000000E+00 -0.48301803562E+03  0.48301803562E+03  0.00000000000E+00 0. -1.
          5    1    1    2  502    0 -0.25704490232E+02  0.40158011593E+02 -0.34938752354E+03  0.35265722496E+03  0.47000000000E+01 0. -1.
         -5    1    1    2    0  502  0.23864990298E+01  0.16215657615E+02  0.39921839574E+01  0.17512009087E+02  0.47000000000E+01 0.  1.
        -11    1    1    2    0    0  0.42998700513E+02  0.70499161545E+01 -0.28220696412E+02  0.51913363112E+02  0.00000000000E+00 0. -1.
         11    1    1    2    0    0 -0.19680709310E+02 -0.63423585362E+02 -0.72224173357E+02  0.98113264731E+02  0.00000000000E+00 0.  1.
<mgrwt>
<rscale>  0 0.26801165E+03</rscale>
<asrwt>0</asrwt>
<pdfrwt beam="2">  1        2 0.74310463E-01 0.26801165E+03</pdfrwt>
<pdfrwt beam="1">  1       -2 0.57196659E-02 0.26801165E+03</pdfrwt>
<totfact> 0.10236842E+04</totfact>
</mgrwt>
</event>
<event>
 6    1  0.1045058E-005  0.1320608E+03  0.7546771E-02  0.1256604E+00
         -3   -1    0    0    0  501 -0.00000000000E+00  0.00000000000E+00  0.21180731967E+03  0.21180731967E+03  0.00000000000E+00 0.  1.
          3   -1    0    0  501    0  0.00000000000E+00 -0.00000000000E+00 -0.50824846450E+02  0.50824846450E+02  0.00000000000E+00 0. -1.
          5    1    1    2  502    0 -0.34277818460E+02  0.19192296601E+02 -0.23633590189E+02  0.46086328476E+02  0.47000000000E+01 0.  1.
         -5    1    1    2    0  502 -0.25398804753E+01 -0.40556426054E+02  0.96342308159E+02  0.10466711532E+03  0.47000000000E+01 0.  1.
        -11    1    1    2    0    0 -0.53603966349E+01  0.10602396145E+02  0.57138144405E+02  0.58360193644E+02  0.00000000000E+00 0.  1.
         11    1    1    2    0    0  0.42178095570E+02  0.10761733308E+02  0.31135610842E+02  0.53518528681E+02  0.00000000000E+00 0. -1.
<mgrwt>
<rscale>  0 0.11216978E+03</rscale>
<asrwt>0</asrwt>
<pdfrwt beam="2">  1        3 0.78192073E-02 0.13206076E+03</pdfrwt>
<pdfrwt beam="1">  1       -3 0.32585741E-01 0.13206076E+03</pdfrwt>
<totfact> 0.23205106E+03</totfact>
</mgrwt>
</event>
<event>
 6    1  0.1045058E-005  0.1420962E+03  0.7546771E-02  0.1221315E+00
         -2   -1    0    0    0  501 -0.00000000000E+00  0.00000000000E+00  0.74058421584E+02  0.74058421584E+02  0.00000000000E+00 0.  1.
          2   -1    0    0  501    0  0.00000000000E+00 -0.00000000000E+00 -0.32252278346E+03  0.32252278346E+03  0.00000000000E+00 0. -1.
          5    1    1    2  502    0 -0.21490958739E+01 -0.51512151686E+02 -0.95412742633E+02  0.10855322124E+03  0.47000000000E+01 0. -1.
         -5    1    1    2    0  502  0.69485001174E+02  0.57307668793E+02 -0.14978355576E+03  0.17484146495E+03  0.47000000000E+01 0. -1.
        -11    1    1    2    0    0 -0.30750848848E+01 -0.17958397794E+02  0.33517453546E+02  0.38149441550E+02  0.00000000000E+00 0.  1.
         11    1    1    2    0    0 -0.64260820416E+02  0.12162880687E+02 -0.36785517029E+02  0.75037077303E+02  0.00000000000E+00 0. -1.
<mgrwt>
<rscale>  0 0.13422710E+03</rscale>
<asrwt>0</asrwt>
<pdfrwt beam="2">  1        2 0.49618890E-01 0.14209618E+03</pdfrwt>
<pdfrwt beam="1">  1       -2 0.11393603E-01 0.14209618E+03</pdfrwt>
<totfact> 0.52235585E+03</totfact>
</mgrwt>
</event>
<event>
 6    1  0.1045058E-005  0.2209725E+03  0.7546771E-02  0.1136843E+00
         -2   -1    0    0    0  501 -0.00000000000E+00  0.00000000000E+00  0.34885950529E+02  0.34885950529E+02  0.00000000000E+00 0. -1.
          2   -1    0    0  501    0  0.00000000000E+00 -0.00000000000E+00 -0.12993384482E+04  0.12993384482E+04  0.00000000000E+00 0.  1.
          5    1    1    2  502    0  0.18795336226E+02 -0.97207280543E+02 -0.39338636686E+03  0.40568145593E+03  0.47000000000E+01 0. -1.
         -5    1    1    2    0  502  0.11662329440E+03 -0.24587216869E+02 -0.34326074273E+03  0.36339448473E+03  0.47000000000E+01 0. -1.
        -11    1    1    2    0    0 -0.24796305037E+02 -0.12380402457E+02 -0.85804432380E+02  0.90169461153E+02  0.00000000000E+00 0.  1.
         11    1    1    2    0    0 -0.11062232559E+03  0.13417489987E+03 -0.44200095569E+03  0.47497899691E+03  0.00000000000E+00 0. -1.
<mgrwt>
<rscale>  0 0.21607530E+03</rscale>
<asrwt>0</asrwt>
<pdfrwt beam="2">  1        2 0.19989823E+00 0.22097248E+03</pdfrwt>
<pdfrwt beam="1">  1       -2 0.53670691E-02 0.22097248E+03</pdfrwt>
<totfact> 0.30778361E+03</totfact>
</mgrwt>
</event>
<event>
 6    1  0.1045058E-005  0.1687926E+03  0.7546771E-02  0.1185476E+00
         -1   -1    0    0    0  501 -0.00000000000E+00  0.00000000000E+00  0.19811579802E+03  0.19811579802E+03  0.00000000000E+00 0.  1.
          1   -1    0    0  501    0  0.00000000000E+00 -0.00000000000E+00 -0.12537447185E+03  0.12537447185E+03  0.00000000000E+00 0. -1.
          5    1    1    2  502    0 -0.15908207827E+01  0.49815789737E+02  0.64346934528E+02  0.81527673835E+02  0.47000000000E+01 0.  1.
         -5    1    1    2    0  502  0.85036633255E+02  0.27014264792E+02 -0.22988195306E+02  0.92258043666E+02  0.47000000000E+01 0.  1.
        -11    1    1    2    0    0 -0.20244676208E+02 -0.79613466756E+02  0.91769278722E+01  0.82658133349E+02  0.00000000000E+00 0.  1.
         11    1    1    2    0    0 -0.63201136265E+02  0.27834122276E+01  0.22205659075E+02  0.67046419022E+02  0.00000000000E+00 0. -1.
<mgrwt>
<rscale>  0 0.16288613E+03</rscale>
<asrwt>0</asrwt>
<pdfrwt beam="2">  1        1 0.19288380E-01 0.16879257E+03</pdfrwt>
<pdfrwt beam="1">  1       -1 0.30479353E-01 0.16879257E+03</pdfrwt>
<totfact> 0.26037840E+03</totfact>
</mgrwt>
</event>
<event>
 6    1  0.1045058E-005  0.1268625E+03  0.7546771E-02  0.1246770E+00
         -1   -1    0    0    0  501 -0.00000000000E+00  0.00000000000E+00  0.24543247783E+03  0.24543247783E+03  0.00000000000E+00 0. -1.
          1   -1    0    0  501    0  0.00000000000E+00 -0.00000000000E+00 -0.54707347321E+02  0.54707347321E+02  0.00000000000E+00 0.  1.
          5    1    1    2  502    0 -0.11969216157E+02  0.52970289327E+02  0.20772688111E+02  0.58332737448E+02  0.47000000000E+01 0.  1.
         -5    1    1    2    0  502  0.30047078274E+02 -0.64995621266E+02  0.43011763271E+02  0.83662174704E+02  0.47000000000E+01 0.  1.
        -11    1    1    2    0    0  0.20732290024E+01 -0.22486096892E+02  0.11388562978E+03  0.11610279713E+03  0.00000000000E+00 0. -1.
         11    1    1    2    0    0 -0.20151091119E+02  0.34511428830E+02  0.13055049352E+02  0.42042115869E+02  0.00000000000E+00 0.  1.
<mgrwt>
<rscale>  0 0.11780090E+03</rscale>
<asrwt>0</asrwt>
<pdfrwt beam="2">  1        1 0.84165151E-02 0.12686252E+03</pdfrwt>
<pdfrwt beam="1">  1       -1 0.37758842E-01 0.12686252E+03</pdfrwt>
<totfact> 0.52628201E+03</totfact>
</mgrwt>
</event>
<event>
 6    1  0.1045058E-005  0.1337843E+03  0.7546771E-02  0.1235295E+00
          3   -1    0    0  501    0  0.00000000000E+00  0.00000000000E+00  0.23752563178E+03  0.23752563178E+03  0.00000000000E+00 0. -1.
         -3   -1    0    0    0  501 -0.00000000000E+00 -0.00000000000E+00 -0.58603108604E+02  0.58603108604E+02  0.00000000000E+00 0.  1.
          5    1    1    2  502    0 -0.31622712776E+02  0.55091615659E+02  0.10775718656E+03  0.12517501082E+03  0.47000000000E+01 0.  1.
         -5    1    1    2    0  502  0.48274056424E+02 -0.10404525323E+02  0.51251964559E+01  0.49869793558E+02  0.47000000000E+01 0.  1.
        -11    1    1    2    0    0 -0.39177426984E+02  0.11495966076E+02  0.23623587447E+02  0.47170985838E+02  0.00000000000E+00 0.  1.
         11    1    1    2    0    0  0.22526083336E+02 -0.56183056412E+02  0.42416552721E+02  0.73912950171E+02  0.00000000000E+00 0. -1.
<mgrwt>
<rscale>  0 0.12485580E+03</rscale>
<asrwt>0</asrwt>
<pdfrwt beam="1">  1        3 0.36542404E-01 0.13378435E+03</pdfrwt>
<pdfrwt beam="2">  1       -3 0.90158630E-02 0.13378435E+03</pdfrwt>
<totfact> 0.14859690E+03</totfact>
</mgrwt>
</event>
<event>
 6    1  0.1045058E-005  0.3457472E+03  0.7546771E-02  0.1065498E+00
          2   -1    0    0  501    0  0.00000000000E+00  0.00000000000E+00  0.13874582294E+04  0.13874582294E+04  0.00000000000E+00 0. -1.
         -2   -1    0    0    0  501 -0.00000000000E+00 -0.00000000000E+00 -0.11539666318E+03  0.11539666318E+03  0.00000000000E+00 0.  1.
          5    1    1    2  502    0 -0.77060236951E+02 -0.14775315414E+03  0.44631563488E+03  0.47643363716E+03  0.47000000000E+01 0. -1.
         -5    1    1    2    0  502 -0.16440194105E+03 -0.65817107718E+02  0.59168795570E+03  0.61763793343E+03  0.47000000000E+01 0. -1.
        -11    1    1    2    0    0  0.18788562079E+03  0.20067351754E+03  0.16569876784E+03  0.32097811266E+03  0.00000000000E+00 0.  1.
         11    1    1    2    0    0  0.53576557210E+02  0.12896744322E+02  0.68359207793E+02  0.87805209337E+02  0.00000000000E+00 0. -1.
<mgrwt>
<rscale>  0 0.34306506E+03</rscale>
<asrwt>0</asrwt>
<pdfrwt beam="1">  1        2 0.21345510E+00 0.34574723E+03</pdfrwt>
<pdfrwt beam="2">  1       -2 0.17753334E-01 0.34574723E+03</pdfrwt>
<totfact> 0.40321927E+02</totfact>
</mgrwt>
</event>
<event>
 6    1  0.1045058E-005  0.1755600E+03  0.7546771E-02  0.1178027E+00
          1   -1    0    0  501    0  0.00000000000E+00  0.00000000000E+00  0.13614867042E+03  0.13614867042E+03  0.00000000000E+00 0. -1.
         -1   -1    0    0    0  501 -0.00000000000E+00 -0.00000000000E+00 -0.20660675262E+03  0.20660675262E+03  0.00000000000E+00 0.  1.
          5    1    1    2  502    0  0.30509167496E+01 -0.33194964243E+02 -0.14328573259E+01  0.33695056377E+02  0.47000000000E+01 0.  1.
         -5    1    1    2    0  502 -0.11585420774E+03  0.81784776326E+02 -0.34647464379E+01  0.14193322923E+03  0.47000000000E+01 0.  1.
        -11    1    1    2    0    0  0.91693767212E+02 -0.71125099393E+02 -0.29663027786E+02  0.11977654999E+03  0.00000000000E+00 0.  1.
         11    1    1    2    0    0  0.21109523783E+02  0.22535287311E+02 -0.35897450657E+02  0.47350587453E+02  0.00000000000E+00 0. -1.
<mgrwt>
<rscale>  0 0.16982816E+03</rscale>
<asrwt>0</asrwt>
<pdfrwt beam="1">  1        1 0.20945949E-01 0.17555998E+03</pdfrwt>
<pdfrwt beam="2">  1       -1 0.31785654E-01 0.17555998E+03</pdfrwt>
<totfact> 0.21853111E+03</totfact>
</mgrwt>
</event>
<event>
 6    1  0.1045058E-005  0.2172398E+03  0.7546771E-02  0.1139874E+00
          1   -1    0    0  501    0  0.00000000000E+00  0.00000000000E+00  0.77687345390E+03  0.77687345390E+03  0.00000000000E+00 0. -1.
         -1   -1    0    0    0  501 -0.00000000000E+00 -0.00000000000E+00 -0.77321188575E+02  0.77321188575E+02  0.00000000000E+00 0.  1.
          5    1    1    2  502    0  0.22720185197E+02  0.10601453998E+03  0.38447932178E+03  0.39950185028E+03  0.47000000000E+01 0.  1.
         -5    1    1    2    0  502 -0.79993556722E+02  0.62155314627E+02  0.20451107078E+03  0.22827422177E+03  0.47000000000E+01 0.  1.
        -11    1    1    2    0    0  0.85169934805E+01 -0.17085421995E+02 -0.14782021395E+02  0.24144543467E+02  0.00000000000E+00 0.  1.
         11    1    1    2    0    0  0.48756378045E+02 -0.15108443261E+03  0.12534389415E+03  0.20227402695E+03  0.00000000000E+00 0. -1.
<mgrwt>
<rscale>  0 0.21215107E+03</rscale>
<asrwt>0</asrwt>
<pdfrwt beam="1">  1        1 0.11951899E+00 0.21723976E+03</pdfrwt>
<pdfrwt beam="2">  1       -1 0.11895568E-01 0.21723976E+03</pdfrwt>
<totfact> 0.11212362E+03</totfact>
</mgrwt>
</event>
<event>
 6    1  0.1045058E-005  0.2576277E+03  0.7546771E-02  0.1108577E+00
          1   -1    0    0  501    0  0.00000000000E+00  0.00000000000E+00  0.68362811922E+03  0.68362811922E+03  0.00000000000E+00 0. -1.
         -1   -1    0    0    0  501 -0.00000000000E+00 -0.00000000000E+00 -0.24271974306E+02  0.24271974306E+02  0.00000000000E+00 0.  1.
          5    1    1    2  502    0  0.46994959282E+02  0.66302856342E+02  0.43508363796E+03  0.44263354705E+03  0.47000000000E+01 0. -1.
         -5    1    1    2    0  502 -0.71802773504E+01 -0.18575641311E+02  0.80817603466E+01  0.22000356435E+02  0.47000000000E+01 0. -1.
        -11    1    1    2    0    0 -0.15791343934E+02 -0.50353491435E+02  0.21233457900E+03  0.21879399919E+03  0.00000000000E+00 0. -1.
         11    1    1    2    0    0 -0.24023337997E+02  0.26262764051E+01  0.38561676080E+01  0.24472190848E+02  0.00000000000E+00 0.  1.
<mgrwt>
<rscale>  0 0.25762767E+03</rscale>
<asrwt>0</asrwt>
<pdfrwt beam="1">  1        1 0.10517354E+00 0.25762767E+03</pdfrwt>
<pdfrwt beam="2">  1       -1 0.37341504E-02 0.25762767E+03</pdfrwt>
<totfact> 0.79066165E+03</totfact>
</mgrwt>
</event>
<event>
 6    1  0.1045058E-005  0.3142772E+03  0.7546771E-02  0.1078314E+00
          2   -1    0    0  501    0  0.00000000000E+00  0.00000000000E+00  0.16165350990E+03  0.16165350990E+03  0.00000000000E+00 0. -1.
         -2   -1    0    0    0  501 -0.00000000000E+00 -0.00000000000E+00 -0.15274975950E+03  0.15274975950E+03  0.00000000000E+00 0.  1.
          5    1    1    2  502    0  0.72174655359E+00  0.68334728894E+01  0.10226606784E+03  0.10260436590E+03  0.47000000000E+01 0.  1.
         -5    1    1    2    0  502 -0.83657451369E+01  0.67353896253E+02 -0.11406759949E+02  0.68983600984E+02  0.47000000000E+01 0.  1.
        -11    1    1    2    0    0 -0.20928025843E+02 -0.41093608069E+02 -0.87336540394E+02  0.98764053065E+02  0.00000000000E+00 0.  1.
         11    1    1    2    0    0  0.28572024427E+02 -0.33093761073E+02  0.53809829035E+01  0.44051249458E+02  0.00000000000E+00 0. -1.
<mgrwt>
<rscale>  0 0.31427717E+03</rscale>
<asrwt>0</asrwt>
<pdfrwt beam="1">  1        2 0.24869771E-01 0.31427717E+03</pdfrwt>
<pdfrwt beam="2">  1       -2 0.23499963E-01 0.31427717E+03</pdfrwt>
<totfact> 0.34333807E+03</totfact>
</mgrwt>
</event>
<event>
 6    1  0.1045058E-005  0.1751312E+03  0.7546771E-02  0.1178575E+00
         -1   -1    0    0    0  501 -0.00000000000E+00  0.00000000000E+00  0.21575615316E+02  0.21575615316E+02  0.00000000000E+00 0.  1.
          1   -1    0    0  501    0  0.00000000000E+00 -0.00000000000E+00 -0.13099920217E+04  0.13099920217E+04  0.00000000000E+00 0. -1.
          5    1    1    2  502    0  0.86621010957E+02 -0.20753872943E+02 -0.25009115378E+03  0.26552137010E+03  0.47000000000E+01 0.  1.
         -5    1    1    2    0  502  0.86907540021E+01 -0.56492839620E+02 -0.58087555076E+03  0.58369980778E+03  0.47000000000E+01 0.  1.
        -11    1    1    2    0    0 -0.87794358215E+02  0.50444055120E+02 -0.43487250349E+03  0.44650481108E+03  0.00000000000E+00 0. -1.
         11    1    1    2    0    0 -0.75174067445E+01  0.26802657443E+02 -0.22577198390E+02  0.35841648083E+02  0.00000000000E+00 0.  1.
<mgrwt>
<rscale>  0 0.16930498E+03</rscale>
<asrwt>0</asrwt>
<pdfrwt beam="2">  1        1 0.20153733E+00 0.17513122E+03</pdfrwt>
<pdfrwt beam="1">  1       -1 0.33193238E-02 0.17513122E+03</pdfrwt>
<totfact> 0.31001787E+03</totfact>
</mgrwt>
</event>
<event>
 6    1  0.1045058E-005  0.7994245E+03  0.7546771E-02  0.1015409E+00
          2   -1    0    0  501    0  0.00000000000E+00  0.00000000000E+00  0.20658110195E+04  0.20658110195E+04  0.00000000000E+00 0. -1.
         -2   -1    0    0    0  501 -0.00000000000E+00 -0.00000000000E+00 -0.11445136852E+03  0.11445136852E+03  0.00000000000E+00 0.  1.
          5    1    1    2  502    0  0.13922404728E+03 -0.87265137618E+02  0.18760379756E+04  0.18832257208E+04  0.47000000000E+01 0. -1.
         -5    1    1    2    0  502 -0.10473393625E+03  0.12282158671E+03  0.60384142867E+01  0.16159483906E+03  0.47000000000E+01 0.  1.
        -11    1    1    2    0    0  0.79537862773E+01 -0.12487546145E+02 -0.25255770443E+02  0.29275509655E+02  0.00000000000E+00 0.  1.
         11    1    1    2    0    0 -0.42443897312E+02 -0.23068902947E+02  0.94539031557E+02  0.10616631853E+03  0.00000000000E+00 0. -1.
<mgrwt>
<rscale>  0 0.49380189E+03</rscale>
<asrwt>0</asrwt>
<pdfrwt beam="1">  1        2 0.31781705E+00 0.79942453E+03</pdfrwt>
<pdfrwt beam="2">  1       -2 0.17607904E-01 0.79942453E+03</pdfrwt>
<totfact> 0.16703149E+02</totfact>
</mgrwt>
</event>
<event>
 6    1  0.1045058E-005  0.1307453E+03  0.7546771E-02  0.1239201E+00
          4   -1    0    0  501    0  0.00000000000E+00  0.00000000000E+00  0.25282642688E+03  0.25282642688E+03  0.00000000000E+00 0. -1.
         -4   -1    0    0    0  501 -0.00000000000E+00 -0.00000000000E+00 -0.53727664777E+02  0.53727664777E+02  0.00000000000E+00 0.  1.
          5    1    1    2  502    0 -0.38071049213E+02 -0.58257883057E+02  0.12385981094E+03  0.14215037282E+03  0.47000000000E+01 0.  1.
         -5    1    1    2    0  502  0.31874641558E+01  0.42507083168E+02  0.81588637034E+01  0.43653970084E+02  0.47000000000E+01 0.  1.
        -11    1    1    2    0    0  0.55673741426E+02  0.97614420779E+01  0.78148612669E+02  0.96447171539E+02  0.00000000000E+00 0. -1.
         11    1    1    2    0    0 -0.20790156369E+02  0.59893578110E+01 -0.11068525211E+02  0.24302577213E+02  0.00000000000E+00 0.  1.
<mgrwt>
<rscale>  0 0.12239288E+03</rscale>
<asrwt>0</asrwt>
<pdfrwt beam="1">  1        4 0.38896373E-01 0.13074526E+03</pdfrwt>
<pdfrwt beam="2">  1       -4 0.82657947E-02 0.13074526E+03</pdfrwt>
<totfact> 0.11005714E+03</totfact>
</mgrwt>
</event>
<event>
 6    1  0.1045058E-005  0.1416805E+03  0.7546771E-02  0.1221839E+00
          2   -1    0    0  501    0  0.00000000000E+00  0.00000000000E+00  0.37182067792E+03  0.37182067792E+03  0.00000000000E+00 0. -1.
         -2   -1    0    0    0  501 -0.00000000000E+00 -0.00000000000E+00 -0.43575060186E+02  0.43575060186E+02  0.00000000000E+00 0.  1.
          5    1    1    2  502    0 -0.73552951817E+02 -0.52192232782E+02  0.96638798521E+02  0.13226947215E+03  0.47000000000E+01 0.  1.
         -5    1    1    2    0  502  0.47504068674E+02 -0.92506085493E+01  0.87067312559E+02  0.99724707146E+02  0.47000000000E+01 0.  1.
        -11    1    1    2    0    0  0.21378318473E+02 -0.18141296702E+00  0.11109102499E+03  0.11312948884E+03  0.00000000000E+00 0. -1.
         11    1    1    2    0    0  0.46705646700E+01  0.61624254298E+02  0.33448481664E+02  0.70272069969E+02  0.00000000000E+00 0.  1.
<mgrwt>
<rscale>  0 0.13385905E+03</rscale>
<asrwt>0</asrwt>
<pdfrwt beam="1">  1        2 0.57203179E-01 0.14168050E+03</pdfrwt>
<pdfrwt beam="2">  1       -2 0.67038557E-02 0.14168050E+03</pdfrwt>
<totfact> 0.10252949E+04</totfact>
</mgrwt>
</event>
<event>
 6    1  0.1045058E-005  0.1518555E+03  0.7546771E-02  0.1210385E+00
          2   -1    0    0  501    0  0.00000000000E+00  0.00000000000E+00  0.73050778535E+03  0.73050778535E+03  0.00000000000E+00 0. -1.
         -2   -1    0    0    0  501 -0.00000000000E+00 -0.00000000000E+00 -0.25105799647E+02  0.25105799647E+02  0.00000000000E+00 0.  1.
          5    1    1    2  502    0 -0.15635183910E+02  0.27532124185E+02  0.14957626272E+03  0.15296282296E+03  0.47000000000E+01 0.  1.
         -5    1    1    2    0  502  0.86774609184E+02 -0.76262378471E+02  0.29600980829E+03  0.31778873450E+03  0.47000000000E+01 0.  1.
        -11    1    1    2    0    0  0.11830393173E+02 -0.95626418534E+01  0.28764099638E+02  0.32538834487E+02  0.00000000000E+00 0.  1.
         11    1    1    2    0    0 -0.82969818447E+02  0.58292896140E+02  0.23105181506E+03  0.25232319306E+03  0.00000000000E+00 0. -1.
<mgrwt>
<rscale>  0 0.14221088E+03</rscale>
<asrwt>0</asrwt>
<pdfrwt beam="1">  1        2 0.11238580E+00 0.15185546E+03</pdfrwt>
<pdfrwt beam="2">  1       -2 0.38624313E-02 0.15185546E+03</pdfrwt>
<totfact> 0.11109909E+04</totfact>
</mgrwt>
</event>
<event>
 6    1  0.1045058E-005  0.1449784E+03  0.7546771E-02  0.1228315E+00
          2   -1    0    0  501    0  0.00000000000E+00  0.00000000000E+00  0.32334057739E+03  0.32334057739E+03  0.00000000000E+00 0. -1.
         -2   -1    0    0    0  501 -0.00000000000E+00 -0.00000000000E+00 -0.45840424290E+02  0.45840424290E+02  0.00000000000E+00 0.  1.
          5    1    1    2  502    0  0.67708875150E+02 -0.62729752352E+01  0.10993775887E+03  0.12935317089E+03  0.47000000000E+01 0. -1.
         -5    1    1    2    0  502 -0.67266422135E+02  0.35620713934E+02  0.99332992892E+02  0.12523074816E+03  0.47000000000E+01 0.  1.
        -11    1    1    2    0    0 -0.19651966237E+01 -0.60675183788E+02  0.45165173213E+02  0.75665268101E+02  0.00000000000E+00 0. -1.
         11    1    1    2    0    0  0.15227436096E+01  0.31327445090E+02  0.23064228126E+02  0.38931814535E+02  0.00000000000E+00 0.  1.
<mgrwt>
<rscale>  0 0.12942232E+03</rscale>
<asrwt>0</asrwt>
<pdfrwt beam="1">  1        2 0.49744703E-01 0.14497836E+03</pdfrwt>
<pdfrwt beam="2">  1       -2 0.70523732E-02 0.14497836E+03</pdfrwt>
<totfact> 0.11026947E+04</totfact>
</mgrwt>
</event>
<event>
 6    1  0.1045058E-005  0.1259053E+03  0.7546771E-02  0.1249293E+00
         -1   -1    0    0    0  501 -0.00000000000E+00  0.00000000000E+00  0.66684932560E+02  0.66684932560E+02  0.00000000000E+00 0.  1.
          1   -1    0    0  501    0  0.00000000000E+00 -0.00000000000E+00 -0.22091913016E+03  0.22091913016E+03  0.00000000000E+00 0. -1.
          5    1    1    2  502    0  0.39206190691E+02  0.57799981288E+02 -0.89436436449E+02  0.11357345372E+03  0.47000000000E+01 0. -1.
         -5    1    1    2    0  502 -0.27712279450E+02 -0.48051069969E+02 -0.60484232538E+02  0.82202847537E+02  0.47000000000E+01 0. -1.
        -11    1    1    2    0    0  0.38838490600E+02 -0.85743129309E+01  0.65861205877E+01  0.40315309483E+02  0.00000000000E+00 0.  1.
         11    1    1    2    0    0 -0.50332401841E+02 -0.11745983873E+01 -0.10899649203E+02  0.51512451982E+02  0.00000000000E+00 0. -1.
<mgrwt>
<rscale>  0 0.11632061E+03</rscale>
<asrwt>0</asrwt>
<pdfrwt beam="2">  1        1 0.33987558E-01 0.12590533E+03</pdfrwt>
<pdfrwt beam="1">  1       -1 0.10259220E-01 0.12590533E+03</pdfrwt>
<totfact> 0.71493003E+03</totfact>
</mgrwt>
</event>
<event>
 6    1  0.1045058E-005  0.1418546E+03  0.7546771E-02  0.1221738E+00
          1   -1    0    0  501    0  0.00000000000E+00  0.00000000000E+00  0.36382968000E+03  0.36382968000E+03  0.00000000000E+00 0.  1.
         -1   -1    0    0    0  501 -0.00000000000E+00 -0.00000000000E+00 -0.47007800656E+02  0.47007800656E+02  0.00000000000E+00 0. -1.
          5    1    1    2  502    0  0.30912908055E+02 -0.11570201049E+02 -0.50567730732E+01  0.33721482629E+02  0.47000000000E+01 0. -1.
         -5    1    1    2    0  502  0.30339269529E+02 -0.15754563745E+02  0.22751042564E+03  0.23011249712E+03  0.47000000000E+01 0. -1.
        -11    1    1    2    0    0 -0.45214943346E+02 -0.17890470809E+02  0.85289137484E+02  0.98176866014E+02  0.00000000000E+00 0.  1.
         11    1    1    2    0    0 -0.16037234239E+02  0.45215235603E+02  0.90790892898E+01  0.48826634893E+02  0.00000000000E+00 0. -1.
<mgrwt>
<rscale>  0 0.13393007E+03</rscale>
<asrwt>0</asrwt>
<pdfrwt beam="1">  1        1 0.55973795E-01 0.14185465E+03</pdfrwt>
<pdfrwt beam="2">  1       -1 0.72319696E-02 0.14185465E+03</pdfrwt>
<totfact> 0.65944547E+03</totfact>
</mgrwt>
</event>
<event>
 6    1  0.1045058E-005  0.1187007E+03  0.7546771E-02  0.1252861E+00
         -1   -1    0    0    0  501 -0.00000000000E+00  0.00000000000E+00  0.18202932664E+02  0.18202932664E+02  0.00000000000E+00 0.  1.
          1   -1    0    0  501    0  0.00000000000E+00 -0.00000000000E+00 -0.14182363925E+04  0.14182363925E+04  0.00000000000E+00 0. -1.
          5    1    1    2  502    0 -0.58772973070E+02 -0.19835010237E+01 -0.10828481037E+04  0.10844539189E+04  0.47000000000E+01 0. -1.
         -5    1    1    2    0  502  0.25541069802E+02 -0.25730065994E+02 -0.16367105273E+03  0.16770416228E+03  0.47000000000E+01 0.  1.
        -11    1    1    2    0    0 -0.20648466974E+02  0.14410301356E+02 -0.11247066526E+03  0.11525478956E+03  0.00000000000E+00 0. -1.
         11    1    1    2    0    0  0.53880370242E+02  0.13303265661E+02 -0.41043638211E+02  0.69026454438E+02  0.00000000000E+00 0.  1.
<mgrwt>
<rscale>  0 0.11426999E+03</rscale>
<asrwt>0</asrwt>
<pdfrwt beam="2">  1        1 0.21819023E+00 0.11870069E+03</pdfrwt>
<pdfrwt beam="1">  1       -1 0.28004510E-02 0.11870069E+03</pdfrwt>
<totfact> 0.33424052E+03</totfact>
</mgrwt>
</event>
<event>
 6    1  0.1045058E-005  0.1343566E+03  0.7546771E-02  0.1233932E+00
         -2   -1    0    0    0  501 -0.00000000000E+00  0.00000000000E+00  0.60468328471E+02  0.60468328471E+02  0.00000000000E+00 0.  1.
          2   -1    0    0  501    0  0.00000000000E+00 -0.00000000000E+00 -0.23593945647E+03  0.23593945647E+03  0.00000000000E+00 0. -1.
          5    1    1    2  502    0 -0.38187333741E+02  0.58129154843E+02 -0.12167981640E+03  0.14023315878E+03  0.47000000000E+01 0. -1.
         -5    1    1    2    0  502 -0.56956033897E+01 -0.35741334501E+02  0.60927776012E+01  0.37001281448E+02  0.47000000000E+01 0. -1.
        -11    1    1    2    0    0  0.39517819206E+01 -0.44432936296E+02 -0.58464273093E+02  0.73538925995E+02  0.00000000000E+00 0. -1.
         11    1    1    2    0    0  0.39931155210E+02  0.22045115953E+02 -0.14198160990E+01  0.45634418716E+02  0.00000000000E+00 0.  1.
<mgrwt>
<rscale>  0 0.12573037E+03</rscale>
<asrwt>0</asrwt>
<pdfrwt beam="2">  1        2 0.36298378E-01 0.13435655E+03</pdfrwt>
<pdfrwt beam="1">  1       -2 0.93028198E-02 0.13435655E+03</pdfrwt>
<totfact> 0.99855943E+03</totfact>
</mgrwt>
</event>
<event>
 6    1  0.1045058E-005  0.1735077E+03  0.7546771E-02  0.1180259E+00
          1   -1    0    0  501    0  0.00000000000E+00  0.00000000000E+00  0.17575484901E+03  0.17575484901E+03  0.00000000000E+00 0. -1.
         -1   -1    0    0    0  501 -0.00000000000E+00 -0.00000000000E+00 -0.15032889050E+03  0.15032889050E+03  0.00000000000E+00 0.  1.
          5    1    1    2  502    0 -0.29541991294E+01 -0.80608929064E+02 -0.51855289070E+02  0.96008269133E+02  0.47000000000E+01 0. -1.
         -5    1    1    2    0  502  0.31952544754E+02 -0.36175752165E+02  0.60743223889E+02  0.77726954200E+02  0.47000000000E+01 0. -1.
        -11    1    1    2    0    0 -0.50282854127E+02  0.68210981360E+02 -0.21086054968E+02  0.87325397860E+02  0.00000000000E+00 0.  1.
         11    1    1    2    0    0  0.21284508503E+02  0.48573699868E+02  0.37624078652E+02  0.65023118316E+02  0.00000000000E+00 0. -1.
<mgrwt>
<rscale>  0 0.16770854E+03</rscale>
<asrwt>0</asrwt>
<pdfrwt beam="1">  1        1 0.27039207E-01 0.17350773E+03</pdfrwt>
<pdfrwt beam="2">  1       -1 0.23127522E-01 0.17350773E+03</pdfrwt>
<totfact> 0.26872698E+03</totfact>
</mgrwt>
</event>
<event>
 6    1  0.1045058E-005  0.1289407E+03  0.7546771E-02  0.1243273E+00
         -1   -1    0    0    0  501 -0.00000000000E+00  0.00000000000E+00  0.52139404852E+02  0.52139404852E+02  0.00000000000E+00 0.  1.
          1   -1    0    0  501    0  0.00000000000E+00 -0.00000000000E+00 -0.25685775918E+03  0.25685775918E+03  0.00000000000E+00 0. -1.
          5    1    1    2  502    0 -0.50365178138E+02  0.34682167439E+02 -0.38213472477E+02  0.72262461803E+02  0.47000000000E+01 0. -1.
         -5    1    1    2    0  502  0.23660291930E+02 -0.51358247341E+02 -0.11311741799E+03  0.12655085632E+03  0.47000000000E+01 0. -1.
        -11    1    1    2    0    0  0.17918197883E+02 -0.36916934051E+02 -0.31058897266E+02  0.51464326814E+02  0.00000000000E+00 0.  1.
         11    1    1    2    0    0  0.87866883240E+01  0.53593013953E+02 -0.22328566603E+02  0.58719519095E+02  0.00000000000E+00 0. -1.
<mgrwt>
<rscale>  0 0.11989358E+03</rscale>
<asrwt>0</asrwt>
<pdfrwt beam="2">  1        1 0.39516578E-01 0.12894067E+03</pdfrwt>
<pdfrwt beam="1">  1       -1 0.80214470E-02 0.12894067E+03</pdfrwt>
<totfact> 0.86328004E+03</totfact>
</mgrwt>
</event>
<event>
 6    1  0.1045058E-005  0.1305889E+03  0.7546771E-02  0.1241400E+00
          2   -1    0    0  501    0  0.00000000000E+00  0.00000000000E+00  0.19664139270E+03  0.19664139270E+03  0.00000000000E+00 0. -1.
         -2   -1    0    0    0  501 -0.00000000000E+00 -0.00000000000E+00 -0.65914016048E+02  0.65914016048E+02  0.00000000000E+00 0.  1.
          5    1    1    2  502    0  0.64562275023E+02 -0.31912075937E+02  0.13300973284E+02  0.73387150354E+02  0.47000000000E+01 0. -1.
         -5    1    1    2    0  502 -0.39833835037E+02  0.33321657149E+01  0.72327839038E+02  0.82772241978E+02  0.47000000000E+01 0. -1.
        -11    1    1    2    0    0  0.40678572196E+01  0.28778564180E+02  0.65127498197E+02  0.71318610756E+02  0.00000000000E+00 0. -1.
         11    1    1    2    0    0 -0.28796297206E+02 -0.19865395864E+00 -0.20028933866E+02  0.35077405662E+02  0.00000000000E+00 0.  1.
<mgrwt>
<rscale>  0 0.12103463E+03</rscale>
<asrwt>0</asrwt>
<pdfrwt beam="1">  1        2 0.30252522E-01 0.13058891E+03</pdfrwt>
<pdfrwt beam="2">  1       -2 0.10140618E-01 0.13058891E+03</pdfrwt>
<totfact> 0.10586177E+04</totfact>
</mgrwt>
</event>
<event>
 6    1  0.1045058E-005  0.2574275E+03  0.7546771E-02  0.1110942E+00
          2   -1    0    0  501    0  0.00000000000E+00  0.00000000000E+00  0.30461393776E+04  0.30461393776E+04  0.00000000000E+00 0.  1.
         -2   -1    0    0    0  501 -0.00000000000E+00 -0.00000000000E+00 -0.20879224694E+02  0.20879224694E+02  0.00000000000E+00 0. -1.
          5    1    1    2  502    0  0.12107807266E+03  0.45939208205E+02  0.13939026846E+04  0.13999132454E+04  0.47000000000E+01 0.  1.
         -5    1    1    2    0  502  0.91952417336E+02  0.26601462936E+02  0.34987963630E+03  0.36276815569E+03  0.47000000000E+01 0.  1.
        -11    1    1    2    0    0 -0.12471181248E+03 -0.87985087438E+02  0.85847775221E+03  0.87193948347E+03  0.00000000000E+00 0.  1.
         11    1    1    2    0    0 -0.88318677516E+02  0.15444416297E+02  0.42300007972E+03  0.43239771766E+03  0.00000000000E+00 0. -1.
<mgrwt>
<rscale>  0 0.25377508E+03</rscale>
<asrwt>0</asrwt>
<pdfrwt beam="1">  1        2 0.46863647E+00 0.25742754E+03</pdfrwt>
<pdfrwt beam="2">  1       -2 0.32121908E-02 0.25742754E+03</pdfrwt>
<totfact> 0.74985205E+02</totfact>
</mgrwt>
</event>
<event>
 6    1  0.1045058E-005  0.1281361E+03  0.7546771E-02  0.1246611E+00
         -1   -1    0    0    0  501 -0.00000000000E+00  0.00000000000E+00  0.11366832004E+03  0.11366832004E+03  0.00000000000E+00 0.  1.
          1   -1    0    0  501    0  0.00000000000E+00 -0.00000000000E+00 -0.13299821337E+03  0.13299821337E+03  0.00000000000E+00 0. -1.
          5    1    1    2  502    0  0.18154785498E+02 -0.65790565749E+00  0.32073294445E+02  0.37159323095E+02  0.47000000000E+01 0.  1.
         -5    1    1    2    0  502 -0.38978465756E+02 -0.18308019378E+02 -0.97551172629E+02  0.10673718025E+03  0.47000000000E+01 0.  1.
        -11    1    1    2    0    0  0.55252061691E+02  0.13352437791E+02  0.30920419115E+02  0.64708192946E+02  0.00000000000E+00 0.  1.
         11    1    1    2    0    0 -0.34428381433E+02  0.56134872444E+01  0.15227565735E+02  0.38061837125E+02  0.00000000000E+00 0. -1.
<mgrwt>
<rscale>  0 0.11789493E+03</rscale>
<asrwt>0</asrwt>
<pdfrwt beam="2">  1        1 0.20461264E-01 0.12813606E+03</pdfrwt>
<pdfrwt beam="1">  1       -1 0.17487434E-01 0.12813606E+03</pdfrwt>
<totfact> 0.58970938E+03</totfact>
</mgrwt>
</event>
<event>
 6    1  0.1045058E-005  0.2720619E+03  0.7546771E-02  0.1100105E+00
          2   -1    0    0  501    0  0.00000000000E+00  0.00000000000E+00  0.63162000698E+03  0.63162000698E+03  0.00000000000E+00 0. -1.
         -2   -1    0    0    0  501 -0.00000000000E+00 -0.00000000000E+00 -0.29296750548E+02  0.29296750548E+02  0.00000000000E+00 0.  1.
          5    1    1    2  502    0 -0.18824576783E+02  0.59344110270E+02  0.47183448175E+02  0.78258902985E+02  0.47000000000E+01 0.  1.
         -5    1    1    2    0  502  0.10447329305E+02  0.21905414902E+02  0.28349129570E+03  0.28456703714E+03  0.47000000000E+01 0.  1.
        -11    1    1    2    0    0  0.48133986476E+02 -0.32578029651E+02  0.10545075904E+03  0.12040793683E+03  0.00000000000E+00 0. -1.
         11    1    1    2    0    0 -0.39756738997E+02 -0.48671495522E+02  0.16619775352E+03  0.17768288057E+03  0.00000000000E+00 0.  1.
<mgrwt>
<rscale>  0 0.27206186E+03</rscale>
<asrwt>0</asrwt>
<pdfrwt beam="1">  1        2 0.97172299E-01 0.27206186E+03</pdfrwt>
<pdfrwt beam="2">  1       -2 0.45071929E-02 0.27206186E+03</pdfrwt>
<totfact> 0.10834897E+04</totfact>
</mgrwt>
</event>
<event>
 6    1  0.1045058E-005  0.1730295E+03  0.7546771E-02  0.1179189E+00
          1   -1    0    0  501    0  0.00000000000E+00  0.00000000000E+00  0.14803550000E+04  0.14803550000E+04  0.00000000000E+00 0. -1.
         -1   -1    0    0    0  501 -0.00000000000E+00 -0.00000000000E+00 -0.61919197901E+02  0.61919197901E+02  0.00000000000E+00 0.  1.
          5    1    1    2  502    0 -0.63677245617E+02 -0.23869951255E+02  0.98847940149E+03  0.99082701990E+03  0.47000000000E+01 0. -1.
         -5    1    1    2    0  502 -0.64672653436E+02  0.48411901419E+02  0.37807942247E+03  0.38664247567E+03  0.47000000000E+01 0.  1.
        -11    1    1    2    0    0  0.39784248084E+02  0.13986011095E+02  0.53606816808E+02  0.68206199940E+02  0.00000000000E+00 0. -1.
         11    1    1    2    0    0  0.88565650969E+02 -0.38527961259E+02 -0.17298386279E+01  0.96598502432E+02  0.00000000000E+00 0.  1.
<mgrwt>
<rscale>  0 0.16872051E+03</rscale>
<asrwt>0</asrwt>
<pdfrwt beam="1">  1        1 0.22774690E+00 0.17302945E+03</pdfrwt>
<pdfrwt beam="2">  1       -1 0.95260315E-02 0.17302945E+03</pdfrwt>
<totfact> 0.49316687E+02</totfact>
</mgrwt>
</event>
<event>
 6    1  0.1045058E-005  0.1249977E+03  0.7546771E-02  0.1257561E+00
          2   -1    0    0  501    0  0.00000000000E+00  0.00000000000E+00  0.10929962060E+03  0.10929962060E+03  0.00000000000E+00 0. -1.
         -2   -1    0    0    0  501 -0.00000000000E+00 -0.00000000000E+00 -0.11285642563E+03  0.11285642563E+03  0.00000000000E+00 0.  1.
          5    1    1    2  502    0  0.34054173806E+02  0.60252407168E+02  0.36456619626E+02  0.78365900988E+02  0.47000000000E+01 0. -1.
         -5    1    1    2    0  502 -0.49438016242E+02 -0.18009711650E+02  0.38334211784E+01  0.52964632365E+02  0.47000000000E+01 0.  1.
        -11    1    1    2    0    0  0.27523447378E+02 -0.38018729927E+01  0.42075675944E+01  0.28101566129E+02  0.00000000000E+00 0. -1.
         11    1    1    2    0    0 -0.12139604942E+02 -0.38440822525E+02 -0.48054413431E+02  0.62723946741E+02  0.00000000000E+00 0.  1.
<mgrwt>
<rscale>  0 0.11164104E+03</rscale>
<asrwt>0</asrwt>
<pdfrwt beam="1">  1        2 0.16815326E-01 0.12499769E+03</pdfrwt>
<pdfrwt beam="2">  1       -2 0.17362527E-01 0.12499769E+03</pdfrwt>
<totfact> 0.85300782E+03</totfact>
</mgrwt>
</event>
<event>
 6    1  0.1045058E-005  0.1735189E+03  0.7546771E-02  0.1180407E+00
          2   -1    0    0  501    0  0.00000000000E+00  0.00000000000E+00  0.17471945165E+03  0.17471945165E+03  0.00000000000E+00 0. -1.
         -2   -1    0    0    0  501 -0.00000000000E+00 -0.00000000000E+00 -0.15074271543E+03  0.15074271543E+03  0.00000000000E+00 0.  1.
          5    1    1    2  502    0  0.69366262097E+02  0.29295623227E+02  0.71256530666E+02  0.10377617752E+03  0.47000000000E+01 0. -1.
         -5    1    1    2    0  502  0.44999097374E+02  0.81886337406E+01 -0.53623123998E+02  0.70636406437E+02  0.47000000000E+01 0. -1.
        -11    1    1    2    0    0 -0.66539456123E+02 -0.40656572004E+02  0.44503457530E+02  0.89783148755E+02  0.00000000000E+00 0.  1.
         11    1    1    2    0    0 -0.47825903348E+02  0.31723150369E+01 -0.38160127980E+02  0.61266434376E+02  0.00000000000E+00 0. -1.
<mgrwt>
<rscale>  0 0.16756919E+03</rscale>
<asrwt>0</asrwt>
<pdfrwt beam="1">  1        2 0.26879916E-01 0.17351891E+03</pdfrwt>
<pdfrwt beam="2">  1       -2 0.23191187E-01 0.17351891E+03</pdfrwt>
<totfact> 0.31421824E+03</totfact>
</mgrwt>
</event>
<event>
 6    1  0.1045058E-005  0.1259538E+03  0.7546771E-02  0.1249169E+00
          1   -1    0    0  501    0  0.00000000000E+00  0.00000000000E+00  0.33622247860E+03  0.33622247860E+03  0.00000000000E+00 0. -1.
         -1   -1    0    0    0  501 -0.00000000000E+00 -0.00000000000E+00 -0.35281291436E+02  0.35281291436E+02  0.00000000000E+00 0.  1.
          5    1    1    2  502    0 -0.17997603975E+02 -0.66834569967E+02  0.86426154448E+02  0.11082573557E+03  0.47000000000E+01 0.  1.
         -5    1    1    2    0  502  0.79295031002E+01  0.55104983763E+02  0.90433525959E+02  0.10630027692E+03  0.47000000000E+01 0.  1.
        -11    1    1    2    0    0  0.71409283189E-01  0.43870114307E+02  0.26730940140E+02  0.51372513948E+02  0.00000000000E+00 0. -1.
         11    1    1    2    0    0  0.99966915913E+01 -0.32140528102E+02  0.97350566613E+02  0.10300524360E+03  0.00000000000E+00 0.  1.
<mgrwt>
<rscale>  0 0.11639311E+03</rscale>
<asrwt>0</asrwt>
<pdfrwt beam="1">  1        1 0.51726533E-01 0.12595380E+03</pdfrwt>
<pdfrwt beam="2">  1       -1 0.54278912E-02 0.12595380E+03</pdfrwt>
<totfact> 0.11071025E+04</totfact>
</mgrwt>
</event>
<event>
 6    1  0.1045058E-005  0.1814475E+03  0.7546771E-02  0.1171656E+00
         -2   -1    0    0    0  501 -0.00000000000E+00  0.00000000000E+00  0.52723228823E+02  0.52723228823E+02  0.00000000000E+00 0.  1.
          2   -1    0    0  501    0  0.00000000000E+00 -0.00000000000E+00 -0.61978153798E+03  0.61978153798E+03  0.00000000000E+00 0. -1.
          5    1    1    2  502    0  0.80625916429E+01 -0.12072519548E+03 -0.15002247317E+03  0.19279110629E+03  0.47000000000E+01 0. -1.
         -5    1    1    2    0  502 -0.57329710786E+02 -0.12214627814E+01 -0.40841947169E+02  0.70557369273E+02  0.47000000000E+01 0. -1.
        -11    1    1    2    0    0  0.64336560147E+01  0.24575071411E+02 -0.91382253470E+01  0.26996911436E+02  0.00000000000E+00 0.  1.
         11    1    1    2    0    0  0.42833463129E+02  0.97371586848E+02 -0.36705566347E+03  0.38215937980E+03  0.00000000000E+00 0. -1.
<mgrwt>
<rscale>  0 0.17607533E+03</rscale>
<asrwt>0</asrwt>
<pdfrwt beam="2">  1        2 0.95351005E-01 0.18144749E+03</pdfrwt>
<pdfrwt beam="1">  1       -2 0.81112661E-02 0.18144749E+03</pdfrwt>
<totfact> 0.44108283E+03</totfact>
</mgrwt>
</event>
<event>
 6    1  0.1045058E-005  0.1455465E+03  0.7546771E-02  0.1214573E+00
          2   -1    0    0  501    0  0.00000000000E+00  0.00000000000E+00  0.14763530253E+04  0.14763530253E+04  0.00000000000E+00 0.  1.
         -2   -1    0    0    0  501 -0.00000000000E+00 -0.00000000000E+00 -0.16533753589E+02  0.16533753589E+02  0.00000000000E+00 0. -1.
          5    1    1    2  502    0 -0.25672175704E+02 -0.65063865137E+02  0.84317507389E+03  0.84608431163E+03  0.47000000000E+01 0. -1.
         -5    1    1    2    0  502 -0.45679326909E+02  0.43441542980E+02  0.32201189172E+03  0.32815776232E+03  0.47000000000E+01 0. -1.
        -11    1    1    2    0    0  0.56090284424E+02 -0.52929426740E+01  0.27773267501E+03  0.28338943879E+03  0.00000000000E+00 0.  1.
         11    1    1    2    0    0  0.15261218189E+02  0.26915264831E+02  0.16899631122E+02  0.35255266183E+02  0.00000000000E+00 0. -1.
<mgrwt>
<rscale>  0 0.13907941E+03</rscale>
<asrwt>0</asrwt>
<pdfrwt beam="1">  1        2 0.22713113E+00 0.14554650E+03</pdfrwt>
<pdfrwt beam="2">  1       -2 0.25436556E-02 0.14554650E+03</pdfrwt>
<totfact> 0.74690948E+03</totfact>
</mgrwt>
</event>
<event>
 6    1  0.1045058E-005  0.1304579E+03  0.7546771E-02  0.1240790E+00
         -1   -1    0    0    0  501 -0.00000000000E+00  0.00000000000E+00  0.52846678540E+02  0.52846678540E+02  0.00000000000E+00 0.  1.
          1   -1    0    0  501    0  0.00000000000E+00 -0.00000000000E+00 -0.25254377896E+03  0.25254377896E+03  0.00000000000E+00 0. -1.
          5    1    1    2  502    0  0.16357634365E+02 -0.74054984020E+02 -0.10504275207E+03  0.12964483261E+03  0.47000000000E+01 0. -1.
         -5    1    1    2    0  502  0.11092930336E+02  0.48751993564E+02 -0.31911559559E+02  0.59499979944E+02  0.47000000000E+01 0. -1.
        -11    1    1    2    0    0  0.19431792219E+01  0.52908449857E+02 -0.52673349615E+02  0.74683075536E+02  0.00000000000E+00 0. -1.
         11    1    1    2    0    0 -0.29393743923E+02 -0.27605459401E+02 -0.10069439175E+02  0.41562569409E+02  0.00000000000E+00 0.  1.
<mgrwt>
<rscale>  0 0.12140963E+03</rscale>
<asrwt>0</asrwt>
<pdfrwt beam="2">  1        1 0.38852889E-01 0.13045795E+03</pdfrwt>
<pdfrwt beam="1">  1       -1 0.81302582E-02 0.13045795E+03</pdfrwt>
<totfact> 0.86456502E+03</totfact>
</mgrwt>
</event>
<event>
 6    1  0.1045058E-005  0.1723056E+03  0.7546771E-02  0.1214106E+00
         -2   -1    0    0    0  501 -0.00000000000E+00  0.00000000000E+00  0.49050320252E+02  0.49050320252E+02  0.00000000000E+00 0.  1.
          2   -1    0    0  501    0  0.00000000000E+00 -0.00000000000E+00 -0.67082734682E+03  0.67082734682E+03  0.00000000000E+00 0. -1.
          5    1    1    2  502    0 -0.59952608782E+02 -0.23524635053E+02 -0.62268775272E+03  0.62602703707E+03  0.47000000000E+01 0. -1.
         -5    1    1    2    0  502  0.18996048728E+01 -0.19325094817E+02  0.84577249620E-01  0.19979112634E+02  0.47000000000E+01 0.  1.
        -11    1    1    2    0    0  0.98684521560E+01  0.14066818096E+02  0.40440219714E+01  0.17652643797E+02  0.00000000000E+00 0.  1.
         11    1    1    2    0    0  0.48184551754E+02  0.28782911773E+02 -0.32178730616E+01  0.56218873564E+02  0.00000000000E+00 0. -1.
<mgrwt>
<rscale>  0 0.13942385E+03</rscale>
<asrwt>0</asrwt>
<pdfrwt beam="2">  1        2 0.10320420E+00 0.17230563E+03</pdfrwt>
<pdfrwt beam="1">  1       -2 0.75462037E-02 0.17230563E+03</pdfrwt>
<totfact> 0.44878137E+03</totfact>
</mgrwt>
</event>
<event>
 6    1  0.1045058E-005  0.3901749E+03  0.7546771E-02  0.1047236E+00
          1   -1    0    0  501    0  0.00000000000E+00  0.00000000000E+00  0.32867626719E+03  0.32867626719E+03  0.00000000000E+00 0. -1.
         -1   -1    0    0    0  501 -0.00000000000E+00 -0.00000000000E+00 -0.11579512663E+03  0.11579512663E+03  0.00000000000E+00 0.  1.
          5    1    1    2  502    0  0.13577777984E+03 -0.96675545030E+01  0.14239298116E+03  0.19704547240E+03  0.47000000000E+01 0. -1.
         -5    1    1    2    0  502  0.20612459179E+02 -0.29799076181E+02 -0.19246672772E+02  0.41296281036E+02  0.47000000000E+01 0. -1.
        -11    1    1    2    0    0 -0.64387967123E+02 -0.56119114444E+01 -0.72697935392E+01  0.65039632213E+02  0.00000000000E+00 0.  1.
         11    1    1    2    0    0 -0.92002271900E+02  0.45078542128E+02  0.97004625706E+02  0.14109000816E+03  0.00000000000E+00 0. -1.
<mgrwt>
<rscale>  0 0.39017488E+03</rscale>
<asrwt>0</asrwt>
<pdfrwt beam="1">  1        1 0.50565579E-01 0.39017488E+03</pdfrwt>
<pdfrwt beam="2">  1       -1 0.17814635E-01 0.39017488E+03</pdfrwt>
<totfact> 0.19085841E+03</totfact>
</mgrwt>
</event>
<event>
 6    1  0.1045058E-005  0.1257074E+03  0.7546771E-02  0.1250555E+00
         -1   -1    0    0    0  501 -0.00000000000E+00  0.00000000000E+00  0.68062054992E+02  0.68062054992E+02  0.00000000000E+00 0.  1.
          1   -1    0    0  501    0  0.00000000000E+00 -0.00000000000E+00 -0.17280588978E+03  0.17280588978E+03  0.00000000000E+00 0. -1.
          5    1    1    2  502    0  0.94378451837E+01  0.12732309389E+02 -0.10755113719E+03  0.10881416147E+03  0.47000000000E+01 0. -1.
         -5    1    1    2    0  502  0.36602924379E+01 -0.14886385597E+02  0.33459768119E+02  0.37103211444E+02  0.47000000000E+01 0. -1.
        -11    1    1    2    0    0 -0.99041947206E+01 -0.43174654119E+02 -0.12583010159E+02  0.46048626212E+02  0.00000000000E+00 0. -1.
         11    1    1    2    0    0 -0.31939429010E+01  0.45328730327E+02 -0.18069455558E+02  0.48901945651E+02  0.00000000000E+00 0.  1.
<mgrwt>
<rscale>  0 0.11559004E+03</rscale>
<asrwt>0</asrwt>
<pdfrwt beam="2">  1        1 0.26585521E-01 0.12570739E+03</pdfrwt>
<pdfrwt beam="1">  1       -1 0.10471085E-01 0.12570739E+03</pdfrwt>
<totfact> 0.93987143E+03</totfact>
</mgrwt>
</event>
<event>
 6    1  0.1143688E-005  0.1395932E+03  0.7546771E-02  0.1225543E+00
         -1   -1    0    0    0  501 -0.00000000000E+00  0.00000000000E+00  0.36730243509E+02  0.36730243509E+02  0.00000000000E+00 0.  1.
          1   -1    0    0  501    0  0.00000000000E+00 -0.00000000000E+00 -0.43976219566E+03  0.43976219566E+03  0.00000000000E+00 0. -1.
          5    1    1    2  502    0 -0.41845510433E+02 -0.13222380105E+02 -0.60819788938E+02  0.75146622050E+02  0.47000000000E+01 0. -1.
         -5    1    1    2    0  502  0.87859342298E+02 -0.28534358221E+02 -0.21246767312E+03  0.23172845261E+03  0.47000000000E+01 0. -1.
        -11    1    1    2    0    0 -0.48349490422E+02 -0.16332217451E+02 -0.57329342438E+02  0.76753293449E+02  0.00000000000E+00 0. -1.
         11    1    1    2    0    0  0.23356585564E+01  0.58088955776E+02 -0.72415147661E+02  0.92864071066E+02  0.00000000000E+00 0.  1.
<mgrwt>
<rscale>  0 0.13129783E+03</rscale>
<asrwt>0</asrwt>
<pdfrwt beam="2">  1        1 0.67655723E-01 0.13959325E+03</pdfrwt>
<pdfrwt beam="1">  1       -1 0.56508066E-02 0.13959325E+03</pdfrwt>
<totfact> 0.74979826E+03</totfact>
</mgrwt>
</event>
<event>
 6    1  0.1045058E-005  0.2830737E+03  0.7546771E-02  0.1094022E+00
          1   -1    0    0  501    0  0.00000000000E+00  0.00000000000E+00  0.51518463704E+03  0.51518463704E+03  0.00000000000E+00 0. -1.
         -1   -1    0    0    0  501 -0.00000000000E+00 -0.00000000000E+00 -0.38884466018E+02  0.38884466018E+02  0.00000000000E+00 0.  1.
          5    1    1    2  502    0  0.12968210519E+02  0.77710856539E+02  0.10223353975E+03  0.12915470707E+03  0.47000000000E+01 0.  1.
         -5    1    1    2    0  502 -0.35747479903E+01 -0.20393255722E+01  0.28145714833E+03  0.28152647126E+03  0.47000000000E+01 0.  1.
        -11    1    1    2    0    0  0.23716133114E+02  0.13562466690E+01  0.32359594582E+02  0.40142717103E+02  0.00000000000E+00 0. -1.
         11    1    1    2    0    0 -0.33109595642E+02 -0.77027777636E+02  0.60249888360E+02  0.10324520763E+03  0.00000000000E+00 0.  1.
<mgrwt>
<rscale>  0 0.28307370E+03</rscale>
<asrwt>0</asrwt>
<pdfrwt beam="1">  1        1 0.79259170E-01 0.28307370E+03</pdfrwt>
<pdfrwt beam="2">  1       -1 0.59822259E-02 0.28307370E+03</pdfrwt>
<totfact> 0.58021459E+03</totfact>
</mgrwt>
</event>
<event>
 6    1  0.1045058E-005  0.1258142E+03  0.7546771E-02  0.1249353E+00
          1   -1    0    0  501    0  0.00000000000E+00  0.00000000000E+00  0.23543521259E+03  0.23543521259E+03  0.00000000000E+00 0. -1.
         -1   -1    0    0    0  501 -0.00000000000E+00 -0.00000000000E+00 -0.50529946563E+02  0.50529946563E+02  0.00000000000E+00 0.  1.
          5    1    1    2  502    0 -0.63372211302E+02  0.17275130117E+01  0.86802687537E+02  0.10759097560E+03  0.47000000000E+01 0.  1.
         -5    1    1    2    0  502  0.49983609452E+02  0.32989491779E+01  0.10345603355E+02  0.51365024952E+02  0.47000000000E+01 0.  1.
        -11    1    1    2    0    0  0.17367671951E+02 -0.39553930537E+02  0.13895286347E+02  0.45378722245E+02  0.00000000000E+00 0.  1.
         11    1    1    2    0    0 -0.39790701010E+01  0.34527468347E+02  0.73861688787E+02  0.81630436356E+02  0.00000000000E+00 0. -1.
<mgrwt>
<rscale>  0 0.11628562E+03</rscale>
<asrwt>0</asrwt>
<pdfrwt beam="1">  1        1 0.36220801E-01 0.12581423E+03</pdfrwt>
<pdfrwt beam="2">  1       -1 0.77738381E-02 0.12581423E+03</pdfrwt>
<totfact> 0.10057966E+04</totfact>
</mgrwt>
</event>
<event>
 6    1  0.1045058E-005  0.1272550E+03  0.7546771E-02  0.1244674E+00
          1   -1    0    0  501    0  0.00000000000E+00  0.00000000000E+00  0.51091219778E+03  0.51091219778E+03  0.00000000000E+00 0. -1.
         -1   -1    0    0    0  501 -0.00000000000E+00 -0.00000000000E+00 -0.24899895430E+02  0.24899895430E+02  0.00000000000E+00 0.  1.
          5    1    1    2  502    0  0.54754972480E+02 -0.94743359035E+01  0.88338228452E+02  0.10446818969E+03  0.47000000000E+01 0.  1.
         -5    1    1    2    0  502 -0.55814396990E+02  0.33358720251E+02  0.20971458771E+03  0.21961409205E+03  0.47000000000E+01 0.  1.
        -11    1    1    2    0    0  0.44001327207E+02  0.66365914700E+01  0.94234996670E+02  0.10421322248E+03  0.00000000000E+00 0.  1.
         11    1    1    2    0    0 -0.42941902697E+02 -0.30520975817E+02  0.93724489519E+02  0.10751658899E+03  0.00000000000E+00 0. -1.
<mgrwt>
<rscale>  0 0.11904905E+03</rscale>
<asrwt>0</asrwt>
<pdfrwt beam="1">  1        1 0.78601869E-01 0.12725504E+03</pdfrwt>
<pdfrwt beam="2">  1       -1 0.38307535E-02 0.12725504E+03</pdfrwt>
<totfact> 0.10892941E+04</totfact>
</mgrwt>
</event>
<event>
 6    1  0.1045058E-005  0.1564594E+03  0.7546771E-02  0.1212434E+00
         -1   -1    0    0    0  501 -0.00000000000E+00  0.00000000000E+00  0.62550336337E+02  0.62550336337E+02  0.00000000000E+00 0.  1.
          1   -1    0    0  501    0  0.00000000000E+00 -0.00000000000E+00 -0.31112636922E+03  0.31112636922E+03  0.00000000000E+00 0. -1.
          5    1    1    2  502    0 -0.34658789462E+01 -0.98179817823E+02 -0.17304495473E+03  0.19904254646E+03  0.47000000000E+01 0. -1.
         -5    1    1    2    0  502  0.18214734680E+02  0.48628291585E+02 -0.42305294615E+02  0.67143988968E+02  0.47000000000E+01 0.  1.
        -11    1    1    2    0    0 -0.22592350841E+02  0.24857886574E+02 -0.60919152148E+02  0.69566313255E+02  0.00000000000E+00 0. -1.
         11    1    1    2    0    0  0.78434951073E+01  0.24693639664E+02  0.27693368608E+02  0.37923856874E+02  0.00000000000E+00 0.  1.
<mgrwt>
<rscale>  0 0.14066684E+03</rscale>
<asrwt>0</asrwt>
<pdfrwt beam="2">  1        1 0.47865595E-01 0.15645939E+03</pdfrwt>
<pdfrwt beam="1">  1       -1 0.96231286E-02 0.15645939E+03</pdfrwt>
<totfact> 0.52302122E+03</totfact>
</mgrwt>
</event>
<event>
 6    1  0.1045058E-005  0.1602148E+03  0.7546771E-02  0.1195378E+00
         -3   -1    0    0    0  501 -0.00000000000E+00  0.00000000000E+00  0.27663096707E+03  0.27663096707E+03  0.00000000000E+00 0.  1.
          3   -1    0    0  501    0  0.00000000000E+00 -0.00000000000E+00 -0.85338733615E+02  0.85338733615E+02  0.00000000000E+00 0. -1.
          5    1    1    2  502    0 -0.60924098155E+01 -0.79757489320E+02 -0.13028764352E+01  0.80138393089E+02  0.47000000000E+01 0.  1.
         -5    1    1    2    0  502  0.67907056412E+02  0.87309562948E+00  0.59203429047E+02  0.90217884133E+02  0.47000000000E+01 0.  1.
        -11    1    1    2    0    0 -0.43325140451E+02  0.51370362804E+02  0.15250729048E+02  0.68909844770E+02  0.00000000000E+00 0. -1.
         11    1    1    2    0    0 -0.18489506146E+02  0.27514030886E+02  0.11814095180E+03  0.12270357870E+03  0.00000000000E+00 0.  1.
<mgrwt>
<rscale>  0 0.15422292E+03</rscale>
<asrwt>0</asrwt>
<pdfrwt beam="2">  1        3 0.13129036E-01 0.16021482E+03</pdfrwt>
<pdfrwt beam="1">  1       -3 0.42558610E-01 0.16021482E+03</pdfrwt>
<totfact> 0.60863134E+02</totfact>
</mgrwt>
</event>
<event>
 6    1  0.1045058E-005  0.1510374E+03  0.7546771E-02  0.1208689E+00
          1   -1    0    0  501    0  0.00000000000E+00  0.00000000000E+00  0.10932432352E+03  0.10932432352E+03  0.00000000000E+00 0. -1.
         -1   -1    0    0    0  501 -0.00000000000E+00 -0.00000000000E+00 -0.17604603883E+03  0.17604603883E+03  0.00000000000E+00 0.  1.
          5    1    1    2  502    0  0.67480779533E+02  0.88085846305E+02  0.14619282762E+02  0.11202046846E+03  0.47000000000E+01 0.  1.
         -5    1    1    2    0  502 -0.13758843598E+02 -0.22490118227E+02 -0.29352650808E+02  0.39733855897E+02  0.47000000000E+01 0.  1.
        -11    1    1    2    0    0 -0.76255888786E+02 -0.35264340849E+02 -0.26727330430E+02  0.88163963738E+02  0.00000000000E+00 0.  1.
         11    1    1    2    0    0  0.22533952850E+02 -0.30331387229E+02 -0.25261016837E+02  0.45452074253E+02  0.00000000000E+00 0. -1.
<mgrwt>
<rscale>  0 0.14350487E+03</rscale>
<asrwt>0</asrwt>
<pdfrwt beam="1">  1        1 0.16819127E-01 0.15103742E+03</pdfrwt>
<pdfrwt beam="2">  1       -1 0.27084006E-01 0.15103742E+03</pdfrwt>
<totfact> 0.37655625E+03</totfact>
</mgrwt>
</event>
<event>
 6    1  0.1045058E-005  0.1502477E+03  0.7546771E-02  0.1211462E+00
         -1   -1    0    0    0  501 -0.00000000000E+00  0.00000000000E+00  0.70449709029E+02  0.70449709029E+02  0.00000000000E+00 0.  1.
          1   -1    0    0  501    0  0.00000000000E+00 -0.00000000000E+00 -0.25808680156E+03  0.25808680156E+03  0.00000000000E+00 0. -1.
          5    1    1    2  502    0 -0.54227400238E+02 -0.47890746596E+02 -0.79724044722E+02  0.10775967638E+03  0.47000000000E+01 0.  1.
         -5    1    1    2    0  502 -0.26186522271E+02  0.69850515578E+02 -0.42944659081E+02  0.86204189102E+02  0.47000000000E+01 0.  1.
        -11    1    1    2    0    0  0.30172096285E+02 -0.48060601469E+01 -0.74602341002E+02  0.80616145352E+02  0.00000000000E+00 0. -1.
         11    1    1    2    0    0  0.50241826224E+02 -0.17153708835E+02  0.96339522785E+01  0.53956499753E+02  0.00000000000E+00 0.  1.
<mgrwt>
<rscale>  0 0.14139673E+03</rscale>
<asrwt>0</asrwt>
<pdfrwt beam="2">  1        1 0.39705662E-01 0.15024770E+03</pdfrwt>
<pdfrwt beam="1">  1       -1 0.10838417E-01 0.15024770E+03</pdfrwt>
<totfact> 0.54839185E+03</totfact>
</mgrwt>
</event>
<event>
 6    1  0.1045058E-005  0.1320725E+03  0.7546771E-02  0.1240338E+00
         -1   -1    0    0    0  501 -0.00000000000E+00  0.00000000000E+00  0.81824332887E+02  0.81824332887E+02  0.00000000000E+00 0.  1.
          1   -1    0    0  501    0  0.00000000000E+00 -0.00000000000E+00 -0.27413172425E+03  0.27413172425E+03  0.00000000000E+00 0. -1.
          5    1    1    2  502    0  0.43478757772E+02  0.71856403551E+02 -0.11009950596E+03  0.13855589602E+03  0.47000000000E+01 0. -1.
         -5    1    1    2    0  502 -0.15107441346E+02 -0.40028384160E+02 -0.11010164154E+03  0.11821576795E+03  0.47000000000E+01 0. -1.
        -11    1    1    2    0    0 -0.28393813597E+02 -0.17444451536E+02  0.57392482973E+02  0.66365764079E+02  0.00000000000E+00 0.  1.
         11    1    1    2    0    0  0.22497171263E-01 -0.14383567854E+02 -0.29498726840E+02  0.32818629093E+02  0.00000000000E+00 0. -1.
<mgrwt>
<rscale>  0 0.12168784E+03</rscale>
<asrwt>0</asrwt>
<pdfrwt beam="2">  1        1 0.42174112E-01 0.13207249E+03</pdfrwt>
<pdfrwt beam="1">  1       -1 0.12588359E-01 0.13207249E+03</pdfrwt>
<totfact> 0.40121890E+03</totfact>
</mgrwt>
</event>
<event>
 6    1  0.1045058E-005  0.1317086E+03  0.7546771E-02  0.1238363E+00
          2   -1    0    0  501    0  0.00000000000E+00  0.00000000000E+00  0.60682375334E+03  0.60682375334E+03  0.00000000000E+00 0. -1.
         -2   -1    0    0    0  501 -0.00000000000E+00 -0.00000000000E+00 -0.26977214898E+02  0.26977214898E+02  0.00000000000E+00 0.  1.
          5    1    1    2  502    0 -0.30301857649E+02  0.79594016676E+02  0.33360867289E+03  0.34434030652E+03  0.47000000000E+01 0. -1.
         -5    1    1    2    0  502  0.10424806261E+02 -0.43230436465E+02  0.12261696283E+03  0.13051650009E+03  0.47000000000E+01 0. -1.
        -11    1    1    2    0    0  0.22552592653E+02 -0.62271996112E+02  0.11266025234E+03  0.13068570462E+03  0.00000000000E+00 0. -1.
         11    1    1    2    0    0 -0.26755412651E+01  0.25908415901E+02  0.10960650387E+02  0.28258457008E+02  0.00000000000E+00 0.  1.
<mgrwt>
<rscale>  0 0.12291588E+03</rscale>
<asrwt>0</asrwt>
<pdfrwt beam="1">  1        2 0.93357490E-01 0.13170860E+03</pdfrwt>
<pdfrwt beam="2">  1       -2 0.41503412E-02 0.13170860E+03</pdfrwt>
<totfact> 0.12291125E+04</totfact>
</mgrwt>
</event>
<event>
 6    1  0.1045058E-005  0.1587443E+03  0.7546771E-02  0.1197890E+00
          2   -1    0    0  501    0  0.00000000000E+00  0.00000000000E+00  0.52117406380E+03  0.52117406380E+03  0.00000000000E+00 0. -1.
         -2   -1    0    0    0  501 -0.00000000000E+00 -0.00000000000E+00 -0.41974221406E+02  0.41974221406E+02  0.00000000000E+00 0.  1.
          5    1    1    2  502    0  0.20298234471E+02 -0.44043618819E+02  0.28888790952E+02  0.56643719193E+02  0.47000000000E+01 0. -1.
         -5    1    1    2    0  502 -0.68743495531E+02 -0.40976370717E+02  0.27179906924E+03  0.28337529033E+03  0.47000000000E+01 0. -1.
        -11    1    1    2    0    0 -0.17887729841E+02  0.30270143678E+02  0.10243707098E+03  0.10830330553E+03  0.00000000000E+00 0. -1.
         11    1    1    2    0    0  0.66332990901E+02  0.54749845858E+02  0.76074911233E+02  0.11482597016E+03  0.00000000000E+00 0.  1.
<mgrwt>
<rscale>  0 0.15212171E+03</rscale>
<asrwt>0</asrwt>
<pdfrwt beam="1">  1        2 0.80180620E-01 0.15874425E+03</pdfrwt>
<pdfrwt beam="2">  1       -2 0.64575729E-02 0.15874425E+03</pdfrwt>
<totfact> 0.75830012E+03</totfact>
</mgrwt>
</event>
<event>
 6    1  0.1045058E-005  0.1278962E+03  0.7546771E-02  0.1245413E+00
         -1   -1    0    0    0  501 -0.00000000000E+00  0.00000000000E+00  0.39734375433E+02  0.39734375433E+02  0.00000000000E+00 0.  1.
          1   -1    0    0  501    0  0.00000000000E+00 -0.00000000000E+00 -0.43100316577E+03  0.43100316577E+03  0.00000000000E+00 0. -1.
          5    1    1    2  502    0 -0.33587338360E+02 -0.40766239787E+02 -0.31837192622E+03  0.32275806575E+03  0.47000000000E+01 0. -1.
         -5    1    1    2    0  502  0.30657170909E+02  0.14224378465E+02 -0.21373238195E+02  0.40262890877E+02  0.47000000000E+01 0. -1.
        -11    1    1    2    0    0 -0.18524700659E+02  0.27772970291E+02 -0.71162768004E+02  0.78604338069E+02  0.00000000000E+00 0. -1.
         11    1    1    2    0    0  0.21454868110E+02 -0.12311089688E+01  0.19639142080E+02  0.29112246505E+02  0.00000000000E+00 0.  1.
<mgrwt>
<rscale>  0 0.11860693E+03</rscale>
<asrwt>0</asrwt>
<pdfrwt beam="2">  1        1 0.66308182E-01 0.12789620E+03</pdfrwt>
<pdfrwt beam="1">  1       -1 0.61129805E-02 0.12789620E+03</pdfrwt>
<totfact> 0.68057514E+03</totfact>
</mgrwt>
</event>
<event>
 6    1  0.1045058E-005  0.1324893E+03  0.7546771E-02  0.1239376E+00
          2   -1    0    0  501    0  0.00000000000E+00  0.00000000000E+00  0.61343403848E+02  0.61343403848E+02  0.00000000000E+00 0.  1.
         -2   -1    0    0    0  501 -0.00000000000E+00 -0.00000000000E+00 -0.21541084276E+03  0.21541084276E+03  0.00000000000E+00 0. -1.
          5    1    1    2  502    0 -0.42502279110E+02 -0.27709544141E+02 -0.25471298115E+02  0.56966126722E+02  0.47000000000E+01 0.  1.
         -5    1    1    2    0  502  0.38719591795E+02  0.71446368944E+02 -0.49336241333E+02  0.95183744058E+02  0.47000000000E+01 0.  1.
        -11    1    1    2    0    0 -0.16691722061E+02 -0.39997698228E+02 -0.71293975849E+00  0.43346715354E+02  0.00000000000E+00 0.  1.
         11    1    1    2    0    0  0.20474409375E+02 -0.37391265756E+01 -0.78546959706E+02  0.81257660475E+02  0.00000000000E+00 0. -1.
<mgrwt>
<rscale>  0 0.12228376E+03</rscale>
<asrwt>0</asrwt>
<pdfrwt beam="1">  1        2 0.94374467E-02 0.13248930E+03</pdfrwt>
<pdfrwt beam="2">  1       -2 0.33140130E-01 0.13248930E+03</pdfrwt>
<totfact> 0.55542347E+03</totfact>
</mgrwt>
</event>
<event>
 6    1  0.1045058E-005  0.2204000E+03  0.7546771E-02  0.1136968E+00
         -2   -1    0    0    0  501 -0.00000000000E+00  0.00000000000E+00  0.23026420034E+02  0.23026420034E+02  0.00000000000E+00 0.  1.
          2   -1    0    0  501    0  0.00000000000E+00 -0.00000000000E+00 -0.27903772984E+04  0.27903772984E+04  0.00000000000E+00 0. -1.
          5    1    1    2  502    0 -0.31014304603E+02  0.90925685314E+02 -0.11809691883E+04  0.11848796061E+04  0.47000000000E+01 0. -1.
         -5    1    1    2    0  502  0.88970518354E+02  0.81077183963E+02 -0.10156537692E+04  0.10227726686E+04  0.47000000000E+01 0. -1.
        -11    1    1    2    0    0  0.36808434554E+01  0.10093260111E+02 -0.30457188247E+02  0.32296483154E+02  0.00000000000E+00 0.  1.
         11    1    1    2    0    0 -0.61637057206E+02 -0.18209612939E+03 -0.54027073268E+03  0.57345496052E+03  0.00000000000E+00 0. -1.
<mgrwt>
<rscale>  0 0.21591195E+03</rscale>
<asrwt>0</asrwt>
<pdfrwt beam="2">  1        2 0.42928857E+00 0.22039998E+03</pdfrwt>
<pdfrwt beam="1">  1       -2 0.35425282E-02 0.22039998E+03</pdfrwt>
<totfact> 0.91969234E+02</totfact>
</mgrwt>
</event>
<event>
 6    1  0.1732998E-005  0.1737608E+03  0.7546771E-02  0.1180142E+00
          1   -1    0    0  501    0  0.00000000000E+00  0.00000000000E+00  0.55037480947E+03  0.55037480947E+03  0.00000000000E+00 0. -1.
         -1   -1    0    0    0  501 -0.00000000000E+00 -0.00000000000E+00 -0.53172490881E+02  0.53172490881E+02  0.00000000000E+00 0.  1.
          5    1    1    2  502    0 -0.35715821634E+02  0.79156443217E+02  0.95080339197E+02  0.12885543574E+03  0.47000000000E+01 0. -1.
         -5    1    1    2    0  502 -0.56890295524E+02 -0.17444536363E+01  0.26336344445E+03  0.26948458716E+03  0.47000000000E+01 0. -1.
        -11    1    1    2    0    0  0.45688324351E+02 -0.82697541748E+02  0.12369190049E+03  0.15564701295E+03  0.00000000000E+00 0.  1.
         11    1    1    2    0    0  0.46917792808E+02  0.52855521670E+01  0.15066634448E+02  0.49560264499E+02  0.00000000000E+00 0. -1.
<mgrwt>
<rscale>  0 0.16781825E+03</rscale>
<asrwt>0</asrwt>
<pdfrwt beam="1">  1        1 0.84673044E-01 0.17376084E+03</pdfrwt>
<pdfrwt beam="2">  1       -1 0.81803836E-02 0.17376084E+03</pdfrwt>
<totfact> 0.32414021E+03</totfact>
</mgrwt>
</event>
<event>
 6    1  0.1045058E-005  0.1116554E+03  0.7546771E-02  0.1263466E+00
          1   -1    0    0  501    0  0.00000000000E+00  0.00000000000E+00  0.93591071512E+03  0.93591071512E+03  0.00000000000E+00 0. -1.
         -1   -1    0    0    0  501 -0.00000000000E+00 -0.00000000000E+00 -0.48378011987E+02  0.48378011987E+02  0.00000000000E+00 0.  1.
          5    1    1    2  502    0 -0.36167888703E+02  0.31275717108E+02  0.67559000480E+03  0.67729626549E+03  0.47000000000E+01 0. -1.
         -5    1    1    2    0  502  0.35432253937E+02 -0.30297413319E+02  0.20171878141E+03  0.20708919491E+03  0.47000000000E+01 0.  1.
        -11    1    1    2    0    0  0.39266851953E+02 -0.30968121201E+02 -0.41665577519E-01  0.50009118459E+02  0.00000000000E+00 0.  1.
         11    1    1    2    0    0 -0.38531217187E+02  0.29989817412E+02  0.10265582498E+02  0.49894148257E+02  0.00000000000E+00 0. -1.
<mgrwt>
<rscale>  0 0.10845093E+03</rscale>
<asrwt>0</asrwt>
<pdfrwt beam="1">  1        1 0.14398625E+00 0.11165544E+03</pdfrwt>
<pdfrwt beam="2">  1       -1 0.74427718E-02 0.11165544E+03</pdfrwt>
<totfact> 0.17063156E+03</totfact>
</mgrwt>
</event>
<event>
 6    1  0.1045058E-005  0.1404523E+03  0.7546771E-02  0.1224069E+00
          1   -1    0    0  501    0  0.00000000000E+00  0.00000000000E+00  0.11701414251E+04  0.11701414251E+04  0.00000000000E+00 0. -1.
         -1   -1    0    0    0  501 -0.00000000000E+00 -0.00000000000E+00 -0.16275760966E+02  0.16275760966E+02  0.00000000000E+00 0.  1.
          5    1    1    2  502    0  0.25830247165E+02 -0.15949594863E+02  0.49885438612E+03  0.49979933953E+03  0.47000000000E+01 0. -1.
         -5    1    1    2    0  502 -0.88493937779E+02  0.26086236057E+01  0.37984102457E+03  0.39005035046E+03  0.47000000000E+01 0. -1.
        -11    1    1    2    0    0  0.51262866432E+02  0.23692338843E+02  0.27543640673E+03  0.28116618315E+03  0.00000000000E+00 0. -1.
         11    1    1    2    0    0  0.11400824181E+02 -0.10351367586E+02 -0.26615327308E+00  0.15401312946E+02  0.00000000000E+00 0.  1.
<mgrwt>
<rscale>  0 0.13230948E+03</rscale>
<asrwt>0</asrwt>
<pdfrwt beam="1">  1        1 0.18002169E+00 0.14045229E+03</pdfrwt>
<pdfrwt beam="2">  1       -1 0.25039641E-02 0.14045229E+03</pdfrwt>
<totfact> 0.57908051E+03</totfact>
</mgrwt>
</event>
<event>
 6    1  0.1045058E-005  0.2570218E+03  0.7546771E-02  0.1108946E+00
         -1   -1    0    0    0  501 -0.00000000000E+00  0.00000000000E+00  0.35395296386E+02  0.35395296386E+02  0.00000000000E+00 0.  1.
          1   -1    0    0  501    0  0.00000000000E+00 -0.00000000000E+00 -0.46658875945E+03  0.46658875945E+03  0.00000000000E+00 0. -1.
          5    1    1    2  502    0  0.10881683207E+02 -0.11121270252E+02  0.42096663029E+01  0.16790025962E+02  0.47000000000E+01 0.  1.
         -5    1    1    2    0  502 -0.50227130659E+02  0.55496418340E+02 -0.30835967623E+03  0.31734901454E+03  0.47000000000E+01 0.  1.
        -11    1    1    2    0    0  0.25756173868E+02 -0.57987100827E+01  0.73180711012E+01  0.27396344566E+02  0.00000000000E+00 0.  1.
         11    1    1    2    0    0  0.13589273584E+02 -0.38576438006E+02 -0.13436152424E+03  0.14044867077E+03  0.00000000000E+00 0. -1.
<mgrwt>
<rscale>  0 0.25702177E+03</rscale>
<asrwt>0</asrwt>
<pdfrwt beam="2">  1        1 0.71782885E-01 0.25702177E+03</pdfrwt>
<pdfrwt beam="1">  1       -1 0.54454303E-02 0.25702177E+03</pdfrwt>
<totfact> 0.75963793E+03</totfact>
</mgrwt>
</event>
<event>
 6    1  0.1045058E-005  0.1306346E+03  0.7546771E-02  0.1239714E+00
          2   -1    0    0  501    0  0.00000000000E+00  0.00000000000E+00  0.31099962414E+02  0.31099962414E+02  0.00000000000E+00 0. -1.
         -2   -1    0    0    0  501 -0.00000000000E+00 -0.00000000000E+00 -0.43508006440E+03  0.43508006440E+03  0.00000000000E+00 0.  1.
          5    1    1    2  502    0 -0.29865864062E+02 -0.35572074067E+01  0.64317027788E+01  0.31113989801E+02  0.47000000000E+01 0.  1.
         -5    1    1    2    0  502  0.13233409055E+01  0.28584081601E+02 -0.20200638774E+03  0.20407712179E+03  0.47000000000E+01 0.  1.
        -11    1    1    2    0    0  0.50886607856E+02 -0.22308829947E+02 -0.19897058225E+03  0.20658272762E+03  0.00000000000E+00 0.  1.
         11    1    1    2    0    0 -0.22344084700E+02 -0.27180442473E+01 -0.94348347754E+01  0.24406187593E+02  0.00000000000E+00 0. -1.
<mgrwt>
<rscale>  0 0.12207434E+03</rscale>
<asrwt>0</asrwt>
<pdfrwt beam="1">  1        2 0.47846097E-02 0.13063461E+03</pdfrwt>
<pdfrwt beam="2">  1       -2 0.66935394E-01 0.13063461E+03</pdfrwt>
<totfact> 0.33298007E+03</totfact>
</mgrwt>
</event>
<event>
 6    1  0.1045058E-005  0.1516774E+03  0.7546771E-02  0.1208467E+00
          2   -1    0    0  501    0  0.00000000000E+00  0.00000000000E+00  0.10143618648E+04  0.10143618648E+04  0.00000000000E+00 0. -1.
         -2   -1    0    0    0  501 -0.00000000000E+00 -0.00000000000E+00 -0.20036436162E+02  0.20036436162E+02  0.00000000000E+00 0.  1.
          5    1    1    2  502    0  0.59058453173E+02 -0.22000148950E+02  0.25570762391E+03  0.26340156865E+03  0.47000000000E+01 0. -1.
         -5    1    1    2    0  502 -0.59962507401E+02 -0.63915898455E+02  0.43454813592E+03  0.44332258774E+03  0.47000000000E+01 0. -1.
        -11    1    1    2    0    0 -0.16748064827E+02  0.54978753343E+02  0.27709786227E+03  0.28299538206E+03  0.00000000000E+00 0. -1.
         11    1    1    2    0    0  0.17652119056E+02  0.30937294061E+02  0.26971806547E+02  0.44678762509E+02  0.00000000000E+00 0.  1.
<mgrwt>
<rscale>  0 0.14367542E+03</rscale>
<asrwt>0</asrwt>
<pdfrwt beam="1">  1        2 0.15605563E+00 0.15167735E+03</pdfrwt>
<pdfrwt beam="2">  1       -2 0.30825294E-02 0.15167735E+03</pdfrwt>
<totfact> 0.10153439E+04</totfact>
</mgrwt>
</event>
<event>
 6    1  0.1045058E-005  0.2125361E+03  0.7546771E-02  0.1143357E+00
          1   -1    0    0  501    0  0.00000000000E+00  0.00000000000E+00  0.79276588241E+03  0.79276588241E+03  0.00000000000E+00 0. -1.
         -1   -1    0    0    0  501 -0.00000000000E+00 -0.00000000000E+00 -0.67530114157E+02  0.67530114157E+02  0.00000000000E+00 0.  1.
          5    1    1    2  502    0  0.11168854779E+03  0.63625018354E+01  0.19283170185E+03  0.22298199115E+03  0.47000000000E+01 0. -1.
         -5    1    1    2    0  502  0.53097621277E+02 -0.55256544149E+02  0.38777188041E+03  0.39529958802E+03  0.47000000000E+01 0. -1.
        -11    1    1    2    0    0 -0.11753423158E+03  0.66721018277E+01  0.49493815662E+02  0.12770454309E+03  0.00000000000E+00 0.  1.
         11    1    1    2    0    0 -0.47251937485E+02  0.42221940486E+02  0.95138370334E+02  0.11430987431E+03  0.00000000000E+00 0. -1.
<mgrwt>
<rscale>  0 0.20775370E+03</rscale>
<asrwt>0</asrwt>
<pdfrwt beam="1">  1        1 0.12196398E+00 0.21253609E+03</pdfrwt>
<pdfrwt beam="2">  1       -1 0.10389249E-01 0.21253609E+03</pdfrwt>
<totfact> 0.13415930E+03</totfact>
</mgrwt>
</event>
<event>
 6    1  0.1045058E-005  0.2692520E+03  0.7546771E-02  0.1103608E+00
         -2   -1    0    0    0  501 -0.00000000000E+00  0.00000000000E+00  0.32208461061E+03  0.32208461061E+03  0.00000000000E+00 0. -1.
          2   -1    0    0  501    0  0.00000000000E+00 -0.00000000000E+00 -0.28741215721E+03  0.28741215721E+03  0.00000000000E+00 0.  1.
          5    1    1    2  502    0 -0.20812867133E+03 -0.36910359718E+02 -0.15971589591E+03  0.26497391550E+03  0.47000000000E+01 0.  1.
         -5    1    1    2    0  502 -0.27379543045E+02 -0.60817740417E+00  0.23847204983E+02  0.36616778157E+02  0.47000000000E+01 0.  1.
        -11    1    1    2    0    0  0.12638799109E+03  0.52927864344E+02  0.13438534876E+03  0.19192369598E+03  0.00000000000E+00 0. -1.
         11    1    1    2    0    0  0.10912022329E+03 -0.15409327222E+02  0.36155795573E+02  0.11598237819E+03  0.00000000000E+00 0.  1.
<mgrwt>
<rscale>  0 0.26597018E+03</rscale>
<asrwt>0</asrwt>
<pdfrwt beam="2">  1        2 0.44217255E-01 0.26925201E+03</pdfrwt>
<pdfrwt beam="1">  1       -2 0.49551478E-01 0.26925201E+03</pdfrwt>
<totfact> 0.45016293E+02</totfact>
</mgrwt>
</event>
<event>
 6    1  0.1045058E-005  0.2030022E+03  0.7546771E-02  0.1151082E+00
          2   -1    0    0  501    0  0.00000000000E+00  0.00000000000E+00  0.68553508115E+03  0.68553508115E+03  0.00000000000E+00 0. -1.
         -2   -1    0    0    0  501 -0.00000000000E+00 -0.00000000000E+00 -0.80651848079E+02  0.80651848079E+02  0.00000000000E+00 0.  1.
          5    1    1    2  502    0  0.19419527437E+02 -0.12114909858E+03  0.32877120525E+03  0.35095130365E+03  0.47000000000E+01 0. -1.
         -5    1    1    2    0  502  0.79846736562E+02 -0.42852544340E+01  0.19907791074E+03  0.21458790574E+03  0.47000000000E+01 0. -1.
        -11    1    1    2    0    0 -0.86452918841E+01  0.72601667481E+02  0.59563120163E+02  0.94305400038E+02  0.00000000000E+00 0. -1.
         11    1    1    2    0    0 -0.90620972115E+02  0.52832685530E+02  0.17470996917E+02  0.10634231980E+03  0.00000000000E+00 0.  1.
<mgrwt>
<rscale>  0 0.19841629E+03</rscale>
<asrwt>0</asrwt>
<pdfrwt beam="1">  1        2 0.10546693E+00 0.20300224E+03</pdfrwt>
<pdfrwt beam="2">  1       -2 0.12407977E-01 0.20300224E+03</pdfrwt>
<totfact> 0.20026992E+03</totfact>
</mgrwt>
</event>
<event>
 6    1  0.1045058E-005  0.2864561E+03  0.7546771E-02  0.1092214E+00
         -2   -1    0    0    0  501 -0.00000000000E+00  0.00000000000E+00  0.23056209532E+02  0.23056209532E+02  0.00000000000E+00 0.  1.
          2   -1    0    0  501    0  0.00000000000E+00 -0.00000000000E+00 -0.88975043296E+03  0.88975043296E+03  0.00000000000E+00 0. -1.
          5    1    1    2  502    0  0.35774539141E+02 -0.18308494857E+02 -0.11852095522E+03  0.12523707702E+03  0.47000000000E+01 0.  1.
         -5    1    1    2    0  502 -0.10468227810E+03 -0.36438884427E+02 -0.45100650482E+03  0.46445142807E+03  0.47000000000E+01 0.  1.
        -11    1    1    2    0    0  0.18442662247E+01  0.58631093408E+02 -0.15927928487E+03  0.16973773011E+03  0.00000000000E+00 0.  1.
         11    1    1    2    0    0  0.67063472734E+02 -0.38837141247E+01 -0.13788747852E+03  0.15338040730E+03  0.00000000000E+00 0. -1.
<mgrwt>
<rscale>  0 0.28645609E+03</rscale>
<asrwt>0</asrwt>
<pdfrwt beam="2">  1        2 0.13688466E+00 0.28645609E+03</pdfrwt>
<pdfrwt beam="1">  1       -2 0.35471096E-02 0.28645609E+03</pdfrwt>
<totfact> 0.10152578E+04</totfact>
</mgrwt>
</event>
<event>
 6    1  0.1045058E-005  0.1302937E+03  0.7546771E-02  0.1240506E+00
         -2   -1    0    0    0  501 -0.00000000000E+00  0.00000000000E+00  0.20701368979E+02  0.20701368979E+02  0.00000000000E+00 0.  1.
          2   -1    0    0  501    0  0.00000000000E+00 -0.00000000000E+00 -0.75238612808E+03  0.75238612808E+03  0.00000000000E+00 0. -1.
          5    1    1    2  502    0 -0.53117463740E+02 -0.14764542210E+01 -0.12183918955E+03  0.13300572537E+03  0.47000000000E+01 0. -1.
         -5    1    1    2    0  502  0.43971567596E+02  0.37070914060E+02 -0.43860682592E+03  0.44238647037E+03  0.47000000000E+01 0. -1.
        -11    1    1    2    0    0 -0.36026370053E+02  0.54322291028E+01 -0.48882212914E+02  0.60966213525E+02  0.00000000000E+00 0. -1.
         11    1    1    2    0    0  0.45172266197E+02 -0.41026688942E+02 -0.12235653072E+03  0.13672908780E+03  0.00000000000E+00 0.  1.
<mgrwt>
<rscale>  0 0.12158438E+03</rscale>
<asrwt>0</asrwt>
<pdfrwt beam="2">  1        2 0.11575171E+00 0.13029368E+03</pdfrwt>
<pdfrwt beam="1">  1       -2 0.31848260E-02 0.13029368E+03</pdfrwt>
<totfact> 0.14115382E+04</totfact>
</mgrwt>
</event>
<event>
 6    1  0.1045058E-005  0.1460908E+03  0.7546771E-02  0.1215233E+00
          3   -1    0    0  501    0  0.00000000000E+00  0.00000000000E+00  0.18160457618E+02  0.18160457618E+02  0.00000000000E+00 0. -1.
         -3   -1    0    0    0  501 -0.00000000000E+00 -0.00000000000E+00 -0.10077679091E+04  0.10077679091E+04  0.00000000000E+00 0.  1.
          5    1    1    2  502    0  0.35967998228E+02 -0.34134209546E+02 -0.23251782521E+03  0.23779291452E+03  0.47000000000E+01 0.  1.
         -5    1    1    2    0  502 -0.85776413819E+02 -0.22754445967E+02 -0.20379763606E+03  0.22233066465E+03  0.47000000000E+01 0.  1.
        -11    1    1    2    0    0  0.21687947483E+02  0.78894314511E+02 -0.35335903733E+03  0.36270827009E+03  0.00000000000E+00 0.  1.
         11    1    1    2    0    0  0.28120468108E+02 -0.22005658998E+02 -0.19993295288E+03  0.20309651746E+03  0.00000000000E+00 0. -1.
<mgrwt>
<rscale>  0 0.13859416E+03</rscale>
<asrwt>0</asrwt>
<pdfrwt beam="1">  1        3 0.27939148E-02 0.14609082E+03</pdfrwt>
<pdfrwt beam="2">  1       -3 0.15504131E+00 0.14609082E+03</pdfrwt>
<totfact> 0.42183108E+02</totfact>
</mgrwt>
</event>
<event>
 6    1  0.1045058E-005  0.1439037E+03  0.7546771E-02  0.1220657E+00
         -3   -1    0    0    0  501 -0.00000000000E+00  0.00000000000E+00  0.69933994598E+02  0.69933994598E+02  0.00000000000E+00 0.  1.
          3   -1    0    0  501    0  0.00000000000E+00 -0.00000000000E+00 -0.24750409799E+03  0.24750409799E+03  0.00000000000E+00 0. -1.
          5    1    1    2  502    0 -0.98402835777E+02 -0.22644929034E+02 -0.87525833346E+02  0.13371152681E+03  0.47000000000E+01 0. -1.
         -5    1    1    2    0  502  0.41425891933E+02  0.21643617722E+01 -0.52502134995E+02  0.67077217916E+02  0.47000000000E+01 0.  1.
        -11    1    1    2    0    0  0.64576866465E+02 -0.13838388805E+02 -0.11492097324E+01  0.66052958830E+02  0.00000000000E+00 0.  1.
         11    1    1    2    0    0 -0.75999226204E+01  0.34318956067E+02 -0.36392925314E+02  0.50596389024E+02  0.00000000000E+00 0. -1.
<mgrwt>
<rscale>  0 0.13469102E+03</rscale>
<asrwt>0</asrwt>
<pdfrwt beam="2">  1        3 0.38077554E-01 0.14390375E+03</pdfrwt>
<pdfrwt beam="1">  1       -3 0.10759076E-01 0.14390375E+03</pdfrwt>
<totfact> 0.10379741E+03</totfact>
</mgrwt>
</event>
<event>
 6    1  0.1045058E-005  0.1425192E+03  0.7546771E-02  0.1220489E+00
         -2   -1    0    0    0  501 -0.00000000000E+00  0.00000000000E+00  0.55255035190E+02  0.55255035190E+02  0.00000000000E+00 0.  1.
          2   -1    0    0  501    0  0.00000000000E+00 -0.00000000000E+00 -0.37477784371E+03  0.37477784371E+03  0.00000000000E+00 0. -1.
          5    1    1    2  502    0  0.17385261392E+02  0.30713690601E+02 -0.33416114608E+02  0.48829343836E+02  0.47000000000E+01 0. -1.
         -5    1    1    2    0  502 -0.80333305988E+02 -0.57608984700E+02 -0.23729974341E+03  0.25710988583E+03  0.47000000000E+01 0. -1.
        -11    1    1    2    0    0  0.25894011549E+02  0.70299138035E+01  0.26584789762E+02  0.37771292920E+02  0.00000000000E+00 0.  1.
         11    1    1    2    0    0  0.37054033047E+02  0.19865380296E+02 -0.75391740264E+02  0.86322356313E+02  0.00000000000E+00 0. -1.
<mgrwt>
<rscale>  0 0.13480919E+03</rscale>
<asrwt>0</asrwt>
<pdfrwt beam="2">  1        2 0.57658130E-01 0.14251925E+03</pdfrwt>
<pdfrwt beam="1">  1       -2 0.85007746E-02 0.14251925E+03</pdfrwt>
<totfact> 0.70554000E+03</totfact>
</mgrwt>
</event>
<event>
 6    1  0.1045058E-005  0.1540004E+03  0.7546771E-02  0.1204113E+00
         -1   -1    0    0    0  501 -0.00000000000E+00  0.00000000000E+00  0.10484516605E+03  0.10484516605E+03  0.00000000000E+00 0.  1.
          1   -1    0    0  501    0  0.00000000000E+00 -0.00000000000E+00 -0.19203209097E+03  0.19203209097E+03  0.00000000000E+00 0. -1.
          5    1    1    2  502    0 -0.69939129385E+02  0.50139771636E+02 -0.75136854622E+02  0.11433772536E+03  0.47000000000E+01 0.  1.
         -5    1    1    2    0  502 -0.19944975171E+02 -0.46668108814E+02  0.11571393776E+02  0.52265682515E+02  0.47000000000E+01 0.  1.
        -11    1    1    2    0    0  0.58234703448E+02  0.24762384361E+02  0.22922138068E+02  0.67304388999E+02  0.00000000000E+00 0.  1.
         11    1    1    2    0    0  0.31649401108E+02 -0.28234047182E+02 -0.46543602144E+02  0.62969460148E+02  0.00000000000E+00 0. -1.
<mgrwt>
<rscale>  0 0.14707570E+03</rscale>
<asrwt>0</asrwt>
<pdfrwt beam="2">  1        1 0.29543399E-01 0.15400041E+03</pdfrwt>
<pdfrwt beam="1">  1       -1 0.16130026E-01 0.15400041E+03</pdfrwt>
<totfact> 0.42695491E+03</totfact>
</mgrwt>
</event>
<event>
 6    1  0.1045058E-005  0.2195623E+03  0.7546771E-02  0.1137576E+00
         -2   -1    0    0    0  501 -0.00000000000E+00  0.00000000000E+00  0.35094984475E+02  0.35094984475E+02  0.00000000000E+00 0.  1.
          2   -1    0    0  501    0  0.00000000000E+00 -0.00000000000E+00 -0.13293095292E+04  0.13293095292E+04  0.00000000000E+00 0. -1.
          5    1    1    2  502    0 -0.76757262830E+02 -0.36803563048E+02 -0.25258125555E+03  0.26658124523E+03  0.47000000000E+01 0. -1.
         -5    1    1    2    0  502 -0.96137904233E+02  0.88662944204E+02 -0.56632092868E+03  0.58124443960E+03  0.47000000000E+01 0. -1.
        -11    1    1    2    0    0  0.13462621516E+03 -0.31694929725E+02 -0.23726568541E+03  0.27463392334E+03  0.00000000000E+00 0.  1.
         11    1    1    2    0    0  0.38268951904E+02 -0.20164451431E+02 -0.23804667506E+03  0.24194490548E+03  0.00000000000E+00 0. -1.
<mgrwt>
<rscale>  0 0.21511763E+03</rscale>
<asrwt>0</asrwt>
<pdfrwt beam="2">  1        2 0.20450914E+00 0.21956230E+03</pdfrwt>
<pdfrwt beam="1">  1       -2 0.53992288E-02 0.21956230E+03</pdfrwt>
<totfact> 0.29363872E+03</totfact>
</mgrwt>
</event>
<event>
 6    1  0.1045058E-005  0.1288655E+03  0.7546771E-02  0.1242154E+00
         -1   -1    0    0    0  501 -0.00000000000E+00  0.00000000000E+00  0.25986249262E+03  0.25986249262E+03  0.00000000000E+00 0.  1.
          1   -1    0    0  501    0  0.00000000000E+00 -0.00000000000E+00 -0.50159561052E+02  0.50159561052E+02  0.00000000000E+00 0. -1.
          5    1    1    2  502    0  0.39548674171E+02 -0.24527094064E+02 -0.11431802092E+02  0.48150307071E+02  0.47000000000E+01 0.  1.
         -5    1    1    2    0  502 -0.13806269910E+02  0.66702925727E+01  0.11796209704E+03  0.11904726889E+03  0.47000000000E+01 0.  1.
        -11    1    1    2    0    0 -0.10223219947E+02 -0.22593408628E+02  0.95698521762E+02  0.98859412333E+02  0.00000000000E+00 0.  1.
         11    1    1    2    0    0 -0.15519184314E+02  0.40450210120E+02  0.74741148529E+01  0.43965065374E+02  0.00000000000E+00 0. -1.
<mgrwt>
<rscale>  0 0.12057347E+03</rscale>
<asrwt>0</asrwt>
<pdfrwt beam="2">  1        1 0.77168557E-02 0.12886553E+03</pdfrwt>
<pdfrwt beam="1">  1       -1 0.39978844E-01 0.12886553E+03</pdfrwt>
<totfact> 0.53571626E+03</totfact>
</mgrwt>
</event>
<event>
 6    1  0.1045058E-005  0.1494471E+03  0.7546771E-02  0.1207096E+00
         -1   -1    0    0    0  501 -0.00000000000E+00  0.00000000000E+00  0.93782898248E+02  0.93782898248E+02  0.00000000000E+00 0.  1.
          1   -1    0    0  501    0  0.00000000000E+00 -0.00000000000E+00 -0.21745355307E+03  0.21745355307E+03  0.00000000000E+00 0. -1.
          5    1    1    2  502    0 -0.37619346209E+02  0.43018464168E+02 -0.97432966866E+02  0.11305342322E+03  0.47000000000E+01 0. -1.
         -5    1    1    2    0  502 -0.58410592465E+02 -0.23743994988E+02  0.37351932423E+01  0.63337321373E+02  0.47000000000E+01 0.  1.
        -11    1    1    2    0    0  0.79029503556E+02 -0.49086505706E+02 -0.36454402449E+02  0.99920322921E+02  0.00000000000E+00 0.  1.
         11    1    1    2    0    0  0.17000435119E+02  0.29812036526E+02  0.64815212552E+01  0.34925383803E+02  0.00000000000E+00 0. -1.
<mgrwt>
<rscale>  0 0.14473520E+03</rscale>
<asrwt>0</asrwt>
<pdfrwt beam="2">  1        1 0.33454392E-01 0.14944705E+03</pdfrwt>
<pdfrwt beam="1">  1       -1 0.14428138E-01 0.14944705E+03</pdfrwt>
<totfact> 0.43510295E+03</totfact>
</mgrwt>
</event>
<event>
 6    1  0.1045058E-005  0.2625466E+03  0.7546771E-02  0.1107865E+00
         -1   -1    0    0    0  501 -0.00000000000E+00  0.00000000000E+00  0.12319280784E+03  0.12319280784E+03  0.00000000000E+00 0.  1.
          1   -1    0    0  501    0  0.00000000000E+00 -0.00000000000E+00 -0.65807190947E+03  0.65807190947E+03  0.00000000000E+00 0. -1.
          5    1    1    2  502    0  0.15040416439E+03  0.19495995050E+03 -0.41566009505E+03  0.48314200768E+03  0.47000000000E+01 0. -1.
         -5    1    1    2    0  502 -0.79166225857E+01 -0.13293797706E+02 -0.31078237991E+02  0.35033481803E+02  0.47000000000E+01 0. -1.
        -11    1    1    2    0    0 -0.86410593835E+02 -0.13476025796E+03 -0.16838726203E+02  0.16096788671E+03  0.00000000000E+00 0.  1.
         11    1    1    2    0    0 -0.56076947965E+02 -0.46905894840E+02 -0.71302042384E+02  0.10212134112E+03  0.00000000000E+00 0. -1.
<mgrwt>
<rscale>  0 0.25880191E+03</rscale>
<asrwt>0</asrwt>
<pdfrwt beam="2">  1        1 0.10124183E+00 0.26254657E+03</pdfrwt>
<pdfrwt beam="1">  1       -1 0.18952739E-01 0.26254657E+03</pdfrwt>
<totfact> 0.68200701E+02</totfact>
</mgrwt>
</event>
<event>
 6    1  0.1045058E-005  0.1475298E+03  0.7546771E-02  0.1212490E+00
         -1   -1    0    0    0  501 -0.00000000000E+00  0.00000000000E+00  0.32891779394E+03  0.32891779394E+03  0.00000000000E+00 0.  1.
          1   -1    0    0  501    0  0.00000000000E+00 -0.00000000000E+00 -0.64356652559E+02  0.64356652559E+02  0.00000000000E+00 0. -1.
          5    1    1    2  502    0 -0.14588857876E+02 -0.34689038868E+02 -0.34418446920E+02  0.51214096498E+02  0.47000000000E+01 0.  1.
         -5    1    1    2    0  502 -0.23336338485E+01 -0.41823775807E+02  0.10336944358E+03  0.11163335495E+03  0.47000000000E+01 0.  1.
        -11    1    1    2    0    0  0.55445418552E+02  0.37626302382E+02  0.10444947250E+03  0.12409522705E+03  0.00000000000E+00 0. -1.
         11    1    1    2    0    0 -0.38522926827E+02  0.38886512293E+02  0.91160672207E+02  0.10633176800E+03  0.00000000000E+00 0.  1.
<mgrwt>
<rscale>  0 0.14062564E+03</rscale>
<asrwt>0</asrwt>
<pdfrwt beam="2">  1        1 0.99010237E-02 0.14752984E+03</pdfrwt>
<pdfrwt beam="1">  1       -1 0.50602737E-01 0.14752984E+03</pdfrwt>
<totfact> 0.25381790E+03</totfact>
</mgrwt>
</event>
<event>
 6    1  0.1045058E-005  0.1251801E+03  0.7546771E-02  0.1250641E+00
         -2   -1    0    0    0  501 -0.00000000000E+00  0.00000000000E+00  0.27410727884E+03  0.27410727884E+03  0.00000000000E+00 0.  1.
          2   -1    0    0  501    0  0.00000000000E+00 -0.00000000000E+00 -0.48353690874E+02  0.48353690874E+02  0.00000000000E+00 0. -1.
          5    1    1    2  502    0 -0.69388034534E+01  0.61871994446E+02  0.39272113650E+02  0.73760962579E+02  0.47000000000E+01 0.  1.
         -5    1    1    2    0  502  0.27204353887E+00 -0.62486437220E+02  0.34230782643E+02  0.71403538599E+02  0.47000000000E+01 0.  1.
        -11    1    1    2    0    0  0.25649212594E+02 -0.20286237811E+02  0.12965400758E+02  0.35178333787E+02  0.00000000000E+00 0. -1.
         11    1    1    2    0    0 -0.18982452679E+02  0.20900680586E+02  0.13928529091E+03  0.14211813475E+03  0.00000000000E+00 0.  1.
<mgrwt>
<rscale>  0 0.11554016E+03</rscale>
<asrwt>0</asrwt>
<pdfrwt beam="2">  1        2 0.74390295E-02 0.12518010E+03</pdfrwt>
<pdfrwt beam="1">  1       -2 0.42170350E-01 0.12518010E+03</pdfrwt>
<totfact> 0.47455036E+03</totfact>
</mgrwt>
</event>
<event>
 6    1  0.1045058E-005  0.2589470E+03  0.7546771E-02  0.1107778E+00
         -2   -1    0    0    0  501 -0.00000000000E+00  0.00000000000E+00  0.56428742337E+02  0.56428742337E+02  0.00000000000E+00 0.  1.
          2   -1    0    0  501    0  0.00000000000E+00 -0.00000000000E+00 -0.29707172648E+03  0.29707172648E+03  0.00000000000E+00 0. -1.
          5    1    1    2  502    0  0.87199171691E+02  0.28050318380E+02 -0.15096931637E+03  0.17664750321E+03  0.47000000000E+01 0.  1.
         -5    1    1    2    0  502 -0.39347787402E+02  0.13516040255E+02 -0.26739590388E+02  0.49679245282E+02  0.47000000000E+01 0.  1.
        -11    1    1    2    0    0 -0.22530801486E+01 -0.41086246012E+02  0.88891781450E+01  0.42097190757E+02  0.00000000000E+00 0.  1.
         11    1    1    2    0    0 -0.45598304140E+02 -0.48011262311E+00 -0.71823255528E+02  0.85076529568E+02  0.00000000000E+00 0. -1.
<mgrwt>
<rscale>  0 0.25894697E+03</rscale>
<asrwt>0</asrwt>
<pdfrwt beam="2">  1        2 0.45703344E-01 0.25894697E+03</pdfrwt>
<pdfrwt beam="1">  1       -2 0.86813448E-02 0.25894697E+03</pdfrwt>
<totfact> 0.90800838E+03</totfact>
</mgrwt>
</event>
<event>
 6    1  0.1045058E-005  0.3185977E+03  0.7546771E-02  0.1077674E+00
         -4   -1    0    0    0  501 -0.00000000000E+00  0.00000000000E+00  0.45071114527E+03  0.45071114527E+03  0.00000000000E+00 0.  1.
          4   -1    0    0  501    0  0.00000000000E+00 -0.00000000000E+00 -0.21731782216E+03  0.21731782216E+03  0.00000000000E+00 0. -1.
          5    1    1    2  502    0  0.11827760780E+02 -0.10475275427E+02  0.22394838174E+02  0.27807302947E+02  0.47000000000E+01 0. -1.
         -5    1    1    2    0  502  0.12099508835E+03  0.27169932703E+03  0.10847084279E+03  0.31662019748E+03  0.47000000000E+01 0. -1.
        -11    1    1    2    0    0 -0.65122318638E+02 -0.19126472971E+03  0.10180320240E+03  0.22624545351E+03  0.00000000000E+00 0.  1.
         11    1    1    2    0    0 -0.67700530495E+02 -0.69959321896E+02  0.72443974079E+00  0.97356013489E+02  0.00000000000E+00 0. -1.
<mgrwt>
<rscale>  0 0.31563980E+03</rscale>
<asrwt>0</asrwt>
<pdfrwt beam="2">  1        4 0.33433511E-01 0.31859767E+03</pdfrwt>
<pdfrwt beam="1">  1       -4 0.69340176E-01 0.31859767E+03</pdfrwt>
<totfact> 0.31255987E+01</totfact>
</mgrwt>
</event>
<event>
 6    1  0.1045058E-005  0.1310179E+03  0.7546771E-02  0.1236360E+00
          1   -1    0    0  501    0  0.00000000000E+00  0.00000000000E+00  0.12649338889E+04  0.12649338889E+04  0.00000000000E+00 0. -1.
         -1   -1    0    0    0  501 -0.00000000000E+00 -0.00000000000E+00 -0.18337467925E+02  0.18337467925E+02  0.00000000000E+00 0.  1.
          5    1    1    2  502    0 -0.34502712078E+02  0.63677196082E+02  0.77621001349E+03  0.77959559868E+03  0.47000000000E+01 0.  1.
         -5    1    1    2    0  502  0.44923686734E+02 -0.25833243140E+02  0.28965481787E+03  0.29429151805E+03  0.47000000000E+01 0.  1.
        -11    1    1    2    0    0  0.23580814936E+02 -0.11023960599E+02  0.27102090769E+01  0.26171124805E+02  0.00000000000E+00 0.  1.
         11    1    1    2    0    0 -0.34001789592E+02 -0.26819992343E+02  0.17802138055E+03  0.18321311530E+03  0.00000000000E+00 0. -1.
<mgrwt>
<rscale>  0 0.12417749E+03</rscale>
<asrwt>0</asrwt>
<pdfrwt beam="1">  1        1 0.19460515E+00 0.13101794E+03</pdfrwt>
<pdfrwt beam="2">  1       -1 0.28211499E-02 0.13101794E+03</pdfrwt>
<totfact> 0.41873928E+03</totfact>
</mgrwt>
</event>
<event>
 6    1  0.1045058E-005  0.1453130E+03  0.7546771E-02  0.1215598E+00
         -2   -1    0    0    0  501 -0.00000000000E+00  0.00000000000E+00  0.56659116590E+02  0.56659116590E+02  0.00000000000E+00 0.  1.
          2   -1    0    0  501    0  0.00000000000E+00 -0.00000000000E+00 -0.33136343151E+03  0.33136343151E+03  0.00000000000E+00 0. -1.
          5    1    1    2  502    0 -0.52699054973E+02  0.26990549373E+02 -0.14636870479E+02  0.61171955404E+02  0.47000000000E+01 0.  1.
         -5    1    1    2    0  502 -0.12573588401E+02  0.80984208517E+01 -0.18546652739E+03  0.18612791926E+03  0.47000000000E+01 0.  1.
        -11    1    1    2    0    0  0.87985153022E+02 -0.28537206267E+02 -0.45062649661E+02  0.10289024098E+03  0.00000000000E+00 0. -1.
         11    1    1    2    0    0 -0.22712509648E+02 -0.65517639575E+01 -0.29538267390E+02  0.37832432460E+02  0.00000000000E+00 0.  1.
<mgrwt>
<rscale>  0 0.13832726E+03</rscale>
<asrwt>0</asrwt>
<pdfrwt beam="2">  1        2 0.50978990E-01 0.14531297E+03</pdfrwt>
<pdfrwt beam="1">  1       -2 0.87167870E-02 0.14531297E+03</pdfrwt>
<totfact> 0.77456664E+03</totfact>
</mgrwt>
</event>
<event>
 6    1  0.1045058E-005  0.1928663E+03  0.7546771E-02  0.1162547E+00
         -1   -1    0    0    0  501 -0.00000000000E+00  0.00000000000E+00  0.45517395045E+02  0.45517395045E+02  0.00000000000E+00 0.  1.
          1   -1    0    0  501    0  0.00000000000E+00 -0.00000000000E+00 -0.72390343475E+03  0.72390343475E+03  0.00000000000E+00 0. -1.
          5    1    1    2  502    0 -0.44015319679E+01  0.22519064514E+02 -0.61759870686E+02  0.66051899121E+02  0.47000000000E+01 0. -1.
         -5    1    1    2    0  502 -0.84973522662E+01 -0.16882697617E+03 -0.36633186943E+03  0.40347971627E+03  0.47000000000E+01 0. -1.
        -11    1    1    2    0    0 -0.29990742932E+02  0.84194786927E+02 -0.12626048034E+03  0.15469297237E+03  0.00000000000E+00 0.  1.
         11    1    1    2    0    0  0.42889627166E+02  0.62113124730E+02 -0.12403381925E+03  0.14519624203E+03  0.00000000000E+00 0. -1.
<mgrwt>
<rscale>  0 0.18553904E+03</rscale>
<asrwt>0</asrwt>
<pdfrwt beam="2">  1        1 0.11136974E+00 0.19286627E+03</pdfrwt>
<pdfrwt beam="1">  1       -1 0.70026774E-02 0.19286627E+03</pdfrwt>
<totfact> 0.28048328E+03</totfact>
</mgrwt>
</event>
<event>
 6    1  0.1045058E-005  0.2879129E+03  0.7546771E-02  0.1091444E+00
         -2   -1    0    0    0  501 -0.00000000000E+00  0.00000000000E+00  0.24199134252E+02  0.24199134252E+02  0.00000000000E+00 0.  1.
          2   -1    0    0  501    0  0.00000000000E+00 -0.00000000000E+00 -0.85637164311E+03  0.85637164311E+03  0.00000000000E+00 0. -1.
          5    1    1    2  502    0 -0.21994105534E+02 -0.71860793347E+01 -0.24740358577E+03  0.24852767385E+03  0.47000000000E+01 0. -1.
         -5    1    1    2    0  502  0.10933043995E+03  0.20374066412E+02 -0.28024429060E+03  0.30154137377E+03  0.47000000000E+01 0.  1.
        -11    1    1    2    0    0 -0.34615894231E+02 -0.46032724282E+02 -0.87432206703E+02  0.10469795894E+03  0.00000000000E+00 0.  1.
         11    1    1    2    0    0 -0.52720440185E+02  0.32844737205E+02 -0.21709242579E+03  0.22580377080E+03  0.00000000000E+00 0. -1.
<mgrwt>
<rscale>  0 0.28791285E+03</rscale>
<asrwt>0</asrwt>
<pdfrwt beam="2">  1        2 0.13174948E+00 0.28791285E+03</pdfrwt>
<pdfrwt beam="1">  1       -2 0.37229439E-02 0.28791285E+03</pdfrwt>
<totfact> 0.99330556E+03</totfact>
</mgrwt>
</event>
<event>
 6    1  0.1045058E-005  0.1257763E+03  0.7546771E-02  0.1248411E+00
          2   -1    0    0  501    0  0.00000000000E+00  0.00000000000E+00  0.16721443737E+03  0.16721443737E+03  0.00000000000E+00 0. -1.
         -2   -1    0    0    0  501 -0.00000000000E+00 -0.00000000000E+00 -0.91137806868E+02  0.91137806868E+02  0.00000000000E+00 0.  1.
          5    1    1    2  502    0 -0.50844338927E+02 -0.11286570928E+02  0.23918658212E+00  0.52294174575E+02  0.47000000000E+01 0. -1.
         -5    1    1    2    0  502  0.38040531977E+02  0.15888705532E+02  0.10091352108E+03  0.10911077753E+03  0.47000000000E+01 0. -1.
        -11    1    1    2    0    0 -0.69298080183E+01  0.41017478374E+02 -0.22218239243E+02  0.47160427546E+02  0.00000000000E+00 0.  1.
         11    1    1    2    0    0  0.19733614969E+02 -0.45619612978E+02 -0.28578379137E+01  0.49786864589E+02  0.00000000000E+00 0. -1.
<mgrwt>
<rscale>  0 0.11683527E+03</rscale>
<asrwt>0</asrwt>
<pdfrwt beam="1">  1        2 0.25725298E-01 0.12577634E+03</pdfrwt>
<pdfrwt beam="2">  1       -2 0.14021201E-01 0.12577634E+03</pdfrwt>
<totfact> 0.75123274E+03</totfact>
</mgrwt>
</event>
<event>
 6    1  0.1045058E-005  0.1382290E+03  0.7546771E-02  0.1228121E+00
         -2   -1    0    0    0  501 -0.00000000000E+00  0.00000000000E+00  0.31288341333E+02  0.31288341333E+02  0.00000000000E+00 0.  1.
          2   -1    0    0  501    0  0.00000000000E+00 -0.00000000000E+00 -0.47965040164E+03  0.47965040164E+03  0.00000000000E+00 0. -1.
          5    1    1    2  502    0 -0.56233711709E+02 -0.45566441847E+02 -0.10524135023E+03  0.12781378155E+03  0.47000000000E+01 0.  1.
         -5    1    1    2    0  502 -0.58341269899E+00  0.61493877313E+02 -0.15587425462E+03  0.16763266558E+03  0.47000000000E+01 0.  1.
        -11    1    1    2    0    0  0.16048189394E+02 -0.30866694450E+02 -0.15048570187E+02  0.37904573256E+02  0.00000000000E+00 0.  1.
         11    1    1    2    0    0  0.40768935014E+02  0.14939258983E+02 -0.17219788527E+03  0.17758772259E+03  0.00000000000E+00 0. -1.
<mgrwt>
<rscale>  0 0.12955271E+03</rscale>
<asrwt>0</asrwt>
<pdfrwt beam="2">  1        2 0.73792367E-01 0.13822896E+03</pdfrwt>
<pdfrwt beam="1">  1       -2 0.48135911E-02 0.13822896E+03</pdfrwt>
<totfact> 0.12843801E+04</totfact>
</mgrwt>
</event>
<event>
 6    1  0.1045058E-005  0.2229104E+03  0.7546771E-02  0.1131732E+00
          2   -1    0    0  501    0  0.00000000000E+00  0.00000000000E+00  0.50612154266E+03  0.50612154266E+03  0.00000000000E+00 0. -1.
         -2   -1    0    0    0  501 -0.00000000000E+00 -0.00000000000E+00 -0.24544024105E+02  0.24544024105E+02  0.00000000000E+00 0.  1.
          5    1    1    2  502    0 -0.39621094654E+02  0.16162606212E+02  0.24802099771E+02  0.49681939719E+02  0.47000000000E+01 0.  1.
         -5    1    1    2    0  502  0.17234367810E+02 -0.61683044545E+01  0.28038215437E+03  0.28101835154E+03  0.47000000000E+01 0.  1.
        -11    1    1    2    0    0  0.79015284527E+01 -0.48638308180E+02  0.67964655231E+02  0.83948278929E+02  0.00000000000E+00 0.  1.
         11    1    1    2    0    0  0.14485198392E+02  0.38644006423E+02  0.10842860918E+03  0.11601699657E+03  0.00000000000E+00 0. -1.
<mgrwt>
<rscale>  0 0.22291038E+03</rscale>
<asrwt>0</asrwt>
<pdfrwt beam="1">  1        2 0.77864845E-01 0.22291038E+03</pdfrwt>
<pdfrwt beam="2">  1       -2 0.37760041E-02 0.22291038E+03</pdfrwt>
<totfact> 0.18036478E+04</totfact>
</mgrwt>
</event>
<event>
 6    1  0.1045058E-005  0.2392854E+03  0.7546771E-02  0.1123103E+00
         -1   -1    0    0    0  501 -0.00000000000E+00  0.00000000000E+00  0.52160742710E+02  0.52160742710E+02  0.00000000000E+00 0.  1.
          1   -1    0    0  501    0  0.00000000000E+00 -0.00000000000E+00 -0.17615823245E+04  0.17615823245E+04  0.00000000000E+00 0. -1.
          5    1    1    2  502    0 -0.71544007463E+02  0.26135749263E+02 -0.37993281039E+03  0.38752116433E+03  0.47000000000E+01 0. -1.
         -5    1    1    2    0  502 -0.11480112998E+02  0.16024482952E+03 -0.10788679545E+04  0.10907741983E+04  0.47000000000E+01 0. -1.
        -11    1    1    2    0    0 -0.13639340987E+02 -0.58695687250E+02 -0.92474312313E+02  0.11037533131E+03  0.00000000000E+00 0.  1.
         11    1    1    2    0    0  0.96663461448E+02 -0.12768489154E+03 -0.15814650459E+03  0.22507237329E+03  0.00000000000E+00 0. -1.
<mgrwt>
<rscale>  0 0.23509717E+03</rscale>
<asrwt>0</asrwt>
<pdfrwt beam="2">  1        1 0.27101269E+00 0.23928541E+03</pdfrwt>
<pdfrwt beam="1">  1       -1 0.80247289E-02 0.23928541E+03</pdfrwt>
<totfact> 0.41568793E+02</totfact>
</mgrwt>
</event>
<event>
 6    1  0.1045058E-005  0.1500113E+03  0.7546771E-02  0.1209659E+00
          1   -1    0    0  501    0  0.00000000000E+00  0.00000000000E+00  0.64246540519E+03  0.64246540519E+03  0.00000000000E+00 0. -1.
         -1   -1    0    0    0  501 -0.00000000000E+00 -0.00000000000E+00 -0.36580216104E+02  0.36580216104E+02  0.00000000000E+00 0.  1.
          5    1    1    2  502    0  0.36256935280E+02 -0.28468643623E+02  0.28391535816E+03  0.28767177412E+03  0.47000000000E+01 0.  1.
         -5    1    1    2    0  502 -0.77147665346E+02 -0.43668251661E+02  0.19656242021E+03  0.21567928391E+03  0.47000000000E+01 0.  1.
        -11    1    1    2    0    0 -0.77322402411E+01  0.45995265565E+02  0.99098795873E+01  0.47681838335E+02  0.00000000000E+00 0.  1.
         11    1    1    2    0    0  0.48622970307E+02  0.26141629719E+02  0.11549753113E+03  0.12801272493E+03  0.00000000000E+00 0. -1.
<mgrwt>
<rscale>  0 0.14276256E+03</rscale>
<asrwt>0</asrwt>
<pdfrwt beam="1">  1        1 0.98840824E-01 0.15001131E+03</pdfrwt>
<pdfrwt beam="2">  1       -1 0.56277260E-02 0.15001131E+03</pdfrwt>
<totfact> 0.45780285E+03</totfact>
</mgrwt>
</event>
<event>
 6    1  0.1045058E-005  0.3724604E+03  0.7546771E-02  0.1095853E+00
         -1   -1    0    0    0  501 -0.00000000000E+00  0.00000000000E+00  0.18018464045E+03  0.18018464045E+03  0.00000000000E+00 0.  1.
          1   -1    0    0  501    0  0.00000000000E+00 -0.00000000000E+00 -0.33492996216E+03  0.33492996216E+03  0.00000000000E+00 0. -1.
          5    1    1    2  502    0  0.25839495453E+02  0.15033837455E+03 -0.20970459010E+03  0.25935961809E+03  0.47000000000E+01 0. -1.
         -5    1    1    2    0  502  0.23861231709E+01 -0.78779405627E+02  0.10141259999E+03  0.12852429254E+03  0.47000000000E+01 0.  1.
        -11    1    1    2    0    0 -0.40344275795E+02 -0.86464296874E+02 -0.25412908790E+02  0.98739815457E+02  0.00000000000E+00 0.  1.
         11    1    1    2    0    0  0.12118657171E+02  0.14905327954E+02 -0.21040422806E+02  0.28490876520E+02  0.00000000000E+00 0. -1.
<mgrwt>
<rscale>  0 0.27969925E+03</rscale>
<asrwt>0</asrwt>
<pdfrwt beam="2">  1        1 0.51527686E-01 0.37246043E+03</pdfrwt>
<pdfrwt beam="1">  1       -1 0.27720714E-01 0.37246043E+03</pdfrwt>
<totfact> 0.89281655E+02</totfact>
</mgrwt>
</event>
<event>
 6    1  0.1045058E-005  0.1354551E+03  0.7546771E-02  0.1231797E+00
          2   -1    0    0  501    0  0.00000000000E+00  0.00000000000E+00  0.59367644086E+03  0.59367644086E+03  0.00000000000E+00 0. -1.
         -2   -1    0    0    0  501 -0.00000000000E+00 -0.00000000000E+00 -0.25187166286E+02  0.25187166286E+02  0.00000000000E+00 0.  1.
          5    1    1    2  502    0  0.56318246410E+02  0.68509337424E+01  0.34745842927E+03  0.35209108231E+03  0.47000000000E+01 0.  1.
         -5    1    1    2    0  502 -0.12398990033E+02 -0.35038242465E+02  0.27183829146E+02  0.46286757889E+02  0.47000000000E+01 0.  1.
        -11    1    1    2    0    0 -0.39269486508E+02 -0.10111798615E+02  0.17079580402E+03  0.17554357781E+03  0.00000000000E+00 0. -1.
         11    1    1    2    0    0 -0.46497698684E+01  0.38299107338E+02  0.23051212138E+02  0.44942189130E+02  0.00000000000E+00 0.  1.
<mgrwt>
<rscale>  0 0.12711722E+03</rscale>
<asrwt>0</asrwt>
<pdfrwt beam="1">  1        2 0.91334826E-01 0.13545509E+03</pdfrwt>
<pdfrwt beam="2">  1       -2 0.38749491E-02 0.13545509E+03</pdfrwt>
<totfact> 0.13982664E+04</totfact>
</mgrwt>
</event>
<event>
 6    1  0.1045058E-005  0.1634866E+03  0.7546771E-02  0.1191538E+00
          2   -1    0    0  501    0  0.00000000000E+00  0.00000000000E+00  0.96414918172E+03  0.96414918172E+03  0.00000000000E+00 0. -1.
         -2   -1    0    0    0  501 -0.00000000000E+00 -0.00000000000E+00 -0.26255379193E+02  0.26255379193E+02  0.00000000000E+00 0.  1.
          5    1    1    2  502    0  0.56548102636E+02  0.74564921517E+01  0.24848204752E+03  0.25498765681E+03  0.47000000000E+01 0. -1.
         -5    1    1    2    0  502 -0.42301448896E+02  0.96942275880E+02  0.39657846517E+03  0.41046776545E+03  0.47000000000E+01 0. -1.
        -11    1    1    2    0    0  0.25630416761E+02 -0.96603092377E+02  0.19867162391E+03  0.22239489622E+03  0.00000000000E+00 0.  1.
         11    1    1    2    0    0 -0.39877070501E+02 -0.77956756545E+01  0.94161665923E+02  0.10255424243E+03  0.00000000000E+00 0. -1.
<mgrwt>
<rscale>  0 0.15750919E+03</rscale>
<asrwt>0</asrwt>
<pdfrwt beam="1">  1        2 0.14833062E+00 0.16348656E+03</pdfrwt>
<pdfrwt beam="2">  1       -2 0.40392898E-02 0.16348656E+03</pdfrwt>
<totfact> 0.73166476E+03</totfact>
</mgrwt>
</event>
<event>
 6    1  0.1045058E-005  0.3734355E+03  0.7546771E-02  0.1053387E+00
          2   -1    0    0  501    0  0.00000000000E+00  0.00000000000E+00  0.48930474488E+03  0.48930474488E+03  0.00000000000E+00 0.  1.
         -2   -1    0    0    0  501 -0.00000000000E+00 -0.00000000000E+00 -0.71251118212E+02  0.71251118212E+02  0.00000000000E+00 0. -1.
          5    1    1    2  502    0 -0.13174657540E+02  0.23601341045E+02  0.77985584954E+02  0.82670649937E+02  0.47000000000E+01 0. -1.
         -5    1    1    2    0  502  0.12824021322E+03 -0.72469226401E+02  0.26689498497E+03  0.30488090144E+03  0.47000000000E+01 0. -1.
        -11    1    1    2    0    0 -0.32388048497E+02  0.46528416284E+02 -0.78368364983E+01  0.57230194946E+02  0.00000000000E+00 0. -1.
         11    1    1    2    0    0 -0.82677507186E+02  0.23394690725E+01  0.81009893250E+02  0.11577411677E+03  0.00000000000E+00 0.  1.
<mgrwt>
<rscale>  0 0.37343546E+03</rscale>
<asrwt>0</asrwt>
<pdfrwt beam="1">  1        2 0.75277651E-01 0.37343546E+03</pdfrwt>
<pdfrwt beam="2">  1       -2 0.10961711E-01 0.37343546E+03</pdfrwt>
<totfact> 0.36703904E+03</totfact>
</mgrwt>
</event>
<event>
 6    1  0.1045058E-005  0.1962373E+03  0.7546771E-02  0.1157518E+00
          2   -1    0    0  501    0  0.00000000000E+00  0.00000000000E+00  0.26633986493E+03  0.26633986493E+03  0.00000000000E+00 0. -1.
         -2   -1    0    0    0  501 -0.00000000000E+00 -0.00000000000E+00 -0.15906439853E+03  0.15906439853E+03  0.00000000000E+00 0.  1.
          5    1    1    2  502    0  0.10498578269E+03 -0.71505363239E+02  0.12546146659E+03  0.17859927530E+03  0.47000000000E+01 0.  1.
         -5    1    1    2    0  502  0.43896912269E+02  0.44705884579E+02  0.20924357174E+02  0.66222909525E+02  0.47000000000E+01 0.  1.
        -11    1    1    2    0    0 -0.98938627762E+02  0.22708182949E+02  0.19607999064E+02  0.10338755855E+03  0.00000000000E+00 0.  1.
         11    1    1    2    0    0 -0.49944067199E+02  0.40912957111E+01 -0.58718356424E+02  0.77194520078E+02  0.00000000000E+00 0. -1.
<mgrwt>
<rscale>  0 0.19104990E+03</rscale>
<asrwt>0</asrwt>
<pdfrwt beam="1">  1        2 0.40975364E-01 0.19623734E+03</pdfrwt>
<pdfrwt beam="2">  1       -2 0.24471446E-01 0.19623734E+03</pdfrwt>
<totfact> 0.18184616E+03</totfact>
</mgrwt>
</event>
<event>
 6    1  0.1045058E-005  0.1295464E+03  0.7546771E-02  0.1240048E+00
          1   -1    0    0  501    0  0.00000000000E+00  0.00000000000E+00  0.26844792409E+02  0.26844792409E+02  0.00000000000E+00 0. -1.
         -1   -1    0    0    0  501 -0.00000000000E+00 -0.00000000000E+00 -0.49700353759E+03  0.49700353759E+03  0.00000000000E+00 0.  1.
          5    1    1    2  502    0 -0.54180575216E+02 -0.27060652172E+02 -0.25248880903E+03  0.25969309254E+03  0.47000000000E+01 0. -1.
         -5    1    1    2    0  502  0.33519723926E+02  0.35369114119E-01 -0.14026284260E+02  0.36638774450E+02  0.47000000000E+01 0. -1.
        -11    1    1    2    0    0 -0.29975830411E+02  0.38667835646E+02 -0.86753736949E+02  0.99599010020E+02  0.00000000000E+00 0. -1.
         11    1    1    2    0    0  0.50636681701E+02 -0.11642552588E+02 -0.11688991494E+03  0.12791745299E+03  0.00000000000E+00 0.  1.
<mgrwt>
<rscale>  0 0.12186721E+03</rscale>
<asrwt>0</asrwt>
<pdfrwt beam="1">  1        1 0.41299682E-02 0.12954644E+03</pdfrwt>
<pdfrwt beam="2">  1       -1 0.76462080E-01 0.12954644E+03</pdfrwt>
<totfact> 0.37273603E+03</totfact>
</mgrwt>
</event>
<event>
 6    1  0.1045058E-005  0.3811975E+03  0.7546771E-02  0.1050492E+00
         -1   -1    0    0    0  501 -0.00000000000E+00  0.00000000000E+00  0.10380622340E+03  0.10380622340E+03  0.00000000000E+00 0.  1.
          1   -1    0    0  501    0  0.00000000000E+00 -0.00000000000E+00 -0.34995862820E+03  0.34995862820E+03  0.00000000000E+00 0. -1.
          5    1    1    2  502    0  0.10044139040E+03  0.12873681448E+03 -0.20084189162E+03  0.25888452201E+03  0.47000000000E+01 0. -1.
         -5    1    1    2    0  502 -0.10663323829E+02 -0.14116067852E+02  0.79143907391E+00  0.18321741797E+02  0.47000000000E+01 0. -1.
        -11    1    1    2    0    0 -0.98592738464E+02 -0.60938456088E+02 -0.34540947145E+02  0.12094255057E+03  0.00000000000E+00 0. -1.
         11    1    1    2    0    0  0.88146718958E+01 -0.53682290540E+02 -0.11561005111E+02  0.55616037232E+02  0.00000000000E+00 0.  1.
<mgrwt>
<rscale>  0 0.38119750E+03</rscale>
<asrwt>0</asrwt>
<pdfrwt beam="2">  1        1 0.53839789E-01 0.38119750E+03</pdfrwt>
<pdfrwt beam="1">  1       -1 0.15970188E-01 0.38119750E+03</pdfrwt>
<totfact> 0.21010954E+03</totfact>
</mgrwt>
</event>
<event>
 6    1  0.1045058E-005  0.1374691E+03  0.7546771E-02  0.1229488E+00
         -2   -1    0    0    0  501 -0.00000000000E+00  0.00000000000E+00  0.24337047257E+02  0.24337047257E+02  0.00000000000E+00 0.  1.
          2   -1    0    0  501    0  0.00000000000E+00 -0.00000000000E+00 -0.63417003575E+03  0.63417003575E+03  0.00000000000E+00 0. -1.
          5    1    1    2  502    0  0.64743577481E+02 -0.11663002154E+02 -0.41476418152E+03  0.41997520488E+03  0.47000000000E+01 0.  1.
         -5    1    1    2    0  502 -0.75053818152E+01  0.11276675907E+02  0.25445246770E+01  0.14562238205E+02  0.47000000000E+01 0.  1.
        -11    1    1    2    0    0 -0.21741682685E+01  0.16965623707E+02  0.10639076184E+01  0.17137423810E+02  0.00000000000E+00 0.  1.
         11    1    1    2    0    0 -0.55064027397E+02 -0.16579297460E+02 -0.19867723927E+03  0.20683221611E+03  0.00000000000E+00 0. -1.
<mgrwt>
<rscale>  0 0.12863960E+03</rscale>
<asrwt>0</asrwt>
<pdfrwt beam="2">  1        2 0.97564611E-01 0.13746907E+03</pdfrwt>
<pdfrwt beam="1">  1       -2 0.37441615E-02 0.13746907E+03</pdfrwt>
<totfact> 0.13657619E+04</totfact>
</mgrwt>
</event>
<event>
 6    1  0.1045058E-005  0.1782127E+03  0.7546771E-02  0.1175458E+00
          2   -1    0    0  501    0  0.00000000000E+00  0.00000000000E+00  0.83391217237E+03  0.83391217237E+03  0.00000000000E+00 0.  1.
         -2   -1    0    0    0  501 -0.00000000000E+00 -0.00000000000E+00 -0.33440052061E+02  0.33440052061E+02  0.00000000000E+00 0. -1.
          5    1    1    2  502    0 -0.18169364157E+02  0.76794115513E+02  0.94178775865E+02  0.12296013092E+03  0.47000000000E+01 0. -1.
         -5    1    1    2    0  502  0.51785180841E+02  0.45695959562E+02  0.32916504858E+03  0.33636519571E+03  0.47000000000E+01 0. -1.
        -11    1    1    2    0    0 -0.63759416365E+02 -0.72273580233E+02  0.25425332684E+03  0.27190713081E+03  0.00000000000E+00 0. -1.
         11    1    1    2    0    0  0.30143599681E+02 -0.50216494842E+02  0.12287496902E+03  0.13611976700E+03  0.00000000000E+00 0.  1.
<mgrwt>
<rscale>  0 0.17231209E+03</rscale>
<asrwt>0</asrwt>
<pdfrwt beam="1">  1        2 0.12829416E+00 0.17821269E+03</pdfrwt>
<pdfrwt beam="2">  1       -2 0.51446240E-02 0.17821269E+03</pdfrwt>
<totfact> 0.61810022E+03</totfact>
</mgrwt>
</event>
<event>
 6    1  0.1045058E-005  0.1263080E+03  0.7546771E-02  0.1283066E+00
          2   -1    0    0  501    0  0.00000000000E+00  0.00000000000E+00  0.89319256632E+03  0.89319256632E+03  0.00000000000E+00 0. -1.
         -2   -1    0    0    0  501 -0.00000000000E+00 -0.00000000000E+00 -0.11315443639E+02  0.11315443639E+02  0.00000000000E+00 0.  1.
          5    1    1    2  502    0 -0.15143008065E+02  0.49378436975E+02  0.18411251337E+03  0.19127741192E+03  0.47000000000E+01 0. -1.
         -5    1    1    2    0  502 -0.83911807877E+00 -0.57913788336E+02  0.61710009706E+03  0.61983008219E+03  0.47000000000E+01 0. -1.
        -11    1    1    2    0    0  0.27103515178E+02  0.17316330778E+02  0.63175690406E+02  0.70891633532E+02  0.00000000000E+00 0.  1.
         11    1    1    2    0    0 -0.11121389034E+02 -0.87809794167E+01  0.17488821847E+02  0.22508882317E+02  0.00000000000E+00 0. -1.
<mgrwt>
<rscale>  0 0.98694130E+02</rscale>
<asrwt>0</asrwt>
<pdfrwt beam="1">  1        2 0.13741419E+00 0.12630804E+03</pdfrwt>
<pdfrwt beam="2">  1       -2 0.17408382E-02 0.12630804E+03</pdfrwt>
<totfact> 0.27375274E+04</totfact>
</mgrwt>
</event>
<event>
 6    1  0.1045058E-005  0.4044336E+03  0.7546771E-02  0.1042255E+00
         -1   -1    0    0    0  501 -0.00000000000E+00  0.00000000000E+00  0.20211479652E+02  0.20211479652E+02  0.00000000000E+00 0.  1.
          1   -1    0    0  501    0  0.00000000000E+00 -0.00000000000E+00 -0.20231890056E+04  0.20231890056E+04  0.00000000000E+00 0. -1.
          5    1    1    2  502    0  0.82971624771E+02  0.23606574418E+02 -0.15243115928E+04  0.15267578337E+04  0.47000000000E+01 0. -1.
         -5    1    1    2    0  502  0.39129365137E+02 -0.47163516793E+01 -0.10935655969E+03  0.11633700329E+03  0.47000000000E+01 0. -1.
        -11    1    1    2    0    0 -0.74637017470E+02  0.33828035023E+02 -0.16929613029E+03  0.18808561896E+03  0.00000000000E+00 0.  1.
         11    1    1    2    0    0 -0.47463972439E+02 -0.52718257761E+02 -0.20001324317E+03  0.21222002927E+03  0.00000000000E+00 0. -1.
<mgrwt>
<rscale>  0 0.40443365E+03</rscale>
<asrwt>0</asrwt>
<pdfrwt beam="2">  1        1 0.31125994E+00 0.40443365E+03</pdfrwt>
<pdfrwt beam="1">  1       -1 0.31094574E-02 0.40443365E+03</pdfrwt>
<totfact> 0.11539778E+03</totfact>
</mgrwt>
</event>
<event>
 6    1  0.1045058E-005  0.1258581E+03  0.7546771E-02  0.1247121E+00
          1   -1    0    0  501    0  0.00000000000E+00  0.00000000000E+00  0.56943357016E+03  0.56943357016E+03  0.00000000000E+00 0. -1.
         -1   -1    0    0    0  501 -0.00000000000E+00 -0.00000000000E+00 -0.27269651675E+02  0.27269651675E+02  0.00000000000E+00 0.  1.
          5    1    1    2  502    0  0.20038290131E+02 -0.25351022778E+02  0.22906063226E+02  0.39887155324E+02  0.47000000000E+01 0. -1.
         -5    1    1    2    0  502 -0.23641918615E+02  0.11066799209E+02  0.41229623610E+03  0.41314850921E+03  0.47000000000E+01 0. -1.
        -11    1    1    2    0    0  0.25945653561E+02 -0.22763710799E+02  0.91383984416E+02  0.97685188621E+02  0.00000000000E+00 0. -1.
         11    1    1    2    0    0 -0.22342025078E+02  0.37047934369E+02  0.15577634747E+02  0.45982368685E+02  0.00000000000E+00 0.  1.
<mgrwt>
<rscale>  0 0.11759314E+03</rscale>
<asrwt>0</asrwt>
<pdfrwt beam="1">  1        1 0.87605156E-01 0.12585814E+03</pdfrwt>
<pdfrwt beam="2">  1       -1 0.41953314E-02 0.12585814E+03</pdfrwt>
<totfact> 0.82543209E+03</totfact>
</mgrwt>
</event>
<event>
 6    1  0.1045058E-005  0.1425548E+03  0.7546771E-02  0.1220704E+00
          2   -1    0    0  501    0  0.00000000000E+00  0.00000000000E+00  0.42880932815E+03  0.42880932815E+03  0.00000000000E+00 0. -1.
         -2   -1    0    0    0  501 -0.00000000000E+00 -0.00000000000E+00 -0.40928853026E+02  0.40928853026E+02  0.00000000000E+00 0.  1.
          5    1    1    2  502    0 -0.20432699839E+02 -0.93603523269E+02  0.22541238736E+03  0.24497336420E+03  0.47000000000E+01 0. -1.
         -5    1    1    2    0  502  0.32069481944E+02  0.26064247299E+02  0.49112315181E+02  0.64357642607E+02  0.47000000000E+01 0. -1.
        -11    1    1    2    0    0  0.27029505637E+02  0.84382535114E+01  0.17987005146E+01  0.28373114402E+02  0.00000000000E+00 0.  1.
         11    1    1    2    0    0 -0.38666287743E+02  0.59101022459E+02  0.11155707206E+03  0.13203405996E+03  0.00000000000E+00 0. -1.
<mgrwt>
<rscale>  0 0.13465724E+03</rscale>
<asrwt>0</asrwt>
<pdfrwt beam="1">  1        2 0.65970663E-01 0.14255476E+03</pdfrwt>
<pdfrwt beam="2">  1       -2 0.62967469E-02 0.14255476E+03</pdfrwt>
<totfact> 0.96878446E+03</totfact>
</mgrwt>
</event>
<event>
 6    1  0.1045058E-005  0.1279153E+03  0.7546771E-02  0.1242867E+00
         -2   -1    0    0    0  501 -0.00000000000E+00  0.00000000000E+00  0.58338678571E+02  0.58338678571E+02  0.00000000000E+00 0.  1.
          2   -1    0    0  501    0  0.00000000000E+00 -0.00000000000E+00 -0.30765305197E+03  0.30765305197E+03  0.00000000000E+00 0. -1.
          5    1    1    2  502    0 -0.31182718652E+02 -0.24205394056E+02 -0.23955143662E+03  0.24282760105E+03  0.47000000000E+01 0. -1.
         -5    1    1    2    0  502 -0.32239480142E+01  0.20038359571E+02  0.75020000914E+01  0.22142712130E+02  0.47000000000E+01 0.  1.
        -11    1    1    2    0    0  0.65892811617E+02 -0.64350470744E+01 -0.92945914467E+01  0.66855529942E+02  0.00000000000E+00 0.  1.
         11    1    1    2    0    0 -0.31486144951E+02  0.10602081559E+02 -0.79703454275E+01  0.34165887424E+02  0.00000000000E+00 0. -1.
<mgrwt>
<rscale>  0 0.12013956E+03</rscale>
<asrwt>0</asrwt>
<pdfrwt beam="2">  1        2 0.47331238E-01 0.12791531E+03</pdfrwt>
<pdfrwt beam="1">  1       -2 0.89751815E-02 0.12791531E+03</pdfrwt>
<totfact> 0.79387929E+03</totfact>
</mgrwt>
</event>
<event>
 6    1  0.1045058E-005  0.1537214E+03  0.7546771E-02  0.1204575E+00
          1   -1    0    0  501    0  0.00000000000E+00  0.00000000000E+00  0.24004627495E+03  0.24004627495E+03  0.00000000000E+00 0. -1.
         -1   -1    0    0    0  501 -0.00000000000E+00 -0.00000000000E+00 -0.19312116282E+03  0.19312116282E+03  0.00000000000E+00 0.  1.
          5    1    1    2  502    0 -0.14660017508E+02  0.53489882667E+02  0.31327701222E+02  0.63871734946E+02  0.47000000000E+01 0.  1.
         -5    1    1    2    0  502  0.86372186380E+02  0.11407678353E-01  0.15676615406E+03  0.17904712164E+03  0.47000000000E+01 0.  1.
        -11    1    1    2    0    0  0.21386677443E+02 -0.13526899462E+02 -0.19687695656E+02  0.32062007757E+02  0.00000000000E+00 0. -1.
         11    1    1    2    0    0 -0.93098846316E+02 -0.39974390883E+02 -0.12148104750E+03  0.15818657343E+03  0.00000000000E+00 0.  1.
<mgrwt>
<rscale>  0 0.14671029E+03</rscale>
<asrwt>0</asrwt>
<pdfrwt beam="1">  1        1 0.36930196E-01 0.15372141E+03</pdfrwt>
<pdfrwt beam="2">  1       -1 0.29710948E-01 0.15372141E+03</pdfrwt>
<totfact> 0.11968353E+03</totfact>
</mgrwt>
</event>
<event>
 6    1  0.1045058E-005  0.2088774E+03  0.7546771E-02  0.1146205E+00
         -1   -1    0    0    0  501 -0.00000000000E+00  0.00000000000E+00  0.34410194687E+02  0.34410194687E+02  0.00000000000E+00 0.  1.
          1   -1    0    0  501    0  0.00000000000E+00 -0.00000000000E+00 -0.12231084290E+04  0.12231084290E+04  0.00000000000E+00 0. -1.
          5    1    1    2  502    0 -0.54117426435E+02  0.14898779659E+03 -0.65806254899E+03  0.67690063359E+03  0.47000000000E+01 0. -1.
         -5    1    1    2    0  502  0.40730533278E+02  0.17826226203E+02 -0.10256371468E+03  0.11188456664E+03  0.47000000000E+01 0. -1.
        -11    1    1    2    0    0  0.49650024038E+02 -0.69270751513E+02 -0.16235699319E+03  0.18336672310E+03  0.00000000000E+00 0.  1.
         11    1    1    2    0    0 -0.36263130881E+02 -0.97543271278E+02 -0.26571497745E+03  0.28536670036E+03  0.00000000000E+00 0. -1.
<mgrwt>
<rscale>  0 0.20424610E+03</rscale>
<asrwt>0</asrwt>
<pdfrwt beam="2">  1        1 0.18817054E+00 0.20887743E+03</pdfrwt>
<pdfrwt beam="1">  1       -1 0.52938757E-02 0.20887743E+03</pdfrwt>
<totfact> 0.17808693E+03</totfact>
</mgrwt>
</event>
<event>
 6    1  0.1045058E-005  0.1294489E+03  0.7546771E-02  0.1241902E+00
         -1   -1    0    0    0  501 -0.00000000000E+00  0.00000000000E+00  0.19035805845E+03  0.19035805845E+03  0.00000000000E+00 0.  1.
          1   -1    0    0  501    0  0.00000000000E+00 -0.00000000000E+00 -0.69277087844E+02  0.69277087844E+02  0.00000000000E+00 0. -1.
          5    1    1    2  502    0 -0.12856318516E+02 -0.64561945525E+02 -0.11162595738E+02  0.66934470039E+02  0.47000000000E+01 0.  1.
         -5    1    1    2    0  502  0.18947950575E+02  0.31508185993E+02  0.61805664198E+02  0.72068167331E+02  0.47000000000E+01 0.  1.
        -11    1    1    2    0    0  0.21715719659E+02  0.48425354060E+01  0.77293050928E+02  0.80431575585E+02  0.00000000000E+00 0.  1.
         11    1    1    2    0    0 -0.27807351718E+02  0.28211224127E+02 -0.68551487831E+01  0.40200933337E+02  0.00000000000E+00 0. -1.
<mgrwt>
<rscale>  0 0.12072717E+03</rscale>
<asrwt>0</asrwt>
<pdfrwt beam="2">  1        1 0.10658014E-01 0.12944888E+03</pdfrwt>
<pdfrwt beam="1">  1       -1 0.29285855E-01 0.12944888E+03</pdfrwt>
<totfact> 0.59362646E+03</totfact>
</mgrwt>
</event>
<event>
 6    1  0.1212775E-005  0.1319398E+03  0.7546771E-02  0.1236854E+00
          3   -1    0    0  501    0  0.00000000000E+00  0.00000000000E+00  0.20578279477E+03  0.20578279477E+03  0.00000000000E+00 0. -1.
         -3   -1    0    0    0  501 -0.00000000000E+00 -0.00000000000E+00 -0.69613134478E+02  0.69613134478E+02  0.00000000000E+00 0.  1.
          5    1    1    2  502    0  0.32663872939E+02  0.74187744519E+02  0.94377860161E+02  0.12449907839E+03  0.47000000000E+01 0. -1.
         -5    1    1    2    0  502 -0.26998015675E+02 -0.32351095890E+02  0.95588191498E+01  0.43462021113E+02  0.47000000000E+01 0. -1.
        -11    1    1    2    0    0 -0.19673774183E+02 -0.22222279641E+02 -0.29081751138E+02  0.41552801979E+02  0.00000000000E+00 0.  1.
         11    1    1    2    0    0  0.14007916919E+02 -0.19614368988E+02  0.61314732121E+02  0.65882027764E+02  0.00000000000E+00 0. -1.
<mgrwt>
<rscale>  0 0.12386464E+03</rscale>
<asrwt>0</asrwt>
<pdfrwt beam="1">  1        3 0.31658891E-01 0.13193975E+03</pdfrwt>
<pdfrwt beam="2">  1       -3 0.10709713E-01 0.13193975E+03</pdfrwt>
<totfact> 0.14614054E+03</totfact>
</mgrwt>
</event>
<event>
 6    1  0.1045058E-005  0.1322181E+03  0.7546771E-02  0.1237246E+00
         -1   -1    0    0    0  501 -0.00000000000E+00  0.00000000000E+00  0.11390122658E+04  0.11390122658E+04  0.00000000000E+00 0.  1.
          1   -1    0    0  501    0  0.00000000000E+00 -0.00000000000E+00 -0.11969606014E+02  0.11969606014E+02  0.00000000000E+00 0. -1.
          5    1    1    2  502    0 -0.17720070902E+02  0.45701037763E+02  0.84395411876E+02  0.97710088072E+02  0.47000000000E+01 0. -1.
         -5    1    1    2    0  502  0.28911024599E+02 -0.41026317197E+01  0.52648557711E+03  0.52731568517E+03  0.47000000000E+01 0. -1.
        -11    1    1    2    0    0  0.38587789807E+02 -0.30387477066E+02  0.28802146881E+03  0.29217936748E+03  0.00000000000E+00 0.  1.
         11    1    1    2    0    0 -0.49778743503E+02 -0.11210928976E+02  0.22814020200E+03  0.23377673109E+03  0.00000000000E+00 0. -1.
<mgrwt>
<rscale>  0 0.12361758E+03</rscale>
<asrwt>0</asrwt>
<pdfrwt beam="2">  1        1 0.18414787E-02 0.13221813E+03</pdfrwt>
<pdfrwt beam="1">  1       -1 0.17523257E+00 0.13221813E+03</pdfrwt>
<totfact> 0.16324646E+03</totfact>
</mgrwt>
</event>
<event>
 6    1  0.1045058E-005  0.1343944E+03  0.7546771E-02  0.1234176E+00
          1   -1    0    0  501    0  0.00000000000E+00  0.00000000000E+00  0.10950411302E+03  0.10950411302E+03  0.00000000000E+00 0. -1.
         -1   -1    0    0    0  501 -0.00000000000E+00 -0.00000000000E+00 -0.13264674546E+03  0.13264674546E+03  0.00000000000E+00 0.  1.
          5    1    1    2  502    0 -0.26695917516E+02 -0.28387796259E+02 -0.30193040269E+02  0.49520184462E+02  0.47000000000E+01 0. -1.
         -5    1    1    2    0  502  0.96911650466E+01  0.74733989655E+02  0.39454659485E+02  0.85193004670E+02  0.47000000000E+01 0. -1.
        -11    1    1    2    0    0 -0.20333102009E+02 -0.16230358573E+02  0.22594762764E+02  0.34458422498E+02  0.00000000000E+00 0. -1.
         11    1    1    2    0    0  0.37337854478E+02 -0.30115834822E+02 -0.54999014415E+02  0.72979246850E+02  0.00000000000E+00 0.  1.
<mgrwt>
<rscale>  0 0.12557335E+03</rscale>
<asrwt>0</asrwt>
<pdfrwt beam="1">  1        1 0.16846787E-01 0.13439444E+03</pdfrwt>
<pdfrwt beam="2">  1       -1 0.20407191E-01 0.13439444E+03</pdfrwt>
<totfact> 0.59258428E+03</totfact>
</mgrwt>
</event>
<event>
 6    1  0.1045058E-005  0.2248327E+03  0.7546771E-02  0.1133533E+00
          2   -1    0    0  501    0  0.00000000000E+00  0.00000000000E+00  0.10340162252E+03  0.10340162252E+03  0.00000000000E+00 0. -1.
         -2   -1    0    0    0  501 -0.00000000000E+00 -0.00000000000E+00 -0.46169189396E+03  0.46169189396E+03  0.00000000000E+00 0.  1.
          5    1    1    2  502    0  0.16339051083E+03 -0.10174430382E+00 -0.66006393886E+02  0.17628216988E+03  0.47000000000E+01 0.  1.
         -5    1    1    2    0  502  0.19131968681E+02 -0.40001427820E+02 -0.80644319555E+02  0.92150652356E+02  0.47000000000E+01 0.  1.
        -11    1    1    2    0    0 -0.70461113578E+02  0.59992921818E+02 -0.11294617738E+03  0.14601629423E+03  0.00000000000E+00 0.  1.
         11    1    1    2    0    0 -0.11206136594E+03 -0.19889749693E+02 -0.98693380621E+02  0.15064440002E+03  0.00000000000E+00 0. -1.
<mgrwt>
<rscale>  0 0.22047052E+03</rscale>
<asrwt>0</asrwt>
<pdfrwt beam="1">  1        2 0.15907942E-01 0.22483271E+03</pdfrwt>
<pdfrwt beam="2">  1       -2 0.71029523E-01 0.22483271E+03</pdfrwt>
<totfact> 0.66990311E+02</totfact>
</mgrwt>
</event>
<event>
 6    1  0.1045058E-005  0.1543201E+03  0.7546771E-02  0.1203813E+00
          2   -1    0    0  501    0  0.00000000000E+00  0.00000000000E+00  0.75088423166E+02  0.75088423166E+02  0.00000000000E+00 0. -1.
         -2   -1    0    0    0  501 -0.00000000000E+00 -0.00000000000E+00 -0.26616295105E+03  0.26616295105E+03  0.00000000000E+00 0.  1.
          5    1    1    2  502    0 -0.46322370226E+02  0.26000487416E+02 -0.18179437530E+02  0.56341541318E+02  0.47000000000E+01 0.  1.
         -5    1    1    2    0  502  0.75202899527E+02  0.59755840965E+02 -0.93688898354E+02  0.13426070274E+03  0.47000000000E+01 0.  1.
        -11    1    1    2    0    0  0.11704476481E+02 -0.62251461233E+02 -0.82058766067E+02  0.10366233783E+03  0.00000000000E+00 0.  1.
         11    1    1    2    0    0 -0.40585005782E+02 -0.23504867148E+02  0.28525740703E+01  0.46986792323E+02  0.00000000000E+00 0. -1.
<mgrwt>
<rscale>  0 0.14731385E+03</rscale>
<asrwt>0</asrwt>
<pdfrwt beam="1">  1        2 0.11552065E-01 0.15432009E+03</pdfrwt>
<pdfrwt beam="2">  1       -2 0.40948147E-01 0.15432009E+03</pdfrwt>
<totfact> 0.29515340E+03</totfact>
</mgrwt>
</event>
<event>
 6    1  0.1045058E-005  0.4860740E+03  0.7546771E-02  0.1017479E+00
          1   -1    0    0  501    0  0.00000000000E+00  0.00000000000E+00  0.43983422852E+03  0.43983422852E+03  0.00000000000E+00 0. -1.
         -1   -1    0    0    0  501 -0.00000000000E+00 -0.00000000000E+00 -0.13429374814E+03  0.13429374814E+03  0.00000000000E+00 0.  1.
          5    1    1    2  502    0  0.56913592260E+01 -0.24014794557E+02  0.82160660350E+02  0.85916040625E+02  0.47000000000E+01 0.  1.
         -5    1    1    2    0  502  0.16265854955E+03  0.87209267577E+02  0.21864845500E+03  0.28616865126E+03  0.47000000000E+01 0.  1.
        -11    1    1    2    0    0 -0.40753089810E+02  0.23167062714E+02 -0.75381980790E+01  0.47480012153E+02  0.00000000000E+00 0.  1.
         11    1    1    2    0    0 -0.12759681896E+03 -0.86361535734E+02  0.12269563112E+02  0.15456327262E+03  0.00000000000E+00 0. -1.
<mgrwt>
<rscale>  0 0.48607402E+03</rscale>
<asrwt>0</asrwt>
<pdfrwt beam="1">  1        1 0.67666803E-01 0.48607402E+03</pdfrwt>
<pdfrwt beam="2">  1       -1 0.20660577E-01 0.48607402E+03</pdfrwt>
<totfact> 0.10255853E+03</totfact>
</mgrwt>
</event>
<event>
 6    1  0.1045058E-005  0.1418349E+03  0.7546771E-02  0.1225508E+00
          1   -1    0    0  501    0  0.00000000000E+00  0.00000000000E+00  0.72090497152E+02  0.72090497152E+02  0.00000000000E+00 0. -1.
         -1   -1    0    0    0  501 -0.00000000000E+00 -0.00000000000E+00 -0.22349655835E+03  0.22349655835E+03  0.00000000000E+00 0.  1.
          5    1    1    2  502    0 -0.58159496760E+02  0.22971744930E+01  0.74738532961E+01  0.58870642574E+02  0.47000000000E+01 0.  1.
         -5    1    1    2    0  502  0.36051095784E+02  0.60968304481E+02 -0.58093187902E+02  0.91726354660E+02  0.47000000000E+01 0.  1.
        -11    1    1    2    0    0  0.47885065902E+02 -0.37252166828E+02 -0.86556244320E+02  0.10570093141E+03  0.00000000000E+00 0.  1.
         11    1    1    2    0    0 -0.25776664926E+02 -0.26013312145E+02 -0.14230482268E+02  0.39289126855E+02  0.00000000000E+00 0. -1.
<mgrwt>
<rscale>  0 0.13132180E+03</rscale>
<asrwt>0</asrwt>
<pdfrwt beam="1">  1        1 0.11090846E-01 0.14183490E+03</pdfrwt>
<pdfrwt beam="2">  1       -1 0.34384086E-01 0.14183490E+03</pdfrwt>
<totfact> 0.43184051E+03</totfact>
</mgrwt>
</event>
<event>
 6    1  0.1045058E-005  0.1930859E+03  0.7546771E-02  0.1160322E+00
          1   -1    0    0  501    0  0.00000000000E+00  0.00000000000E+00  0.12167297440E+04  0.12167297440E+04  0.00000000000E+00 0. -1.
         -1   -1    0    0    0  501 -0.00000000000E+00 -0.00000000000E+00 -0.29787439314E+02  0.29787439314E+02  0.00000000000E+00 0.  1.
          5    1    1    2  502    0  0.33081314745E+02  0.86161499792E+02  0.20358193028E+03  0.22357519935E+03  0.47000000000E+01 0. -1.
         -5    1    1    2    0  502  0.50163741074E+02  0.35193874373E+02  0.58854390846E+03  0.59174405945E+03  0.47000000000E+01 0. -1.
        -11    1    1    2    0    0 -0.25692962671E+02 -0.14311117731E+02  0.16249024059E+02  0.33600107208E+02  0.00000000000E+00 0.  1.
         11    1    1    2    0    0 -0.57552093148E+02 -0.10704425643E+03  0.37856744191E+03  0.39759781732E+03  0.00000000000E+00 0. -1.
<mgrwt>
<rscale>  0 0.18795173E+03</rscale>
<asrwt>0</asrwt>
<pdfrwt beam="1">  1        1 0.18718915E+00 0.19308586E+03</pdfrwt>
<pdfrwt beam="2">  1       -1 0.45826839E-02 0.19308586E+03</pdfrwt>
<totfact> 0.22304480E+03</totfact>
</mgrwt>
</event>
<event>
 6    1  0.1045058E-005  0.5331028E+03  0.7546771E-02  0.1049434E+00
         -2   -1    0    0    0  501 -0.00000000000E+00  0.00000000000E+00  0.22825059136E+03  0.22825059136E+03  0.00000000000E+00 0.  1.
          2   -1    0    0  501    0  0.00000000000E+00 -0.00000000000E+00 -0.85747461631E+03  0.85747461631E+03  0.00000000000E+00 0. -1.
          5    1    1    2  502    0  0.64445446768E+01 -0.19667188092E+03 -0.67906586529E+03  0.70701760961E+03  0.47000000000E+01 0. -1.
         -5    1    1    2    0  502  0.10277773249E+03  0.16301418936E+03 -0.55478327476E+02  0.20059118388E+03  0.47000000000E+01 0.  1.
        -11    1    1    2    0    0 -0.18186657295E+02  0.30838618381E+02  0.73293642521E+02  0.81570416949E+02  0.00000000000E+00 0. -1.
         11    1    1    2    0    0 -0.91035619877E+02  0.28190731757E+01  0.32026525294E+02  0.96545997236E+02  0.00000000000E+00 0.  1.
<mgrwt>
<rscale>  0 0.38408629E+03</rscale>
<asrwt>0</asrwt>
<pdfrwt beam="2">  1        2 0.13191917E+00 0.53310276E+03</pdfrwt>
<pdfrwt beam="1">  1       -2 0.35115476E-01 0.53310276E+03</pdfrwt>
<totfact> 0.24383472E+02</totfact>
</mgrwt>
</event>
<event>
 6    1  0.1045058E-005  0.1533510E+03  0.7546771E-02  0.1204267E+00
         -2   -1    0    0    0  501 -0.00000000000E+00  0.00000000000E+00  0.68171619855E+02  0.68171619855E+02  0.00000000000E+00 0.  1.
          2   -1    0    0  501    0  0.00000000000E+00 -0.00000000000E+00 -0.46404285761E+03  0.46404285761E+03  0.00000000000E+00 0. -1.
          5    1    1    2  502    0  0.80440392161E+01  0.48195255700E+02 -0.14967532769E+03  0.15751915108E+03  0.47000000000E+01 0.  1.
         -5    1    1    2    0  502  0.79198443040E+02 -0.64884374835E+02 -0.22006848310E+03  0.24276450056E+03  0.47000000000E+01 0.  1.
        -11    1    1    2    0    0 -0.19224932587E+02  0.31814513153E+02  0.25613441220E+02  0.45142105082E+02  0.00000000000E+00 0.  1.
         11    1    1    2    0    0 -0.68017549669E+02 -0.15125394019E+02 -0.51740868185E+02  0.86788720741E+02  0.00000000000E+00 0. -1.
<mgrwt>
<rscale>  0 0.14695334E+03</rscale>
<asrwt>0</asrwt>
<pdfrwt beam="2">  1        2 0.71391206E-01 0.15335096E+03</pdfrwt>
<pdfrwt beam="1">  1       -2 0.10487942E-01 0.15335096E+03</pdfrwt>
<totfact> 0.40489381E+03</totfact>
</mgrwt>
</event>
<event>
 6    1  0.1045058E-005  0.1515904E+03  0.7546771E-02  0.1207771E+00
         -2   -1    0    0    0  501 -0.00000000000E+00  0.00000000000E+00  0.12554811077E+02  0.12554811077E+02  0.00000000000E+00 0.  1.
          2   -1    0    0  501    0  0.00000000000E+00 -0.00000000000E+00 -0.17188391564E+04  0.17188391564E+04  0.00000000000E+00 0. -1.
          5    1    1    2  502    0 -0.80206958986E+02 -0.24007304588E+02 -0.96920116203E+03  0.97282192071E+03  0.47000000000E+01 0.  1.
         -5    1    1    2    0  502  0.29743722263E+02 -0.45347354711E+02 -0.25613371544E+03  0.26185423765E+03  0.47000000000E+01 0.  1.
        -11    1    1    2    0    0  0.25947677835E+02 -0.18297707828E+02 -0.94353166242E+02  0.99552037029E+02  0.00000000000E+00 0.  1.
         11    1    1    2    0    0  0.24515558888E+02  0.87652367127E+02 -0.38659630161E+03  0.39716577208E+03  0.00000000000E+00 0. -1.
<mgrwt>
<rscale>  0 0.14421185E+03</rscale>
<asrwt>0</asrwt>
<pdfrwt beam="2">  1        2 0.26443681E+00 0.15159042E+03</pdfrwt>
<pdfrwt beam="1">  1       -2 0.19315093E-02 0.15159042E+03</pdfrwt>
<totfact> 0.83687204E+03</totfact>
</mgrwt>
</event>
<event>
 6    1  0.1045058E-005  0.2936777E+03  0.7546771E-02  0.1088444E+00
         -1   -1    0    0    0  501 -0.00000000000E+00  0.00000000000E+00  0.31544485064E+02  0.31544485064E+02  0.00000000000E+00 0.  1.
          1   -1    0    0  501    0  0.00000000000E+00 -0.00000000000E+00 -0.68353153271E+03  0.68353153271E+03  0.00000000000E+00 0. -1.
          5    1    1    2  502    0 -0.30297997986E+02 -0.75646785789E+01 -0.95387366854E+02  0.10047901671E+03  0.47000000000E+01 0. -1.
         -5    1    1    2    0  502  0.12532305306E+03 -0.18920996292E+01 -0.32165390012E+03  0.34524305805E+03  0.47000000000E+01 0. -1.
        -11    1    1    2    0    0 -0.52542685367E+02  0.27190273543E+02 -0.46166095108E+02  0.75042342037E+02  0.00000000000E+00 0.  1.
         11    1    1    2    0    0 -0.42482369704E+02 -0.17733495335E+02 -0.18877968556E+03  0.19431160098E+03  0.00000000000E+00 0. -1.
<mgrwt>
<rscale>  0 0.29367772E+03</rscale>
<asrwt>0</asrwt>
<pdfrwt beam="2">  1        1 0.10515870E+00 0.29367772E+03</pdfrwt>
<pdfrwt beam="1">  1       -1 0.48529977E-02 0.29367772E+03</pdfrwt>
<totfact> 0.53702955E+03</totfact>
</mgrwt>
</event>
<event>
 6    1  0.1045058E-005  0.1320414E+03  0.7546771E-02  0.1238122E+00
          1   -1    0    0  501    0  0.00000000000E+00  0.00000000000E+00  0.13689299919E+04  0.13689299919E+04  0.00000000000E+00 0. -1.
         -1   -1    0    0    0  501 -0.00000000000E+00 -0.00000000000E+00 -0.15563309333E+02  0.15563309333E+02  0.00000000000E+00 0.  1.
          5    1    1    2  502    0 -0.77055139158E+00  0.84125372977E+02  0.90008097067E+03  0.90401632501E+03  0.47000000000E+01 0.  1.
         -5    1    1    2    0  502  0.71422462310E+01 -0.42051988336E+02  0.25477221436E+03  0.25836089606E+03  0.47000000000E+01 0.  1.
        -11    1    1    2    0    0  0.40682088786E+02 -0.19767928575E+02  0.68751963123E+02  0.82296025307E+02  0.00000000000E+00 0.  1.
         11    1    1    2    0    0 -0.47053783626E+02 -0.22305456066E+02  0.12976153438E+03  0.13982005481E+03  0.00000000000E+00 0. -1.
<mgrwt>
<rscale>  0 0.12306653E+03</rscale>
<asrwt>0</asrwt>
<pdfrwt beam="1">  1        1 0.21060452E+00 0.13204138E+03</pdfrwt>
<pdfrwt beam="2">  1       -1 0.23943564E-02 0.13204138E+03</pdfrwt>
<totfact> 0.45300674E+03</totfact>
</mgrwt>
</event>
<event>
 6    1  0.1045058E-005  0.2947484E+03  0.7546771E-02  0.1117093E+00
          1   -1    0    0  501    0  0.00000000000E+00  0.00000000000E+00  0.86139417385E+02  0.86139417385E+02  0.00000000000E+00 0. -1.
         -1   -1    0    0    0  501 -0.00000000000E+00 -0.00000000000E+00 -0.56514393286E+03  0.56514393286E+03  0.00000000000E+00 0.  1.
          5    1    1    2  502    0 -0.13625590879E+03  0.14190772751E+03 -0.15305153449E+03  0.24929969518E+03  0.47000000000E+01 0. -1.
         -5    1    1    2    0  502  0.76265929187E+02 -0.56965313510E+02 -0.11234214826E+03  0.14732408892E+03  0.47000000000E+01 0.  1.
        -11    1    1    2    0    0  0.33473170046E+02  0.12648603444E+02 -0.74781166113E+02  0.82901526447E+02  0.00000000000E+00 0.  1.
         11    1    1    2    0    0  0.26516809555E+02 -0.97591017439E+02 -0.13882966661E+03  0.17175803971E+03  0.00000000000E+00 0. -1.
<mgrwt>
<rscale>  0 0.24409740E+03</rscale>
<asrwt>0</asrwt>
<pdfrwt beam="1">  1        1 0.13252218E-01 0.29474840E+03</pdfrwt>
<pdfrwt beam="2">  1       -1 0.86945219E-01 0.29474840E+03</pdfrwt>
<totfact> 0.60188063E+02</totfact>
</mgrwt>
</event>
<event>
 6    1  0.1045058E-005  0.3777137E+03  0.7546771E-02  0.1051782E+00
         -2   -1    0    0    0  501 -0.00000000000E+00  0.00000000000E+00  0.26402076614E+02  0.26402076614E+02  0.00000000000E+00 0.  1.
          2   -1    0    0  501    0  0.00000000000E+00 -0.00000000000E+00 -0.13509129106E+04  0.13509129106E+04  0.00000000000E+00 0. -1.
          5    1    1    2  502    0 -0.49043364544E+01  0.18171200534E+02 -0.10707890716E+04  0.10709647851E+04  0.47000000000E+01 0. -1.
         -5    1    1    2    0  502  0.43356951746E+02  0.20738839643E+02 -0.13690736219E+03  0.14517451759E+03  0.47000000000E+01 0.  1.
        -11    1    1    2    0    0 -0.44557031406E+02  0.21466000853E+02 -0.42322767570E+02  0.65094814656E+02  0.00000000000E+00 0.  1.
         11    1    1    2    0    0  0.61044161144E+01 -0.60376041030E+02 -0.74491632634E+02  0.96080869891E+02  0.00000000000E+00 0. -1.
<mgrwt>
<rscale>  0 0.37771368E+03</rscale>
<asrwt>0</asrwt>
<pdfrwt beam="2">  1        2 0.20783278E+00 0.37771368E+03</pdfrwt>
<pdfrwt beam="1">  1       -2 0.40618575E-02 0.37771368E+03</pdfrwt>
<totfact> 0.44291346E+03</totfact>
</mgrwt>
</event>
<event>
 6    1  0.1045058E-005  0.1425848E+03  0.7546771E-02  0.1220244E+00
          1   -1    0    0  501    0  0.00000000000E+00  0.00000000000E+00  0.34009241631E+03  0.34009241631E+03  0.00000000000E+00 0. -1.
         -1   -1    0    0    0  501 -0.00000000000E+00 -0.00000000000E+00 -0.52811289660E+02  0.52811289660E+02  0.00000000000E+00 0.  1.
          5    1    1    2  502    0 -0.45070455813E+01 -0.12502403429E+02 -0.13440961502E+02  0.19477499775E+02  0.47000000000E+01 0. -1.
         -5    1    1    2    0  502 -0.61267958675E+02  0.32026353608E+02  0.22672530039E+03  0.23707783937E+03  0.47000000000E+01 0. -1.
        -11    1    1    2    0    0 -0.10167279462E+02  0.87837294878E+01 -0.12117729147E+02  0.18093281489E+02  0.00000000000E+00 0.  1.
         11    1    1    2    0    0  0.75942283718E+02 -0.28307679667E+02  0.86114516911E+02  0.11825508533E+03  0.00000000000E+00 0. -1.
<mgrwt>
<rscale>  0 0.13498250E+03</rscale>
<asrwt>0</asrwt>
<pdfrwt beam="1">  1        1 0.52321909E-01 0.14258483E+03</pdfrwt>
<pdfrwt beam="2">  1       -1 0.81248140E-02 0.14258483E+03</pdfrwt>
<totfact> 0.60218684E+03</totfact>
</mgrwt>
</event>
<event>
 6    1  0.1045058E-005  0.1370801E+03  0.7546771E-02  0.1224052E+00
          1   -1    0    0  501    0  0.00000000000E+00  0.00000000000E+00  0.73038495992E+03  0.73038495992E+03  0.00000000000E+00 0. -1.
         -1   -1    0    0    0  501 -0.00000000000E+00 -0.00000000000E+00 -0.23087797453E+02  0.23087797453E+02  0.00000000000E+00 0.  1.
          5    1    1    2  502    0  0.65745118769E+02 -0.32858291535E+02  0.27183204215E+03  0.28163245037E+03  0.47000000000E+01 0.  1.
         -5    1    1    2    0  502  0.62908920545E+01  0.61503534356E+02  0.16862444027E+03  0.17966232749E+03  0.47000000000E+01 0. -1.
        -11    1    1    2    0    0 -0.25005866361E+02 -0.20837647269E+02  0.14956213131E+02  0.35821630441E+02  0.00000000000E+00 0.  1.
         11    1    1    2    0    0 -0.47030144462E+02 -0.78075955518E+01  0.25188446691E+03  0.25635634907E+03  0.00000000000E+00 0. -1.
<mgrwt>
<rscale>  0 0.13232112E+03</rscale>
<asrwt>0</asrwt>
<pdfrwt beam="1">  1        1 0.11236690E+00 0.13708012E+03</pdfrwt>
<pdfrwt beam="2">  1       -1 0.35519694E-02 0.13708012E+03</pdfrwt>
<totfact> 0.74902310E+03</totfact>
</mgrwt>
</event>
<event>
 6    1  0.1045058E-005  0.1337095E+03  0.7546771E-02  0.1235789E+00
         -2   -1    0    0    0  501 -0.00000000000E+00  0.00000000000E+00  0.46139712993E+02  0.46139712993E+02  0.00000000000E+00 0.  1.
          2   -1    0    0  501    0  0.00000000000E+00 -0.00000000000E+00 -0.38048496922E+03  0.38048496922E+03  0.00000000000E+00 0. -1.
          5    1    1    2  502    0 -0.18760669511E+02 -0.11013564319E+02 -0.26818179470E+03  0.26910374641E+03  0.47000000000E+01 0. -1.
         -5    1    1    2    0  502  0.20719149043E+02 -0.36419278934E+02 -0.16245762626E+02  0.45184752056E+02  0.47000000000E+01 0. -1.
        -11    1    1    2    0    0  0.32225145414E+02  0.27998071300E+01  0.61624254332E+01  0.32928322218E+02  0.00000000000E+00 0.  1.
         11    1    1    2    0    0 -0.34183624946E+02  0.44633036123E+02 -0.56080124327E+02  0.79407861528E+02  0.00000000000E+00 0. -1.
<mgrwt>
<rscale>  0 0.12454038E+03</rscale>
<asrwt>0</asrwt>
<pdfrwt beam="2">  1        2 0.58536147E-01 0.13370948E+03</pdfrwt>
<pdfrwt beam="1">  1       -2 0.70984177E-02 0.13370948E+03</pdfrwt>
<totfact> 0.91293805E+03</totfact>
</mgrwt>
</event>
<event>
 6    1  0.1045058E-005  0.2480472E+03  0.7546771E-02  0.1114545E+00
          2   -1    0    0  501    0  0.00000000000E+00  0.00000000000E+00  0.41133255547E+03  0.41133255547E+03  0.00000000000E+00 0. -1.
         -2   -1    0    0    0  501 -0.00000000000E+00 -0.00000000000E+00 -0.37395163053E+02  0.37395163053E+02  0.00000000000E+00 0.  1.
          5    1    1    2  502    0  0.91542842872E+01  0.97120403586E+01  0.16892264651E+03  0.16951423290E+03  0.47000000000E+01 0.  1.
         -5    1    1    2    0  502 -0.58352626836E+02 -0.42299737718E+02  0.44712848436E+02  0.84944839072E+02  0.47000000000E+01 0.  1.
        -11    1    1    2    0    0 -0.18296003232E+02  0.35946727175E+02  0.77700139531E+02  0.87545545929E+02  0.00000000000E+00 0. -1.
         11    1    1    2    0    0  0.67494345780E+02 -0.33590298153E+01  0.82601757940E+02  0.10672310063E+03  0.00000000000E+00 0.  1.
<mgrwt>
<rscale>  0 0.24804716E+03</rscale>
<asrwt>0</asrwt>
<pdfrwt beam="1">  1        2 0.63281928E-01 0.24804716E+03</pdfrwt>
<pdfrwt beam="2">  1       -2 0.57531023E-02 0.24804716E+03</pdfrwt>
<totfact> 0.12062636E+04</totfact>
</mgrwt>
</event>
<event>
 6    1  0.1045058E-005  0.1624950E+03  0.7546771E-02  0.1194358E+00
          2   -1    0    0  501    0  0.00000000000E+00  0.00000000000E+00  0.63641403659E+03  0.63641403659E+03  0.00000000000E+00 0. -1.
         -2   -1    0    0    0  501 -0.00000000000E+00 -0.00000000000E+00 -0.38677896186E+02  0.38677896186E+02  0.00000000000E+00 0.  1.
          5    1    1    2  502    0  0.34570191579E+02  0.48047497581E+02  0.31731293554E+03  0.32282076952E+03  0.47000000000E+01 0.  1.
         -5    1    1    2    0  502  0.68624678262E+02 -0.36612095362E+02  0.11400047503E+03  0.13808689402E+03  0.47000000000E+01 0.  1.
        -11    1    1    2    0    0 -0.86696402912E+02 -0.44782341408E+02  0.11804795973E+03  0.15315692990E+03  0.00000000000E+00 0.  1.
         11    1    1    2    0    0 -0.16498466929E+02  0.33346939189E+02  0.48374770099E+02  0.61027339336E+02  0.00000000000E+00 0. -1.
<mgrwt>
<rscale>  0 0.15508662E+03</rscale>
<asrwt>0</asrwt>
<pdfrwt beam="1">  1        2 0.97909844E-01 0.16249497E+03</pdfrwt>
<pdfrwt beam="2">  1       -2 0.59504460E-02 0.16249497E+03</pdfrwt>
<totfact> 0.68556023E+03</totfact>
</mgrwt>
</event>
<event>
 6    1  0.1045058E-005  0.2756103E+03  0.7546771E-02  0.1098111E+00
         -4   -1    0    0    0  501 -0.00000000000E+00  0.00000000000E+00  0.96768227326E+02  0.96768227326E+02  0.00000000000E+00 0.  1.
          4   -1    0    0  501    0  0.00000000000E+00 -0.00000000000E+00 -0.19624474394E+03  0.19624474394E+03  0.00000000000E+00 0. -1.
          5    1    1    2  502    0  0.64489080764E+00  0.32429475418E+01 -0.11317289986E+03  0.11331870038E+03  0.47000000000E+01 0.  1.
         -5    1    1    2    0  502  0.65694159975E+02 -0.39691642221E+01  0.29623330979E+01  0.66048030530E+02  0.47000000000E+01 0.  1.
        -11    1    1    2    0    0 -0.88473191117E+02  0.23256464008E+01  0.17959833056E+02  0.90307639660E+02  0.00000000000E+00 0.  1.
         11    1    1    2    0    0  0.22134140334E+02 -0.15994297205E+01 -0.72257829044E+01  0.23338600694E+02  0.00000000000E+00 0. -1.
<mgrwt>
<rscale>  0 0.27561028E+03</rscale>
<asrwt>0</asrwt>
<pdfrwt beam="2">  1        4 0.30191499E-01 0.27561028E+03</pdfrwt>
<pdfrwt beam="1">  1       -4 0.14887420E-01 0.27561028E+03</pdfrwt>
<totfact> 0.75261840E+02</totfact>
</mgrwt>
</event>
<event>
 6    1  0.1045058E-005  0.2730820E+03  0.7546771E-02  0.1099529E+00
         -2   -1    0    0    0  501 -0.00000000000E+00  0.00000000000E+00  0.15273353061E+03  0.15273353061E+03  0.00000000000E+00 0.  1.
          2   -1    0    0  501    0  0.00000000000E+00 -0.00000000000E+00 -0.12206514933E+03  0.12206514933E+03  0.00000000000E+00 0. -1.
          5    1    1    2  502    0  0.19455143935E+02  0.37464251037E+02 -0.44745168718E+01  0.42710467482E+02  0.47000000000E+01 0. -1.
         -5    1    1    2    0  502  0.31459464580E+02 -0.10165812485E+03  0.74934398274E+01  0.10678161780E+03  0.47000000000E+01 0. -1.
        -11    1    1    2    0    0  0.14611643353E+02  0.50964016541E+02  0.13578425118E+00  0.53017445628E+02  0.00000000000E+00 0. -1.
         11    1    1    2    0    0 -0.65526251868E+02  0.13229857270E+02  0.27513674070E+02  0.72289149034E+02  0.00000000000E+00 0.  1.
<mgrwt>
<rscale>  0 0.27308197E+03</rscale>
<asrwt>0</asrwt>
<pdfrwt beam="2">  1        2 0.18779254E-01 0.27308197E+03</pdfrwt>
<pdfrwt beam="1">  1       -2 0.23497466E-01 0.27308197E+03</pdfrwt>
<totfact> 0.47077985E+03</totfact>
</mgrwt>
</event>
<event>
 6    1  0.1045058E-005  0.3492318E+03  0.7546771E-02  0.1062931E+00
          2   -1    0    0  501    0  0.00000000000E+00  0.00000000000E+00  0.81643035874E+02  0.81643035874E+02  0.00000000000E+00 0. -1.
         -2   -1    0    0    0  501 -0.00000000000E+00 -0.00000000000E+00 -0.37346375933E+03  0.37346375933E+03  0.00000000000E+00 0.  1.
          5    1    1    2  502    0 -0.12971095699E+02 -0.18279704919E+02 -0.44342951827E+02  0.49907758037E+02  0.47000000000E+01 0. -1.
         -5    1    1    2    0  502 -0.23872953285E+02  0.92893379849E+02  0.30854897507E+02  0.10086234490E+03  0.47000000000E+01 0. -1.
        -11    1    1    2    0    0  0.35511539136E+02 -0.48149830821E+02 -0.27001593744E+03  0.27656478823E+03  0.00000000000E+00 0.  1.
         11    1    1    2    0    0  0.13325098471E+01 -0.26463844109E+02 -0.83167316953E+01  0.27771904032E+02  0.00000000000E+00 0. -1.
<mgrwt>
<rscale>  0 0.34923181E+03</rscale>
<asrwt>0</asrwt>
<pdfrwt beam="1">  1        2 0.12560467E-01 0.34923181E+03</pdfrwt>
<pdfrwt beam="2">  1       -2 0.57455961E-01 0.34923181E+03</pdfrwt>
<totfact> 0.14052160E+03</totfact>
</mgrwt>
</event>
<event>
 6    1  0.1045058E-005  0.1818764E+03  0.7546771E-02  0.1170568E+00
          3   -1    0    0  501    0  0.00000000000E+00  0.00000000000E+00  0.10947613749E+03  0.10947613749E+03  0.00000000000E+00 0. -1.
         -3   -1    0    0    0  501 -0.00000000000E+00 -0.00000000000E+00 -0.38808648342E+03  0.38808648342E+03  0.00000000000E+00 0.  1.
          5    1    1    2  502    0 -0.53829412711E+02 -0.10826780505E+02 -0.47919862744E+02  0.73028953808E+02  0.47000000000E+01 0.  1.
         -5    1    1    2    0  502 -0.17735183583E+02 -0.10022020213E+03  0.38928806373E+02  0.10906955404E+03  0.47000000000E+01 0.  1.
        -11    1    1    2    0    0  0.78961674646E+02  0.88178157966E+02 -0.26601459828E+03  0.29115992187E+03  0.00000000000E+00 0.  1.
         11    1    1    2    0    0 -0.73970783518E+01  0.22868824672E+02 -0.36046912794E+01  0.24304191186E+02  0.00000000000E+00 0. -1.
<mgrwt>
<rscale>  0 0.17717228E+03</rscale>
<asrwt>0</asrwt>
<pdfrwt beam="1">  1        3 0.16842483E-01 0.18187641E+03</pdfrwt>
<pdfrwt beam="2">  1       -3 0.59705612E-01 0.18187641E+03</pdfrwt>
<totfact> 0.20410826E+02</totfact>
</mgrwt>
</event>
<event>
 6    1  0.1045058E-005  0.1461224E+03  0.7546771E-02  0.1215049E+00
         -4   -1    0    0    0  501 -0.00000000000E+00  0.00000000000E+00  0.35188189899E+03  0.35188189899E+03  0.00000000000E+00 0. -1.
          4   -1    0    0  501    0  0.00000000000E+00 -0.00000000000E+00 -0.50000822832E+02  0.50000822832E+02  0.00000000000E+00 0.  1.
          5    1    1    2  502    0 -0.96508109202E+02  0.30321734672E+02  0.13160074711E+03  0.16605441691E+03  0.47000000000E+01 0.  1.
         -5    1    1    2    0  502  0.20821769225E+02 -0.34649350427E+02  0.23313160046E+02  0.46901140604E+02  0.47000000000E+01 0.  1.
        -11    1    1    2    0    0  0.22906592576E+02  0.38515357204E+02  0.10262081439E+03  0.11197846342E+03  0.00000000000E+00 0. -1.
         11    1    1    2    0    0  0.52779747401E+02 -0.34187741449E+02  0.44346354617E+02  0.76948700892E+02  0.00000000000E+00 0.  1.
<mgrwt>
<rscale>  0 0.13872902E+03</rscale>
<asrwt>0</asrwt>
<pdfrwt beam="2">  1        4 0.76924345E-02 0.14612238E+03</pdfrwt>
<pdfrwt beam="1">  1       -4 0.54135675E-01 0.14612238E+03</pdfrwt>
<totfact> 0.65227146E+02</totfact>
</mgrwt>
</event>
<event>
 6    1  0.1428928E-005  0.1917325E+03  0.7546771E-02  0.1161338E+00
         -1   -1    0    0    0  501 -0.00000000000E+00  0.00000000000E+00  0.40354778582E+02  0.40354778582E+02  0.00000000000E+00 0.  1.
          1   -1    0    0  501    0  0.00000000000E+00 -0.00000000000E+00 -0.82485623597E+03  0.82485623597E+03  0.00000000000E+00 0. -1.
          5    1    1    2  502    0 -0.47083275009E+02 -0.26103113834E+02 -0.85290888699E+02  0.10096946584E+03  0.47000000000E+01 0.  1.
         -5    1    1    2    0  502 -0.64747735419E+02  0.11900200635E+03 -0.31144698915E+03  0.33966905042E+03  0.47000000000E+01 0.  1.
        -11    1    1    2    0    0  0.10653613325E+03 -0.41596408021E+02 -0.31706126809E+03  0.33705794246E+03  0.00000000000E+00 0. -1.
         11    1    1    2    0    0  0.52948771727E+01 -0.51302484498E+02 -0.70702311446E+02  0.87514555839E+02  0.00000000000E+00 0.  1.
<mgrwt>
<rscale>  0 0.18684562E+03</rscale>
<asrwt>0</asrwt>
<pdfrwt beam="2">  1        1 0.12690096E+00 0.19173252E+03</pdfrwt>
<pdfrwt beam="1">  1       -1 0.62084277E-02 0.19173252E+03</pdfrwt>
<totfact> 0.27630774E+03</totfact>
</mgrwt>
</event>
<event>
 6    1  0.1045058E-005  0.2273430E+03  0.7546771E-02  0.1131685E+00
          1   -1    0    0  501    0  0.00000000000E+00  0.00000000000E+00  0.17201575302E+03  0.17201575302E+03  0.00000000000E+00 0. -1.
         -1   -1    0    0    0  501 -0.00000000000E+00 -0.00000000000E+00 -0.28537426418E+03  0.28537426418E+03  0.00000000000E+00 0.  1.
          5    1    1    2  502    0  0.15509179495E+02 -0.21919842129E+01 -0.30723666234E+02  0.34804785738E+02  0.47000000000E+01 0.  1.
         -5    1    1    2    0  502 -0.77807895865E+02 -0.17718703966E+03  0.75056890105E+01  0.19372078115E+03  0.47000000000E+01 0.  1.
        -11    1    1    2    0    0  0.60605869248E+02  0.45177928081E+02 -0.24517459197E+02  0.79468373448E+02  0.00000000000E+00 0. -1.
         11    1    1    2    0    0  0.16928471224E+01  0.13420109579E+03 -0.65623074740E+02  0.14939607686E+03  0.00000000000E+00 0.  1.
<mgrwt>
<rscale>  0 0.22297432E+03</rscale>
<asrwt>0</asrwt>
<pdfrwt beam="1">  1        1 0.26463962E-01 0.22734305E+03</pdfrwt>
<pdfrwt beam="2">  1       -1 0.43903732E-01 0.22734305E+03</pdfrwt>
<totfact> 0.92738363E+02</totfact>
</mgrwt>
</event>
<event>
 6    1  0.1045058E-005  0.1254917E+03  0.7546771E-02  0.1247718E+00
          2   -1    0    0  501    0  0.00000000000E+00  0.00000000000E+00  0.87880684989E+03  0.87880684989E+03  0.00000000000E+00 0. -1.
         -2   -1    0    0    0  501 -0.00000000000E+00 -0.00000000000E+00 -0.16420304618E+02  0.16420304618E+02  0.00000000000E+00 0.  1.
          5    1    1    2  502    0  0.27538945502E+02 -0.47026627804E+02  0.15142084752E+03  0.16099770279E+03  0.47000000000E+01 0. -1.
         -5    1    1    2    0  502 -0.16516004716E+02  0.45524505406E+02  0.50291813687E+03  0.50526626782E+03  0.47000000000E+01 0. -1.
        -11    1    1    2    0    0 -0.46583013053E+02 -0.19371349647E+02  0.14593990020E+03  0.15441399148E+03  0.00000000000E+00 0. -1.
         11    1    1    2    0    0  0.35560072267E+02  0.20873472046E+02  0.62107660685E+02  0.74549192421E+02  0.00000000000E+00 0.  1.
<mgrwt>
<rscale>  0 0.11724158E+03</rscale>
<asrwt>0</asrwt>
<pdfrwt beam="1">  1        2 0.13520102E+00 0.12549172E+03</pdfrwt>
<pdfrwt beam="2">  1       -2 0.25262014E-02 0.12549172E+03</pdfrwt>
<totfact> 0.16278415E+04</totfact>
</mgrwt>
</event>
<event>
 6    1  0.1045058E-005  0.1317255E+03  0.7546771E-02  0.1238043E+00
          2   -1    0    0  501    0  0.00000000000E+00  0.00000000000E+00  0.11187270055E+03  0.11187270055E+03  0.00000000000E+00 0. -1.
         -2   -1    0    0    0  501 -0.00000000000E+00 -0.00000000000E+00 -0.12098294442E+03  0.12098294442E+03  0.00000000000E+00 0.  1.
          5    1    1    2  502    0 -0.23426824331E+02 -0.26479054784E+02 -0.66233215097E+02  0.75225562295E+02  0.47000000000E+01 0. -1.
         -5    1    1    2    0  502 -0.14693139314E+02  0.99268479804E+01  0.54034559482E+02  0.57063598485E+02  0.47000000000E+01 0. -1.
        -11    1    1    2    0    0  0.45590756936E+02  0.42960302438E+02 -0.18865100840E+02  0.65421683969E+02  0.00000000000E+00 0.  1.
         11    1    1    2    0    0 -0.74707932913E+01 -0.26408095634E+02  0.21953512587E+02  0.35144800217E+02  0.00000000000E+00 0. -1.
<mgrwt>
<rscale>  0 0.12311602E+03</rscale>
<asrwt>0</asrwt>
<pdfrwt beam="1">  1        2 0.17211185E-01 0.13172553E+03</pdfrwt>
<pdfrwt beam="2">  1       -2 0.18612761E-01 0.13172553E+03</pdfrwt>
<totfact> 0.74267454E+03</totfact>
</mgrwt>
</event>
<event>
 6    1  0.1045058E-005  0.3924344E+03  0.7546771E-02  0.1046431E+00
         -1   -1    0    0    0  501 -0.00000000000E+00  0.00000000000E+00  0.85605177430E+03  0.85605177430E+03  0.00000000000E+00 0.  1.
          1   -1    0    0  501    0  0.00000000000E+00 -0.00000000000E+00 -0.44975310224E+02  0.44975310224E+02  0.00000000000E+00 0. -1.
          5    1    1    2  502    0 -0.15162135921E+02  0.16161048080E+02  0.95985810552E+02  0.98622693474E+02  0.47000000000E+01 0. -1.
         -5    1    1    2    0  502  0.17128276395E+03  0.43335713930E+02  0.36870079576E+03  0.40887423020E+03  0.47000000000E+01 0.  1.
        -11    1    1    2    0    0 -0.11175000421E+03 -0.74660294955E+02  0.21017889146E+03  0.24947422613E+03  0.00000000000E+00 0. -1.
         11    1    1    2    0    0 -0.44370623815E+02  0.15163532944E+02  0.13621096631E+03  0.14405593473E+03  0.00000000000E+00 0.  1.
<mgrwt>
<rscale>  0 0.39243442E+03</rscale>
<asrwt>0</asrwt>
<pdfrwt beam="2">  1        1 0.69192791E-02 0.39243442E+03</pdfrwt>
<pdfrwt beam="1">  1       -1 0.13170026E+00 0.39243442E+03</pdfrwt>
<totfact> 0.55976761E+02</totfact>
</mgrwt>
</event>
<event>
 6    1  0.1045058E-005  0.2577949E+03  0.7546771E-02  0.1149042E+00
          1   -1    0    0  501    0  0.00000000000E+00  0.00000000000E+00  0.25574354671E+03  0.25574354671E+03  0.00000000000E+00 0. -1.
         -1   -1    0    0    0  501 -0.00000000000E+00 -0.00000000000E+00 -0.18065726212E+03  0.18065726212E+03  0.00000000000E+00 0.  1.
          5    1    1    2  502    0  0.61963098135E+02  0.66424479901E+02  0.19069772884E+03  0.21128026611E+03  0.47000000000E+01 0. -1.
         -5    1    1    2    0  502 -0.80809932959E+02 -0.41455751777E+02 -0.26056413157E+02  0.94603653665E+02  0.47000000000E+01 0.  1.
        -11    1    1    2    0    0  0.54874401859E+02 -0.10876077517E+02 -0.58131384670E+02  0.80676805373E+02  0.00000000000E+00 0. -1.
         11    1    1    2    0    0 -0.36027567035E+02 -0.14092650607E+02 -0.31423646420E+02  0.49840083687E+02  0.00000000000E+00 0.  1.
<mgrwt>
<rscale>  0 0.20082777E+03</rscale>
<asrwt>0</asrwt>
<pdfrwt beam="1">  1        1 0.39345161E-01 0.25779490E+03</pdfrwt>
<pdfrwt beam="2">  1       -1 0.27793425E-01 0.25779490E+03</pdfrwt>
<totfact> 0.12483049E+03</totfact>
</mgrwt>
</event>
<event>
 6    1  0.1045058E-005  0.1385968E+03  0.7546771E-02  0.1227171E+00
         -1   -1    0    0    0  501 -0.00000000000E+00  0.00000000000E+00  0.49370941309E+02  0.49370941309E+02  0.00000000000E+00 0.  1.
          1   -1    0    0  501    0  0.00000000000E+00 -0.00000000000E+00 -0.32713303997E+03  0.32713303997E+03  0.00000000000E+00 0. -1.
          5    1    1    2  502    0 -0.34329933804E+02 -0.17505058256E+02 -0.35929115827E+02  0.52895772833E+02  0.47000000000E+01 0.  1.
         -5    1    1    2    0  502  0.94071919608E+02  0.21535065607E+02 -0.16474730062E+03  0.19098965462E+03  0.47000000000E+01 0.  1.
        -11    1    1    2    0    0 -0.58739812639E+02 -0.40151976256E+02 -0.44226289807E+02  0.83776556961E+02  0.00000000000E+00 0.  1.
         11    1    1    2    0    0 -0.10021731653E+01  0.36121968905E+02 -0.32859392406E+02  0.48841996867E+02  0.00000000000E+00 0. -1.
<mgrwt>
<rscale>  0 0.13019209E+03</rscale>
<asrwt>0</asrwt>
<pdfrwt beam="2">  1        1 0.50328160E-01 0.13859682E+03</pdfrwt>
<pdfrwt beam="1">  1       -1 0.75955294E-02 0.13859682E+03</pdfrwt>
<totfact> 0.69841152E+03</totfact>
</mgrwt>
</event>
<event>
 6    1  0.1045058E-005  0.3687339E+03  0.7546771E-02  0.1055178E+00
          1   -1    0    0  501    0  0.00000000000E+00  0.00000000000E+00  0.19545874864E+03  0.19545874864E+03  0.00000000000E+00 0. -1.
         -1   -1    0    0    0  501 -0.00000000000E+00 -0.00000000000E+00 -0.17390461187E+03  0.17390461187E+03  0.00000000000E+00 0.  1.
          5    1    1    2  502    0  0.15096758388E+02  0.40631996776E+01 -0.33151871520E+02  0.36953461147E+02  0.47000000000E+01 0.  1.
         -5    1    1    2    0  502  0.11907525488E+03 -0.25744725987E+02  0.10598789957E+03  0.16154637754E+03  0.47000000000E+01 0.  1.
        -11    1    1    2    0    0 -0.32298130214E+02 -0.21235920290E+02  0.15574646325E+02  0.41673770336E+02  0.00000000000E+00 0. -1.
         11    1    1    2    0    0 -0.10187388305E+03  0.42917446599E+02 -0.66856537603E+02  0.12918975149E+03  0.00000000000E+00 0.  1.
<mgrwt>
<rscale>  0 0.36873393E+03</rscale>
<asrwt>0</asrwt>
<pdfrwt beam="1">  1        1 0.30070577E-01 0.36873393E+03</pdfrwt>
<pdfrwt beam="2">  1       -1 0.26754556E-01 0.36873393E+03</pdfrwt>
<totfact> 0.18837301E+03</totfact>
</mgrwt>
</event>
<event>
 6    1  0.1045058E-005  0.1440522E+03  0.7546771E-02  0.1218809E+00
          2   -1    0    0  501    0  0.00000000000E+00  0.00000000000E+00  0.37754942751E+03  0.37754942751E+03  0.00000000000E+00 0. -1.
         -2   -1    0    0    0  501 -0.00000000000E+00 -0.00000000000E+00 -0.27288057058E+03  0.27288057058E+03  0.00000000000E+00 0.  1.
          5    1    1    2  502    0  0.29316588509E+02  0.50148588027E+02  0.24688866029E+03  0.25367389267E+03  0.47000000000E+01 0. -1.
         -5    1    1    2    0  502  0.39670401655E+02 -0.58021748207E+02  0.10378102598E+03  0.12543067960E+03  0.47000000000E+01 0.  1.
        -11    1    1    2    0    0 -0.63796494949E+02 -0.32031968825E+02 -0.18450147285E+03  0.19783031436E+03  0.00000000000E+00 0.  1.
         11    1    1    2    0    0 -0.51904952149E+01  0.39905129005E+02 -0.61499356487E+02  0.73495111469E+02  0.00000000000E+00 0. -1.
<mgrwt>
<rscale>  0 0.13600454E+03</rscale>
<asrwt>0</asrwt>
<pdfrwt beam="1">  1        2 0.58084527E-01 0.14405224E+03</pdfrwt>
<pdfrwt beam="2">  1       -2 0.41981626E-01 0.14405224E+03</pdfrwt>
<totfact> 0.46461760E+02</totfact>
</mgrwt>
</event>
<event>
 6    1  0.1045058E-005  0.1487391E+03  0.7546771E-02  0.1211192E+00
         -4   -1    0    0    0  501 -0.00000000000E+00  0.00000000000E+00  0.10531135840E+03  0.10531135840E+03  0.00000000000E+00 0.  1.
          4   -1    0    0  501    0  0.00000000000E+00 -0.00000000000E+00 -0.36577403208E+03  0.36577403208E+03  0.00000000000E+00 0. -1.
          5    1    1    2  502    0 -0.69805305744E+02 -0.21613319862E+02 -0.30037519094E+03  0.30917189658E+03  0.47000000000E+01 0.  1.
         -5    1    1    2    0  502 -0.10494539618E+02  0.28593713869E+02 -0.59972435101E+01  0.31397336899E+02  0.47000000000E+01 0.  1.
        -11    1    1    2    0    0  0.57459008427E+02 -0.42096060903E+02  0.51992454298E+02  0.88186344163E+02  0.00000000000E+00 0. -1.
         11    1    1    2    0    0  0.22840836936E+02  0.35115666897E+02 -0.60826935343E+01  0.42329812829E+02  0.00000000000E+00 0.  1.
<mgrwt>
<rscale>  0 0.14160046E+03</rscale>
<asrwt>0</asrwt>
<pdfrwt beam="2">  1        4 0.56272929E-01 0.14873915E+03</pdfrwt>
<pdfrwt beam="1">  1       -4 0.16201747E-01 0.14873915E+03</pdfrwt>
<totfact> 0.16959358E+02</totfact>
</mgrwt>
</event>
<event>
 6    1  0.1045058E-005  0.3903895E+03  0.7546771E-02  0.1047159E+00
         -2   -1    0    0    0  501 -0.00000000000E+00  0.00000000000E+00  0.19930973856E+02  0.19930973856E+02  0.00000000000E+00 0.  1.
          2   -1    0    0  501    0  0.00000000000E+00 -0.00000000000E+00 -0.19116467541E+04  0.19116467541E+04  0.00000000000E+00 0. -1.
          5    1    1    2  502    0 -0.13583023686E+03 -0.89534600848E+02 -0.10096314934E+04  0.10226652143E+04  0.47000000000E+01 0.  1.
         -5    1    1    2    0  502  0.95473449098E+01 -0.12231381682E+02 -0.14545614568E+02  0.21781262494E+02  0.47000000000E+01 0.  1.
        -11    1    1    2    0    0  0.71469345728E+01  0.26958277552E+02 -0.47246739833E+02  0.54864212627E+02  0.00000000000E+00 0.  1.
         11    1    1    2    0    0  0.11913595738E+03  0.74807704978E+02 -0.82029193238E+03  0.83226703851E+03  0.00000000000E+00 0. -1.
<mgrwt>
<rscale>  0 0.39038945E+03</rscale>
<asrwt>0</asrwt>
<pdfrwt beam="2">  1        2 0.29409940E+00 0.39038945E+03</pdfrwt>
<pdfrwt beam="1">  1       -2 0.30663047E-02 0.39038945E+03</pdfrwt>
<totfact> 0.33792069E+03</totfact>
</mgrwt>
</event>
<event>
 6    1  0.1045058E-005  0.1535283E+03  0.7546771E-02  0.1205016E+00
         -1   -1    0    0    0  501 -0.00000000000E+00  0.00000000000E+00  0.33368077932E+02  0.33368077932E+02  0.00000000000E+00 0.  1.
          1   -1    0    0  501    0  0.00000000000E+00 -0.00000000000E+00 -0.93415440934E+03  0.93415440934E+03  0.00000000000E+00 0. -1.
          5    1    1    2  502    0  0.10291075478E+03 -0.38821674162E+02 -0.51611473882E+03  0.52772555317E+03  0.47000000000E+01 0. -1.
         -5    1    1    2    0  502 -0.13842101146E+02  0.39965023059E+02 -0.25463091548E+03  0.25816235192E+03  0.47000000000E+01 0. -1.
        -11    1    1    2    0    0 -0.75530895243E+02 -0.38907818370E+02 -0.10167831443E+03  0.13250363803E+03  0.00000000000E+00 0. -1.
         11    1    1    2    0    0 -0.13537758386E+02  0.37764469473E+02 -0.28362362674E+02  0.49130944151E+02  0.00000000000E+00 0.  1.
<mgrwt>
<rscale>  0 0.14636219E+03</rscale>
<asrwt>0</asrwt>
<pdfrwt beam="2">  1        1 0.14371607E+00 0.15352829E+03</pdfrwt>
<pdfrwt beam="1">  1       -1 0.51335501E-02 0.15352829E+03</pdfrwt>
<totfact> 0.29969460E+03</totfact>
</mgrwt>
</event>
<event>
 6    1  0.1045058E-005  0.2348060E+03  0.7546771E-02  0.1126258E+00
         -3   -1    0    0    0  501 -0.00000000000E+00  0.00000000000E+00  0.56536709947E+03  0.56536709947E+03  0.00000000000E+00 0.  1.
          3   -1    0    0  501    0  0.00000000000E+00 -0.00000000000E+00 -0.95172148972E+02  0.95172148972E+02  0.00000000000E+00 0. -1.
          5    1    1    2  502    0  0.78418828876E+02  0.13340127761E+03  0.12876078604E+03  0.20136246823E+03  0.47000000000E+01 0.  1.
         -5    1    1    2    0  502  0.30423672054E+02  0.32915840112E+02  0.18569990381E+03  0.19109054563E+03  0.47000000000E+01 0.  1.
        -11    1    1    2    0    0 -0.12091860621E+03 -0.12025964973E+03  0.11913073797E+03  0.20802842453E+03  0.00000000000E+00 0. -1.
         11    1    1    2    0    0  0.12076105282E+02 -0.46057467991E+02  0.36603522680E+02  0.60057810059E+02  0.00000000000E+00 0.  1.
<mgrwt>
<rscale>  0 0.23054313E+03</rscale>
<asrwt>0</asrwt>
<pdfrwt beam="2">  1        3 0.14641869E-01 0.23480597E+03</pdfrwt>
<pdfrwt beam="1">  1       -3 0.86979552E-01 0.23480597E+03</pdfrwt>
<totfact> 0.11884662E+02</totfact>
</mgrwt>
</event>
<event>
 6    1  0.1045058E-005  0.1542032E+03  0.7546771E-02  0.1204303E+00
         -1   -1    0    0    0  501 -0.00000000000E+00  0.00000000000E+00  0.19599162148E+02  0.19599162148E+02  0.00000000000E+00 0.  1.
          1   -1    0    0  501    0  0.00000000000E+00 -0.00000000000E+00 -0.15931271747E+04  0.15931271747E+04  0.00000000000E+00 0. -1.
          5    1    1    2  502    0  0.79747075369E+02 -0.62586195403E+02 -0.68282424317E+03  0.69032431867E+03  0.47000000000E+01 0.  1.
         -5    1    1    2    0  502 -0.39088696253E+02 -0.18029782788E+02 -0.63869171097E+03  0.64015794216E+03  0.47000000000E+01 0.  1.
        -11    1    1    2    0    0  0.78880943248E+01  0.63431063783E+01  0.43076758124E+01  0.11000595507E+02  0.00000000000E+00 0.  1.
         11    1    1    2    0    0 -0.48546473440E+02  0.74272871813E+02 -0.25631973425E+03  0.27124348054E+03  0.00000000000E+00 0. -1.
<mgrwt>
<rscale>  0 0.14692549E+03</rscale>
<asrwt>0</asrwt>
<pdfrwt beam="2">  1        1 0.24509657E+00 0.15420321E+03</pdfrwt>
<pdfrwt beam="1">  1       -1 0.30152548E-02 0.15420321E+03</pdfrwt>
<totfact> 0.23212353E+03</totfact>
</mgrwt>
</event>
<event>
 6    1  0.1045058E-005  0.2661114E+03  0.7546771E-02  0.1103526E+00
         -1   -1    0    0    0  501 -0.00000000000E+00  0.00000000000E+00  0.17771989953E+02  0.17771989953E+02  0.00000000000E+00 0.  1.
          1   -1    0    0  501    0  0.00000000000E+00 -0.00000000000E+00 -0.99616445597E+03  0.99616445597E+03  0.00000000000E+00 0. -1.
          5    1    1    2  502    0  0.80880591027E+02 -0.47967749041E+02 -0.55168529408E+03  0.55966179846E+03  0.47000000000E+01 0. -1.
         -5    1    1    2    0  502 -0.24259666959E+02 -0.36301090539E+01 -0.24891733379E+02  0.35261842313E+02  0.47000000000E+01 0. -1.
        -11    1    1    2    0    0 -0.59182521107E+02  0.17089173231E+02 -0.35759771022E+03  0.36286462076E+03  0.00000000000E+00 0. -1.
         11    1    1    2    0    0  0.25615970389E+01  0.34508684864E+02 -0.44217728338E+02  0.56148184386E+02  0.00000000000E+00 0.  1.
<mgrwt>
<rscale>  0 0.26611144E+03</rscale>
<asrwt>0</asrwt>
<pdfrwt beam="2">  1        1 0.15325606E+00 0.26611144E+03</pdfrwt>
<pdfrwt beam="1">  1       -1 0.27341525E-02 0.26611144E+03</pdfrwt>
<totfact> 0.69526839E+03</totfact>
</mgrwt>
</event>
<event>
 6    1  0.1045058E-005  0.1263429E+03  0.7546771E-02  0.1248793E+00
          2   -1    0    0  501    0  0.00000000000E+00  0.00000000000E+00  0.48811934666E+02  0.48811934666E+02  0.00000000000E+00 0. -1.
         -2   -1    0    0    0  501 -0.00000000000E+00 -0.00000000000E+00 -0.25515544421E+03  0.25515544421E+03  0.00000000000E+00 0.  1.
          5    1    1    2  502    0  0.41383914652E+02  0.10928455366E+02 -0.85740453506E+02  0.95945687220E+02  0.47000000000E+01 0. -1.
         -5    1    1    2    0  502 -0.57067074470E+02 -0.13247908485E+01 -0.95840698918E+00  0.57283632944E+02  0.47000000000E+01 0. -1.
        -11    1    1    2    0    0  0.17849657786E+02 -0.35019214196E+02 -0.11889023569E+03  0.12521918298E+03  0.00000000000E+00 0.  1.
         11    1    1    2    0    0 -0.21664979678E+01  0.25415549678E+02 -0.75441336245E+00  0.25518875727E+02  0.00000000000E+00 0. -1.
<mgrwt>
<rscale>  0 0.11661222E+03</rscale>
<asrwt>0</asrwt>
<pdfrwt beam="1">  1        2 0.75095286E-02 0.12634291E+03</pdfrwt>
<pdfrwt beam="2">  1       -2 0.39254683E-01 0.12634291E+03</pdfrwt>
<totfact> 0.53753991E+03</totfact>
</mgrwt>
</event>
<event>
 6    1  0.1045058E-005  0.2544863E+03  0.7546771E-02  0.1112863E+00
          1   -1    0    0  501    0  0.00000000000E+00  0.00000000000E+00  0.81713769407E+03  0.81713769407E+03  0.00000000000E+00 0. -1.
         -1   -1    0    0    0  501 -0.00000000000E+00 -0.00000000000E+00 -0.88183821057E+02  0.88183821057E+02  0.00000000000E+00 0.  1.
          5    1    1    2  502    0 -0.18404094761E+02  0.72862119036E+02  0.80251965850E+02  0.11004575011E+03  0.47000000000E+01 0.  1.
         -5    1    1    2    0  502  0.70217560365E+02  0.14266601894E+03  0.47034800014E+03  0.49652132883E+03  0.47000000000E+01 0.  1.
        -11    1    1    2    0    0  0.20916171799E+02 -0.10160203211E+03  0.65580520516E+02  0.12272434088E+03  0.00000000000E+00 0.  1.
         11    1    1    2    0    0 -0.72729637403E+02 -0.11392610586E+03  0.11277338651E+03  0.17603009532E+03  0.00000000000E+00 0. -1.
<mgrwt>
<rscale>  0 0.25069983E+03</rscale>
<asrwt>0</asrwt>
<pdfrwt beam="1">  1        1 0.12571349E+00 0.25448634E+03</pdfrwt>
<pdfrwt beam="2">  1       -1 0.13566742E-01 0.25448634E+03</pdfrwt>
<totfact> 0.84357061E+02</totfact>
</mgrwt>
</event>
<event>
 6    1  0.1045058E-005  0.1268941E+03  0.7546771E-02  0.1250586E+00
         -2   -1    0    0    0  501 -0.00000000000E+00  0.00000000000E+00  0.21495079516E+03  0.21495079516E+03  0.00000000000E+00 0.  1.
          2   -1    0    0  501    0  0.00000000000E+00 -0.00000000000E+00 -0.53742487315E+02  0.53742487315E+02  0.00000000000E+00 0. -1.
          5    1    1    2  502    0  0.45009775117E+02 -0.48533508008E+02  0.12443052891E+02  0.67515189557E+02  0.47000000000E+01 0. -1.
         -5    1    1    2    0  502 -0.33060501248E+02  0.30242223482E+02  0.71912504081E+02  0.84859219105E+02  0.47000000000E+01 0. -1.
        -11    1    1    2    0    0 -0.18945412531E+02  0.10849459479E+02  0.93922532148E+02  0.96426559993E+02  0.00000000000E+00 0.  1.
         11    1    1    2    0    0  0.69961386625E+01  0.74418250475E+01 -0.17069781276E+02  0.19892313818E+02  0.00000000000E+00 0. -1.
<mgrwt>
<rscale>  0 0.11557181E+03</rscale>
<asrwt>0</asrwt>
<pdfrwt beam="2">  1        2 0.82680751E-02 0.12689405E+03</pdfrwt>
<pdfrwt beam="1">  1       -2 0.33069353E-01 0.12689405E+03</pdfrwt>
<totfact> 0.65487739E+03</totfact>
</mgrwt>
</event>
<event>
 6    1  0.1045058E-005  0.1999151E+03  0.7546771E-02  0.1154146E+00
         -2   -1    0    0    0  501 -0.00000000000E+00  0.00000000000E+00  0.13232054633E+03  0.13232054633E+03  0.00000000000E+00 0.  1.
          2   -1    0    0  501    0  0.00000000000E+00 -0.00000000000E+00 -0.28714885631E+03  0.28714885631E+03  0.00000000000E+00 0. -1.
          5    1    1    2  502    0 -0.11543449581E+03 -0.68880712239E+02 -0.47739157692E+02  0.14272628531E+03  0.47000000000E+01 0.  1.
         -5    1    1    2    0  502 -0.36760115105E+02  0.34616994288E+02 -0.79332294427E+02  0.94155962611E+02  0.47000000000E+01 0.  1.
        -11    1    1    2    0    0  0.12698459729E+03 -0.68841726452E+01 -0.39040967624E+02  0.13302885752E+03  0.00000000000E+00 0. -1.
         11    1    1    2    0    0  0.25210013624E+02  0.41147890596E+02  0.11284109763E+02  0.49558297192E+02  0.00000000000E+00 0.  1.
<mgrwt>
<rscale>  0 0.19486438E+03</rscale>
<asrwt>0</asrwt>
<pdfrwt beam="2">  1        2 0.44176747E-01 0.19991510E+03</pdfrwt>
<pdfrwt beam="1">  1       -2 0.20357007E-01 0.19991510E+03</pdfrwt>
<totfact> 0.23086846E+03</totfact>
</mgrwt>
</event>
<event>
 6    1  0.1208405E-005  0.3420976E+03  0.7546771E-02  0.1065906E+00
         -3   -1    0    0    0  501 -0.00000000000E+00  0.00000000000E+00  0.52185211298E+03  0.52185211298E+03  0.00000000000E+00 0.  1.
          3   -1    0    0  501    0  0.00000000000E+00 -0.00000000000E+00 -0.56065098970E+02  0.56065098970E+02  0.00000000000E+00 0. -1.
          5    1    1    2  502    0  0.46974200147E+01 -0.14198890301E+02 -0.19835386052E+02  0.25282539042E+02  0.47000000000E+01 0. -1.
         -5    1    1    2    0  502 -0.75591983573E+02 -0.82503830110E+02  0.17214802919E+03  0.20537298731E+03  0.47000000000E+01 0. -1.
        -11    1    1    2    0    0  0.50029848184E+02  0.31033677634E+02  0.23753076585E+03  0.24471808184E+03  0.00000000000E+00 0.  1.
         11    1    1    2    0    0  0.20864715374E+02  0.65669042777E+02  0.75943605032E+02  0.10254360376E+03  0.00000000000E+00 0. -1.
<mgrwt>
<rscale>  0 0.34209759E+03</rscale>
<asrwt>0</asrwt>
<pdfrwt beam="2">  1        3 0.86254002E-02 0.34209759E+03</pdfrwt>
<pdfrwt beam="1">  1       -3 0.80284937E-01 0.34209759E+03</pdfrwt>
<totfact> 0.35997094E+02</totfact>
</mgrwt>
</event>
<event>
 6    1  0.1045058E-005  0.5316706E+03  0.7546771E-02  0.1005828E+00
          1   -1    0    0  501    0  0.00000000000E+00  0.00000000000E+00  0.92913008842E+03  0.92913008842E+03  0.00000000000E+00 0. -1.
         -1   -1    0    0    0  501 -0.00000000000E+00 -0.00000000000E+00 -0.76058677495E+02  0.76058677495E+02  0.00000000000E+00 0.  1.
          5    1    1    2  502    0  0.23782528413E+02  0.24963152110E+02  0.30781048008E+02  0.46457836126E+02  0.47000000000E+01 0.  1.
         -5    1    1    2    0  502  0.13482374334E+03  0.42539985448E+02  0.72892840889E+03  0.74252663752E+03  0.47000000000E+01 0.  1.
        -11    1    1    2    0    0 -0.62452224992E+02 -0.36921855318E+02 -0.82356973594E+01  0.73015960704E+02  0.00000000000E+00 0.  1.
         11    1    1    2    0    0 -0.96154046758E+02 -0.30581282241E+02  0.10159765139E+03  0.14318833157E+03  0.00000000000E+00 0. -1.
<mgrwt>
<rscale>  0 0.53167060E+03</rscale>
<asrwt>0</asrwt>
<pdfrwt beam="1">  1        1 0.14294308E+00 0.53167060E+03</pdfrwt>
<pdfrwt beam="2">  1       -1 0.11701336E-01 0.53167060E+03</pdfrwt>
<totfact> 0.85740933E+02</totfact>
</mgrwt>
</event>
<event>
 6    1  0.1045058E-005  0.1975253E+03  0.7546771E-02  0.1155663E+00
         -2   -1    0    0    0  501 -0.00000000000E+00  0.00000000000E+00  0.83028270308E+02  0.83028270308E+02  0.00000000000E+00 0.  1.
          2   -1    0    0  501    0  0.00000000000E+00 -0.00000000000E+00 -0.46497351656E+03  0.46497351656E+03  0.00000000000E+00 0. -1.
          5    1    1    2  502    0  0.51743214063E+02 -0.69425542891E+02 -0.23863532637E+03  0.25390190074E+03  0.47000000000E+01 0. -1.
         -5    1    1    2    0  502 -0.33244747920E+01 -0.75651676706E+02 -0.34940022575E+02  0.83529177528E+02  0.47000000000E+01 0. -1.
        -11    1    1    2    0    0  0.10853758275E+02  0.81549982653E+02 -0.89678782571E+02  0.12169834749E+03  0.00000000000E+00 0. -1.
         11    1    1    2    0    0 -0.59272497545E+02  0.63527236943E+02 -0.18691114739E+02  0.88872361109E+02  0.00000000000E+00 0.  1.
<mgrwt>
<rscale>  0 0.19313574E+03</rscale>
<asrwt>0</asrwt>
<pdfrwt beam="2">  1        2 0.71534388E-01 0.19752534E+03</pdfrwt>
<pdfrwt beam="1">  1       -2 0.12773580E-01 0.19752534E+03</pdfrwt>
<totfact> 0.29757821E+03</totfact>
</mgrwt>
</event>
<event>
 6    1  0.1045058E-005  0.2076492E+03  0.7546771E-02  0.1147496E+00
          2   -1    0    0  501    0  0.00000000000E+00  0.00000000000E+00  0.72758162057E+03  0.72758162057E+03  0.00000000000E+00 0. -1.
         -2   -1    0    0    0  501 -0.00000000000E+00 -0.00000000000E+00 -0.68159897803E+02  0.68159897803E+02  0.00000000000E+00 0.  1.
          5    1    1    2  502    0 -0.43214873313E+02 -0.47042385261E+02  0.10346246600E+03  0.12168435872E+03  0.47000000000E+01 0. -1.
         -5    1    1    2    0  502  0.69616848799E+02 -0.11664888039E+03  0.42057097083E+03  0.44199038274E+03  0.47000000000E+01 0. -1.
        -11    1    1    2    0    0  0.26254086594E+02  0.16509024263E+02  0.32523437142E+02  0.44939947803E+02  0.00000000000E+00 0.  1.
         11    1    1    2    0    0 -0.52656062079E+02  0.14718224139E+03  0.10286484880E+03  0.18712682911E+03  0.00000000000E+00 0. -1.
<mgrwt>
<rscale>  0 0.20268163E+03</rscale>
<asrwt>0</asrwt>
<pdfrwt beam="1">  1        2 0.11193563E+00 0.20764915E+03</pdfrwt>
<pdfrwt beam="2">  1       -2 0.10486139E-01 0.20764915E+03</pdfrwt>
<totfact> 0.24422265E+03</totfact>
</mgrwt>
</event>
<event>
 6    1  0.1045058E-005  0.1793743E+03  0.7546771E-02  0.1193336E+00
         -2   -1    0    0    0  501 -0.00000000000E+00  0.00000000000E+00  0.10786447654E+02  0.10786447654E+02  0.00000000000E+00 0.  1.
          2   -1    0    0  501    0  0.00000000000E+00 -0.00000000000E+00 -0.34645915228E+04  0.34645915228E+04  0.00000000000E+00 0. -1.
          5    1    1    2  502    0 -0.38688430814E+01  0.15864843858E+02 -0.30360366272E+04  0.30360841808E+04  0.47000000000E+01 0. -1.
         -5    1    1    2    0  502  0.24865294948E+02 -0.21615733342E+02 -0.10675978662E+03  0.11182694157E+03  0.47000000000E+01 0.  1.
        -11    1    1    2    0    0 -0.45922682702E+02  0.36782035614E+02 -0.13950281779E+03  0.15140292963E+03  0.00000000000E+00 0.  1.
         11    1    1    2    0    0  0.24926230835E+02 -0.31031146131E+02 -0.17150584354E+03  0.17606391846E+03  0.00000000000E+00 0. -1.
<mgrwt>
<rscale>  0 0.15595917E+03</rscale>
<asrwt>0</asrwt>
<pdfrwt beam="2">  1        2 0.53301502E+00 0.17937429E+03</pdfrwt>
<pdfrwt beam="1">  1       -2 0.16594506E-02 0.17937429E+03</pdfrwt>
<totfact> 0.11135305E+03</totfact>
</mgrwt>
</event>
<event>
 6    1  0.1045058E-005  0.1381478E+03  0.7546771E-02  0.1227191E+00
          1   -1    0    0  501    0  0.00000000000E+00  0.00000000000E+00  0.17860777732E+03  0.17860777732E+03  0.00000000000E+00 0. -1.
         -1   -1    0    0    0  501 -0.00000000000E+00 -0.00000000000E+00 -0.12182776917E+03  0.12182776917E+03  0.00000000000E+00 0.  1.
          5    1    1    2  502    0  0.60588426267E+02  0.16138027062E+02  0.32287207010E+02  0.70682013634E+02  0.47000000000E+01 0. -1.
         -5    1    1    2    0  502 -0.57519178587E+02  0.42291574094E+02  0.80145609005E+02  0.10743575656E+03  0.47000000000E+01 0. -1.
        -11    1    1    2    0    0 -0.24940068889E+02 -0.32382691426E+01 -0.57671603749E+02  0.62916669510E+02  0.00000000000E+00 0.  1.
         11    1    1    2    0    0  0.21870821209E+02 -0.55191332013E+02  0.20187958829E+01  0.59401106779E+02  0.00000000000E+00 0. -1.
<mgrwt>
<rscale>  0 0.13017830E+03</rscale>
<asrwt>0</asrwt>
<pdfrwt beam="1">  1        1 0.27478120E-01 0.13814775E+03</pdfrwt>
<pdfrwt beam="2">  1       -1 0.18742734E-01 0.13814775E+03</pdfrwt>
<totfact> 0.36612316E+03</totfact>
</mgrwt>
</event>
<event>
 6    1  0.1045058E-005  0.1250334E+03  0.7546771E-02  0.1247241E+00
          1   -1    0    0  501    0  0.00000000000E+00  0.00000000000E+00  0.70026666045E+03  0.70026666045E+03  0.00000000000E+00 0. -1.
         -1   -1    0    0    0  501 -0.00000000000E+00 -0.00000000000E+00 -0.18963825003E+02  0.18963825003E+02  0.00000000000E+00 0.  1.
          5    1    1    2  502    0 -0.55280357827E+02  0.95698560971E+01  0.35582496478E+03  0.36025129517E+03  0.47000000000E+01 0. -1.
         -5    1    1    2    0  502  0.53098048345E+02 -0.75308488373E+01  0.11640567788E+03  0.12825165990E+03  0.47000000000E+01 0. -1.
        -11    1    1    2    0    0  0.26705960772E+02 -0.39363079120E+02  0.14518225698E+03  0.15277613715E+03  0.00000000000E+00 0. -1.
         11    1    1    2    0    0 -0.24523651290E+02  0.37324071860E+02  0.63889935801E+02  0.77951393249E+02  0.00000000000E+00 0.  1.
<mgrwt>
<rscale>  0 0.11752279E+03</rscale>
<asrwt>0</asrwt>
<pdfrwt beam="1">  1        1 0.10773331E+00 0.12503342E+03</pdfrwt>
<pdfrwt beam="2">  1       -1 0.29175121E-02 0.12503342E+03</pdfrwt>
<totfact> 0.10540687E+04</totfact>
</mgrwt>
</event>
<event>
 6    1  0.1045058E-005  0.1463261E+03  0.7546771E-02  0.1214698E+00
         -1   -1    0    0    0  501 -0.00000000000E+00  0.00000000000E+00  0.22502274350E+02  0.22502274350E+02  0.00000000000E+00 0.  1.
          1   -1    0    0  501    0  0.00000000000E+00 -0.00000000000E+00 -0.10187529622E+04  0.10187529622E+04  0.00000000000E+00 0. -1.
          5    1    1    2  502    0  0.86256903670E+02  0.49329993081E+02 -0.66615169548E+03  0.67353832337E+03  0.47000000000E+01 0.  1.
         -5    1    1    2    0  502 -0.11140692358E+02 -0.36947744209E+02 -0.12079087756E+03  0.12689277730E+03  0.47000000000E+01 0.  1.
        -11    1    1    2    0    0 -0.71616525951E+02  0.22708665562E+02 -0.17971569536E+03  0.19478793966E+03  0.00000000000E+00 0. -1.
         11    1    1    2    0    0 -0.34996853614E+01 -0.35090914434E+02 -0.29592419441E+02  0.46036196213E+02  0.00000000000E+00 0.  1.
<mgrwt>
<rscale>  0 0.13898737E+03</rscale>
<asrwt>0</asrwt>
<pdfrwt beam="2">  1        1 0.15673116E+00 0.14632612E+03</pdfrwt>
<pdfrwt beam="1">  1       -1 0.34618898E-02 0.14632612E+03</pdfrwt>
<totfact> 0.46294522E+03</totfact>
</mgrwt>
</event>
<event>
 6    1  0.1045058E-005  0.1296671E+03  0.7546771E-02  0.1243368E+00
         -4   -1    0    0    0  501 -0.00000000000E+00  0.00000000000E+00  0.41879674182E+02  0.41879674182E+02  0.00000000000E+00 0. -1.
          4   -1    0    0  501    0  0.00000000000E+00 -0.00000000000E+00 -0.30981460278E+03  0.30981460278E+03  0.00000000000E+00 0.  1.
          5    1    1    2  502    0  0.39728461330E+02 -0.42899710094E+02 -0.28718113730E+02  0.65311222787E+02  0.47000000000E+01 0. -1.
         -5    1    1    2    0  502 -0.59007610553E+01  0.36343724442E+02 -0.15612950290E+03  0.16048114208E+03  0.47000000000E+01 0. -1.
        -11    1    1    2    0    0  0.11124608761E+02 -0.11398402388E+02 -0.75187835964E+02  0.76856302110E+02  0.00000000000E+00 0.  1.
         11    1    1    2    0    0 -0.44952309036E+02  0.17954388040E+02 -0.78994760035E+01  0.49045609984E+02  0.00000000000E+00 0. -1.
<mgrwt>
<rscale>  0 0.11983585E+03</rscale>
<asrwt>0</asrwt>
<pdfrwt beam="2">  1        4 0.47663786E-01 0.12966708E+03</pdfrwt>
<pdfrwt beam="1">  1       -4 0.64430267E-02 0.12966708E+03</pdfrwt>
<totfact> 0.11047643E+03</totfact>
</mgrwt>
</event>
<event>
 6    1  0.1045058E-005  0.3395374E+03  0.7546771E-02  0.1066993E+00
         -2   -1    0    0    0  501 -0.00000000000E+00  0.00000000000E+00  0.47051048654E+03  0.47051048654E+03  0.00000000000E+00 0.  1.
          2   -1    0    0  501    0  0.00000000000E+00 -0.00000000000E+00 -0.61255605644E+02  0.61255605644E+02  0.00000000000E+00 0. -1.
          5    1    1    2  502    0  0.22430620774E+02 -0.67949209782E+01 -0.14229298314E+02  0.27818458439E+02  0.47000000000E+01 0. -1.
         -5    1    1    2    0  502 -0.52269578747E+02 -0.10779407939E+03  0.14648856571E+03  0.18929517241E+03  0.47000000000E+01 0. -1.
        -11    1    1    2    0    0  0.38605496205E+02  0.29212021775E+02  0.40680715633E+02  0.63234857301E+02  0.00000000000E+00 0. -1.
         11    1    1    2    0    0 -0.87665382322E+01  0.85376978590E+02  0.23631489786E+03  0.25141760403E+03  0.00000000000E+00 0.  1.
<mgrwt>
<rscale>  0 0.33953736E+03</rscale>
<asrwt>0</asrwt>
<pdfrwt beam="2">  1        2 0.94239396E-02 0.33953736E+03</pdfrwt>
<pdfrwt beam="1">  1       -2 0.72386226E-01 0.33953736E+03</pdfrwt>
<totfact> 0.12307931E+03</totfact>
</mgrwt>
</event>
<event>
 6    1  0.1045058E-005  0.1814816E+03  0.7546771E-02  0.1171890E+00
          1   -1    0    0  501    0  0.00000000000E+00  0.00000000000E+00  0.14865000624E+03  0.14865000624E+03  0.00000000000E+00 0. -1.
         -1   -1    0    0    0  501 -0.00000000000E+00 -0.00000000000E+00 -0.19622049437E+03  0.19622049437E+03  0.00000000000E+00 0.  1.
          5    1    1    2  502    0  0.59237947201E+02 -0.83947322453E+02 -0.39110803937E+02  0.11003650449E+03  0.47000000000E+01 0.  1.
         -5    1    1    2    0  502  0.63492128219E+02  0.36558211561E+02  0.88628510450E+01  0.73948585564E+02  0.47000000000E+01 0.  1.
        -11    1    1    2    0    0 -0.71819709845E+01  0.24830900594E+02 -0.33215195901E+02  0.42088045456E+02  0.00000000000E+00 0.  1.
         11    1    1    2    0    0 -0.11554810444E+03  0.22558210298E+02  0.15892660661E+02  0.11879736509E+03  0.00000000000E+00 0. -1.
<mgrwt>
<rscale>  0 0.17584119E+03</rscale>
<asrwt>0</asrwt>
<pdfrwt beam="1">  1        1 0.22869232E-01 0.18148161E+03</pdfrwt>
<pdfrwt beam="2">  1       -1 0.30187768E-01 0.18148161E+03</pdfrwt>
<totfact> 0.21352958E+03</totfact>
</mgrwt>
</event>
<event>
 6    1  0.1045058E-005  0.2116641E+03  0.7546771E-02  0.1143628E+00
         -2   -1    0    0    0  501 -0.00000000000E+00  0.00000000000E+00  0.16262041476E+03  0.16262041476E+03  0.00000000000E+00 0.  1.
          2   -1    0    0  501    0  0.00000000000E+00 -0.00000000000E+00 -0.31664852478E+03  0.31664852478E+03  0.00000000000E+00 0. -1.
          5    1    1    2  502    0  0.82462335410E+02 -0.51726815916E+01 -0.81740832552E+01  0.83160682015E+02  0.47000000000E+01 0.  1.
         -5    1    1    2    0  502  0.86936065013E+02 -0.16694129494E+02 -0.17747577298E+03  0.19838425682E+03  0.47000000000E+01 0.  1.
        -11    1    1    2    0    0 -0.24477202970E+02  0.41128508822E+02  0.17035451797E+02  0.50802503098E+02  0.00000000000E+00 0.  1.
         11    1    1    2    0    0 -0.14492119745E+03 -0.19261697737E+02  0.14586294423E+02  0.14692149760E+03  0.00000000000E+00 0. -1.
<mgrwt>
<rscale>  0 0.20741667E+03</rscale>
<asrwt>0</asrwt>
<pdfrwt beam="2">  1        2 0.48715157E-01 0.21166408E+03</pdfrwt>
<pdfrwt beam="1">  1       -2 0.25018526E-01 0.21166408E+03</pdfrwt>
<totfact> 0.14552931E+03</totfact>
</mgrwt>
</event>
<event>
 6    1  0.1722586E-005  0.1414790E+03  0.7546771E-02  0.1222022E+00
          1   -1    0    0  501    0  0.00000000000E+00  0.00000000000E+00  0.20419266830E+03  0.20419266830E+03  0.00000000000E+00 0. -1.
         -1   -1    0    0    0  501 -0.00000000000E+00 -0.00000000000E+00 -0.81593432812E+02  0.81593432812E+02  0.00000000000E+00 0.  1.
          5    1    1    2  502    0 -0.36835096050E+02 -0.10269971290E+02  0.10727691238E+02  0.39993374084E+02  0.47000000000E+01 0.  1.
         -5    1    1    2    0  502  0.98929627280E+02 -0.12879061259E+02  0.81312838795E+02  0.12878978657E+03  0.47000000000E+01 0.  1.
        -11    1    1    2    0    0 -0.63067611502E+00 -0.30419450464E+02  0.15298438541E+02  0.34055586042E+02  0.00000000000E+00 0.  1.
         11    1    1    2    0    0 -0.61463855115E+02  0.53568483013E+02  0.15260266914E+02  0.82947354413E+02  0.00000000000E+00 0. -1.
<mgrwt>
<rscale>  0 0.13373115E+03</rscale>
<asrwt>0</asrwt>
<pdfrwt beam="1">  1        1 0.31414257E-01 0.14147896E+03</pdfrwt>
<pdfrwt beam="2">  1       -1 0.12552836E-01 0.14147896E+03</pdfrwt>
<totfact> 0.58258484E+03</totfact>
</mgrwt>
</event>
<event>
 6    1  0.1045058E-005  0.1356668E+03  0.7546771E-02  0.1232151E+00
          1   -1    0    0  501    0  0.00000000000E+00  0.00000000000E+00  0.15867942648E+03  0.15867942648E+03  0.00000000000E+00 0. -1.
         -1   -1    0    0    0  501 -0.00000000000E+00 -0.00000000000E+00 -0.91052377552E+02  0.91052377552E+02  0.00000000000E+00 0.  1.
          5    1    1    2  502    0  0.29211449681E+02  0.38340323605E+02 -0.16645257016E+02  0.51209801676E+02  0.47000000000E+01 0.  1.
         -5    1    1    2    0  502  0.91004598807E+01 -0.74545925120E+02  0.44067683293E+02  0.87200711195E+02  0.47000000000E+01 0.  1.
        -11    1    1    2    0    0 -0.59777083281E+02  0.60091606708E+01  0.51190745280E+01  0.60296058093E+02  0.00000000000E+00 0.  1.
         11    1    1    2    0    0  0.21465173720E+02  0.30196440845E+02  0.35085548123E+02  0.51025233067E+02  0.00000000000E+00 0. -1.
<mgrwt>
<rscale>  0 0.12688564E+03</rscale>
<asrwt>0</asrwt>
<pdfrwt beam="1">  1        1 0.24412219E-01 0.13566680E+03</pdfrwt>
<pdfrwt beam="2">  1       -1 0.14008058E-01 0.13566680E+03</pdfrwt>
<totfact> 0.67139349E+03</totfact>
</mgrwt>
</event>
<event>
 6    1  0.1045058E-005  0.1709357E+03  0.7546771E-02  0.1193283E+00
         -2   -1    0    0    0  501 -0.00000000000E+00  0.00000000000E+00  0.17196929628E+02  0.17196929628E+02  0.00000000000E+00 0.  1.
          2   -1    0    0  501    0  0.00000000000E+00 -0.00000000000E+00 -0.12531957575E+04  0.12531957575E+04  0.00000000000E+00 0. -1.
          5    1    1    2  502    0 -0.57407490614E+02  0.10205079002E+02 -0.74464707998E+03  0.74694118064E+03  0.47000000000E+01 0. -1.
         -5    1    1    2    0  502  0.26135833398E+02  0.46021300587E+02 -0.85830016803E+02  0.10094515184E+03  0.47000000000E+01 0.  1.
        -11    1    1    2    0    0  0.37498853067E+02 -0.82486235459E+02 -0.33364708132E+03  0.34573185837E+03  0.00000000000E+00 0.  1.
         11    1    1    2    0    0 -0.62271958508E+01  0.26259855870E+02 -0.71874649732E+02  0.76774496238E+02  0.00000000000E+00 0. -1.
<mgrwt>
<rscale>  0 0.15600455E+03</rscale>
<asrwt>0</asrwt>
<pdfrwt beam="2">  1        2 0.19279941E+00 0.17093573E+03</pdfrwt>
<pdfrwt beam="1">  1       -2 0.26456807E-02 0.17093573E+03</pdfrwt>
<totfact> 0.93431072E+03</totfact>
</mgrwt>
</event>
<event>
 6    1  0.1045058E-005  0.2645629E+03  0.7546771E-02  0.1130780E+00
          4   -1    0    0  501    0  0.00000000000E+00  0.00000000000E+00  0.24086058776E+03  0.24086058776E+03  0.00000000000E+00 0. -1.
         -4   -1    0    0    0  501 -0.00000000000E+00 -0.00000000000E+00 -0.16956968434E+03  0.16956968434E+03  0.00000000000E+00 0.  1.
          5    1    1    2  502    0  0.85693774197E+02  0.43547602240E+02  0.13612951443E+03  0.16671278084E+03  0.47000000000E+01 0. -1.
         -5    1    1    2    0  502 -0.60268088463E+02 -0.60154847555E+02 -0.65019286324E+02  0.10724013132E+03  0.47000000000E+01 0.  1.
        -11    1    1    2    0    0 -0.48594528251E+02 -0.26741926352E+02 -0.43679940985E+02  0.70600963488E+02  0.00000000000E+00 0.  1.
         11    1    1    2    0    0  0.23168842517E+02  0.43349171666E+02  0.43860616301E+02  0.65876396456E+02  0.00000000000E+00 0. -1.
<mgrwt>
<rscale>  0 0.22421351E+03</rscale>
<asrwt>0</asrwt>
<pdfrwt beam="1">  1        4 0.37055475E-01 0.26456291E+03</pdfrwt>
<pdfrwt beam="2">  1       -4 0.26087644E-01 0.26456291E+03</pdfrwt>
<totfact> 0.18079540E+02</totfact>
</mgrwt>
</event>
<event>
 6    1  0.1045058E-005  0.1300193E+03  0.7546771E-02  0.1241339E+00
         -1   -1    0    0    0  501 -0.00000000000E+00  0.00000000000E+00  0.12773374586E+03  0.12773374586E+03  0.00000000000E+00 0.  1.
          1   -1    0    0  501    0  0.00000000000E+00 -0.00000000000E+00 -0.10178111498E+03  0.10178111498E+03  0.00000000000E+00 0. -1.
          5    1    1    2  502    0  0.35665414864E+02  0.11512778099E+02 -0.33602367272E+02  0.50554673011E+02  0.47000000000E+01 0.  1.
         -5    1    1    2    0  502 -0.58046434699E+02  0.16467754680E+02  0.53894238914E+02  0.81038598912E+02  0.47000000000E+01 0.  1.
        -11    1    1    2    0    0 -0.14806846610E+01  0.14536095598E+02  0.37124010647E+02  0.39895897894E+02  0.00000000000E+00 0.  1.
         11    1    1    2    0    0  0.23861704496E+02 -0.42516628377E+02 -0.31463251404E+02  0.58025691025E+02  0.00000000000E+00 0. -1.
<mgrwt>
<rscale>  0 0.12107204E+03</rscale>
<asrwt>0</asrwt>
<pdfrwt beam="2">  1        1 0.15658633E-01 0.13001934E+03</pdfrwt>
<pdfrwt beam="1">  1       -1 0.19651346E-01 0.13001934E+03</pdfrwt>
<totfact> 0.69010355E+03</totfact>
</mgrwt>
</event>
<event>
 6    1  0.1045058E-005  0.1483791E+03  0.7546771E-02  0.1213426E+00
         -2   -1    0    0    0  501 -0.00000000000E+00  0.00000000000E+00  0.60534168024E+02  0.60534168024E+02  0.00000000000E+00 0.  1.
          2   -1    0    0  501    0  0.00000000000E+00 -0.00000000000E+00 -0.43505326355E+03  0.43505326355E+03  0.00000000000E+00 0. -1.
          5    1    1    2  502    0 -0.93122581055E+02  0.29627865399E+01 -0.15856496896E+03  0.18397155375E+03  0.47000000000E+01 0. -1.
         -5    1    1    2    0  502  0.39571800411E+02 -0.19708676916E+02 -0.18497348049E+03  0.19024099931E+03  0.47000000000E+01 0.  1.
        -11    1    1    2    0    0  0.68045751130E+02  0.37386340165E+02  0.45834616843E+01  0.77775129693E+02  0.00000000000E+00 0.  1.
         11    1    1    2    0    0 -0.14494970486E+02 -0.20640449789E+02 -0.35564107755E+02  0.43599748821E+02  0.00000000000E+00 0. -1.
<mgrwt>
<rscale>  0 0.13992796E+03</rscale>
<asrwt>0</asrwt>
<pdfrwt beam="2">  1        2 0.66931273E-01 0.14837914E+03</pdfrwt>
<pdfrwt beam="1">  1       -2 0.93129486E-02 0.14837914E+03</pdfrwt>
<totfact> 0.52271969E+03</totfact>
</mgrwt>
</event>
<event>
 6    1  0.1045058E-005  0.1371839E+03  0.7546771E-02  0.1227705E+00
         -2   -1    0    0    0  501 -0.00000000000E+00  0.00000000000E+00  0.47242159538E+02  0.47242159538E+02  0.00000000000E+00 0.  1.
          2   -1    0    0  501    0  0.00000000000E+00 -0.00000000000E+00 -0.32651226433E+03  0.32651226433E+03  0.00000000000E+00 0. -1.
          5    1    1    2  502    0 -0.20854450217E+02  0.20799622084E+00  0.15774092471E+02  0.26568088933E+02  0.47000000000E+01 0. -1.
         -5    1    1    2    0  502 -0.16504446663E+02 -0.42597334516E+02 -0.18846872207E+03  0.19398319223E+03  0.47000000000E+01 0. -1.
        -11    1    1    2    0    0  0.51582670437E+02  0.27505457839E+02 -0.11650323110E+03  0.13034694073E+03  0.00000000000E+00 0. -1.
         11    1    1    2    0    0 -0.14223773556E+02  0.14883880456E+02  0.99277559080E+01  0.22856201981E+02  0.00000000000E+00 0.  1.
<mgrwt>
<rscale>  0 0.12983247E+03</rscale>
<asrwt>0</asrwt>
<pdfrwt beam="2">  1        2 0.50232657E-01 0.13718394E+03</pdfrwt>
<pdfrwt beam="1">  1       -2 0.72680243E-02 0.13718394E+03</pdfrwt>
<totfact> 0.10377981E+04</totfact>
</mgrwt>
</event>
<event>
 6    1  0.1045058E-005  0.1734291E+03  0.7546771E-02  0.1183563E+00
          1   -1    0    0  501    0  0.00000000000E+00  0.00000000000E+00  0.50099476396E+03  0.50099476396E+03  0.00000000000E+00 0. -1.
         -1   -1    0    0    0  501 -0.00000000000E+00 -0.00000000000E+00 -0.96474571131E+02  0.96474571131E+02  0.00000000000E+00 0.  1.
          5    1    1    2  502    0 -0.84924700153E+01  0.10684576216E+03  0.41716888639E+03  0.43074366938E+03  0.47000000000E+01 0. -1.
         -5    1    1    2    0  502  0.23945788181E+02 -0.26058737600E+01  0.41712153127E+01  0.24893380382E+02  0.47000000000E+01 0.  1.
        -11    1    1    2    0    0 -0.31522865845E+02 -0.79064803074E+02 -0.48767781868E+02  0.98098066773E+02  0.00000000000E+00 0.  1.
         11    1    1    2    0    0  0.16069547680E+02 -0.25175085330E+02  0.31947872996E+02  0.43734218559E+02  0.00000000000E+00 0. -1.
<mgrwt>
<rscale>  0 0.16463277E+03</rscale>
<asrwt>0</asrwt>
<pdfrwt beam="1">  1        1 0.77076116E-01 0.17342906E+03</pdfrwt>
<pdfrwt beam="2">  1       -1 0.14842242E-01 0.17342906E+03</pdfrwt>
<totfact> 0.14626782E+03</totfact>
</mgrwt>
</event>
<event>
 6    1  0.1045058E-005  0.1252495E+03  0.7546771E-02  0.1252586E+00
          1   -1    0    0  501    0  0.00000000000E+00  0.00000000000E+00  0.52415889818E+03  0.52415889818E+03  0.00000000000E+00 0. -1.
         -1   -1    0    0    0  501 -0.00000000000E+00 -0.00000000000E+00 -0.72518503918E+02  0.72518503918E+02  0.00000000000E+00 0.  1.
          5    1    1    2  502    0 -0.20868022647E+02  0.53682627738E+02  0.28301330880E+03  0.28885276846E+03  0.47000000000E+01 0. -1.
         -5    1    1    2    0  502  0.19970113785E+02 -0.61327817141E+02  0.20375246289E+03  0.21376871317E+03  0.47000000000E+01 0. -1.
        -11    1    1    2    0    0  0.67567575787E+01 -0.29560577086E+02 -0.45781817318E+02  0.54913170438E+02  0.00000000000E+00 0.  1.
         11    1    1    2    0    0 -0.58588487164E+01  0.37205766489E+02  0.10656439895E+02  0.39142750025E+02  0.00000000000E+00 0. -1.
<mgrwt>
<rscale>  0 0.11442595E+03</rscale>
<asrwt>0</asrwt>
<pdfrwt beam="1">  1        1 0.80639828E-01 0.12524950E+03</pdfrwt>
<pdfrwt beam="2">  1       -1 0.11156693E-01 0.12524950E+03</pdfrwt>
<totfact> 0.21310332E+03</totfact>
</mgrwt>
</event>
<event>
 6    1  0.1045058E-005  0.4236787E+03  0.7546771E-02  0.1035876E+00
          1   -1    0    0  501    0  0.00000000000E+00  0.00000000000E+00  0.21337850828E+03  0.21337850828E+03  0.00000000000E+00 0. -1.
         -1   -1    0    0    0  501 -0.00000000000E+00 -0.00000000000E+00 -0.21031133753E+03  0.21031133753E+03  0.00000000000E+00 0.  1.
          5    1    1    2  502    0  0.13044849248E+02  0.73889899677E+01  0.97802670649E+02  0.99056638600E+02  0.47000000000E+01 0. -1.
         -5    1    1    2    0  502  0.63018544505E+02  0.10075703068E+03  0.28109851524E+02  0.12221116944E+03  0.47000000000E+01 0. -1.
        -11    1    1    2    0    0 -0.66878515559E+02 -0.36571020788E+02 -0.23754687460E+02  0.79840219070E+02  0.00000000000E+00 0. -1.
         11    1    1    2    0    0 -0.91848781946E+01 -0.71574999861E+02 -0.99090663963E+02  0.12258181871E+03  0.00000000000E+00 0.  1.
<mgrwt>
<rscale>  0 0.42367874E+03</rscale>
<asrwt>0</asrwt>
<pdfrwt beam="1">  1        1 0.32827463E-01 0.42367874E+03</pdfrwt>
<pdfrwt beam="2">  1       -1 0.32355591E-01 0.42367874E+03</pdfrwt>
<totfact> 0.12172058E+03</totfact>
</mgrwt>
</event>
<event>
 6    1  0.1045058E-005  0.1217188E+03  0.7546771E-02  0.1249909E+00
         -1   -1    0    0    0  501 -0.00000000000E+00  0.00000000000E+00  0.30193210472E+03  0.30193210472E+03  0.00000000000E+00 0.  1.
          1   -1    0    0  501    0  0.00000000000E+00 -0.00000000000E+00 -0.51276810015E+02  0.51276810015E+02  0.00000000000E+00 0. -1.
          5    1    1    2  502    0 -0.11530082341E+02  0.27685793975E+02 -0.20012009111E+02  0.36359544765E+02  0.47000000000E+01 0. -1.
         -5    1    1    2    0  502 -0.17011557194E+02 -0.58987870752E+02  0.75464005022E+02  0.97395420980E+02  0.47000000000E+01 0.  1.
        -11    1    1    2    0    0 -0.16884210550E+02 -0.18805313666E+02  0.21974185508E+02  0.33490016672E+02  0.00000000000E+00 0.  1.
         11    1    1    2    0    0  0.45425850085E+02  0.50107390443E+02  0.17322911329E+03  0.18596393232E+03  0.00000000000E+00 0. -1.
<mgrwt>
<rscale>  0 0.11596311E+03</rscale>
<asrwt>0</asrwt>
<pdfrwt beam="2">  1        1 0.78887402E-02 0.12171880E+03</pdfrwt>
<pdfrwt beam="1">  1       -1 0.46451092E-01 0.12171880E+03</pdfrwt>
<totfact> 0.39715116E+03</totfact>
</mgrwt>
</event>
<event>
 6    1  0.1045058E-005  0.1256676E+03  0.7546771E-02  0.1251291E+00
         -1   -1    0    0    0  501 -0.00000000000E+00  0.00000000000E+00  0.60451214172E+02  0.60451214172E+02  0.00000000000E+00 0.  1.
          1   -1    0    0  501    0  0.00000000000E+00 -0.00000000000E+00 -0.19025364578E+03  0.19025364578E+03  0.00000000000E+00 0. -1.
          5    1    1    2  502    0 -0.48213770793E+02  0.24092387425E+02 -0.15536317327E+02  0.56289235045E+02  0.47000000000E+01 0. -1.
         -5    1    1    2    0  502  0.61155650477E+02 -0.25273422709E+02 -0.65591422591E+02  0.93290322104E+02  0.47000000000E+01 0. -1.
        -11    1    1    2    0    0  0.35373955761E+01  0.37143477056E+02  0.13666879101E+01  0.37336562390E+02  0.00000000000E+00 0. -1.
         11    1    1    2    0    0 -0.16479275261E+02 -0.35962441772E+02 -0.50041379605E+02  0.63788740417E+02  0.00000000000E+00 0.  1.
<mgrwt>
<rscale>  0 0.11516623E+03</rscale>
<asrwt>0</asrwt>
<pdfrwt beam="2">  1        1 0.29269791E-01 0.12566755E+03</pdfrwt>
<pdfrwt beam="1">  1       -1 0.93001871E-02 0.12566755E+03</pdfrwt>
<totfact> 0.99871461E+03</totfact>
</mgrwt>
</event>
<event>
 6    1  0.1045058E-005  0.1270861E+03  0.7546771E-02  0.1246285E+00
          2   -1    0    0  501    0  0.00000000000E+00  0.00000000000E+00  0.32656297345E+03  0.32656297345E+03  0.00000000000E+00 0. -1.
         -2   -1    0    0    0  501 -0.00000000000E+00 -0.00000000000E+00 -0.56222165421E+02  0.56222165421E+02  0.00000000000E+00 0.  1.
          5    1    1    2  502    0 -0.50461283812E+02 -0.26314472664E+01  0.32616616503E+02  0.60325776836E+02  0.47000000000E+01 0.  1.
         -5    1    1    2    0  502  0.28134422266E+02  0.79458770933E+01  0.22491824314E+03  0.22685896230E+03  0.47000000000E+01 0.  1.
        -11    1    1    2    0    0  0.36222910679E+02 -0.17532376278E+02 -0.29186157799E+02  0.49712325263E+02  0.00000000000E+00 0.  1.
         11    1    1    2    0    0 -0.13896049133E+02  0.12217946451E+02  0.41992106192E+02  0.45888074479E+02  0.00000000000E+00 0. -1.
<mgrwt>
<rscale>  0 0.11808792E+03</rscale>
<asrwt>0</asrwt>
<pdfrwt beam="1">  1        2 0.50240456E-01 0.12708608E+03</pdfrwt>
<pdfrwt beam="2">  1       -2 0.86495641E-02 0.12708608E+03</pdfrwt>
<totfact> 0.78900632E+03</totfact>
</mgrwt>
</event>
<event>
 6    1  0.1045058E-005  0.2273445E+03  0.7546771E-02  0.1131439E+00
         -1   -1    0    0    0  501 -0.00000000000E+00  0.00000000000E+00  0.26156240295E+03  0.26156240295E+03  0.00000000000E+00 0.  1.
          1   -1    0    0  501    0  0.00000000000E+00 -0.00000000000E+00 -0.18418341460E+03  0.18418341460E+03  0.00000000000E+00 0. -1.
          5    1    1    2  502    0 -0.64435426515E+02 -0.81752123716E+02  0.68730466146E+02  0.12482508121E+03  0.47000000000E+01 0. -1.
         -5    1    1    2    0  502 -0.10151776883E+03 -0.10552767290E+02 -0.28450669434E+02  0.10606011916E+03  0.47000000000E+01 0. -1.
        -11    1    1    2    0    0  0.32366824978E+02  0.32457300829E+02 -0.29008227694E+02  0.54245414647E+02  0.00000000000E+00 0. -1.
         11    1    1    2    0    0  0.13358637036E+03  0.59847590177E+02  0.66107419327E+02  0.16061520254E+03  0.00000000000E+00 0.  1.
<mgrwt>
<rscale>  0 0.22331064E+03</rscale>
<asrwt>0</asrwt>
<pdfrwt beam="2">  1        1 0.28335910E-01 0.22734448E+03</pdfrwt>
<pdfrwt beam="1">  1       -1 0.40240370E-01 0.22734448E+03</pdfrwt>
<totfact> 0.99397046E+02</totfact>
</mgrwt>
</event>
<event>
 6    1  0.1045058E-005  0.1399260E+03  0.7546771E-02  0.1229979E+00
          1   -1    0    0  501    0  0.00000000000E+00  0.00000000000E+00  0.44815449983E+03  0.44815449983E+03  0.00000000000E+00 0. -1.
         -1   -1    0    0    0  501 -0.00000000000E+00 -0.00000000000E+00 -0.31832444514E+02  0.31832444514E+02  0.00000000000E+00 0.  1.
          5    1    1    2  502    0 -0.67781272601E+02  0.66765310983E+00  0.10104626300E+03  0.12176692467E+03  0.47000000000E+01 0. -1.
         -5    1    1    2    0  502  0.58226752733E+02 -0.40153088901E+02  0.14095962831E+03  0.15777937792E+03  0.47000000000E+01 0.  1.
        -11    1    1    2    0    0  0.45074575901E+02  0.22525804636E+01  0.10341678960E+03  0.11283538400E+03  0.00000000000E+00 0.  1.
         11    1    1    2    0    0 -0.35520056034E+02  0.37232855327E+02  0.70899374403E+02  0.87605257760E+02  0.00000000000E+00 0. -1.
<mgrwt>
<rscale>  0 0.12831382E+03</rscale>
<asrwt>0</asrwt>
<pdfrwt beam="1">  1        1 0.68946842E-01 0.13992599E+03</pdfrwt>
<pdfrwt beam="2">  1       -1 0.48972995E-02 0.13992599E+03</pdfrwt>
<totfact> 0.90509792E+03</totfact>
</mgrwt>
</event>
<event>
 6    1  0.1045058E-005  0.3199178E+03  0.7546771E-02  0.1075687E+00
         -2   -1    0    0    0  501 -0.00000000000E+00  0.00000000000E+00  0.18461297760E+02  0.18461297760E+02  0.00000000000E+00 0.  1.
          2   -1    0    0  501    0  0.00000000000E+00 -0.00000000000E+00 -0.13859726811E+04  0.13859726811E+04  0.00000000000E+00 0. -1.
          5    1    1    2  502    0 -0.85172112402E+01  0.18964942069E+02 -0.38695644967E+02  0.44177537895E+02  0.47000000000E+01 0. -1.
         -5    1    1    2    0  502  0.82671848592E+02 -0.10152071263E+03 -0.86163089378E+03  0.87153369227E+03  0.47000000000E+01 0. -1.
        -11    1    1    2    0    0 -0.43061058597E+02  0.69310362746E+02 -0.43311036887E+03  0.44072981834E+03  0.00000000000E+00 0. -1.
         11    1    1    2    0    0 -0.31093578754E+02  0.13245407819E+02 -0.34074475705E+02  0.47992930340E+02  0.00000000000E+00 0.  1.
<mgrwt>
<rscale>  0 0.31991783E+03</rscale>
<asrwt>0</asrwt>
<pdfrwt beam="2">  1        2 0.21322657E+00 0.31991783E+03</pdfrwt>
<pdfrwt beam="1">  1       -2 0.28401996E-02 0.31991783E+03</pdfrwt>
<totfact> 0.72493553E+03</totfact>
</mgrwt>
</event>
<event>
 6    1  0.1045058E-005  0.1973895E+03  0.7546771E-02  0.1155460E+00
         -2   -1    0    0    0  501 -0.00000000000E+00  0.00000000000E+00  0.19697521016E+03  0.19697521016E+03  0.00000000000E+00 0.  1.
          2   -1    0    0  501    0  0.00000000000E+00 -0.00000000000E+00 -0.18570716926E+03  0.18570716926E+03  0.00000000000E+00 0. -1.
          5    1    1    2  502    0  0.65465991160E+02 -0.13225353192E+03  0.53828962932E+02  0.15715101003E+03  0.47000000000E+01 0.  1.
         -5    1    1    2    0  502 -0.31661778837E+02 -0.16723065884E+02 -0.22732436736E+02  0.42672975660E+02  0.47000000000E+01 0.  1.
        -11    1    1    2    0    0 -0.62039439236E+02  0.13828034872E+03 -0.15357323267E+02  0.15233579435E+03  0.00000000000E+00 0.  1.
         11    1    1    2    0    0  0.28235226913E+02  0.10696249084E+02 -0.44711620271E+01  0.30522599384E+02  0.00000000000E+00 0. -1.
<mgrwt>
<rscale>  0 0.19336582E+03</rscale>
<asrwt>0</asrwt>
<pdfrwt beam="2">  1        2 0.28570334E-01 0.19738954E+03</pdfrwt>
<pdfrwt beam="1">  1       -2 0.30303878E-01 0.19738954E+03</pdfrwt>
<totfact> 0.18371163E+03</totfact>
</mgrwt>
</event>
<event>
 6    1  0.1045058E-005  0.5038729E+03  0.7546771E-02  0.1034298E+00
         -2   -1    0    0    0  501 -0.00000000000E+00  0.00000000000E+00  0.82725238566E+02  0.82725238566E+02  0.00000000000E+00 0.  1.
          2   -1    0    0  501    0  0.00000000000E+00 -0.00000000000E+00 -0.17928649657E+04  0.17928649657E+04  0.00000000000E+00 0. -1.
          5    1    1    2  502    0 -0.27029735986E+03  0.14375879270E+03 -0.10484418962E+04  0.10922361251E+04  0.47000000000E+01 0. -1.
         -5    1    1    2    0  502  0.70822945717E+02  0.14309458823E+01  0.76328360474E-02  0.70993149701E+02  0.47000000000E+01 0.  1.
        -11    1    1    2    0    0  0.90009287725E+02 -0.34767286654E+02 -0.15731829491E+03  0.18455211191E+03  0.00000000000E+00 0.  1.
         11    1    1    2    0    0  0.10946512642E+03 -0.11042245193E+03 -0.50438716882E+03  0.52780881753E+03  0.00000000000E+00 0. -1.
<mgrwt>
<rscale>  0 0.42861763E+03</rscale>
<asrwt>0</asrwt>
<pdfrwt beam="2">  1        2 0.27582536E+00 0.50387294E+03</pdfrwt>
<pdfrwt beam="1">  1       -2 0.12726961E-01 0.50387294E+03</pdfrwt>
<totfact> 0.41759453E+02</totfact>
</mgrwt>
</event>
<event>
 6    1  0.1045058E-005  0.1606909E+03  0.7546771E-02  0.1195398E+00
         -2   -1    0    0    0  501 -0.00000000000E+00  0.00000000000E+00  0.94039088899E+02  0.94039088899E+02  0.00000000000E+00 0.  1.
          2   -1    0    0  501    0  0.00000000000E+00 -0.00000000000E+00 -0.27077882679E+03  0.27077882679E+03  0.00000000000E+00 0. -1.
          5    1    1    2  502    0  0.10590415510E+03 -0.66136315936E+02 -0.15759739461E+03  0.20111869913E+03  0.47000000000E+01 0.  1.
         -5    1    1    2    0  502 -0.15862967163E+02  0.20428728928E+02 -0.36741467407E+01  0.26543474662E+02  0.47000000000E+01 0.  1.
        -11    1    1    2    0    0 -0.10192087320E+02  0.12623893031E+02  0.33925803745E+02  0.37605870272E+02  0.00000000000E+00 0.  1.
         11    1    1    2    0    0 -0.79849100614E+02  0.33083693977E+02 -0.49394000284E+02  0.99549871622E+02  0.00000000000E+00 0. -1.
<mgrwt>
<rscale>  0 0.15420626E+03</rscale>
<asrwt>0</asrwt>
<pdfrwt beam="2">  1        2 0.41658281E-01 0.16069087E+03</pdfrwt>
<pdfrwt beam="1">  1       -2 0.14467552E-01 0.16069087E+03</pdfrwt>
<totfact> 0.43097584E+03</totfact>
</mgrwt>
</event>
<event>
 6    1  0.1045058E-005  0.1266689E+03  0.7546771E-02  0.1247764E+00
          2   -1    0    0  501    0  0.00000000000E+00  0.00000000000E+00  0.15107343663E+03  0.15107343663E+03  0.00000000000E+00 0.  1.
         -2   -1    0    0    0  501 -0.00000000000E+00 -0.00000000000E+00 -0.93852063549E+02  0.93852063549E+02  0.00000000000E+00 0. -1.
          5    1    1    2  502    0  0.23243486715E+02  0.48410586676E+02  0.96419213146E+02  0.11046537575E+03  0.47000000000E+01 0.  1.
         -5    1    1    2    0  502 -0.20438511933E+02 -0.28069283282E+02 -0.17100115562E+02  0.38988734094E+02  0.47000000000E+01 0.  1.
        -11    1    1    2    0    0 -0.37253414935E+02 -0.24128894161E+02  0.12896578616E+02  0.46220581971E+02  0.00000000000E+00 0.  1.
         11    1    1    2    0    0  0.34448440154E+02  0.37875907668E+01 -0.34994303121E+02  0.49250808356E+02  0.00000000000E+00 0. -1.
<mgrwt>
<rscale>  0 0.11721460E+03</rscale>
<asrwt>0</asrwt>
<pdfrwt beam="1">  1        2 0.23242067E-01 0.12666891E+03</pdfrwt>
<pdfrwt beam="2">  1       -2 0.14438779E-01 0.12666891E+03</pdfrwt>
<totfact> 0.80163507E+03</totfact>
</mgrwt>
</event>
<event>
 6    1  0.1045058E-005  0.3723586E+03  0.7546771E-02  0.1054764E+00
          1   -1    0    0  501    0  0.00000000000E+00  0.00000000000E+00  0.37971740465E+04  0.37971740465E+04  0.00000000000E+00 0. -1.
         -1   -1    0    0    0  501 -0.00000000000E+00 -0.00000000000E+00 -0.35638546104E+02  0.35638546104E+02  0.00000000000E+00 0.  1.
          5    1    1    2  502    0 -0.51181568987E+02 -0.47686438765E+02  0.19495348558E+03  0.20717746254E+03  0.47000000000E+01 0. -1.
         -5    1    1    2    0  502 -0.25447348038E+03 -0.12435685212E+03  0.18157328919E+04  0.18376967660E+04  0.47000000000E+01 0. -1.
        -11    1    1    2    0    0  0.14701672266E+03  0.13424274978E+03  0.98534027212E+03  0.10052514534E+04  0.00000000000E+00 0.  1.
         11    1    1    2    0    0  0.15863832671E+03  0.37800541113E+02  0.76550885084E+03  0.78268691079E+03  0.00000000000E+00 0. -1.
<mgrwt>
<rscale>  0 0.36981440E+03</rscale>
<asrwt>0</asrwt>
<pdfrwt beam="1">  1        1 0.58418030E+00 0.37235857E+03</pdfrwt>
<pdfrwt beam="2">  1       -1 0.54828563E-02 0.37235857E+03</pdfrwt>
<totfact> 0.27192011E+01</totfact>
</mgrwt>
</event>
<event>
 6    1  0.1045058E-005  0.1654614E+03  0.7546771E-02  0.1189803E+00
          1   -1    0    0  501    0  0.00000000000E+00  0.00000000000E+00  0.72165866784E+03  0.72165866784E+03  0.00000000000E+00 0. -1.
         -1   -1    0    0    0  501 -0.00000000000E+00 -0.00000000000E+00 -0.47248807587E+02  0.47248807587E+02  0.00000000000E+00 0.  1.
          5    1    1    2  502    0 -0.56761750170E+02  0.42015683194E+02  0.10475138374E+03  0.12642055336E+03  0.47000000000E+01 0. -1.
         -5    1    1    2    0  502 -0.15846763435E+02  0.38483306659E+02  0.46466253729E+03  0.46654629820E+03  0.47000000000E+01 0. -1.
        -11    1    1    2    0    0 -0.12276843537E+02 -0.23150924284E+02  0.57159999370E+02  0.62880455711E+02  0.00000000000E+00 0. -1.
         11    1    1    2    0    0  0.84885357142E+02 -0.57348065569E+02  0.47835939853E+02  0.11306016815E+03  0.00000000000E+00 0.  1.
<mgrwt>
<rscale>  0 0.15902431E+03</rscale>
<asrwt>0</asrwt>
<pdfrwt beam="1">  1        1 0.11102440E+00 0.16546140E+03</pdfrwt>
<pdfrwt beam="2">  1       -1 0.72690478E-02 0.16546140E+03</pdfrwt>
<totfact> 0.26524708E+03</totfact>
</mgrwt>
</event>
<event>
 6    1  0.1045058E-005  0.1360439E+03  0.7546771E-02  0.1229159E+00
         -2   -1    0    0    0  501 -0.00000000000E+00  0.00000000000E+00  0.10826646792E+03  0.10826646792E+03  0.00000000000E+00 0.  1.
          2   -1    0    0  501    0  0.00000000000E+00 -0.00000000000E+00 -0.14262038165E+03  0.14262038165E+03  0.00000000000E+00 0. -1.
          5    1    1    2  502    0 -0.44696611320E+02 -0.77615520094E+02 -0.27276350486E+01  0.89730073086E+02  0.47000000000E+01 0.  1.
         -5    1    1    2    0  502  0.24553356780E+02  0.27838276209E+02 -0.35513768439E+02  0.51586380957E+02  0.47000000000E+01 0.  1.
        -11    1    1    2    0    0 -0.22007283925E+02 -0.18604584005E+02 -0.28568263342E+01  0.28958807787E+02  0.00000000000E+00 0.  1.
         11    1    1    2    0    0  0.42150538465E+02  0.68381827891E+02  0.67443160899E+01  0.80611587740E+02  0.00000000000E+00 0. -1.
<mgrwt>
<rscale>  0 0.12885883E+03</rscale>
<asrwt>0</asrwt>
<pdfrwt beam="2">  1        2 0.21941597E-01 0.13604387E+03</pdfrwt>
<pdfrwt beam="1">  1       -2 0.16656380E-01 0.13604387E+03</pdfrwt>
<totfact> 0.67988756E+03</totfact>
</mgrwt>
</event>
<event>
 6    1  0.1045058E-005  0.3283723E+03  0.7546771E-02  0.1071859E+00
         -2   -1    0    0    0  501 -0.00000000000E+00  0.00000000000E+00  0.44519552139E+02  0.44519552139E+02  0.00000000000E+00 0. -1.
          2   -1    0    0  501    0  0.00000000000E+00 -0.00000000000E+00 -0.60551135874E+03  0.60551135874E+03  0.00000000000E+00 0.  1.
          5    1    1    2  502    0 -0.38939873409E+01 -0.96746475071E+00 -0.34338784646E+03  0.34344344836E+03  0.47000000000E+01 0.  1.
         -5    1    1    2    0  502  0.45325815289E+02  0.68690589898E+02 -0.14378996644E+03  0.16574218268E+03  0.47000000000E+01 0.  1.
        -11    1    1    2    0    0 -0.28812842882E+02 -0.54781881401E+02 -0.94756355379E+02  0.11318127641E+03  0.00000000000E+00 0.  1.
         11    1    1    2    0    0 -0.12618985065E+02 -0.12941243746E+02  0.20942361668E+02  0.27664003434E+02  0.00000000000E+00 0. -1.
<mgrwt>
<rscale>  0 0.32837232E+03</rscale>
<asrwt>0</asrwt>
<pdfrwt beam="2">  1        2 0.93155591E-01 0.32837232E+03</pdfrwt>
<pdfrwt beam="1">  1       -2 0.68491621E-02 0.32837232E+03</pdfrwt>
<totfact> 0.60323849E+03</totfact>
</mgrwt>
</event>
<event>
 6    1  0.1045058E-005  0.4237921E+03  0.7546771E-02  0.1100655E+00
          2   -1    0    0  501    0  0.00000000000E+00  0.00000000000E+00  0.59530314340E+03  0.59530314340E+03  0.00000000000E+00 0. -1.
         -2   -1    0    0    0  501 -0.00000000000E+00 -0.00000000000E+00 -0.15636383514E+03  0.15636383514E+03  0.00000000000E+00 0.  1.
          5    1    1    2  502    0  0.35331618982E+02  0.38719086961E+02  0.56327614089E+03  0.56572925670E+03  0.47000000000E+01 0. -1.
         -5    1    1    2    0  502  0.25082500100E+02 -0.62254652785E+02 -0.61438067748E+02  0.91112566495E+02  0.47000000000E+01 0.  1.
        -11    1    1    2    0    0 -0.35463002014E+02  0.28523170499E+02 -0.39724824328E+02  0.60409084044E+02  0.00000000000E+00 0. -1.
         11    1    1    2    0    0 -0.24951117068E+02 -0.49876046753E+01 -0.23173940545E+02  0.34416071300E+02  0.00000000000E+00 0.  1.
<mgrwt>
<rscale>  0 0.27109440E+03</rscale>
<asrwt>0</asrwt>
<pdfrwt beam="1">  1        2 0.91585097E-01 0.42379208E+03</pdfrwt>
<pdfrwt beam="2">  1       -2 0.24055975E-01 0.42379208E+03</pdfrwt>
<totfact> 0.77571981E+02</totfact>
</mgrwt>
</event>
<event>
 6    1  0.1045058E-005  0.1360018E+03  0.7546771E-02  0.1234319E+00
          1   -1    0    0  501    0  0.00000000000E+00  0.00000000000E+00  0.70655071002E+03  0.70655071002E+03  0.00000000000E+00 0. -1.
         -1   -1    0    0    0  501 -0.00000000000E+00 -0.00000000000E+00 -0.19488361324E+02  0.19488361324E+02  0.00000000000E+00 0.  1.
          5    1    1    2  502    0 -0.10159689786E+02  0.62993374786E+02  0.90551375694E+02  0.11087392030E+03  0.47000000000E+01 0. -1.
         -5    1    1    2    0  502  0.29314492403E+02 -0.12942471924E+02  0.31962415021E+03  0.32126085109E+03  0.47000000000E+01 0. -1.
        -11    1    1    2    0    0 -0.32291649334E+02 -0.69303451346E+01  0.36075626661E+02  0.48910439984E+02  0.00000000000E+00 0.  1.
         11    1    1    2    0    0  0.13136846717E+02 -0.43120557728E+02  0.24081119613E+03  0.24499385997E+03  0.00000000000E+00 0. -1.
<mgrwt>
<rscale>  0 0.12548162E+03</rscale>
<asrwt>0</asrwt>
<pdfrwt beam="1">  1        1 0.10870009E+00 0.13600183E+03</pdfrwt>
<pdfrwt beam="2">  1       -1 0.29982100E-02 0.13600183E+03</pdfrwt>
<totfact> 0.10058413E+04</totfact>
</mgrwt>
</event>
<event>
 6    1  0.1045058E-005  0.1736152E+03  0.7546771E-02  0.1180493E+00
          1   -1    0    0  501    0  0.00000000000E+00  0.00000000000E+00  0.89450822881E+03  0.89450822881E+03  0.00000000000E+00 0. -1.
         -1   -1    0    0    0  501 -0.00000000000E+00 -0.00000000000E+00 -0.30637796911E+02  0.30637796911E+02  0.00000000000E+00 0.  1.
          5    1    1    2  502    0  0.35441131530E+02  0.48071150872E+02  0.30402948413E+03  0.30987566308E+03  0.47000000000E+01 0.  1.
         -5    1    1    2    0  502  0.84401568970E+02 -0.60724553080E+02  0.25266401970E+03  0.27326231545E+03  0.47000000000E+01 0.  1.
        -11    1    1    2    0    0 -0.26726511723E+02  0.21248433568E+02  0.18514518356E+03  0.18826720732E+03  0.00000000000E+00 0. -1.
         11    1    1    2    0    0 -0.93116188776E+02 -0.85950313605E+01  0.12203174451E+03  0.15374083987E+03  0.00000000000E+00 0.  1.
<mgrwt>
<rscale>  0 0.16748767E+03</rscale>
<asrwt>0</asrwt>
<pdfrwt beam="1">  1        1 0.13761663E+00 0.17361522E+03</pdfrwt>
<pdfrwt beam="2">  1       -1 0.47135079E-02 0.17361522E+03</pdfrwt>
<totfact> 0.36615943E+03</totfact>
</mgrwt>
</event>
<event>
 6    1  0.1045058E-005  0.1272498E+03  0.7546771E-02  0.1246479E+00
          1   -1    0    0  501    0  0.00000000000E+00  0.00000000000E+00  0.71100488008E+03  0.71100488008E+03  0.00000000000E+00 0. -1.
         -1   -1    0    0    0  501 -0.00000000000E+00 -0.00000000000E+00 -0.29351904846E+02  0.29351904846E+02  0.00000000000E+00 0.  1.
          5    1    1    2  502    0 -0.54468115422E+02  0.32881585541E+02  0.49615078226E+03  0.50023560749E+03  0.47000000000E+01 0.  1.
         -5    1    1    2    0  502  0.30666490589E+02 -0.33830309165E+02  0.11118283574E+03  0.12028564514E+03  0.47000000000E+01 0.  1.
        -11    1    1    2    0    0  0.29354949920E+02 -0.13316256786E+02  0.91389147801E+02  0.96907234587E+02  0.00000000000E+00 0. -1.
         11    1    1    2    0    0 -0.55533250871E+01  0.14264980409E+02 -0.17069790570E+02  0.22928297706E+02  0.00000000000E+00 0.  1.
<mgrwt>
<rscale>  0 0.11797283E+03</rscale>
<asrwt>0</asrwt>
<pdfrwt beam="1">  1        1 0.10938535E+00 0.12724976E+03</pdfrwt>
<pdfrwt beam="2">  1       -1 0.45156782E-02 0.12724976E+03</pdfrwt>
<totfact> 0.54531740E+03</totfact>
</mgrwt>
</event>
<event>
 6    1  0.1045058E-005  0.1352704E+03  0.7546771E-02  0.1235396E+00
         -1   -1    0    0    0  501 -0.00000000000E+00  0.00000000000E+00  0.45359843727E+02  0.45359843727E+02  0.00000000000E+00 0.  1.
          1   -1    0    0  501    0  0.00000000000E+00 -0.00000000000E+00 -0.34750914230E+03  0.34750914230E+03  0.00000000000E+00 0. -1.
          5    1    1    2  502    0  0.28405463730E+02  0.37869604445E+02 -0.60509871914E+02  0.76970851038E+02  0.47000000000E+01 0. -1.
         -5    1    1    2    0  502 -0.79317288751E+02 -0.28823725284E+02 -0.18334419975E+03  0.20188914041E+03  0.47000000000E+01 0. -1.
        -11    1    1    2    0    0  0.76993182355E+01 -0.39352971260E+02 -0.75755215832E+01  0.40808386093E+02  0.00000000000E+00 0.  1.
         11    1    1    2    0    0  0.43212506786E+02  0.30307092098E+02 -0.50719705326E+02  0.73200608484E+02  0.00000000000E+00 0. -1.
<mgrwt>
<rscale>  0 0.12479134E+03</rscale>
<asrwt>0</asrwt>
<pdfrwt beam="2">  1        1 0.53462943E-01 0.13527042E+03</pdfrwt>
<pdfrwt beam="1">  1       -1 0.69784377E-02 0.13527042E+03</pdfrwt>
<totfact> 0.73459861E+03</totfact>
</mgrwt>
</event>
<event>
 6    1  0.1045058E-005  0.1728009E+03  0.7546771E-02  0.1182156E+00
         -1   -1    0    0    0  501 -0.00000000000E+00  0.00000000000E+00  0.22382259181E+02  0.22382259181E+02  0.00000000000E+00 0.  1.
          1   -1    0    0  501    0  0.00000000000E+00 -0.00000000000E+00 -0.11976129995E+04  0.11976129995E+04  0.00000000000E+00 0. -1.
          5    1    1    2  502    0  0.33579824987E+02  0.20732779556E+02 -0.39502547375E+03  0.39701973213E+03  0.47000000000E+01 0.  1.
         -5    1    1    2    0  502  0.55875450166E+02 -0.99638416086E+02 -0.36917232405E+03  0.38647144103E+03  0.47000000000E+01 0.  1.
        -11    1    1    2    0    0 -0.85366617505E+02  0.67897509864E+02 -0.41050511744E+03  0.42474931745E+03  0.00000000000E+00 0. -1.
         11    1    1    2    0    0 -0.40886576472E+01  0.11008126667E+02 -0.52782513591E+00  0.11754768115E+02  0.00000000000E+00 0.  1.
<mgrwt>
<rscale>  0 0.16593399E+03</rscale>
<asrwt>0</asrwt>
<pdfrwt beam="2">  1        1 0.18424822E+00 0.17280088E+03</pdfrwt>
<pdfrwt beam="1">  1       -1 0.34434233E-02 0.17280088E+03</pdfrwt>
<totfact> 0.35029084E+03</totfact>
</mgrwt>
</event>
<event>
 6    1  0.1045058E-005  0.1250393E+03  0.7546771E-02  0.1248286E+00
         -2   -1    0    0    0  501 -0.00000000000E+00  0.00000000000E+00  0.18407020622E+02  0.18407020622E+02  0.00000000000E+00 0.  1.
          2   -1    0    0  501    0  0.00000000000E+00 -0.00000000000E+00 -0.79960390892E+03  0.79960390892E+03  0.00000000000E+00 0. -1.
          5    1    1    2  502    0 -0.21288975828E+01 -0.58343442188E+02 -0.39410774002E+03  0.39843630632E+03  0.47000000000E+01 0. -1.
         -5    1    1    2    0  502  0.73553881961E+01  0.59544835853E+02 -0.20873069272E+03  0.21723324169E+03  0.47000000000E+01 0. -1.
        -11    1    1    2    0    0  0.10553325178E+02 -0.32892035703E+02 -0.15751686527E+03  0.16126010520E+03  0.00000000000E+00 0. -1.
         11    1    1    2    0    0 -0.15779815791E+02  0.31690642038E+02 -0.20841590291E+02  0.41081276332E+02  0.00000000000E+00 0.  1.
<mgrwt>
<rscale>  0 0.11690832E+03</rscale>
<asrwt>0</asrwt>
<pdfrwt beam="2">  1        2 0.12301596E+00 0.12503926E+03</pdfrwt>
<pdfrwt beam="1">  1       -2 0.28318500E-02 0.12503926E+03</pdfrwt>
<totfact> 0.15517826E+04</totfact>
</mgrwt>
</event>
<event>
 6    1  0.1045058E-005  0.1437604E+03  0.7546771E-02  0.1218638E+00
         -3   -1    0    0    0  501 -0.00000000000E+00  0.00000000000E+00  0.26299939249E+03  0.26299939249E+03  0.00000000000E+00 0.  1.
          3   -1    0    0  501    0  0.00000000000E+00 -0.00000000000E+00 -0.65836608851E+02  0.65836608851E+02  0.00000000000E+00 0. -1.
          5    1    1    2  502    0 -0.17359097243E+02  0.46115923481E+02  0.17738742684E+02  0.52581076896E+02  0.47000000000E+01 0. -1.
         -5    1    1    2    0  502  0.87011096574E+02 -0.32286218115E+02  0.63426653798E+02  0.11250938281E+03  0.47000000000E+01 0. -1.
        -11    1    1    2    0    0 -0.44277619574E+02 -0.52331782121E+02  0.79238811620E+02  0.10477553284E+03  0.00000000000E+00 0.  1.
         11    1    1    2    0    0 -0.25374379757E+02  0.38502076754E+02  0.36758575542E+02  0.58970008804E+02  0.00000000000E+00 0. -1.
<mgrwt>
<rscale>  0 0.13612685E+03</rscale>
<asrwt>0</asrwt>
<pdfrwt beam="2">  1        3 0.10128709E-01 0.14376035E+03</pdfrwt>
<pdfrwt beam="1">  1       -3 0.40461444E-01 0.14376035E+03</pdfrwt>
<totfact> 0.10204859E+03</totfact>
</mgrwt>
</event>
<event>
 6    1  0.1045058E-005  0.3549151E+03  0.7546771E-02  0.1060616E+00
         -1   -1    0    0    0  501 -0.00000000000E+00  0.00000000000E+00  0.12295940755E+02  0.12295940755E+02  0.00000000000E+00 0.  1.
          1   -1    0    0  501    0  0.00000000000E+00 -0.00000000000E+00 -0.25611037589E+04  0.25611037589E+04  0.00000000000E+00 0. -1.
          5    1    1    2  502    0 -0.23194424058E+02 -0.51089106436E+01 -0.98364318829E+03  0.98394110299E+03  0.47000000000E+01 0. -1.
         -5    1    1    2    0  502  0.45250867649E+02  0.76280301366E+02 -0.83982778667E+03  0.84451117616E+03  0.47000000000E+01 0.  1.
        -11    1    1    2    0    0 -0.26498403591E+02 -0.11799463099E+03 -0.46961352325E+03  0.48493479928E+03  0.00000000000E+00 0.  1.
         11    1    1    2    0    0  0.44419599999E+01  0.46823240271E+02 -0.25572331996E+03  0.26001262125E+03  0.00000000000E+00 0. -1.
<mgrwt>
<rscale>  0 0.35491509E+03</rscale>
<asrwt>0</asrwt>
<pdfrwt beam="2">  1        1 0.39401632E+00 0.35491509E+03</pdfrwt>
<pdfrwt beam="1">  1       -1 0.18916815E-02 0.35491509E+03</pdfrwt>
<totfact> 0.10647051E+03</totfact>
</mgrwt>
</event>
<event>
 6    1  0.1045058E-005  0.1374210E+03  0.7546771E-02  0.1242242E+00
         -4   -1    0    0    0  501 -0.00000000000E+00  0.00000000000E+00  0.78559326721E+02  0.78559326721E+02  0.00000000000E+00 0.  1.
          4   -1    0    0  501    0  0.00000000000E+00 -0.00000000000E+00 -0.22337100523E+03  0.22337100523E+03  0.00000000000E+00 0. -1.
          5    1    1    2  502    0 -0.85041051121E+01  0.30091097286E+00 -0.16769581829E+03  0.16797734318E+03  0.47000000000E+01 0. -1.
         -5    1    1    2    0  502 -0.45030909702E+02  0.19555831285E+02 -0.63320526567E+00  0.49322452440E+02  0.47000000000E+01 0. -1.
        -11    1    1    2    0    0  0.49033542429E+02 -0.26406982663E+01  0.37673731238E+02  0.61891611676E+02  0.00000000000E+00 0.  1.
         11    1    1    2    0    0  0.45014723849E+01 -0.17216043992E+02 -0.14156386194E+02  0.22738924654E+02  0.00000000000E+00 0. -1.
<mgrwt>
<rscale>  0 0.12051998E+03</rscale>
<asrwt>0</asrwt>
<pdfrwt beam="2">  1        4 0.34364770E-01 0.13742104E+03</pdfrwt>
<pdfrwt beam="1">  1       -4 0.12086050E-01 0.13742104E+03</pdfrwt>
<totfact> 0.74567385E+02</totfact>
</mgrwt>
</event>
<event>
 6    1  0.1045058E-005  0.1132564E+03  0.7546771E-02  0.1265639E+00
          2   -1    0    0  501    0  0.00000000000E+00  0.00000000000E+00  0.60992789300E+03  0.60992789300E+03  0.00000000000E+00 0. -1.
         -2   -1    0    0    0  501 -0.00000000000E+00 -0.00000000000E+00 -0.37165748422E+02  0.37165748422E+02  0.00000000000E+00 0.  1.
          5    1    1    2  502    0  0.12915462263E+02 -0.48666018552E+02  0.23195838805E+03  0.23740676973E+03  0.47000000000E+01 0. -1.
         -5    1    1    2    0  502 -0.35737283516E+02  0.51226002977E+02  0.30545519674E+03  0.31181119934E+03  0.47000000000E+01 0.  1.
        -11    1    1    2    0    0 -0.21130079854E+01 -0.31761633108E+02  0.47869379907E+02  0.57486900013E+02  0.00000000000E+00 0. -1.
         11    1    1    2    0    0  0.24934829239E+02  0.29201648682E+02 -0.12520820121E+02  0.40388772344E+02  0.00000000000E+00 0.  1.
<mgrwt>
<rscale>  0 0.10730713E+03</rscale>
<asrwt>0</asrwt>
<pdfrwt beam="1">  1        2 0.93835053E-01 0.11325642E+03</pdfrwt>
<pdfrwt beam="2">  1       -2 0.57178079E-02 0.11325642E+03</pdfrwt>
<totfact> 0.74906595E+03</totfact>
</mgrwt>
</event>
<event>
 6    1  0.1045058E-005  0.1420614E+03  0.7546771E-02  0.1221329E+00
          1   -1    0    0  501    0  0.00000000000E+00  0.00000000000E+00  0.76780077563E+02  0.76780077563E+02  0.00000000000E+00 0. -1.
         -1   -1    0    0    0  501 -0.00000000000E+00 -0.00000000000E+00 -0.21596009797E+03  0.21596009797E+03  0.00000000000E+00 0.  1.
          5    1    1    2  502    0  0.19331578560E+01 -0.13715401870E+02  0.25640349363E+02  0.29518923815E+02  0.47000000000E+01 0. -1.
         -5    1    1    2    0  502 -0.68725273377E+02  0.23420860931E+02 -0.12230621760E+03  0.14231163266E+03  0.47000000000E+01 0. -1.
        -11    1    1    2    0    0  0.76771227267E+02 -0.11340806497E+02 -0.61752424080E+02  0.99175587257E+02  0.00000000000E+00 0.  1.
         11    1    1    2    0    0 -0.99791117463E+01  0.16353474362E+01  0.19238271906E+02  0.21734031803E+02  0.00000000000E+00 0. -1.
<mgrwt>
<rscale>  0 0.13421712E+03</rscale>
<asrwt>0</asrwt>
<pdfrwt beam="1">  1        1 0.11812320E-01 0.14206143E+03</pdfrwt>
<pdfrwt beam="2">  1       -1 0.33224630E-01 0.14206143E+03</pdfrwt>
<totfact> 0.42147123E+03</totfact>
</mgrwt>
</event>
<event>
 6    1  0.1045058E-005  0.1286936E+03  0.7546771E-02  0.1243482E+00
         -1   -1    0    0    0  501 -0.00000000000E+00  0.00000000000E+00  0.37195866945E+02  0.37195866945E+02  0.00000000000E+00 0.  1.
          1   -1    0    0  501    0  0.00000000000E+00 -0.00000000000E+00 -0.35675136010E+03  0.35675136010E+03  0.00000000000E+00 0. -1.
          5    1    1    2  502    0 -0.37356610302E+02  0.38638019626E+02 -0.18296451011E+03  0.19075249632E+03  0.47000000000E+01 0.  1.
         -5    1    1    2    0  502  0.51748349440E+02 -0.11636627786E+02 -0.39668468209E+02  0.66400151702E+02  0.47000000000E+01 0.  1.
        -11    1    1    2    0    0  0.22867830150E+02 -0.10940420876E+02  0.60970253094E+01  0.26073054718E+02  0.00000000000E+00 0.  1.
         11    1    1    2    0    0 -0.37259569288E+02 -0.16060970964E+02 -0.10301954015E+03  0.11072152430E+03  0.00000000000E+00 0. -1.
<mgrwt>
<rscale>  0 0.11976712E+03</rscale>
<asrwt>0</asrwt>
<pdfrwt beam="2">  1        1 0.54884821E-01 0.12869359E+03</pdfrwt>
<pdfrwt beam="1">  1       -1 0.57224414E-02 0.12869359E+03</pdfrwt>
<totfact> 0.95250373E+03</totfact>
</mgrwt>
</event>
<event>
 6    1  0.1045058E-005  0.1536101E+03  0.7546771E-02  0.1207031E+00
          2   -1    0    0  501    0  0.00000000000E+00  0.00000000000E+00  0.96605945380E+03  0.96605945380E+03  0.00000000000E+00 0. -1.
         -2   -1    0    0    0  501 -0.00000000000E+00 -0.00000000000E+00 -0.23017473445E+02  0.23017473445E+02  0.00000000000E+00 0.  1.
          5    1    1    2  502    0  0.78074973512E+02 -0.26101704514E+02  0.53809327259E+03  0.54437437529E+03  0.47000000000E+01 0.  1.
         -5    1    1    2    0  502 -0.32053094520E+02 -0.50358763612E+02  0.17143372686E+03  0.18159024931E+03  0.47000000000E+01 0.  1.
        -11    1    1    2    0    0  0.16371963482E+02  0.39794846520E+02  0.50730647413E+02  0.66522699771E+02  0.00000000000E+00 0.  1.
         11    1    1    2    0    0 -0.62393842474E+02  0.36665621606E+02  0.18278433350E+03  0.19658960287E+03  0.00000000000E+00 0. -1.
<mgrwt>
<rscale>  0 0.14478557E+03</rscale>
<asrwt>0</asrwt>
<pdfrwt beam="1">  1        2 0.14862450E+00 0.15361013E+03</pdfrwt>
<pdfrwt beam="2">  1       -2 0.35411505E-02 0.15361013E+03</pdfrwt>
<totfact> 0.88498631E+03</totfact>
</mgrwt>
</event>
<event>
 6    1  0.1045058E-005  0.1920800E+03  0.7546771E-02  0.1160981E+00
         -2   -1    0    0    0  501 -0.00000000000E+00  0.00000000000E+00  0.10019985227E+03  0.10019985227E+03  0.00000000000E+00 0.  1.
          2   -1    0    0  501    0  0.00000000000E+00 -0.00000000000E+00 -0.34645291547E+03  0.34645291547E+03  0.00000000000E+00 0. -1.
          5    1    1    2  502    0  0.76260494420E+02 -0.13771459675E+02 -0.10975869564E+02  0.78408391282E+02  0.47000000000E+01 0.  1.
         -5    1    1    2    0  502  0.66943329359E+02  0.41329296830E+02 -0.16166938284E+03  0.17985716408E+03  0.47000000000E+01 0.  1.
        -11    1    1    2    0    0 -0.25642584549E+02 -0.45561476382E+02 -0.36639434365E+02  0.63842293372E+02  0.00000000000E+00 0. -1.
         11    1    1    2    0    0 -0.11756123923E+03  0.18003639227E+02 -0.36968376431E+02  0.12454491901E+03  0.00000000000E+00 0.  1.
<mgrwt>
<rscale>  0 0.18723248E+03</rscale>
<asrwt>0</asrwt>
<pdfrwt beam="2">  1        2 0.53300448E-01 0.19207997E+03</pdfrwt>
<pdfrwt beam="1">  1       -2 0.15415362E-01 0.19207997E+03</pdfrwt>
<totfact> 0.30073992E+03</totfact>
</mgrwt>
</event>
<event>
 6    1  0.1045058E-005  0.1253810E+03  0.7546771E-02  0.1251293E+00
         -1   -1    0    0    0  501 -0.00000000000E+00  0.00000000000E+00  0.38832096267E+02  0.38832096267E+02  0.00000000000E+00 0.  1.
          1   -1    0    0  501    0  0.00000000000E+00 -0.00000000000E+00 -0.30039228401E+03  0.30039228401E+03  0.00000000000E+00 0. -1.
          5    1    1    2  502    0 -0.51970675959E+02 -0.26993202981E+02 -0.99286482396E+02  0.11536671857E+03  0.47000000000E+01 0. -1.
         -5    1    1    2    0  502  0.53315243807E+02  0.36652916550E+02 -0.72112075810E+02  0.96995840073E+02  0.47000000000E+01 0. -1.
        -11    1    1    2    0    0 -0.27372584892E+02 -0.32117606745E+02 -0.80921987546E+02  0.91264270857E+02  0.00000000000E+00 0.  1.
         11    1    1    2    0    0  0.26028017044E+02  0.22457893175E+02 -0.92396419887E+01  0.35597550775E+02  0.00000000000E+00 0. -1.
<mgrwt>
<rscale>  0 0.11516503E+03</rscale>
<asrwt>0</asrwt>
<pdfrwt beam="2">  1        1 0.46214199E-01 0.12538098E+03</pdfrwt>
<pdfrwt beam="1">  1       -1 0.59741684E-02 0.12538098E+03</pdfrwt>
<totfact> 0.11036002E+04</totfact>
</mgrwt>
</event>
<event>
 6    1  0.1045058E-005  0.1563115E+03  0.7546771E-02  0.1201591E+00
         -3   -1    0    0    0  501 -0.00000000000E+00  0.00000000000E+00  0.16283825802E+03  0.16283825802E+03  0.00000000000E+00 0.  1.
          3   -1    0    0  501    0  0.00000000000E+00 -0.00000000000E+00 -0.18651483414E+03  0.18651483414E+03  0.00000000000E+00 0. -1.
          5    1    1    2  502    0  0.88644622399E+01  0.79631007420E+02 -0.78612037273E+01  0.80644680901E+02  0.47000000000E+01 0. -1.
         -5    1    1    2    0  502 -0.38506130500E+02  0.93975239731E+01 -0.10449286364E+03  0.11185653354E+03  0.47000000000E+01 0. -1.
        -11    1    1    2    0    0  0.74493791362E+01 -0.81157412336E+01 -0.18018321806E+02  0.21119148325E+02  0.00000000000E+00 0. -1.
         11    1    1    2    0    0  0.22192289124E+02 -0.80912790160E+02  0.10669581306E+03  0.13573272940E+03  0.00000000000E+00 0.  1.
<mgrwt>
<rscale>  0 0.14909352E+03</rscale>
<asrwt>0</asrwt>
<pdfrwt beam="2">  1        3 0.28694590E-01 0.15631149E+03</pdfrwt>
<pdfrwt beam="1">  1       -3 0.25052040E-01 0.15631149E+03</pdfrwt>
<totfact> 0.41334463E+02</totfact>
</mgrwt>
</event>
<event>
 6    1  0.1045058E-005  0.1214216E+03  0.7546771E-02  0.1259396E+00
          2   -1    0    0  501    0  0.00000000000E+00  0.00000000000E+00  0.75480944600E+03  0.75480944600E+03  0.00000000000E+00 0. -1.
         -2   -1    0    0    0  501 -0.00000000000E+00 -0.00000000000E+00 -0.14455497726E+02  0.14455497726E+02  0.00000000000E+00 0.  1.
          5    1    1    2  502    0  0.30084343114E+02  0.64771490268E+02  0.41347267880E+03  0.41962144817E+03  0.47000000000E+01 0. -1.
         -5    1    1    2    0  502 -0.23625855229E+02 -0.32012870084E+02  0.94123796685E+02  0.10229557170E+03  0.47000000000E+01 0.  1.
        -11    1    1    2    0    0  0.34515559487E+02 -0.11445575341E+02  0.82652370622E+02  0.90298058734E+02  0.00000000000E+00 0. -1.
         11    1    1    2    0    0 -0.40974047372E+02 -0.21313044843E+02  0.15010510216E+03  0.15704986512E+03  0.00000000000E+00 0.  1.
<mgrwt>
<rscale>  0 0.11063626E+03</rscale>
<asrwt>0</asrwt>
<pdfrwt beam="1">  1        2 0.11612450E+00 0.12142155E+03</pdfrwt>
<pdfrwt beam="2">  1       -2 0.22239233E-02 0.12142155E+03</pdfrwt>
<totfact> 0.23629063E+04</totfact>
</mgrwt>
</event>
<event>
 6    1  0.1045058E-005  0.1326281E+03  0.7546771E-02  0.1235650E+00
          2   -1    0    0  501    0  0.00000000000E+00  0.00000000000E+00  0.38758774465E+03  0.38758774465E+03  0.00000000000E+00 0.  1.
         -2   -1    0    0    0  501 -0.00000000000E+00 -0.00000000000E+00 -0.65254646653E+02  0.65254646653E+02  0.00000000000E+00 0. -1.
          5    1    1    2  502    0  0.33942313588E+02  0.58625092830E+02  0.23043880499E+03  0.24023554068E+03  0.47000000000E+01 0. -1.
         -5    1    1    2    0  502 -0.54012030765E+02 -0.19082136944E+02  0.92837474941E+02  0.10918935008E+03  0.47000000000E+01 0. -1.
        -11    1    1    2    0    0 -0.22175619758E+02 -0.43231577476E+02 -0.25022236342E+02  0.54651987286E+02  0.00000000000E+00 0. -1.
         11    1    1    2    0    0  0.42245336935E+02  0.36886215894E+01  0.24079054412E+02  0.48765513259E+02  0.00000000000E+00 0.  1.
<mgrwt>
<rscale>  0 0.12462941E+03</rscale>
<asrwt>0</asrwt>
<pdfrwt beam="1">  1        2 0.59628882E-01 0.13262806E+03</pdfrwt>
<pdfrwt beam="2">  1       -2 0.10039177E-01 0.13262806E+03</pdfrwt>
<totfact> 0.52278463E+03</totfact>
</mgrwt>
</event>
<event>
 6    1  0.1045058E-005  0.2173613E+03  0.7546771E-02  0.1139497E+00
          1   -1    0    0  501    0  0.00000000000E+00  0.00000000000E+00  0.83727549864E+03  0.83727549864E+03  0.00000000000E+00 0. -1.
         -1   -1    0    0    0  501 -0.00000000000E+00 -0.00000000000E+00 -0.52184765070E+02  0.52184765070E+02  0.00000000000E+00 0.  1.
          5    1    1    2  502    0  0.32550707765E+02 -0.49156920444E+02  0.16347644546E+03  0.17384645416E+03  0.47000000000E+01 0. -1.
         -5    1    1    2    0  502  0.14518488050E+03  0.54767455085E+02  0.28548584638E+03  0.32496520143E+03  0.47000000000E+01 0. -1.
        -11    1    1    2    0    0 -0.11314523256E+03 -0.14985496147E+02  0.12320271253E+03  0.16794438698E+03  0.00000000000E+00 0.  1.
         11    1    1    2    0    0 -0.64590355704E+02  0.93749615067E+01  0.21292572921E+03  0.22270422114E+03  0.00000000000E+00 0. -1.
<mgrwt>
<rscale>  0 0.21263338E+03</rscale>
<asrwt>0</asrwt>
<pdfrwt beam="1">  1        1 0.12881161E+00 0.21736129E+03</pdfrwt>
<pdfrwt beam="2">  1       -1 0.80284260E-02 0.21736129E+03</pdfrwt>
<totfact> 0.18323460E+03</totfact>
</mgrwt>
</event>
<event>
 6    1  0.1045058E-005  0.4120891E+03  0.7546771E-02  0.1039672E+00
          1   -1    0    0  501    0  0.00000000000E+00  0.00000000000E+00  0.18734258093E+04  0.18734258093E+04  0.00000000000E+00 0. -1.
         -1   -1    0    0    0  501 -0.00000000000E+00 -0.00000000000E+00 -0.22661353162E+02  0.22661353162E+02  0.00000000000E+00 0.  1.
          5    1    1    2  502    0 -0.27059766586E+02  0.15350555821E+03  0.90370275093E+03  0.91705885275E+03  0.47000000000E+01 0.  1.
         -5    1    1    2    0  502 -0.19640808258E+02 -0.10377139240E+02  0.46590602293E+03  0.46645895701E+03  0.47000000000E+01 0.  1.
        -11    1    1    2    0    0  0.60958352619E+02 -0.49038598453E+02  0.26690555099E+03  0.27813535920E+03  0.00000000000E+00 0. -1.
         11    1    1    2    0    0 -0.14257777775E+02 -0.94089820519E+02  0.21425013133E+03  0.23443399354E+03  0.00000000000E+00 0.  1.
<mgrwt>
<rscale>  0 0.41208914E+03</rscale>
<asrwt>0</asrwt>
<pdfrwt beam="1">  1        1 0.28821923E+00 0.41208914E+03</pdfrwt>
<pdfrwt beam="2">  1       -1 0.34863635E-02 0.41208914E+03</pdfrwt>
<totfact> 0.12191453E+03</totfact>
</mgrwt>
</event>
<event>
 6    1  0.1045058E-005  0.3641377E+03  0.7546771E-02  0.1056957E+00
         -1   -1    0    0    0  501 -0.00000000000E+00  0.00000000000E+00  0.77548438380E+02  0.77548438380E+02  0.00000000000E+00 0.  1.
          1   -1    0    0  501    0  0.00000000000E+00 -0.00000000000E+00 -0.42746283244E+03  0.42746283244E+03  0.00000000000E+00 0. -1.
          5    1    1    2  502    0 -0.76204115964E+02  0.10218759450E+03 -0.78777160425E+02  0.14992432345E+03  0.47000000000E+01 0.  1.
         -5    1    1    2    0  502 -0.37749520311E+02 -0.11847502235E+02 -0.11926800436E+03  0.12574711311E+03  0.47000000000E+01 0.  1.
        -11    1    1    2    0    0  0.68560213285E+02 -0.47331438246E+01 -0.33756435642E+02  0.76566327086E+02  0.00000000000E+00 0.  1.
         11    1    1    2    0    0  0.45393422989E+02 -0.85606948437E+02 -0.11811279364E+03  0.15277350717E+03  0.00000000000E+00 0. -1.
<mgrwt>
<rscale>  0 0.36413775E+03</rscale>
<asrwt>0</asrwt>
<pdfrwt beam="2">  1        1 0.65763512E-01 0.36413775E+03</pdfrwt>
<pdfrwt beam="1">  1       -1 0.11930529E-01 0.36413775E+03</pdfrwt>
<totfact> 0.25782640E+03</totfact>
</mgrwt>
</event>
<event>
 6    1  0.1045058E-005  0.1278152E+03  0.7546771E-02  0.1243830E+00
          2   -1    0    0  501    0  0.00000000000E+00  0.00000000000E+00  0.19145987737E+03  0.19145987737E+03  0.00000000000E+00 0. -1.
         -2   -1    0    0    0  501 -0.00000000000E+00 -0.00000000000E+00 -0.66744616708E+02  0.66744616708E+02  0.00000000000E+00 0.  1.
          5    1    1    2  502    0  0.34703065536E+02 -0.52061856719E+02  0.50158956712E+02  0.80329014815E+02  0.47000000000E+01 0.  1.
         -5    1    1    2    0  502 -0.10221599076E+02  0.62635006364E+02  0.28301299517E+02  0.69646813741E+02  0.47000000000E+01 0.  1.
        -11    1    1    2    0    0  0.25976277378E+01 -0.19792771704E+02 -0.24680143938E+02  0.31742888753E+02  0.00000000000E+00 0.  1.
         11    1    1    2    0    0 -0.27079094198E+02  0.92196220591E+01  0.70935148376E+02  0.76485776774E+02  0.00000000000E+00 0. -1.
<mgrwt>
<rscale>  0 0.11955651E+03</rscale>
<asrwt>0</asrwt>
<pdfrwt beam="1">  1        2 0.29455366E-01 0.12781525E+03</pdfrwt>
<pdfrwt beam="2">  1       -2 0.10268403E-01 0.12781525E+03</pdfrwt>
<totfact> 0.10665215E+04</totfact>
</mgrwt>
</event>
<event>
 6    1  0.1045058E-005  0.1362822E+03  0.7546771E-02  0.1233279E+00
         -2   -1    0    0    0  501 -0.00000000000E+00  0.00000000000E+00  0.72440682843E+02  0.72440682843E+02  0.00000000000E+00 0.  1.
          2   -1    0    0  501    0  0.00000000000E+00 -0.00000000000E+00 -0.20306651959E+03  0.20306651959E+03  0.00000000000E+00 0. -1.
          5    1    1    2  502    0  0.55869067952E+02  0.29457988625E+01 -0.55877166657E+02  0.79210972967E+02  0.47000000000E+01 0.  1.
         -5    1    1    2    0  502 -0.34141932160E+02 -0.52689247323E+02  0.11730706946E+02  0.64043171381E+02  0.47000000000E+01 0.  1.
        -11    1    1    2    0    0  0.26673079547E+02  0.17832042716E+02 -0.61008642187E+02  0.68931047732E+02  0.00000000000E+00 0. -1.
         11    1    1    2    0    0 -0.48400215338E+02  0.31911405745E+02 -0.25470734851E+02  0.63322010354E+02  0.00000000000E+00 0.  1.
<mgrwt>
<rscale>  0 0.12615239E+03</rscale>
<asrwt>0</asrwt>
<pdfrwt beam="2">  1        2 0.31241003E-01 0.13628221E+03</pdfrwt>
<pdfrwt beam="1">  1       -2 0.11144721E-01 0.13628221E+03</pdfrwt>
<totfact> 0.88377990E+03</totfact>
</mgrwt>
</event>
<event>
 6    1  0.1045058E-005  0.3743652E+03  0.7546771E-02  0.1053036E+00
          2   -1    0    0  501    0  0.00000000000E+00  0.00000000000E+00  0.11250589214E+03  0.11250589214E+03  0.00000000000E+00 0. -1.
         -2   -1    0    0    0  501 -0.00000000000E+00 -0.00000000000E+00 -0.31142656369E+03  0.31142656369E+03  0.00000000000E+00 0.  1.
          5    1    1    2  502    0  0.12048773292E+02 -0.40396458416E+00 -0.36941741827E+02  0.39142284226E+02  0.47000000000E+01 0.  1.
         -5    1    1    2    0  502 -0.14873557312E+03 -0.25061718491E+02  0.27213346665E+01  0.15092997087E+03  0.47000000000E+01 0.  1.
        -11    1    1    2    0    0  0.11872304893E+03  0.18564757736E+02 -0.17480565457E+03  0.21212456116E+03  0.00000000000E+00 0.  1.
         11    1    1    2    0    0  0.17963750898E+02  0.69009253389E+01  0.10105390183E+02  0.21735639572E+02  0.00000000000E+00 0. -1.
<mgrwt>
<rscale>  0 0.37436519E+03</rscale>
<asrwt>0</asrwt>
<pdfrwt beam="1">  1        2 0.17308599E-01 0.37436519E+03</pdfrwt>
<pdfrwt beam="2">  1       -2 0.47911779E-01 0.37436519E+03</pdfrwt>
<totfact> 0.13841159E+03</totfact>
</mgrwt>
</event>
<event>
 6    1  0.1045058E-005  0.1485862E+03  0.7546771E-02  0.1208937E+00
         -4   -1    0    0    0  501 -0.00000000000E+00  0.00000000000E+00  0.42012746189E+02  0.42012746189E+02  0.00000000000E+00 0.  1.
          4   -1    0    0  501    0  0.00000000000E+00 -0.00000000000E+00 -0.49389967875E+03  0.49389967875E+03  0.00000000000E+00 0. -1.
          5    1    1    2  502    0 -0.35633654084E+02 -0.11288263682E+02 -0.10073795756E+03  0.10755188652E+03  0.47000000000E+01 0. -1.
         -5    1    1    2    0  502  0.89994187893E+02 -0.62576853691E+02 -0.21317546532E+03  0.23975129924E+03  0.47000000000E+01 0.  1.
        -11    1    1    2    0    0 -0.39281872338E+02  0.48106511375E+02 -0.17546028227E+02  0.64538089820E+02  0.00000000000E+00 0.  1.
         11    1    1    2    0    0 -0.15078661471E+02  0.25758605997E+02 -0.12042748145E+03  0.12407114936E+03  0.00000000000E+00 0. -1.
<mgrwt>
<rscale>  0 0.14331452E+03</rscale>
<asrwt>0</asrwt>
<pdfrwt beam="2">  1        4 0.75984569E-01 0.14858622E+03</pdfrwt>
<pdfrwt beam="1">  1       -4 0.64634991E-02 0.14858622E+03</pdfrwt>
<totfact> 0.42336538E+02</totfact>
</mgrwt>
</event>
<event>
 6    1  0.1045058E-005  0.3211616E+03  0.7546771E-02  0.1075116E+00
          2   -1    0    0  501    0  0.00000000000E+00  0.00000000000E+00  0.74548635626E+02  0.74548635626E+02  0.00000000000E+00 0. -1.
         -2   -1    0    0    0  501 -0.00000000000E+00 -0.00000000000E+00 -0.34589765905E+03  0.34589765905E+03  0.00000000000E+00 0.  1.
          5    1    1    2  502    0  0.96353388494E+02 -0.84778773371E+02 -0.86360271186E+02  0.15476305221E+03  0.47000000000E+01 0. -1.
         -5    1    1    2    0  502  0.11530488882E+01  0.20093809098E+02 -0.84932892582E+02  0.87411537729E+02  0.47000000000E+01 0. -1.
        -11    1    1    2    0    0  0.30077486971E+01  0.45026193773E+02 -0.30467723049E+02  0.54448937783E+02  0.00000000000E+00 0.  1.
         11    1    1    2    0    0 -0.10051418608E+03  0.19658770500E+02 -0.69588136605E+02  0.12382276696E+03  0.00000000000E+00 0. -1.
<mgrwt>
<rscale>  0 0.32116163E+03</rscale>
<asrwt>0</asrwt>
<pdfrwt beam="1">  1        2 0.11469021E-01 0.32116163E+03</pdfrwt>
<pdfrwt beam="2">  1       -2 0.53215023E-01 0.32116163E+03</pdfrwt>
<totfact> 0.18348487E+03</totfact>
</mgrwt>
</event>
<event>
 6    1  0.1045058E-005  0.3047864E+03  0.7546771E-02  0.1082872E+00
         -2   -1    0    0    0  501 -0.00000000000E+00  0.00000000000E+00  0.59313267520E+03  0.59313267520E+03  0.00000000000E+00 0.  1.
          2   -1    0    0  501    0  0.00000000000E+00 -0.00000000000E+00 -0.39154283821E+02  0.39154283821E+02  0.00000000000E+00 0. -1.
          5    1    1    2  502    0 -0.87099306723E+02  0.79235434520E+02  0.11829826229E+03  0.16697638209E+03  0.47000000000E+01 0.  1.
         -5    1    1    2    0  502  0.92536602269E+00 -0.18144385308E+02  0.12399294247E+03  0.12540500310E+03  0.47000000000E+01 0.  1.
        -11    1    1    2    0    0  0.28459058536E+02 -0.36992818112E+02  0.24118571293E+03  0.24566020175E+03  0.00000000000E+00 0.  1.
         11    1    1    2    0    0  0.57714882165E+02 -0.24098231100E+02  0.70501473693E+02  0.94245372079E+02  0.00000000000E+00 0. -1.
<mgrwt>
<rscale>  0 0.30478638E+03</rscale>
<asrwt>0</asrwt>
<pdfrwt beam="2">  1        2 0.60237364E-02 0.30478638E+03</pdfrwt>
<pdfrwt beam="1">  1       -2 0.91251174E-01 0.30478638E+03</pdfrwt>
<totfact> 0.13050876E+03</totfact>
</mgrwt>
</event>
<event>
 6    1  0.1045058E-005  0.1256936E+03  0.7546771E-02  0.1247735E+00
         -1   -1    0    0    0  501 -0.00000000000E+00  0.00000000000E+00  0.19421992513E+02  0.19421992513E+02  0.00000000000E+00 0.  1.
          1   -1    0    0  501    0  0.00000000000E+00 -0.00000000000E+00 -0.68107288054E+03  0.68107288054E+03  0.00000000000E+00 0. -1.
          5    1    1    2  502    0  0.44412753559E+01  0.67149566865E+02 -0.30533634675E+03  0.31269979838E+03  0.47000000000E+01 0.  1.
         -5    1    1    2    0  502 -0.88440889324E+01 -0.54773884872E+02 -0.16499533811E+03  0.17413772702E+03  0.47000000000E+01 0.  1.
        -11    1    1    2    0    0  0.43586186187E+02 -0.29389629042E+01 -0.48561147429E+02  0.65319049050E+02  0.00000000000E+00 0.  1.
         11    1    1    2    0    0 -0.39183372610E+02 -0.94367190887E+01 -0.14275805573E+03  0.14833829861E+03  0.00000000000E+00 0. -1.
<mgrwt>
<rscale>  0 0.11723155E+03</rscale>
<asrwt>0</asrwt>
<pdfrwt beam="2">  1        1 0.10478046E+00 0.12569361E+03</pdfrwt>
<pdfrwt beam="1">  1       -1 0.29879982E-02 0.12569361E+03</pdfrwt>
<totfact> 0.10594582E+04</totfact>
</mgrwt>
</event>
<event>
 6    1  0.1045058E-005  0.3177288E+03  0.7546771E-02  0.1076699E+00
         -1   -1    0    0    0  501 -0.00000000000E+00  0.00000000000E+00  0.26923511059E+02  0.26923511059E+02  0.00000000000E+00 0.  1.
          1   -1    0    0  501    0  0.00000000000E+00 -0.00000000000E+00 -0.93739268011E+03  0.93739268011E+03  0.00000000000E+00 0. -1.
          5    1    1    2  502    0  0.15305685993E+02  0.21624450398E+02 -0.57238847193E+02  0.63247581034E+02  0.47000000000E+01 0. -1.
         -5    1    1    2    0  502 -0.63996924056E+02 -0.11556196624E+03 -0.55381361318E+03  0.56936963607E+03  0.47000000000E+01 0. -1.
        -11    1    1    2    0    0  0.44973301447E+02  0.83507268554E+01 -0.48991343703E+02  0.67025996747E+02  0.00000000000E+00 0.  1.
         11    1    1    2    0    0  0.37179366156E+01  0.85586788987E+02 -0.25042536497E+03  0.26467297732E+03  0.00000000000E+00 0. -1.
<mgrwt>
<rscale>  0 0.31772883E+03</rscale>
<asrwt>0</asrwt>
<pdfrwt beam="2">  1        1 0.14421425E+00 0.31772883E+03</pdfrwt>
<pdfrwt beam="1">  1       -1 0.41420788E-02 0.31772883E+03</pdfrwt>
<totfact> 0.41764027E+03</totfact>
</mgrwt>
</event>
<event>
 6    1  0.1045058E-005  0.1294144E+03  0.7546771E-02  0.1242547E+00
          1   -1    0    0  501    0  0.00000000000E+00  0.00000000000E+00  0.71357309937E+03  0.71357309937E+03  0.00000000000E+00 0. -1.
         -1   -1    0    0    0  501 -0.00000000000E+00 -0.00000000000E+00 -0.19867977644E+02  0.19867977644E+02  0.00000000000E+00 0.  1.
          5    1    1    2  502    0 -0.98770575426E+01 -0.78245749699E+02  0.24863107336E+03  0.26088206962E+03  0.47000000000E+01 0.  1.
         -5    1    1    2    0  502  0.31514868608E+01  0.45424287394E+02  0.25719478302E+03  0.26123656744E+03  0.47000000000E+01 0.  1.
        -11    1    1    2    0    0  0.46423237684E+02  0.27838566373E+02  0.13135508940E+03  0.14207132817E+03  0.00000000000E+00 0.  1.
         11    1    1    2    0    0 -0.39697667003E+02  0.49828959318E+01  0.56524175943E+02  0.69251111784E+02  0.00000000000E+00 0. -1.
<mgrwt>
<rscale>  0 0.12033388E+03</rscale>
<asrwt>0</asrwt>
<pdfrwt beam="1">  1        1 0.10978046E+00 0.12941435E+03</pdfrwt>
<pdfrwt beam="2">  1       -1 0.30566125E-02 0.12941435E+03</pdfrwt>
<totfact> 0.96111158E+03</totfact>
</mgrwt>
</event>
<event>
 6    1  0.1045058E-005  0.3249047E+03  0.7546771E-02  0.1121751E+00
          1   -1    0    0  501    0  0.00000000000E+00  0.00000000000E+00  0.76888030045E+03  0.76888030045E+03  0.00000000000E+00 0. -1.
         -1   -1    0    0    0  501 -0.00000000000E+00 -0.00000000000E+00 -0.61104064272E+02  0.61104064272E+02  0.00000000000E+00 0.  1.
          5    1    1    2  502    0  0.47603316420E+02  0.13701977402E+03  0.47269724453E+03  0.49447474070E+03  0.47000000000E+01 0. -1.
         -5    1    1    2    0  502 -0.38428806901E+02 -0.14094427100E+03  0.15961946361E+03  0.21643133759E+03  0.47000000000E+01 0.  1.
        -11    1    1    2    0    0 -0.35546955211E+02 -0.22924306329E+02  0.98319945849E+01  0.43425545050E+02  0.00000000000E+00 0.  1.
         11    1    1    2    0    0  0.26372445691E+02  0.26848803311E+02  0.65627533453E+02  0.75652741379E+02  0.00000000000E+00 0. -1.
<mgrwt>
<rscale>  0 0.23708365E+03</rscale>
<asrwt>0</asrwt>
<pdfrwt beam="1">  1        1 0.11828927E+00 0.32490465E+03</pdfrwt>
<pdfrwt beam="2">  1       -1 0.94006258E-02 0.32490465E+03</pdfrwt>
<totfact> 0.16446881E+03</totfact>
</mgrwt>
</event>
<event>
 6    1  0.1045058E-005  0.1440357E+03  0.7546771E-02  0.1218406E+00
         -4   -1    0    0    0  501 -0.00000000000E+00  0.00000000000E+00  0.14126130888E+03  0.14126130888E+03  0.00000000000E+00 0.  1.
          4   -1    0    0  501    0  0.00000000000E+00 -0.00000000000E+00 -0.12426100586E+03  0.12426100586E+03  0.00000000000E+00 0. -1.
          5    1    1    2  502    0  0.62046254106E+02  0.11434646297E+02  0.74277619781E+01  0.63700474351E+02  0.47000000000E+01 0. -1.
         -5    1    1    2    0  502 -0.49941261652E+02  0.59110579680E+02 -0.24707845383E+02  0.81368039604E+02  0.47000000000E+01 0. -1.
        -11    1    1    2    0    0 -0.29106919193E+02 -0.84299644215E+02  0.13338975954E+02  0.90175224087E+02  0.00000000000E+00 0.  1.
         11    1    1    2    0    0  0.17001926739E+02  0.13754418237E+02  0.20941410476E+02  0.30278576694E+02  0.00000000000E+00 0. -1.
<mgrwt>
<rscale>  0 0.13629266E+03</rscale>
<asrwt>0</asrwt>
<pdfrwt beam="2">  1        4 0.19117078E-01 0.14403566E+03</pdfrwt>
<pdfrwt beam="1">  1       -4 0.21732509E-01 0.14403566E+03</pdfrwt>
<totfact> 0.79449925E+02</totfact>
</mgrwt>
</event>
<event>
 6    1  0.1045058E-005  0.1315807E+03  0.7546771E-02  0.1254093E+00
         -1   -1    0    0    0  501 -0.00000000000E+00  0.00000000000E+00  0.12304689169E+03  0.12304689169E+03  0.00000000000E+00 0.  1.
          1   -1    0    0  501    0  0.00000000000E+00 -0.00000000000E+00 -0.99574267853E+02  0.99574267853E+02  0.00000000000E+00 0. -1.
          5    1    1    2  502    0 -0.40563149291E+02 -0.23172113360E+02 -0.50476651587E+01  0.47221656489E+02  0.47000000000E+01 0.  1.
         -5    1    1    2    0  502  0.59339504555E+02  0.59722492267E+02 -0.21327308116E+02  0.86976416084E+02  0.47000000000E+01 0.  1.
        -11    1    1    2    0    0 -0.28603955747E+02 -0.33626998194E+02  0.59668947948E+02  0.74224959691E+02  0.00000000000E+00 0.  1.
         11    1    1    2    0    0  0.98276004836E+01 -0.29233807123E+01 -0.98213508337E+01  0.14198127280E+02  0.00000000000E+00 0. -1.
<mgrwt>
<rscale>  0 0.11357281E+03</rscale>
<asrwt>0</asrwt>
<pdfrwt beam="2">  1        1 0.15319118E-01 0.13158071E+03</pdfrwt>
<pdfrwt beam="1">  1       -1 0.18930291E-01 0.13158071E+03</pdfrwt>
<totfact> 0.75430687E+03</totfact>
</mgrwt>
</event>
<event>
 6    1  0.1045058E-005  0.2555326E+03  0.7546771E-02  0.1112253E+00
          1   -1    0    0  501    0  0.00000000000E+00  0.00000000000E+00  0.38281030004E+03  0.38281030004E+03  0.00000000000E+00 0. -1.
         -1   -1    0    0    0  501 -0.00000000000E+00 -0.00000000000E+00 -0.22910746210E+03  0.22910746210E+03  0.00000000000E+00 0.  1.
          5    1    1    2  502    0 -0.21935986106E+03 -0.31530750495E+02  0.17792925036E+03  0.28424258127E+03  0.47000000000E+01 0.  1.
         -5    1    1    2    0  502 -0.30825158651E+01  0.17638472021E+02  0.67759358178E+02  0.70242709372E+02  0.47000000000E+01 0.  1.
        -11    1    1    2    0    0  0.79277627081E+02  0.39233746332E+02 -0.64483335781E+02  0.10946382782E+03  0.00000000000E+00 0.  1.
         11    1    1    2    0    0  0.14316474985E+03 -0.25341467858E+02 -0.27502434819E+02  0.14796864368E+03  0.00000000000E+00 0. -1.
<mgrwt>
<rscale>  0 0.25167220E+03</rscale>
<asrwt>0</asrwt>
<pdfrwt beam="1">  1        1 0.58893892E-01 0.25553264E+03</pdfrwt>
<pdfrwt beam="2">  1       -1 0.35247302E-01 0.25553264E+03</pdfrwt>
<totfact> 0.49828137E+02</totfact>
</mgrwt>
</event>
<event>
 6    1  0.1045058E-005  0.4521806E+03  0.7546771E-02  0.1043942E+00
         -4   -1    0    0    0  501 -0.00000000000E+00  0.00000000000E+00  0.58885796016E+03  0.58885796016E+03  0.00000000000E+00 0.  1.
          4   -1    0    0  501    0  0.00000000000E+00 -0.00000000000E+00 -0.22560984945E+03  0.22560984945E+03  0.00000000000E+00 0. -1.
          5    1    1    2  502    0  0.56112660325E+02  0.16628015199E+02 -0.77963011122E+02  0.97598374174E+02  0.47000000000E+01 0. -1.
         -5    1    1    2    0  502 -0.55316535708E+02 -0.27652541785E+03  0.28080390505E+03  0.39799390564E+03  0.47000000000E+01 0.  1.
        -11    1    1    2    0    0  0.10917331968E+02  0.97364062191E+01  0.36792217913E+02  0.39593598501E+02  0.00000000000E+00 0.  1.
         11    1    1    2    0    0 -0.11713456585E+02  0.25016099643E+03  0.12361499887E+03  0.27928193129E+03  0.00000000000E+00 0. -1.
<mgrwt>
<rscale>  0 0.39953121E+03</rscale>
<asrwt>0</asrwt>
<pdfrwt beam="2">  1        4 0.34709208E-01 0.45218058E+03</pdfrwt>
<pdfrwt beam="1">  1       -4 0.90593531E-01 0.45218058E+03</pdfrwt>
<totfact> 0.16318646E+01</totfact>
</mgrwt>
</event>
<event>
 6    1  0.1045058E-005  0.3521701E+03  0.7546771E-02  0.1062824E+00
          2   -1    0    0  501    0  0.00000000000E+00  0.00000000000E+00  0.12403388389E+04  0.12403388389E+04  0.00000000000E+00 0. -1.
         -2   -1    0    0    0  501 -0.00000000000E+00 -0.00000000000E+00 -0.11989151418E+03  0.11989151418E+03  0.00000000000E+00 0.  1.
          5    1    1    2  502    0 -0.48494594137E+01 -0.27675551799E+02  0.36585393736E+02  0.46368464054E+02  0.47000000000E+01 0.  1.
         -5    1    1    2    0  502  0.27647389016E+03 -0.15832457584E+03  0.82766631559E+03  0.88688110997E+03  0.47000000000E+01 0.  1.
        -11    1    1    2    0    0 -0.13955667652E+03  0.11033010987E+03  0.82708747442E+02  0.19618750218E+03  0.00000000000E+00 0.  1.
         11    1    1    2    0    0 -0.13206775423E+03  0.75670017763E+02  0.17348686793E+03  0.23079327685E+03  0.00000000000E+00 0. -1.
<mgrwt>
<rscale>  0 0.34949197E+03</rscale>
<asrwt>0</asrwt>
<pdfrwt beam="1">  1        2 0.19082135E+00 0.35217006E+03</pdfrwt>
<pdfrwt beam="2">  1       -2 0.18444849E-01 0.35217006E+03</pdfrwt>
<totfact> 0.45633427E+02</totfact>
</mgrwt>
</event>
<event>
 6    1  0.1045058E-005  0.1357864E+03  0.7546771E-02  0.1232324E+00
         -2   -1    0    0    0  501 -0.00000000000E+00  0.00000000000E+00  0.15304086388E+02  0.15304086388E+02  0.00000000000E+00 0. -1.
          2   -1    0    0  501    0  0.00000000000E+00 -0.00000000000E+00 -0.93273544537E+03  0.93273544537E+03  0.00000000000E+00 0.  1.
          5    1    1    2  502    0 -0.61061831014E+02 -0.39976717814E+02 -0.27958641673E+03  0.28899366704E+03  0.47000000000E+01 0.  1.
         -5    1    1    2    0  502  0.61088400068E+02 -0.13070386349E+02 -0.24307607362E+03  0.25101931238E+03  0.47000000000E+01 0.  1.
        -11    1    1    2    0    0 -0.14044249165E+02 -0.22352941334E+02 -0.10802816596E+03  0.11120692228E+03  0.00000000000E+00 0.  1.
         11    1    1    2    0    0  0.14017680112E+02  0.75400045498E+02 -0.28674070267E+03  0.29681963006E+03  0.00000000000E+00 0. -1.
<mgrwt>
<rscale>  0 0.12677284E+03</rscale>
<asrwt>0</asrwt>
<pdfrwt beam="2">  1        2 0.14349781E+00 0.13578637E+03</pdfrwt>
<pdfrwt beam="1">  1       -2 0.23544740E-02 0.13578637E+03</pdfrwt>
<totfact> 0.16781338E+04</totfact>
</mgrwt>
</event>
<event>
 6    1  0.1045058E-005  0.1544987E+03  0.7546771E-02  0.1203654E+00
          2   -1    0    0  501    0  0.00000000000E+00  0.00000000000E+00  0.32027410452E+03  0.32027410452E+03  0.00000000000E+00 0. -1.
         -2   -1    0    0    0  501 -0.00000000000E+00 -0.00000000000E+00 -0.64607350239E+02  0.64607350239E+02  0.00000000000E+00 0.  1.
          5    1    1    2  502    0  0.26890787236E+02 -0.25674983800E+02  0.17538228838E+03  0.17934145173E+03  0.47000000000E+01 0.  1.
         -5    1    1    2    0  502  0.31839797482E+02 -0.43579892919E+02 -0.27938373367E+00  0.54177004585E+02  0.47000000000E+01 0.  1.
        -11    1    1    2    0    0 -0.81214662802E+01  0.33813888795E+02 -0.14751109137E+02  0.37774760235E+02  0.00000000000E+00 0.  1.
         11    1    1    2    0    0 -0.50609118438E+02  0.35440987924E+02  0.95314958779E+02  0.11358823822E+03  0.00000000000E+00 0. -1.
<mgrwt>
<rscale>  0 0.14744022E+03</rscale>
<asrwt>0</asrwt>
<pdfrwt beam="1">  1        2 0.49272938E-01 0.15449868E+03</pdfrwt>
<pdfrwt beam="2">  1       -2 0.99395925E-02 0.15449868E+03</pdfrwt>
<totfact> 0.65644148E+03</totfact>
</mgrwt>
</event>
<event>
 6    1  0.1045058E-005  0.2849827E+03  0.7546771E-02  0.1092998E+00
          2   -1    0    0  501    0  0.00000000000E+00  0.00000000000E+00  0.72694505477E+03  0.72694505477E+03  0.00000000000E+00 0. -1.
         -2   -1    0    0    0  501 -0.00000000000E+00 -0.00000000000E+00 -0.27930295499E+02  0.27930295499E+02  0.00000000000E+00 0.  1.
          5    1    1    2  502    0  0.47702037246E+01 -0.15871693927E+02  0.31610033526E+03  0.31656938807E+03  0.47000000000E+01 0.  1.
         -5    1    1    2    0  502  0.72448269082E+02 -0.31845034425E+02  0.10215787372E+03  0.12931039816E+03  0.47000000000E+01 0.  1.
        -11    1    1    2    0    0 -0.37836953694E+02 -0.14031253156E+01  0.21365165924E+03  0.21698072569E+03  0.00000000000E+00 0. -1.
         11    1    1    2    0    0 -0.39381519112E+02  0.49119853668E+02  0.67104891047E+02  0.92014838339E+02  0.00000000000E+00 0.  1.
<mgrwt>
<rscale>  0 0.28498274E+03</rscale>
<asrwt>0</asrwt>
<pdfrwt beam="1">  1        2 0.11183769E+00 0.28498274E+03</pdfrwt>
<pdfrwt beam="2">  1       -2 0.42969691E-02 0.28498274E+03</pdfrwt>
<totfact> 0.98509996E+03</totfact>
</mgrwt>
</event>
<event>
 6    1  0.1045058E-005  0.1763097E+03  0.7546771E-02  0.1177506E+00
          2   -1    0    0  501    0  0.00000000000E+00  0.00000000000E+00  0.87989515981E+03  0.87989515981E+03  0.00000000000E+00 0. -1.
         -2   -1    0    0    0  501 -0.00000000000E+00 -0.00000000000E+00 -0.35143061368E+02  0.35143061368E+02  0.00000000000E+00 0.  1.
          5    1    1    2  502    0  0.21974983587E+02  0.58479059660E+02  0.30000342189E+03  0.30647486597E+03  0.47000000000E+01 0.  1.
         -5    1    1    2    0  502  0.10090864701E+03 -0.39539581298E+02  0.30625966410E+03  0.32490460967E+03  0.47000000000E+01 0.  1.
        -11    1    1    2    0    0 -0.54476205782E+02  0.11261609745E+02  0.32292301311E+02  0.64321641571E+02  0.00000000000E+00 0.  1.
         11    1    1    2    0    0 -0.68407424816E+02 -0.30201088108E+02  0.20619671113E+03  0.21933710396E+03  0.00000000000E+00 0. -1.
<mgrwt>
<rscale>  0 0.17032849E+03</rscale>
<asrwt>0</asrwt>
<pdfrwt beam="1">  1        2 0.13536847E+00 0.17630971E+03</pdfrwt>
<pdfrwt beam="2">  1       -2 0.54066255E-02 0.17630971E+03</pdfrwt>
<totfact> 0.53460850E+03</totfact>
</mgrwt>
</event>
<event>
 6    1  0.1045058E-005  0.1447588E+03  0.7546771E-02  0.1213991E+00
          2   -1    0    0  501    0  0.00000000000E+00  0.00000000000E+00  0.73333835041E+02  0.73333835041E+02  0.00000000000E+00 0. -1.
         -2   -1    0    0    0  501 -0.00000000000E+00 -0.00000000000E+00 -0.25967400121E+03  0.25967400121E+03  0.00000000000E+00 0.  1.
          5    1    1    2  502    0 -0.51671952806E+02 -0.29020862533E+02 -0.89059246548E+02  0.10707866531E+03  0.47000000000E+01 0. -1.
         -5    1    1    2    0  502 -0.20167510448E+02  0.39878934767E+02  0.24774645807E+02  0.51312094000E+02  0.47000000000E+01 0. -1.
        -11    1    1    2    0    0 -0.77666997949E+01 -0.17288221056E+02 -0.84067403870E+02  0.86177332324E+02  0.00000000000E+00 0.  1.
         11    1    1    2    0    0  0.79606163049E+02  0.64301488217E+01 -0.37988161558E+02  0.88439744616E+02  0.00000000000E+00 0. -1.
<mgrwt>
<rscale>  0 0.13950893E+03</rscale>
<asrwt>0</asrwt>
<pdfrwt beam="1">  1        2 0.11282129E-01 0.14475884E+03</pdfrwt>
<pdfrwt beam="2">  1       -2 0.39949846E-01 0.14475884E+03</pdfrwt>
<totfact> 0.31716086E+03</totfact>
</mgrwt>
</event>
<event>
 6    1  0.1045058E-005  0.1419208E+03  0.7546771E-02  0.1221357E+00
         -2   -1    0    0    0  501 -0.00000000000E+00  0.00000000000E+00  0.18413891113E+02  0.18413891113E+02  0.00000000000E+00 0.  1.
          2   -1    0    0  501    0  0.00000000000E+00 -0.00000000000E+00 -0.92441186426E+03  0.92441186426E+03  0.00000000000E+00 0. -1.
          5    1    1    2  502    0  0.37417090027E+02  0.76743321276E+02 -0.37772555572E+03  0.38728317990E+03  0.47000000000E+01 0.  1.
         -5    1    1    2    0  502  0.24400546966E+02 -0.50382148452E+02 -0.21981641239E+03  0.22688123045E+03  0.47000000000E+01 0.  1.
        -11    1    1    2    0    0 -0.83828245313E+01 -0.45791192950E+02 -0.20879844654E+03  0.21392497838E+03  0.00000000000E+00 0.  1.
         11    1    1    2    0    0 -0.53434812462E+02  0.19430020126E+02 -0.99657558497E+02  0.11473636664E+03  0.00000000000E+00 0. -1.
<mgrwt>
<rscale>  0 0.13419777E+03</rscale>
<asrwt>0</asrwt>
<pdfrwt beam="2">  1        2 0.14221720E+00 0.14192082E+03</pdfrwt>
<pdfrwt beam="1">  1       -2 0.28329065E-02 0.14192082E+03</pdfrwt>
<totfact> 0.12992645E+04</totfact>
</mgrwt>
</event>
<event>
 6    1  0.1045058E-005  0.1225620E+03  0.7546771E-02  0.1247414E+00
         -1   -1    0    0    0  501 -0.00000000000E+00  0.00000000000E+00  0.11656979006E+03  0.11656979006E+03  0.00000000000E+00 0.  1.
          1   -1    0    0  501    0  0.00000000000E+00 -0.00000000000E+00 -0.15156848716E+03  0.15156848716E+03  0.00000000000E+00 0. -1.
          5    1    1    2  502    0 -0.15006797315E+02 -0.51988359804E+02 -0.87652047103E+02  0.10311626876E+03  0.47000000000E+01 0. -1.
         -5    1    1    2    0  502  0.45438913208E+02  0.16027096091E+02 -0.14888598692E+01  0.48434175397E+02  0.47000000000E+01 0.  1.
        -11    1    1    2    0    0 -0.59972234974E+02  0.84912083977E+01  0.44367532873E+02  0.75081606010E+02  0.00000000000E+00 0.  1.
         11    1    1    2    0    0  0.29540119081E+02  0.27470055316E+02  0.97746769977E+01  0.41506227060E+02  0.00000000000E+00 0. -1.
<mgrwt>
<rscale>  0 0.11742033E+03</rscale>
<asrwt>0</asrwt>
<pdfrwt beam="2">  1        1 0.23318229E-01 0.12256197E+03</pdfrwt>
<pdfrwt beam="1">  1       -1 0.17933814E-01 0.12256197E+03</pdfrwt>
<totfact> 0.47907690E+03</totfact>
</mgrwt>
</event>
<event>
 6    1  0.1045058E-005  0.2812485E+03  0.7546771E-02  0.1137588E+00
         -1   -1    0    0    0  501 -0.00000000000E+00  0.00000000000E+00  0.28604469559E+03  0.28604469559E+03  0.00000000000E+00 0.  1.
          1   -1    0    0  501    0  0.00000000000E+00 -0.00000000000E+00 -0.13243371706E+03  0.13243371706E+03  0.00000000000E+00 0. -1.
          5    1    1    2  502    0 -0.14629244371E+03  0.30728463070E+02  0.26224153292E+02  0.15184042198E+03  0.47000000000E+01 0. -1.
         -5    1    1    2    0  502  0.12332126067E+03 -0.44136429193E+02  0.41022528396E+02  0.13733570385E+03  0.47000000000E+01 0.  1.
        -11    1    1    2    0    0  0.32490978435E+02  0.44790865933E+02  0.77686483119E+02  0.95378587796E+02  0.00000000000E+00 0.  1.
         11    1    1    2    0    0 -0.95197953922E+01 -0.31382899810E+02  0.86778137202E+01  0.33923699028E+02  0.00000000000E+00 0. -1.
<mgrwt>
<rscale>  0 0.21510263E+03</rscale>
<asrwt>0</asrwt>
<pdfrwt beam="2">  1        1 0.20374418E-01 0.28124849E+03</pdfrwt>
<pdfrwt beam="1">  1       -1 0.44006876E-01 0.28124849E+03</pdfrwt>
<totfact> 0.12952065E+03</totfact>
</mgrwt>
</event>
<event>
 6    1  0.1045058E-005  0.3785280E+03  0.7546771E-02  0.1051479E+00
          3   -1    0    0  501    0  0.00000000000E+00  0.00000000000E+00  0.86712718570E+03  0.86712718570E+03  0.00000000000E+00 0. -1.
         -3   -1    0    0    0  501 -0.00000000000E+00 -0.00000000000E+00 -0.41309818419E+02  0.41309818419E+02  0.00000000000E+00 0.  1.
          5    1    1    2  502    0 -0.28996840219E+01  0.13023716231E+02 -0.31449154634E+01  0.14491578422E+02  0.47000000000E+01 0.  1.
         -5    1    1    2    0  502 -0.83841598116E+02  0.11028666476E+03  0.52216780236E+03  0.54025351995E+03  0.47000000000E+01 0.  1.
        -11    1    1    2    0    0  0.38207689446E+02 -0.12151211695E+03  0.21818289590E+03  0.25264361888E+03  0.00000000000E+00 0.  1.
         11    1    1    2    0    0  0.48533592692E+02 -0.17982640419E+01  0.88611584490E+02  0.10104828687E+03  0.00000000000E+00 0. -1.
<mgrwt>
<rscale>  0 0.37852803E+03</rscale>
<asrwt>0</asrwt>
<pdfrwt beam="1">  1        3 0.13340417E+00 0.37852803E+03</pdfrwt>
<pdfrwt beam="2">  1       -3 0.63553573E-02 0.37852803E+03</pdfrwt>
<totfact> 0.18398998E+02</totfact>
</mgrwt>
</event>
<event>
 6    1  0.1045058E-005  0.2097480E+03  0.7546771E-02  0.1162069E+00
         -2   -1    0    0    0  501 -0.00000000000E+00  0.00000000000E+00  0.18655731626E+03  0.18655731626E+03  0.00000000000E+00 0.  1.
          2   -1    0    0  501    0  0.00000000000E+00 -0.00000000000E+00 -0.18910369320E+03  0.18910369320E+03  0.00000000000E+00 0. -1.
          5    1    1    2  502    0 -0.62956335490E+02  0.50931109542E+01 -0.94451323417E+02  0.11372151271E+03  0.47000000000E+01 0. -1.
         -5    1    1    2    0  502  0.79565066156E+02  0.75525826262E+02  0.14481163579E+02  0.11075443234E+03  0.47000000000E+01 0.  1.
        -11    1    1    2    0    0  0.16817244769E+02 -0.63150293792E+02  0.90181024982E+02  0.11137053737E+03  0.00000000000E+00 0.  1.
         11    1    1    2    0    0 -0.33425975435E+02 -0.17468643424E+02 -0.12757242083E+02  0.39814527028E+02  0.00000000000E+00 0. -1.
<mgrwt>
<rscale>  0 0.18605381E+03</rscale>
<asrwt>0</asrwt>
<pdfrwt beam="2">  1        2 0.29092876E-01 0.20974800E+03</pdfrwt>
<pdfrwt beam="1">  1       -2 0.28701126E-01 0.20974800E+03</pdfrwt>
<totfact> 0.19906604E+03</totfact>
</mgrwt>
</event>
<event>
 6    1  0.1045058E-005  0.1684717E+03  0.7546771E-02  0.1186326E+00
         -2   -1    0    0    0  501 -0.00000000000E+00  0.00000000000E+00  0.58013581838E+02  0.58013581838E+02  0.00000000000E+00 0.  1.
          2   -1    0    0  501    0  0.00000000000E+00 -0.00000000000E+00 -0.43744723061E+03  0.43744723061E+03  0.00000000000E+00 0. -1.
          5    1    1    2  502    0 -0.22401678649E+02 -0.60787534360E+02 -0.18000321625E+03  0.19136407030E+03  0.47000000000E+01 0. -1.
         -5    1    1    2    0  502  0.75455656364E+02 -0.38927252093E+02 -0.70178584578E+02  0.11025430044E+03  0.47000000000E+01 0. -1.
        -11    1    1    2    0    0  0.11581478706E+02  0.61485438431E+02 -0.30011651467E+02  0.69392283518E+02  0.00000000000E+00 0.  1.
         11    1    1    2    0    0 -0.64635456421E+02  0.38229348022E+02 -0.99240196478E+02  0.12445015819E+03  0.00000000000E+00 0. -1.
<mgrwt>
<rscale>  0 0.16211847E+03</rscale>
<asrwt>0</asrwt>
<pdfrwt beam="2">  1        2 0.67299575E-01 0.16847168E+03</pdfrwt>
<pdfrwt beam="1">  1       -2 0.89251663E-02 0.16847168E+03</pdfrwt>
<totfact> 0.55907870E+03</totfact>
</mgrwt>
</event>
<event>
 6    1  0.1045058E-005  0.1310949E+03  0.7546771E-02  0.1244737E+00
          2   -1    0    0  501    0  0.00000000000E+00  0.00000000000E+00  0.14911938303E+03  0.14911938303E+03  0.00000000000E+00 0. -1.
         -2   -1    0    0    0  501 -0.00000000000E+00 -0.00000000000E+00 -0.96056059373E+02  0.96056059373E+02  0.00000000000E+00 0.  1.
          5    1    1    2  502    0  0.36716664264E+02 -0.31085791849E+02  0.68561069779E+02  0.83887723648E+02  0.47000000000E+01 0. -1.
         -5    1    1    2    0  502 -0.60161247614E+02  0.31524892465E+02  0.96459366281E+01  0.68762843548E+02  0.47000000000E+01 0.  1.
        -11    1    1    2    0    0 -0.32179900488E+02  0.21086487828E+01 -0.22753897784E+01  0.32329085879E+02  0.00000000000E+00 0.  1.
         11    1    1    2    0    0  0.55624483838E+02 -0.25477493995E+01 -0.22868292972E+02  0.60195789327E+02  0.00000000000E+00 0. -1.
<mgrwt>
<rscale>  0 0.11901155E+03</rscale>
<asrwt>0</asrwt>
<pdfrwt beam="1">  1        2 0.22941443E-01 0.13109485E+03</pdfrwt>
<pdfrwt beam="2">  1       -2 0.14777855E-01 0.13109485E+03</pdfrwt>
<totfact> 0.78523386E+03</totfact>
</mgrwt>
</event>
<event>
 6    1  0.1045058E-005  0.1413607E+03  0.7546771E-02  0.1222815E+00
         -2   -1    0    0    0  501 -0.00000000000E+00  0.00000000000E+00  0.88011394265E+02  0.88011394265E+02  0.00000000000E+00 0.  1.
          2   -1    0    0  501    0  0.00000000000E+00 -0.00000000000E+00 -0.31305092678E+03  0.31305092678E+03  0.00000000000E+00 0. -1.
          5    1    1    2  502    0  0.74860894765E+00  0.25936748600E+02 -0.17877606923E+03  0.18071039891E+03  0.47000000000E+01 0.  1.
         -5    1    1    2    0  502  0.60372931012E+02 -0.50886955293E+02 -0.70983051500E+02  0.10627820387E+03  0.47000000000E+01 0.  1.
        -11    1    1    2    0    0 -0.65748367750E+02 -0.17609732431E+02  0.20338333047E+02  0.71039413914E+02  0.00000000000E+00 0.  1.
         11    1    1    2    0    0  0.46268277908E+01  0.42559939125E+02  0.43812551742E+01  0.43034304347E+02  0.00000000000E+00 0. -1.
<mgrwt>
<rscale>  0 0.13317780E+03</rscale>
<asrwt>0</asrwt>
<pdfrwt beam="2">  1        2 0.48161682E-01 0.14136067E+03</pdfrwt>
<pdfrwt beam="1">  1       -2 0.13540214E-01 0.14136067E+03</pdfrwt>
<totfact> 0.40865045E+03</totfact>
</mgrwt>
</event>
<event>
 6    1  0.1045058E-005  0.1361871E+03  0.7546771E-02  0.1230787E+00
         -1   -1    0    0    0  501 -0.00000000000E+00  0.00000000000E+00  0.38894205657E+02  0.38894205657E+02  0.00000000000E+00 0.  1.
          1   -1    0    0  501    0  0.00000000000E+00 -0.00000000000E+00 -0.37692643851E+03  0.37692643851E+03  0.00000000000E+00 0. -1.
          5    1    1    2  502    0  0.39698375369E+02 -0.72568687723E+01 -0.13408277245E+03  0.14010318704E+03  0.47000000000E+01 0.  1.
         -5    1    1    2    0  502 -0.49509401214E+02  0.60419464641E+02 -0.68496724056E+02  0.10399799865E+03  0.47000000000E+01 0.  1.
        -11    1    1    2    0    0 -0.38600330956E+01 -0.73663306538E+02 -0.12459301659E+03  0.14479158252E+03  0.00000000000E+00 0. -1.
         11    1    1    2    0    0  0.13671058941E+02  0.20500710669E+02 -0.10859719758E+02  0.26927875961E+02  0.00000000000E+00 0.  1.
<mgrwt>
<rscale>  0 0.12778014E+03</rscale>
<asrwt>0</asrwt>
<pdfrwt beam="2">  1        1 0.57988683E-01 0.13618714E+03</pdfrwt>
<pdfrwt beam="1">  1       -1 0.59837240E-02 0.13618714E+03</pdfrwt>
<totfact> 0.83543217E+03</totfact>
</mgrwt>
</event>
<event>
 6    1  0.1045058E-005  0.1368884E+03  0.7546771E-02  0.1229134E+00
         -2   -1    0    0    0  501 -0.00000000000E+00  0.00000000000E+00  0.13427762246E+02  0.13427762246E+02  0.00000000000E+00 0.  1.
          2   -1    0    0  501    0  0.00000000000E+00 -0.00000000000E+00 -0.11124805389E+04  0.11124805389E+04  0.00000000000E+00 0. -1.
          5    1    1    2  502    0 -0.42294018257E+02 -0.23132930830E+01 -0.32718485834E+03  0.32994871849E+03  0.47000000000E+01 0. -1.
         -5    1    1    2    0  502  0.66036319152E+02  0.52792585916E+02 -0.28265403616E+03  0.29506481785E+03  0.47000000000E+01 0. -1.
        -11    1    1    2    0    0 -0.48816513062E+02 -0.58209890740E+02 -0.42117465992E+03  0.42797142134E+03  0.00000000000E+00 0.  1.
         11    1    1    2    0    0  0.25074212167E+02  0.77305979072E+01 -0.68039222209E+02  0.72923343441E+02  0.00000000000E+00 0. -1.
<mgrwt>
<rscale>  0 0.12887536E+03</rscale>
<asrwt>0</asrwt>
<pdfrwt beam="2">  1        2 0.17115087E+00 0.13688843E+03</pdfrwt>
<pdfrwt beam="1">  1       -2 0.20658094E-02 0.13688843E+03</pdfrwt>
<totfact> 0.15897027E+04</totfact>
</mgrwt>
</event>
<event>
 6    1  0.1045058E-005  0.1516891E+03  0.7546771E-02  0.1207413E+00
         -2   -1    0    0    0  501 -0.00000000000E+00  0.00000000000E+00  0.38237412165E+02  0.38237412165E+02  0.00000000000E+00 0.  1.
          2   -1    0    0  501    0  0.00000000000E+00 -0.00000000000E+00 -0.52496141793E+03  0.52496141793E+03  0.00000000000E+00 0. -1.
          5    1    1    2  502    0  0.81801188327E+02  0.35032935627E+02 -0.26856051058E+03  0.28295861682E+03  0.47000000000E+01 0.  1.
         -5    1    1    2    0  502 -0.34741950039E+02  0.36883039841E+02 -0.58297323148E+02  0.77382359790E+02  0.47000000000E+01 0.  1.
        -11    1    1    2    0    0 -0.65941131572E+02 -0.53113214214E+02 -0.72341578314E+02  0.11136673790E+03  0.00000000000E+00 0.  1.
         11    1    1    2    0    0  0.18881893284E+02 -0.18802761254E+02 -0.87524593725E+02  0.91491115587E+02  0.00000000000E+00 0. -1.
<mgrwt>
<rscale>  0 0.14448935E+03</rscale>
<asrwt>0</asrwt>
<pdfrwt beam="2">  1        2 0.80763287E-01 0.15168908E+03</pdfrwt>
<pdfrwt beam="1">  1       -2 0.58826794E-02 0.15168908E+03</pdfrwt>
<totfact> 0.86466114E+03</totfact>
</mgrwt>
</event>
<event>
 6    1  0.1045058E-005  0.1544057E+03  0.7546771E-02  0.1202104E+00
         -1   -1    0    0    0  501 -0.00000000000E+00  0.00000000000E+00  0.48919023550E+02  0.48919023550E+02  0.00000000000E+00 0.  1.
          1   -1    0    0  501    0  0.00000000000E+00 -0.00000000000E+00 -0.42157710342E+03  0.42157710342E+03  0.00000000000E+00 0. -1.
          5    1    1    2  502    0 -0.35856680104E+02 -0.20860583894E+02 -0.28026196100E+02  0.50283428048E+02  0.47000000000E+01 0. -1.
         -5    1    1    2    0  502  0.94276637779E+02 -0.48469941780E+02 -0.17719714451E+03  0.20653894962E+03  0.47000000000E+01 0. -1.
        -11    1    1    2    0    0 -0.79506063885E+02  0.55167778454E+02 -0.16037589836E+03  0.18731024197E+03  0.00000000000E+00 0. -1.
         11    1    1    2    0    0  0.21086106211E+02  0.14162747220E+02 -0.70588409049E+01  0.26363507333E+02  0.00000000000E+00 0.  1.
<mgrwt>
<rscale>  0 0.14868070E+03</rscale>
<asrwt>0</asrwt>
<pdfrwt beam="2">  1        1 0.64858015E-01 0.15440568E+03</pdfrwt>
<pdfrwt beam="1">  1       -1 0.75260037E-02 0.15440568E+03</pdfrwt>
<totfact> 0.51815869E+03</totfact>
</mgrwt>
</event>
<event>
 6    1  0.1045058E-005  0.1302920E+03  0.7546771E-02  0.1240765E+00
         -1   -1    0    0    0  501 -0.00000000000E+00  0.00000000000E+00  0.36248475553E+02  0.36248475553E+02  0.00000000000E+00 0.  1.
          1   -1    0    0  501    0  0.00000000000E+00 -0.00000000000E+00 -0.38809899535E+03  0.38809899535E+03  0.00000000000E+00 0. -1.
          5    1    1    2  502    0 -0.33702699090E+02 -0.39119579523E+02 -0.28204148167E+02  0.59023532611E+02  0.47000000000E+01 0. -1.
         -5    1    1    2    0  502  0.96819345732E+01  0.11278742764E+02 -0.22682958734E+03  0.22736468853E+03  0.47000000000E+01 0. -1.
        -11    1    1    2    0    0 -0.51898809539E+01 -0.28642017807E+02 -0.10926748210E+02  0.31091701060E+02  0.00000000000E+00 0.  1.
         11    1    1    2    0    0  0.29210645471E+02  0.56482854567E+02 -0.85890036081E+02  0.10686754871E+03  0.00000000000E+00 0. -1.
<mgrwt>
<rscale>  0 0.12142450E+03</rscale>
<asrwt>0</asrwt>
<pdfrwt beam="2">  1        1 0.59707539E-01 0.13029201E+03</pdfrwt>
<pdfrwt beam="1">  1       -1 0.55766884E-02 0.13029201E+03</pdfrwt>
<totfact> 0.89154988E+03</totfact>
</mgrwt>
</event>
<event>
 6    1  0.1045058E-005  0.1673671E+03  0.7546771E-02  0.1187060E+00
         -1   -1    0    0    0  501 -0.00000000000E+00  0.00000000000E+00  0.13265007200E+02  0.13265007200E+02  0.00000000000E+00 0.  1.
          1   -1    0    0  501    0  0.00000000000E+00 -0.00000000000E+00 -0.20959278310E+04  0.20959278310E+04  0.00000000000E+00 0. -1.
          5    1    1    2  502    0 -0.77215936988E+02 -0.22780967062E+01 -0.13310577872E+04  0.13333058214E+04  0.47000000000E+01 0.  1.
         -5    1    1    2    0  502 -0.28899907524E+02  0.35796989663E+02 -0.14465746780E+03  0.15187001717E+03  0.47000000000E+01 0.  1.
        -11    1    1    2    0    0  0.99506327724E+02 -0.60216951780E+02 -0.51882701432E+03  0.53170392261E+03  0.00000000000E+00 0. -1.
         11    1    1    2    0    0  0.66095167882E+01  0.26698058823E+02 -0.88120554530E+02  0.92313077014E+02  0.00000000000E+00 0.  1.
<mgrwt>
<rscale>  0 0.16145842E+03</rscale>
<asrwt>0</asrwt>
<pdfrwt beam="2">  1        1 0.32245051E+00 0.16736713E+03</pdfrwt>
<pdfrwt beam="1">  1       -1 0.20407698E-02 0.16736713E+03</pdfrwt>
<totfact> 0.19516851E+03</totfact>
</mgrwt>
</event>
<event>
 6    1  0.1045058E-005  0.2232556E+03  0.7546771E-02  0.1136922E+00
          2   -1    0    0  501    0  0.00000000000E+00  0.00000000000E+00  0.28590009130E+03  0.28590009130E+03  0.00000000000E+00 0. -1.
         -2   -1    0    0    0  501 -0.00000000000E+00 -0.00000000000E+00 -0.49077122802E+03  0.49077122802E+03  0.00000000000E+00 0.  1.
          5    1    1    2  502    0  0.13873410985E+03 -0.15973461466E+02  0.23641265996E+03  0.27461853633E+03  0.47000000000E+01 0. -1.
         -5    1    1    2    0  502  0.31134245609E+02 -0.26719063105E+00 -0.19190764748E+02  0.36875304637E+02  0.47000000000E+01 0.  1.
        -11    1    1    2    0    0  0.11670981499E+02 -0.49909015807E+01 -0.30060955560E+02  0.32630996873E+02  0.00000000000E+00 0. -1.
         11    1    1    2    0    0 -0.18153933696E+03  0.21231553678E+02 -0.39203207637E+03  0.43254648148E+03  0.00000000000E+00 0.  1.
<mgrwt>
<rscale>  0 0.21597269E+03</rscale>
<asrwt>0</asrwt>
<pdfrwt beam="1">  1        2 0.43984629E-01 0.22325560E+03</pdfrwt>
<pdfrwt beam="2">  1       -2 0.75503266E-01 0.22325560E+03</pdfrwt>
<totfact> 0.18840469E+02</totfact>
</mgrwt>
</event>
<event>
 6    1  0.1045058E-005  0.3370424E+03  0.7546771E-02  0.1068063E+00
         -2   -1    0    0    0  501 -0.00000000000E+00  0.00000000000E+00  0.31224183291E+02  0.31224183291E+02  0.00000000000E+00 0.  1.
          2   -1    0    0  501    0  0.00000000000E+00 -0.00000000000E+00 -0.90953218201E+03  0.90953218201E+03  0.00000000000E+00 0. -1.
          5    1    1    2  502    0  0.20360798069E+02 -0.28971805976E+02 -0.97139314475E+02  0.10349910172E+03  0.47000000000E+01 0.  1.
         -5    1    1    2    0  502  0.29476190468E+02  0.11635368583E+03 -0.59338597363E+03  0.60542219129E+03  0.47000000000E+01 0.  1.
        -11    1    1    2    0    0 -0.11970305597E+02 -0.55239664266E+02 -0.16988337480E+03  0.17903929668E+03  0.00000000000E+00 0. -1.
         11    1    1    2    0    0 -0.37866682940E+02 -0.32142215584E+02 -0.17899335818E+02  0.52795775609E+02  0.00000000000E+00 0.  1.
<mgrwt>
<rscale>  0 0.33704243E+03</rscale>
<asrwt>0</asrwt>
<pdfrwt beam="2">  1        2 0.13992803E+00 0.33704243E+03</pdfrwt>
<pdfrwt beam="1">  1       -2 0.48037204E-02 0.33704243E+03</pdfrwt>
<totfact> 0.62566479E+03</totfact>
</mgrwt>
</event>
<event>
 6    1  0.1045058E-005  0.1274987E+03  0.7546771E-02  0.1246620E+00
          1   -1    0    0  501    0  0.00000000000E+00  0.00000000000E+00  0.22867737905E+03  0.22867737905E+03  0.00000000000E+00 0. -1.
         -1   -1    0    0    0  501 -0.00000000000E+00 -0.00000000000E+00 -0.61036584936E+02  0.61036584936E+02  0.00000000000E+00 0.  1.
          5    1    1    2  502    0  0.88838367555E+01  0.52999083695E+02  0.10762977403E+02  0.55006882393E+02  0.47000000000E+01 0.  1.
         -5    1    1    2    0  502  0.24184855226E+01 -0.30530495350E+02  0.13562933932E+03  0.13912357062E+03  0.47000000000E+01 0.  1.
        -11    1    1    2    0    0 -0.32250164744E+02 -0.42701163120E+02  0.34414401654E+02  0.63622429213E+02  0.00000000000E+00 0.  1.
         11    1    1    2    0    0  0.20947842466E+02  0.20232574775E+02 -0.13165924256E+02  0.31961081764E+02  0.00000000000E+00 0. -1.
<mgrwt>
<rscale>  0 0.11788913E+03</rscale>
<asrwt>0</asrwt>
<pdfrwt beam="1">  1        1 0.35181135E-01 0.12749872E+03</pdfrwt>
<pdfrwt beam="2">  1       -1 0.93902440E-02 0.12749872E+03</pdfrwt>
<totfact> 0.78457147E+03</totfact>
</mgrwt>
</event>
<event>
 6    1  0.1045058E-005  0.1219281E+03  0.7546771E-02  0.1312785E+00
          2   -1    0    0  501    0  0.00000000000E+00  0.00000000000E+00  0.11013338890E+03  0.11013338890E+03  0.00000000000E+00 0. -1.
         -2   -1    0    0    0  501 -0.00000000000E+00 -0.00000000000E+00 -0.54775488465E+02  0.54775488465E+02  0.00000000000E+00 0.  1.
          5    1    1    2  502    0  0.55883673739E+02 -0.84057766696E+01  0.11524579725E+02  0.57866639870E+02  0.47000000000E+01 0. -1.
         -5    1    1    2    0  502 -0.61057967258E+02  0.80856922686E+01  0.45609188449E+02  0.76783734320E+02  0.47000000000E+01 0.  1.
        -11    1    1    2    0    0  0.14705012254E+02 -0.86916285313E+01 -0.13519801509E+01  0.17135041355E+02  0.00000000000E+00 0. -1.
         11    1    1    2    0    0 -0.95307187348E+01  0.90117129322E+01 -0.42388758332E+00  0.13123461824E+02  0.00000000000E+00 0.  1.
<mgrwt>
<rscale>  0 0.86020574E+02</rscale>
<asrwt>0</asrwt>
<pdfrwt beam="1">  1        2 0.16943598E-01 0.12192808E+03</pdfrwt>
<pdfrwt beam="2">  1       -2 0.84269982E-02 0.12192808E+03</pdfrwt>
<totfact> 0.26760026E+04</totfact>
</mgrwt>
</event>
<event>
 6    1  0.1045058E-005  0.1312284E+03  0.7546771E-02  0.1239482E+00
         -3   -1    0    0    0  501 -0.00000000000E+00  0.00000000000E+00  0.73079473513E+02  0.73079473513E+02  0.00000000000E+00 0.  1.
          3   -1    0    0  501    0  0.00000000000E+00 -0.00000000000E+00 -0.21911662181E+03  0.21911662181E+03  0.00000000000E+00 0. -1.
          5    1    1    2  502    0  0.11343968037E+02  0.61243571602E+02 -0.15127080522E+02  0.64268026565E+02  0.47000000000E+01 0.  1.
         -5    1    1    2    0  502 -0.92529202262E+01 -0.21340745441E+02 -0.12691541666E+03  0.12911489819E+03  0.47000000000E+01 0.  1.
        -11    1    1    2    0    0  0.53200325075E+01  0.17266679622E+02  0.27666142580E+02  0.33043250692E+02  0.00000000000E+00 0.  1.
         11    1    1    2    0    0 -0.74110803185E+01 -0.57169505783E+02 -0.31660793694E+02  0.65769919874E+02  0.00000000000E+00 0. -1.
<mgrwt>
<rscale>  0 0.12221815E+03</rscale>
<asrwt>0</asrwt>
<pdfrwt beam="2">  1        3 0.33710249E-01 0.13122837E+03</pdfrwt>
<pdfrwt beam="1">  1       -3 0.11242996E-01 0.13122837E+03</pdfrwt>
<totfact> 0.11975908E+03</totfact>
</mgrwt>
</event>
<event>
 6    1  0.1045058E-005  0.1385839E+03  0.7546771E-02  0.1221201E+00
          4   -1    0    0  501    0  0.00000000000E+00  0.00000000000E+00  0.11418049093E+03  0.11418049093E+03  0.00000000000E+00 0. -1.
         -4   -1    0    0    0  501 -0.00000000000E+00 -0.00000000000E+00 -0.57684167259E+03  0.57684167259E+03  0.00000000000E+00 0.  1.
          5    1    1    2  502    0  0.85915650753E+02 -0.32546617448E+02  0.42937814299E+02  0.10152106800E+03  0.47000000000E+01 0. -1.
         -5    1    1    2    0  502 -0.34822553239E+02 -0.30544199155E+02  0.19413252571E+02  0.50443262102E+02  0.47000000000E+01 0.  1.
        -11    1    1    2    0    0  0.18009262764E+02  0.33556320186E+02 -0.91967499711E+02  0.99540851778E+02  0.00000000000E+00 0. -1.
         11    1    1    2    0    0 -0.69102360278E+02  0.29534496417E+02 -0.43304474882E+03  0.43951698164E+03  0.00000000000E+00 0.  1.
<mgrwt>
<rscale>  0 0.13430692E+03</rscale>
<asrwt>0</asrwt>
<pdfrwt beam="1">  1        4 0.17566229E-01 0.13858392E+03</pdfrwt>
<pdfrwt beam="2">  1       -4 0.88744874E-01 0.13858392E+03</pdfrwt>
<totfact> 0.54221318E+01</totfact>
</mgrwt>
</event>
<event>
 6    1  0.3306867E-005  0.1408646E+03  0.7546771E-02  0.1223137E+00
          1   -1    0    0  501    0  0.00000000000E+00  0.00000000000E+00  0.73432050382E+03  0.73432050382E+03  0.00000000000E+00 0. -1.
         -1   -1    0    0    0  501 -0.00000000000E+00 -0.00000000000E+00 -0.21884124076E+02  0.21884124076E+02  0.00000000000E+00 0.  1.
          5    1    1    2  502    0  0.86698791207E+02  0.65316359015E+01  0.24870461247E+03  0.26350600929E+03  0.47000000000E+01 0.  1.
         -5    1    1    2    0  502 -0.32409278809E+02 -0.42174475788E+02  0.17947380689E+03  0.18724845826E+03  0.47000000000E+01 0.  1.
        -11    1    1    2    0    0 -0.19785445455E+02  0.17758017803E+01  0.30277996619E+01  0.20094399584E+02  0.00000000000E+00 0.  1.
         11    1    1    2    0    0 -0.34504066943E+02  0.33867038106E+02  0.28123016071E+03  0.28535576076E+03  0.00000000000E+00 0. -1.
<mgrwt>
<rscale>  0 0.13295449E+03</rscale>
<asrwt>0</asrwt>
<pdfrwt beam="1">  1        1 0.11297237E+00 0.14086458E+03</pdfrwt>
<pdfrwt beam="2">  1       -1 0.33667889E-02 0.14086458E+03</pdfrwt>
<totfact> 0.80497467E+03</totfact>
</mgrwt>
</event>
<event>
 6    1  0.1045058E-005  0.1965714E+03  0.7546771E-02  0.1156874E+00
         -2   -1    0    0    0  501 -0.00000000000E+00  0.00000000000E+00  0.36671393450E+02  0.36671393450E+02  0.00000000000E+00 0.  1.
          2   -1    0    0  501    0  0.00000000000E+00 -0.00000000000E+00 -0.95703087083E+03  0.95703087083E+03  0.00000000000E+00 0. -1.
          5    1    1    2  502    0 -0.69030591990E+02  0.33858211266E+01 -0.38707235405E+03  0.39322230822E+03  0.47000000000E+01 0. -1.
         -5    1    1    2    0  502 -0.82665880525E+02 -0.55005784760E+01 -0.88217026197E+02  0.12111250091E+03  0.47000000000E+01 0. -1.
        -11    1    1    2    0    0  0.36601384843E+02  0.34670959315E+02 -0.74368074536E+02  0.89846242561E+02  0.00000000000E+00 0.  1.
         11    1    1    2    0    0  0.11509508767E+03 -0.32556201966E+02 -0.37070202260E+03  0.38952121259E+03  0.00000000000E+00 0. -1.
<mgrwt>
<rscale>  0 0.19177079E+03</rscale>
<asrwt>0</asrwt>
<pdfrwt beam="2">  1        2 0.14723552E+00 0.19657136E+03</pdfrwt>
<pdfrwt beam="1">  1       -2 0.56417529E-02 0.19657136E+03</pdfrwt>
<totfact> 0.44948831E+03</totfact>
</mgrwt>
</event>
<event>
 6    1  0.1045058E-005  0.1272146E+03  0.7546771E-02  0.1247169E+00
          1   -1    0    0  501    0  0.00000000000E+00  0.00000000000E+00  0.13049555253E+04  0.13049555253E+04  0.00000000000E+00 0. -1.
         -1   -1    0    0    0  501 -0.00000000000E+00 -0.00000000000E+00 -0.98226552448E+01  0.98226552448E+01  0.00000000000E+00 0.  1.
          5    1    1    2  502    0  0.13767063315E+02  0.34028924337E+02  0.78850075899E+03  0.78936875835E+03  0.47000000000E+01 0. -1.
         -5    1    1    2    0  502 -0.35107688246E+02 -0.23875136093E+02  0.10846266502E+03  0.11657105816E+03  0.47000000000E+01 0. -1.
        -11    1    1    2    0    0  0.11818299361E+02  0.39676530995E+02  0.20338617227E+03  0.20755682206E+03  0.00000000000E+00 0.  1.
         11    1    1    2    0    0  0.95223255702E+01 -0.49830319239E+02  0.19478327373E+03  0.20128154194E+03  0.00000000000E+00 0. -1.
<mgrwt>
<rscale>  0 0.11756488E+03</rscale>
<asrwt>0</asrwt>
<pdfrwt beam="1">  1        1 0.20076225E+00 0.12721465E+03</pdfrwt>
<pdfrwt beam="2">  1       -1 0.15111788E-02 0.12721465E+03</pdfrwt>
<totfact> 0.96724378E+03</totfact>
</mgrwt>
</event>
<event>
 6    1  0.1045058E-005  0.1277079E+03  0.7546771E-02  0.1257637E+00
         -1   -1    0    0    0  501 -0.00000000000E+00  0.00000000000E+00  0.54732282785E+02  0.54732282785E+02  0.00000000000E+00 0.  1.
          1   -1    0    0  501    0  0.00000000000E+00 -0.00000000000E+00 -0.21574513597E+03  0.21574513597E+03  0.00000000000E+00 0. -1.
          5    1    1    2  502    0  0.16423501715E+02 -0.35106828657E+02 -0.22820041533E+01  0.39109057390E+02  0.47000000000E+01 0. -1.
         -5    1    1    2    0  502 -0.21117635376E+01  0.57004165508E+02 -0.14467001723E+03  0.15558097028E+03  0.47000000000E+01 0. -1.
        -11    1    1    2    0    0  0.24770294243E+02 -0.24759169216E+02 -0.34659021759E+01  0.35193698513E+02  0.00000000000E+00 0.  1.
         11    1    1    2    0    0 -0.39082032421E+02  0.28618323651E+01 -0.10594929634E+02  0.40593692571E+02  0.00000000000E+00 0. -1.
<mgrwt>
<rscale>  0 0.11159919E+03</rscale>
<asrwt>0</asrwt>
<pdfrwt beam="2">  1        1 0.33191560E-01 0.12770791E+03</pdfrwt>
<pdfrwt beam="1">  1       -1 0.84203511E-02 0.12770791E+03</pdfrwt>
<totfact> 0.99458071E+03</totfact>
</mgrwt>
</event>
<event>
 6    1  0.1045058E-005  0.1472625E+03  0.7546771E-02  0.1213402E+00
         -2   -1    0    0    0  501 -0.00000000000E+00  0.00000000000E+00  0.15057241827E+03  0.15057241827E+03  0.00000000000E+00 0.  1.
          2   -1    0    0  501    0  0.00000000000E+00 -0.00000000000E+00 -0.12331207650E+03  0.12331207650E+03  0.00000000000E+00 0. -1.
          5    1    1    2  502    0  0.12748106695E+02 -0.38972401811E+02 -0.10219892173E+02  0.42519389968E+02  0.47000000000E+01 0. -1.
         -5    1    1    2    0  502  0.38118655023E+02  0.97915106885E+02 -0.12000010834E+01  0.10518521769E+03  0.47000000000E+01 0. -1.
        -11    1    1    2    0    0 -0.65821060587E+01  0.16882996503E+02 -0.14773011114E+02  0.23379511297E+02  0.00000000000E+00 0. -1.
         11    1    1    2    0    0 -0.44284655660E+02 -0.75825701576E+02  0.53453246140E+02  0.10280037582E+03  0.00000000000E+00 0.  1.
<mgrwt>
<rscale>  0 0.13994562E+03</rscale>
<asrwt>0</asrwt>
<pdfrwt beam="2">  1        2 0.18971089E-01 0.14726248E+03</pdfrwt>
<pdfrwt beam="1">  1       -2 0.23164987E-01 0.14726248E+03</pdfrwt>
<totfact> 0.46119790E+03</totfact>
</mgrwt>
</event>
<event>
 6    1  0.1045058E-005  0.2922225E+03  0.7546771E-02  0.1089194E+00
          2   -1    0    0  501    0  0.00000000000E+00  0.00000000000E+00  0.55454427344E+03  0.55454427344E+03  0.00000000000E+00 0. -1.
         -2   -1    0    0    0  501 -0.00000000000E+00 -0.00000000000E+00 -0.38497363594E+02  0.38497363594E+02  0.00000000000E+00 0.  1.
          5    1    1    2  502    0  0.99779392409E+02  0.39020569706E+02  0.32641123387E+03  0.34357665172E+03  0.47000000000E+01 0.  1.
         -5    1    1    2    0  502 -0.31877711603E+02 -0.16425313994E+02  0.87670915819E+02  0.94838066816E+02  0.47000000000E+01 0.  1.
        -11    1    1    2    0    0 -0.19621752287E+02 -0.54003834333E+02  0.61950004645E+02  0.84493966418E+02  0.00000000000E+00 0. -1.
         11    1    1    2    0    0 -0.48279928519E+02  0.31408578621E+02  0.40014755509E+02  0.70132952078E+02  0.00000000000E+00 0.  1.
<mgrwt>
<rscale>  0 0.29222247E+03</rscale>
<asrwt>0</asrwt>
<pdfrwt beam="1">  1        2 0.85314498E-01 0.29222247E+03</pdfrwt>
<pdfrwt beam="2">  1       -2 0.59226717E-02 0.29222247E+03</pdfrwt>
<totfact> 0.83319650E+03</totfact>
</mgrwt>
</event>
<event>
 6    1  0.1045058E-005  0.1327052E+03  0.7546771E-02  0.1236490E+00
         -1   -1    0    0    0  501 -0.00000000000E+00  0.00000000000E+00  0.13013031824E+03  0.13013031824E+03  0.00000000000E+00 0.  1.
          1   -1    0    0  501    0  0.00000000000E+00 -0.00000000000E+00 -0.16348727401E+03  0.16348727401E+03  0.00000000000E+00 0. -1.
          5    1    1    2  502    0 -0.41669670281E+02 -0.28989432180E+02 -0.75180532460E+02  0.90834745888E+02  0.47000000000E+01 0. -1.
         -5    1    1    2    0  502  0.72302451181E+02 -0.33282903645E+01 -0.29969728986E+02  0.78479275092E+02  0.47000000000E+01 0. -1.
        -11    1    1    2    0    0  0.19471011827E+02 -0.10241748018E+02  0.50692235073E+02  0.55260441554E+02  0.00000000000E+00 0.  1.
         11    1    1    2    0    0 -0.50103792726E+02  0.42559470562E+02  0.21101070602E+02  0.69043129713E+02  0.00000000000E+00 0. -1.
<mgrwt>
<rscale>  0 0.12409527E+03</rscale>
<asrwt>0</asrwt>
<pdfrwt beam="2">  1        1 0.25151888E-01 0.13270516E+03</pdfrwt>
<pdfrwt beam="1">  1       -1 0.20020049E-01 0.13270516E+03</pdfrwt>
<totfact> 0.36726375E+03</totfact>
</mgrwt>
</event>
<event>
 6    1  0.1045058E-005  0.1394798E+03  0.7546771E-02  0.1226005E+00
          1   -1    0    0  501    0  0.00000000000E+00  0.00000000000E+00  0.43006824145E+02  0.43006824145E+02  0.00000000000E+00 0. -1.
         -1   -1    0    0    0  501 -0.00000000000E+00 -0.00000000000E+00 -0.36601862321E+03  0.36601862321E+03  0.00000000000E+00 0.  1.
          5    1    1    2  502    0  0.19222337230E+02  0.65232646273E+02 -0.40603917222E+02  0.79344593276E+02  0.47000000000E+01 0. -1.
         -5    1    1    2    0  502 -0.58698871346E+02 -0.17570132609E+02 -0.10946145044E+03  0.12553153464E+03  0.47000000000E+01 0. -1.
        -11    1    1    2    0    0  0.58974859016E+02 -0.39371860352E+02 -0.72195800777E+02  0.10119491604E+03  0.00000000000E+00 0.  1.
         11    1    1    2    0    0 -0.19498324900E+02 -0.82906533116E+01 -0.10075063063E+03  0.10295440340E+03  0.00000000000E+00 0. -1.
<mgrwt>
<rscale>  0 0.13098280E+03</rscale>
<asrwt>0</asrwt>
<pdfrwt beam="1">  1        1 0.66164343E-02 0.13947980E+03</pdfrwt>
<pdfrwt beam="2">  1       -1 0.56310559E-01 0.13947980E+03</pdfrwt>
<totfact> 0.35662019E+03</totfact>
</mgrwt>
</event>
<event>
 6    1  0.1045058E-005  0.1826624E+03  0.7546771E-02  0.1171187E+00
          1   -1    0    0  501    0  0.00000000000E+00  0.00000000000E+00  0.10090560378E+03  0.10090560378E+03  0.00000000000E+00 0. -1.
         -1   -1    0    0    0  501 -0.00000000000E+00 -0.00000000000E+00 -0.29334115455E+03  0.29334115455E+03  0.00000000000E+00 0.  1.
          5    1    1    2  502    0 -0.15137173257E+02  0.11111017318E+03 -0.91385405219E+00  0.11223871760E+03  0.47000000000E+01 0.  1.
         -5    1    1    2    0  502 -0.31919038084E+02  0.13494800968E+02 -0.80455704716E+02  0.87727675603E+02  0.47000000000E+01 0.  1.
        -11    1    1    2    0    0  0.48687100812E+02 -0.93292254740E+02 -0.12196221535E+03  0.16108587943E+03  0.00000000000E+00 0.  1.
         11    1    1    2    0    0 -0.16308894707E+01 -0.31312719409E+02  0.10896223350E+02  0.33194485695E+02  0.00000000000E+00 0. -1.
<mgrwt>
<rscale>  0 0.17654717E+03</rscale>
<asrwt>0</asrwt>
<pdfrwt beam="1">  1        1 0.15523939E-01 0.18266240E+03</pdfrwt>
<pdfrwt beam="2">  1       -1 0.45129408E-01 0.18266240E+03</pdfrwt>
<totfact> 0.17434513E+03</totfact>
</mgrwt>
</event>
<event>
 6    1  0.1045058E-005  0.2681794E+03  0.7546771E-02  0.1118487E+00
          1   -1    0    0  501    0  0.00000000000E+00  0.00000000000E+00  0.24044001620E+04  0.24044001620E+04  0.00000000000E+00 0. -1.
         -1   -1    0    0    0  501 -0.00000000000E+00 -0.00000000000E+00 -0.92551634392E+02  0.92551634392E+02  0.00000000000E+00 0.  1.
          5    1    1    2  502    0 -0.64033209157E+02 -0.42180966060E+01  0.11885095946E+04  0.11902500538E+04  0.47000000000E+01 0. -1.
         -5    1    1    2    0  502  0.10124197056E+03 -0.14398766155E+03  0.11149513458E+04  0.11287696739E+04  0.47000000000E+01 0.  1.
        -11    1    1    2    0    0 -0.42641641531E+02  0.12104567093E+03 -0.28833435318E+02  0.13153604463E+03  0.00000000000E+00 0.  1.
         11    1    1    2    0    0  0.54328801257E+01  0.27160087225E+02  0.37221022542E+02  0.46396024007E+02  0.00000000000E+00 0. -1.
<mgrwt>
<rscale>  0 0.24197019E+03</rscale>
<asrwt>0</asrwt>
<pdfrwt beam="1">  1        1 0.36990767E+00 0.26817941E+03</pdfrwt>
<pdfrwt beam="2">  1       -1 0.14238715E-01 0.26817941E+03</pdfrwt>
<totfact> 0.64455474E+01</totfact>
</mgrwt>
</event>
<event>
 6    1  0.1045058E-005  0.1257908E+03  0.7546771E-02  0.1258920E+00
         -2   -1    0    0    0  501 -0.00000000000E+00  0.00000000000E+00  0.62469134847E+02  0.62469134847E+02  0.00000000000E+00 0. -1.
          2   -1    0    0  501    0  0.00000000000E+00 -0.00000000000E+00 -0.17242069284E+03  0.17242069284E+03  0.00000000000E+00 0.  1.
          5    1    1    2  502    0  0.20878028314E+02  0.57017882592E+02 -0.81805324326E+02  0.10198594065E+03  0.47000000000E+01 0.  1.
         -5    1    1    2    0  502 -0.73554799253E+01 -0.53178436419E+02 -0.12744101862E+02  0.55376450926E+02  0.47000000000E+01 0.  1.
        -11    1    1    2    0    0  0.29152977855E+01  0.28816269702E+02 -0.26565613912E+02  0.39301503829E+02  0.00000000000E+00 0.  1.
         11    1    1    2    0    0 -0.16437846175E+02 -0.32655715875E+02  0.11163482107E+02  0.38225932283E+02  0.00000000000E+00 0. -1.
<mgrwt>
<rscale>  0 0.11089565E+03</rscale>
<asrwt>0</asrwt>
<pdfrwt beam="2">  1        2 0.26526261E-01 0.12579081E+03</pdfrwt>
<pdfrwt beam="1">  1       -2 0.96106361E-02 0.12579081E+03</pdfrwt>
<totfact> 0.13241505E+04</totfact>
</mgrwt>
</event>
<event>
 6    1  0.1045058E-005  0.4043966E+03  0.7546771E-02  0.1042268E+00
         -3   -1    0    0    0  501 -0.00000000000E+00  0.00000000000E+00  0.85311737589E+02  0.85311737589E+02  0.00000000000E+00 0.  1.
          3   -1    0    0  501    0  0.00000000000E+00 -0.00000000000E+00 -0.47923235090E+03  0.47923235090E+03  0.00000000000E+00 0. -1.
          5    1    1    2  502    0 -0.18520537769E+01  0.12204676464E+02  0.69244976565E+01  0.14913849221E+02  0.47000000000E+01 0. -1.
         -5    1    1    2    0  502 -0.71306033684E+02  0.69826168492E+02 -0.39328142655E+03  0.40577409320E+03  0.47000000000E+01 0. -1.
        -11    1    1    2    0    0  0.45178841885E+02 -0.34858700477E+02 -0.48922340603E+02  0.75164168080E+02  0.00000000000E+00 0. -1.
         11    1    1    2    0    0  0.27979245576E+02 -0.47172144479E+02  0.41358656186E+02  0.68691977984E+02  0.00000000000E+00 0.  1.
<mgrwt>
<rscale>  0 0.40439656E+03</rscale>
<asrwt>0</asrwt>
<pdfrwt beam="2">  1        3 0.73728053E-01 0.40439656E+03</pdfrwt>
<pdfrwt beam="1">  1       -3 0.13124883E-01 0.40439656E+03</pdfrwt>
<totfact> 0.21639119E+02</totfact>
</mgrwt>
</event>
<event>
 6    1  0.1045058E-005  0.6739656E+03  0.7546771E-02  0.9762820E-01
          1   -1    0    0  501    0  0.00000000000E+00  0.00000000000E+00  0.16567694900E+04  0.16567694900E+04  0.00000000000E+00 0. -1.
         -1   -1    0    0    0  501 -0.00000000000E+00 -0.00000000000E+00 -0.68541464014E+02  0.68541464014E+02  0.00000000000E+00 0.  1.
          5    1    1    2  502    0 -0.13847224737E+03 -0.38396825249E+02  0.13093105983E+04  0.13171807819E+04  0.47000000000E+01 0. -1.
         -5    1    1    2    0  502  0.24771634897E+02  0.10473322454E+02  0.25557900775E+03  0.25703315658E+03  0.47000000000E+01 0.  1.
        -11    1    1    2    0    0  0.66271091740E+02 -0.14972791279E+02 -0.23432086833E+02  0.71868663355E+02  0.00000000000E+00 0.  1.
         11    1    1    2    0    0  0.47429520732E+02  0.42896294075E+02  0.46770506804E+02  0.79228352178E+02  0.00000000000E+00 0. -1.
<mgrwt>
<rscale>  0 0.67396560E+03</rscale>
<asrwt>0</asrwt>
<pdfrwt beam="1">  1        1 0.25488758E+00 0.67396560E+03</pdfrwt>
<pdfrwt beam="2">  1       -1 0.10544842E-01 0.67396560E+03</pdfrwt>
<totfact> 0.30380049E+02</totfact>
</mgrwt>
</event>
<event>
 6    1  0.1045058E-005  0.1532356E+03  0.7546771E-02  0.1205712E+00
          1   -1    0    0  501    0  0.00000000000E+00  0.00000000000E+00  0.13112628831E+03  0.13112628831E+03  0.00000000000E+00 0. -1.
         -1   -1    0    0    0  501 -0.00000000000E+00 -0.00000000000E+00 -0.15444672746E+03  0.15444672746E+03  0.00000000000E+00 0.  1.
          5    1    1    2  502    0 -0.44897162919E+02  0.63216599205E+02  0.29702996903E+02  0.83165207138E+02  0.47000000000E+01 0. -1.
         -5    1    1    2    0  502  0.65360888134E+02  0.23021106794E+02 -0.14067150911E+02  0.70866012943E+02  0.47000000000E+01 0. -1.
        -11    1    1    2    0    0 -0.53589758678E+02 -0.48033771804E+02 -0.37043066157E+02  0.80940065599E+02  0.00000000000E+00 0.  1.
         11    1    1    2    0    0  0.33126033462E+02 -0.38203934195E+02 -0.19132189807E+01  0.50601730087E+02  0.00000000000E+00 0. -1.
<mgrwt>
<rscale>  0 0.14581510E+03</rscale>
<asrwt>0</asrwt>
<pdfrwt beam="1">  1        1 0.20173275E-01 0.15323556E+03</pdfrwt>
<pdfrwt beam="2">  1       -1 0.23761035E-01 0.15323556E+03</pdfrwt>
<totfact> 0.37045479E+03</totfact>
</mgrwt>
</event>
<event>
 6    1  0.1045058E-005  0.1396950E+03  0.7546771E-02  0.1224977E+00
          3   -1    0    0  501    0  0.00000000000E+00  0.00000000000E+00  0.62608658247E+02  0.62608658247E+02  0.00000000000E+00 0. -1.
         -3   -1    0    0    0  501 -0.00000000000E+00 -0.00000000000E+00 -0.26344304200E+03  0.26344304200E+03  0.00000000000E+00 0.  1.
          5    1    1    2  502    0 -0.43158340913E+02 -0.42352193540E+02 -0.24280292797E+02  0.65329727585E+02  0.47000000000E+01 0. -1.
         -5    1    1    2    0  502  0.77529320458E+02 -0.96423786821E+01 -0.50153573106E+02  0.92958280387E+02  0.47000000000E+01 0. -1.
        -11    1    1    2    0    0 -0.59064210804E+02  0.17842043042E+02 -0.10158888419E+03  0.11885798623E+03  0.00000000000E+00 0. -1.
         11    1    1    2    0    0  0.24693231259E+02  0.34152529180E+02 -0.24811633657E+02  0.48905706049E+02  0.00000000000E+00 0.  1.
<mgrwt>
<rscale>  0 0.13168494E+03</rscale>
<asrwt>0</asrwt>
<pdfrwt beam="1">  1        3 0.96321013E-02 0.13969500E+03</pdfrwt>
<pdfrwt beam="2">  1       -3 0.40529699E-01 0.13969500E+03</pdfrwt>
<totfact> 0.11003736E+03</totfact>
</mgrwt>
</event>
<event>
 6    1  0.1045058E-005  0.2192877E+03  0.7546771E-02  0.1169006E+00
         -2   -1    0    0    0  501 -0.00000000000E+00  0.00000000000E+00  0.35073058758E+02  0.35073058758E+02  0.00000000000E+00 0.  1.
          2   -1    0    0  501    0  0.00000000000E+00 -0.00000000000E+00 -0.94697715454E+03  0.94697715454E+03  0.00000000000E+00 0. -1.
          5    1    1    2  502    0  0.42320024848E+02 -0.55170838634E+01 -0.80380622531E+03  0.80495214799E+03  0.47000000000E+01 0. -1.
         -5    1    1    2    0  502 -0.31219497371E+02 -0.24754409148E+02 -0.15198180180E+02  0.42901194262E+02  0.47000000000E+01 0.  1.
        -11    1    1    2    0    0  0.11569227487E+02 -0.29165253489E+02 -0.43601590123E+02  0.53717387288E+02  0.00000000000E+00 0.  1.
         11    1    1    2    0    0 -0.22669754964E+02  0.59436746500E+02 -0.49298100169E+02  0.80479483751E+02  0.00000000000E+00 0. -1.
<mgrwt>
<rscale>  0 0.17876274E+03</rscale>
<asrwt>0</asrwt>
<pdfrwt beam="2">  1        2 0.14568877E+00 0.21928765E+03</pdfrwt>
<pdfrwt beam="1">  1       -2 0.53958561E-02 0.21928765E+03</pdfrwt>
<totfact> 0.48963961E+03</totfact>
</mgrwt>
</event>
<event>
 6    1  0.1045058E-005  0.2409000E+03  0.7546771E-02  0.1119195E+00
         -1   -1    0    0    0  501 -0.00000000000E+00  0.00000000000E+00  0.85199440542E+03  0.85199440542E+03  0.00000000000E+00 0.  1.
          1   -1    0    0  501    0  0.00000000000E+00 -0.00000000000E+00 -0.17028518277E+02  0.17028518277E+02  0.00000000000E+00 0. -1.
          5    1    1    2  502    0  0.10269099483E+02  0.15164339336E+01  0.30538729756E+03  0.30559981264E+03  0.47000000000E+01 0. -1.
         -5    1    1    2    0  502 -0.47759440725E+02  0.63605975257E+01  0.37097999416E+02  0.60989941301E+02  0.47000000000E+01 0. -1.
        -11    1    1    2    0    0  0.24427036823E+02  0.41353305173E+02  0.26535143229E+03  0.26966304641E+03  0.00000000000E+00 0. -1.
         11    1    1    2    0    0  0.13063304419E+02 -0.49230336632E+02  0.22712915787E+03  0.23277012335E+03  0.00000000000E+00 0.  1.
<mgrwt>
<rscale>  0 0.24090000E+03</rscale>
<asrwt>0</asrwt>
<pdfrwt beam="2">  1        1 0.26197727E-02 0.24090000E+03</pdfrwt>
<pdfrwt beam="1">  1       -1 0.13107603E+00 0.24090000E+03</pdfrwt>
<totfact> 0.21895411E+03</totfact>
</mgrwt>
</event>
<event>
 6    1  0.1045058E-005  0.1776593E+03  0.7546771E-02  0.1175826E+00
         -1   -1    0    0    0  501 -0.00000000000E+00  0.00000000000E+00  0.11639802562E+03  0.11639802562E+03  0.00000000000E+00 0.  1.
          1   -1    0    0  501    0  0.00000000000E+00 -0.00000000000E+00 -0.35502575646E+03  0.35502575646E+03  0.00000000000E+00 0. -1.
          5    1    1    2  502    0 -0.42047015761E+02  0.13814830421E+01 -0.23514349170E+02  0.48423905736E+02  0.47000000000E+01 0. -1.
         -5    1    1    2    0  502  0.15012000106E+02  0.12192749740E+03 -0.23560333716E+03  0.26574931279E+03  0.47000000000E+01 0. -1.
        -11    1    1    2    0    0  0.41093409764E+02 -0.15308674097E+02 -0.82257275422E+01  0.44617109075E+02  0.00000000000E+00 0. -1.
         11    1    1    2    0    0 -0.14058394109E+02 -0.10800030634E+03  0.28715683036E+02  0.11263345448E+03  0.00000000000E+00 0.  1.
<mgrwt>
<rscale>  0 0.17195287E+03</rscale>
<asrwt>0</asrwt>
<pdfrwt beam="2">  1        1 0.54619347E-01 0.17765933E+03</pdfrwt>
<pdfrwt beam="1">  1       -1 0.17907389E-01 0.17765933E+03</pdfrwt>
<totfact> 0.16894584E+03</totfact>
</mgrwt>
</event>
<event>
 6    1  0.1045058E-005  0.2623816E+03  0.7546771E-02  0.1107977E+00
          2   -1    0    0  501    0  0.00000000000E+00  0.00000000000E+00  0.94965521719E+03  0.94965521719E+03  0.00000000000E+00 0. -1.
         -2   -1    0    0    0  501 -0.00000000000E+00 -0.00000000000E+00 -0.83554203581E+02  0.83554203581E+02  0.00000000000E+00 0.  1.
          5    1    1    2  502    0 -0.87578427592E+01  0.90385034376E+01  0.88294413158E+02  0.89310625063E+02  0.47000000000E+01 0. -1.
         -5    1    1    2    0  502  0.22159763993E+03 -0.98027146569E+02  0.57436409214E+03  0.62340278779E+03  0.47000000000E+01 0. -1.
        -11    1    1    2    0    0 -0.63304563966E+02 -0.27796450678E+01  0.95147611775E+02  0.11431650044E+03  0.00000000000E+00 0. -1.
         11    1    1    2    0    0 -0.14953523320E+03  0.91768288199E+02  0.10829489653E+03  0.20617950748E+03  0.00000000000E+00 0.  1.
<mgrwt>
<rscale>  0 0.25861764E+03</rscale>
<asrwt>0</asrwt>
<pdfrwt beam="1">  1        2 0.14610079E+00 0.26238162E+03</pdfrwt>
<pdfrwt beam="2">  1       -2 0.12854494E-01 0.26238162E+03</pdfrwt>
<totfact> 0.12484928E+03</totfact>
</mgrwt>
</event>
<event>
 6    1  0.1045058E-005  0.1509631E+03  0.7546771E-02  0.1208503E+00
         -2   -1    0    0    0  501 -0.00000000000E+00  0.00000000000E+00  0.12539302630E+03  0.12539302630E+03  0.00000000000E+00 0.  1.
          2   -1    0    0  501    0  0.00000000000E+00 -0.00000000000E+00 -0.17333502066E+03  0.17333502066E+03  0.00000000000E+00 0. -1.
          5    1    1    2  502    0  0.44459857292E+02  0.10729636093E+03 -0.73971743030E+02  0.13777915933E+03  0.47000000000E+01 0. -1.
         -5    1    1    2    0  502 -0.69028091595E+01 -0.31439971132E+02 -0.60728313617E+01  0.33092141663E+02  0.47000000000E+01 0. -1.
        -11    1    1    2    0    0  0.27345508290E+02 -0.29151211834E+02  0.25960591579E+02  0.47660489823E+02  0.00000000000E+00 0. -1.
         11    1    1    2    0    0 -0.64902556423E+02 -0.46705177960E+02  0.61419884539E+01  0.80196256151E+02  0.00000000000E+00 0.  1.
<mgrwt>
<rscale>  0 0.14364783E+03</rscale>
<asrwt>0</asrwt>
<pdfrwt beam="2">  1        2 0.26666926E-01 0.15096313E+03</pdfrwt>
<pdfrwt beam="1">  1       -2 0.19291235E-01 0.15096313E+03</pdfrwt>
<totfact> 0.43134984E+03</totfact>
</mgrwt>
</event>
<event>
 6    1  0.1045058E-005  0.2729433E+03  0.7546771E-02  0.1101662E+00
          2   -1    0    0  501    0  0.00000000000E+00  0.00000000000E+00  0.54952535615E+03  0.54952535615E+03  0.00000000000E+00 0. -1.
         -2   -1    0    0    0  501 -0.00000000000E+00 -0.00000000000E+00 -0.14667526713E+03  0.14667526713E+03  0.00000000000E+00 0.  1.
          5    1    1    2  502    0 -0.42497133796E+02 -0.55094624380E+02  0.73148432814E+02  0.10106536122E+03  0.47000000000E+01 0.  1.
         -5    1    1    2    0  502  0.85631860889E+02 -0.18368143484E+03  0.25504948714E+03  0.32579750765E+03  0.47000000000E+01 0.  1.
        -11    1    1    2    0    0  0.18589682609E+02  0.64880591350E+02 -0.64044529309E+01  0.67794427874E+02  0.00000000000E+00 0.  1.
         11    1    1    2    0    0 -0.61724409703E+02  0.17389546787E+03  0.81056621994E+02  0.20154332653E+03  0.00000000000E+00 0. -1.
<mgrwt>
<rscale>  0 0.26933280E+03</rscale>
<asrwt>0</asrwt>
<pdfrwt beam="1">  1        2 0.84542361E-01 0.27294328E+03</pdfrwt>
<pdfrwt beam="2">  1       -2 0.22565426E-01 0.27294328E+03</pdfrwt>
<totfact> 0.95414659E+02</totfact>
</mgrwt>
</event>
<event>
 6    1  0.1045058E-005  0.4274224E+03  0.7546771E-02  0.1034677E+00
          3   -1    0    0  501    0  0.00000000000E+00  0.00000000000E+00  0.90132226512E+03  0.90132226512E+03  0.00000000000E+00 0. -1.
         -3   -1    0    0    0  501 -0.00000000000E+00 -0.00000000000E+00 -0.50672751649E+02  0.50672751649E+02  0.00000000000E+00 0.  1.
          5    1    1    2  502    0  0.36991112995E+01 -0.11579374817E+02  0.22460186199E+03  0.22497966965E+03  0.47000000000E+01 0. -1.
         -5    1    1    2    0  502  0.13859126659E+03  0.88314960020E+02  0.41090425864E+03  0.44257369003E+03  0.47000000000E+01 0. -1.
        -11    1    1    2    0    0 -0.49483583916E+02 -0.48128377119E+02  0.15636398768E+03  0.17092297214E+03  0.00000000000E+00 0. -1.
         11    1    1    2    0    0 -0.92806793978E+02 -0.28607208084E+02  0.58779405171E+02  0.11351868496E+03  0.00000000000E+00 0.  1.
<mgrwt>
<rscale>  0 0.42742241E+03</rscale>
<asrwt>0</asrwt>
<pdfrwt beam="1">  1        3 0.13866495E+00 0.42742241E+03</pdfrwt>
<pdfrwt beam="2">  1       -3 0.77958086E-02 0.42742241E+03</pdfrwt>
<totfact> 0.12032978E+02</totfact>
</mgrwt>
</event>
<event>
 6    1  0.1045058E-005  0.2468880E+03  0.7546771E-02  0.1134874E+00
          2   -1    0    0  501    0  0.00000000000E+00  0.00000000000E+00  0.92058473381E+03  0.92058473381E+03  0.00000000000E+00 0. -1.
         -2   -1    0    0    0  501 -0.00000000000E+00 -0.00000000000E+00 -0.77078106341E+02  0.77078106341E+02  0.00000000000E+00 0.  1.
          5    1    1    2  502    0  0.12092073646E+03  0.54374672165E+02  0.62487632779E+03  0.63880430847E+03  0.47000000000E+01 0. -1.
         -5    1    1    2    0  502 -0.75908730688E+02  0.54945196338E+02  0.17856389388E+03  0.20171332181E+03  0.47000000000E+01 0.  1.
        -11    1    1    2    0    0 -0.33364007316E+02 -0.11709857337E+03  0.78452856853E+01  0.12201139855E+03  0.00000000000E+00 0.  1.
         11    1    1    2    0    0 -0.11647998460E+02  0.77787048631E+01  0.32221120112E+02  0.35133811332E+02  0.00000000000E+00 0. -1.
<mgrwt>
<rscale>  0 0.21867612E+03</rscale>
<asrwt>0</asrwt>
<pdfrwt beam="1">  1        2 0.14162841E+00 0.24688803E+03</pdfrwt>
<pdfrwt beam="2">  1       -2 0.11858171E-01 0.24688803E+03</pdfrwt>
<totfact> 0.14850587E+03</totfact>
</mgrwt>
</event>
<event>
 6    1  0.1045058E-005  0.1482751E+03  0.7546771E-02  0.1220468E+00
          2   -1    0    0  501    0  0.00000000000E+00  0.00000000000E+00  0.70193140093E+03  0.70193140093E+03  0.00000000000E+00 0. -1.
         -2   -1    0    0    0  501 -0.00000000000E+00 -0.00000000000E+00 -0.50821458209E+02  0.50821458209E+02  0.00000000000E+00 0.  1.
          5    1    1    2  502    0 -0.24006388665E+02  0.10895794259E+03  0.46227270583E+03  0.47556943185E+03  0.47000000000E+01 0. -1.
         -5    1    1    2    0  502 -0.31552270533E+01 -0.35967561184E+02  0.17029154743E+03  0.17414052383E+03  0.47000000000E+01 0.  1.
        -11    1    1    2    0    0 -0.60193320282E+01  0.10070399469E+02  0.17943621413E+00  0.11733605622E+02  0.00000000000E+00 0. -1.
         11    1    1    2    0    0  0.33180947746E+02 -0.83060780874E+02  0.18366253243E+02  0.91309297834E+02  0.00000000000E+00 0.  1.
<mgrwt>
<rscale>  0 0.13482424E+03</rscale>
<asrwt>0</asrwt>
<pdfrwt beam="1">  1        2 0.10798944E+00 0.14827506E+03</pdfrwt>
<pdfrwt beam="2">  1       -2 0.78186864E-02 0.14827506E+03</pdfrwt>
<totfact> 0.40022573E+03</totfact>
</mgrwt>
</event>
<event>
 6    1  0.1045058E-005  0.1518697E+03  0.7546771E-02  0.1210899E+00
          2   -1    0    0  501    0  0.00000000000E+00  0.00000000000E+00  0.31356508235E+03  0.31356508235E+03  0.00000000000E+00 0. -1.
         -2   -1    0    0    0  501 -0.00000000000E+00 -0.00000000000E+00 -0.93884681815E+02  0.93884681815E+02  0.00000000000E+00 0.  1.
          5    1    1    2  502    0  0.32216172226E+02 -0.57419221083E+02  0.23449606264E+03  0.24360899428E+03  0.47000000000E+01 0. -1.
         -5    1    1    2    0  502 -0.41812187936E+02 -0.12713420017E+02  0.11405452659E+02  0.45409959908E+02  0.47000000000E+01 0.  1.
        -11    1    1    2    0    0 -0.19113921646E+02  0.80742122131E+02 -0.28516700957E+02  0.87737304041E+02  0.00000000000E+00 0.  1.
         11    1    1    2    0    0  0.28709937356E+02 -0.10609481031E+02  0.22955861999E+01  0.30693505938E+02  0.00000000000E+00 0. -1.
<mgrwt>
<rscale>  0 0.14182112E+03</rscale>
<asrwt>0</asrwt>
<pdfrwt beam="1">  1        2 0.48240781E-01 0.15186968E+03</pdfrwt>
<pdfrwt beam="2">  1       -2 0.14443797E-01 0.15186968E+03</pdfrwt>
<totfact> 0.36859966E+03</totfact>
</mgrwt>
</event>
<event>
 6    1  0.1045058E-005  0.1408987E+03  0.7546771E-02  0.1223041E+00
          2   -1    0    0  501    0  0.00000000000E+00  0.00000000000E+00  0.41691370854E+03  0.41691370854E+03  0.00000000000E+00 0. -1.
         -2   -1    0    0    0  501 -0.00000000000E+00 -0.00000000000E+00 -0.39390006481E+02  0.39390006481E+02  0.00000000000E+00 0.  1.
          5    1    1    2  502    0  0.86814807359E+02  0.46004325045E+02  0.17475949889E+03  0.20053972463E+03  0.47000000000E+01 0.  1.
         -5    1    1    2    0  502 -0.22616190458E+02 -0.35690024361E+02  0.72209265929E+02  0.83794617941E+02  0.47000000000E+01 0.  1.
        -11    1    1    2    0    0  0.11914111095E+02 -0.27357307455E+02  0.17414615289E+02  0.34549054112E+02  0.00000000000E+00 0. -1.
         11    1    1    2    0    0 -0.76112727997E+02  0.17043006772E+02  0.11314032194E+03  0.13742031834E+03  0.00000000000E+00 0.  1.
<mgrwt>
<rscale>  0 0.13302071E+03</rscale>
<asrwt>0</asrwt>
<pdfrwt beam="1">  1        2 0.64140567E-01 0.14089871E+03</pdfrwt>
<pdfrwt beam="2">  1       -2 0.60600013E-02 0.14089871E+03</pdfrwt>
<totfact> 0.10576079E+04</totfact>
</mgrwt>
</event>
<event>
 6    1  0.1045058E-005  0.3424775E+03  0.7546771E-02  0.1100347E+00
         -2   -1    0    0    0  501 -0.00000000000E+00  0.00000000000E+00  0.10210012692E+03  0.10210012692E+03  0.00000000000E+00 0.  1.
          2   -1    0    0  501    0  0.00000000000E+00 -0.00000000000E+00 -0.69014741159E+03  0.69014741159E+03  0.00000000000E+00 0. -1.
          5    1    1    2  502    0 -0.51421239117E+02 -0.15988292551E+03 -0.52050478567E+03  0.54694973773E+03  0.47000000000E+01 0. -1.
         -5    1    1    2    0  502 -0.26336333993E+02  0.96266585867E+02 -0.35434112157E+02  0.10601190663E+03  0.47000000000E+01 0.  1.
        -11    1    1    2    0    0  0.80791087560E+02  0.77415364084E+02 -0.44572560643E+02  0.12044522235E+03  0.00000000000E+00 0.  1.
         11    1    1    2    0    0 -0.30335144493E+01 -0.13799024442E+02  0.12464173790E+02  0.18840671796E+02  0.00000000000E+00 0. -1.
<mgrwt>
<rscale>  0 0.27163551E+03</rscale>
<asrwt>0</asrwt>
<pdfrwt beam="2">  1        2 0.10617652E+00 0.34247752E+03</pdfrwt>
<pdfrwt beam="1">  1       -2 0.15707712E-01 0.34247752E+03</pdfrwt>
<totfact> 0.13544337E+03</totfact>
</mgrwt>
</event>
<event>
 6    1  0.1045058E-005  0.2893391E+03  0.7546771E-02  0.1090695E+00
         -4   -1    0    0    0  501 -0.00000000000E+00  0.00000000000E+00  0.22703814133E+03  0.22703814133E+03  0.00000000000E+00 0. -1.
          4   -1    0    0  501    0  0.00000000000E+00 -0.00000000000E+00 -0.92183946305E+02  0.92183946305E+02  0.00000000000E+00 0.  1.
          5    1    1    2  502    0 -0.68107540306E+02 -0.51960763842E+02 -0.33896648288E+02  0.92247660083E+02  0.47000000000E+01 0.  1.
         -5    1    1    2    0  502  0.13690451115E+02  0.33048702781E+02  0.27755266698E+02  0.45520215693E+02  0.47000000000E+01 0.  1.
        -11    1    1    2    0    0  0.27537504813E+02  0.57277082739E+01 -0.81893502308E+01  0.29294816446E+02  0.00000000000E+00 0.  1.
         11    1    1    2    0    0  0.26879584378E+02  0.13184352787E+02  0.14918492685E+03  0.15215939541E+03  0.00000000000E+00 0. -1.
<mgrwt>
<rscale>  0 0.28933905E+03</rscale>
<asrwt>0</asrwt>
<pdfrwt beam="2">  1        4 0.14182146E-01 0.28933905E+03</pdfrwt>
<pdfrwt beam="1">  1       -4 0.34928945E-01 0.28933905E+03</pdfrwt>
<totfact> 0.62274843E+02</totfact>
</mgrwt>
</event>
<event>
 6    1  0.1045058E-005  0.3267266E+03  0.7546771E-02  0.1072594E+00
         -2   -1    0    0    0  501 -0.00000000000E+00  0.00000000000E+00  0.34390212490E+02  0.34390212490E+02  0.00000000000E+00 0.  1.
          2   -1    0    0  501    0  0.00000000000E+00 -0.00000000000E+00 -0.77602236258E+03  0.77602236258E+03  0.00000000000E+00 0. -1.
          5    1    1    2  502    0 -0.17493966079E+02  0.14423609857E+02 -0.11179230938E+03  0.11416518649E+03  0.47000000000E+01 0. -1.
         -5    1    1    2    0  502  0.13492324148E+03 -0.47102185751E+02 -0.26508846994E+03  0.30119243664E+03  0.47000000000E+01 0. -1.
        -11    1    1    2    0    0 -0.46165166023E+02 -0.21136575538E+02 -0.21308951710E+03  0.21905506083E+03  0.00000000000E+00 0. -1.
         11    1    1    2    0    0 -0.71264109379E+02  0.53815151432E+02 -0.15166185367E+03  0.17599989110E+03  0.00000000000E+00 0.  1.
<mgrwt>
<rscale>  0 0.32672664E+03</rscale>
<asrwt>0</asrwt>
<pdfrwt beam="2">  1        2 0.11938806E+00 0.32672664E+03</pdfrwt>
<pdfrwt beam="1">  1       -2 0.52908018E-02 0.32672664E+03</pdfrwt>
<totfact> 0.66417818E+03</totfact>
</mgrwt>
</event>
<event>
 6    1  0.1045058E-005  0.1303616E+03  0.7546771E-02  0.1236710E+00
          2   -1    0    0  501    0  0.00000000000E+00  0.00000000000E+00  0.11756024045E+03  0.11756024045E+03  0.00000000000E+00 0. -1.
         -2   -1    0    0    0  501 -0.00000000000E+00 -0.00000000000E+00 -0.12324148003E+03  0.12324148003E+03  0.00000000000E+00 0.  1.
          5    1    1    2  502    0 -0.17031191044E+02 -0.38036521996E+02  0.44747234333E+02  0.61328977281E+02  0.47000000000E+01 0. -1.
         -5    1    1    2    0  502  0.53985847130E+02  0.35967076446E+02 -0.26639693205E+02  0.70284176971E+02  0.47000000000E+01 0. -1.
        -11    1    1    2    0    0 -0.60687580171E+02  0.31657678075E+02 -0.12198999035E+02  0.69527020255E+02  0.00000000000E+00 0.  1.
         11    1    1    2    0    0  0.23732924085E+02 -0.29588232525E+02 -0.11589781671E+02  0.39661545970E+02  0.00000000000E+00 0. -1.
<mgrwt>
<rscale>  0 0.12395570E+03</rscale>
<asrwt>0</asrwt>
<pdfrwt beam="1">  1        2 0.18086191E-01 0.13036157E+03</pdfrwt>
<pdfrwt beam="2">  1       -2 0.18960228E-01 0.13036157E+03</pdfrwt>
<totfact> 0.67964576E+03</totfact>
</mgrwt>
</event>
<event>
 6    1  0.1045058E-005  0.1455673E+03  0.7546771E-02  0.1218792E+00
         -1   -1    0    0    0  501 -0.00000000000E+00  0.00000000000E+00  0.25592667380E+03  0.25592667380E+03  0.00000000000E+00 0.  1.
          1   -1    0    0  501    0  0.00000000000E+00 -0.00000000000E+00 -0.76721513855E+02  0.76721513855E+02  0.00000000000E+00 0. -1.
          5    1    1    2  502    0 -0.37566065976E+02 -0.21556717314E+02  0.78169687455E+02  0.89490174942E+02  0.47000000000E+01 0. -1.
         -5    1    1    2    0  502 -0.63420066253E+01 -0.38753740665E+02 -0.44895990673E+02  0.59831542200E+02  0.47000000000E+01 0. -1.
        -11    1    1    2    0    0  0.15126595667E+02  0.58870807609E+02  0.38160384544E+02  0.71769079927E+02  0.00000000000E+00 0. -1.
         11    1    1    2    0    0  0.28781476935E+02  0.14396503696E+01  0.10777107861E+03  0.11155739058E+03  0.00000000000E+00 0.  1.
<mgrwt>
<rscale>  0 0.13601650E+03</rscale>
<asrwt>0</asrwt>
<pdfrwt beam="2">  1        1 0.11803310E-01 0.14556729E+03</pdfrwt>
<pdfrwt beam="1">  1       -1 0.39373334E-01 0.14556729E+03</pdfrwt>
<totfact> 0.31508242E+03</totfact>
</mgrwt>
</event>
<event>
 6    1  0.1045058E-005  0.1325561E+03  0.7546771E-02  0.1237536E+00
         -2   -1    0    0    0  501 -0.00000000000E+00  0.00000000000E+00  0.41888211778E+02  0.41888211778E+02  0.00000000000E+00 0.  1.
          2   -1    0    0  501    0  0.00000000000E+00 -0.00000000000E+00 -0.32424585823E+03  0.32424585823E+03  0.00000000000E+00 0. -1.
          5    1    1    2  502    0  0.61800190079E+02  0.37563820940E+02 -0.87498797645E+02  0.11361528826E+03  0.47000000000E+01 0.  1.
         -5    1    1    2    0  502 -0.59065893687E+02  0.64522358051E+01 -0.89095992643E+02  0.10719420250E+03  0.47000000000E+01 0.  1.
        -11    1    1    2    0    0  0.29102306138E+02 -0.12532375891E+02 -0.13482381197E+01  0.31714703436E+02  0.00000000000E+00 0.  1.
         11    1    1    2    0    0 -0.31836602530E+02 -0.31483680854E+02 -0.10441461804E+03  0.11360987581E+03  0.00000000000E+00 0. -1.
<mgrwt>
<rscale>  0 0.12343469E+03</rscale>
<asrwt>0</asrwt>
<pdfrwt beam="2">  1        2 0.49883979E-01 0.13255607E+03</pdfrwt>
<pdfrwt beam="1">  1       -2 0.64443401E-02 0.13255607E+03</pdfrwt>
<totfact> 0.12531941E+04</totfact>
</mgrwt>
</event>
<event>
 6    1  0.1045058E-005  0.1283353E+03  0.7546771E-02  0.1244514E+00
          1   -1    0    0  501    0  0.00000000000E+00  0.00000000000E+00  0.14703876345E+03  0.14703876345E+03  0.00000000000E+00 0. -1.
         -1   -1    0    0    0  501 -0.00000000000E+00 -0.00000000000E+00 -0.11609958319E+03  0.11609958319E+03  0.00000000000E+00 0.  1.
          5    1    1    2  502    0  0.71471814061E+02 -0.58495673459E+01  0.30517549106E+02  0.78075914639E+02  0.47000000000E+01 0.  1.
         -5    1    1    2    0  502 -0.47606875572E+02  0.22509557971E+02  0.54106084474E+02  0.75648219932E+02  0.47000000000E+01 0.  1.
        -11    1    1    2    0    0 -0.10783276445E+01 -0.19461547868E+02  0.22545035533E+02  0.29802571418E+02  0.00000000000E+00 0. -1.
         11    1    1    2    0    0 -0.22786610844E+02  0.28015572425E+01 -0.76229488847E+02  0.79611640648E+02  0.00000000000E+00 0.  1.
<mgrwt>
<rscale>  0 0.11914527E+03</rscale>
<asrwt>0</asrwt>
<pdfrwt beam="1">  1        1 0.22621348E-01 0.12833530E+03</pdfrwt>
<pdfrwt beam="2">  1       -1 0.17861474E-01 0.12833530E+03</pdfrwt>
<totfact> 0.50239533E+03</totfact>
</mgrwt>
</event>
<event>
 6    1  0.1045058E-005  0.1327069E+03  0.7546771E-02  0.1237032E+00
          2   -1    0    0  501    0  0.00000000000E+00  0.00000000000E+00  0.41269461171E+03  0.41269461171E+03  0.00000000000E+00 0. -1.
         -2   -1    0    0    0  501 -0.00000000000E+00 -0.00000000000E+00 -0.40047373599E+02  0.40047373599E+02  0.00000000000E+00 0.  1.
          5    1    1    2  502    0  0.68754106029E+02  0.35858017561E+02  0.12023471422E+03  0.14314817855E+03  0.47000000000E+01 0.  1.
         -5    1    1    2    0  502 -0.42376180077E+02  0.68515360485E-01  0.18218537599E+03  0.18710784740E+03  0.47000000000E+01 0.  1.
        -11    1    1    2    0    0 -0.12716567653E+02  0.30230305884E+02  0.22354718161E+02  0.39690249568E+02  0.00000000000E+00 0.  1.
         11    1    1    2    0    0 -0.13661358299E+02 -0.66156838806E+02  0.47872429747E+02  0.82795709800E+02  0.00000000000E+00 0. -1.
<mgrwt>
<rscale>  0 0.12375253E+03</rscale>
<asrwt>0</asrwt>
<pdfrwt beam="1">  1        2 0.63491476E-01 0.13270694E+03</pdfrwt>
<pdfrwt beam="2">  1       -2 0.61611347E-02 0.13270694E+03</pdfrwt>
<totfact> 0.10382482E+04</totfact>
</mgrwt>
</event>
<event>
 6    1  0.1045058E-005  0.1266875E+03  0.7546771E-02  0.1246560E+00
          2   -1    0    0  501    0  0.00000000000E+00  0.00000000000E+00  0.18899466582E+03  0.18899466582E+03  0.00000000000E+00 0. -1.
         -2   -1    0    0    0  501 -0.00000000000E+00 -0.00000000000E+00 -0.77421620688E+02  0.77421620688E+02  0.00000000000E+00 0.  1.
          5    1    1    2  502    0 -0.78382041982E+01  0.16711052238E+02 -0.24517893077E+02  0.31046961089E+02  0.47000000000E+01 0.  1.
         -5    1    1    2    0  502 -0.91250017149E+01 -0.50049673140E+01  0.13972499921E+03  0.14019087260E+03  0.47000000000E+01 0.  1.
        -11    1    1    2    0    0  0.17499869418E+02  0.30535044715E+02  0.25845497214E+02  0.43664907095E+02  0.00000000000E+00 0.  1.
         11    1    1    2    0    0 -0.53666350441E+00 -0.42241129639E+02 -0.29479558217E+02  0.51513545729E+02  0.00000000000E+00 0. -1.
<mgrwt>
<rscale>  0 0.11792496E+03</rscale>
<asrwt>0</asrwt>
<pdfrwt beam="1">  1        2 0.29076102E-01 0.12668748E+03</pdfrwt>
<pdfrwt beam="2">  1       -2 0.11911019E-01 0.12668748E+03</pdfrwt>
<totfact> 0.85463199E+03</totfact>
</mgrwt>
</event>
<event>
 6    1  0.1045058E-005  0.1301280E+03  0.7546771E-02  0.1241254E+00
         -1   -1    0    0    0  501 -0.00000000000E+00  0.00000000000E+00  0.33230183907E+02  0.33230183907E+02  0.00000000000E+00 0.  1.
          1   -1    0    0  501    0  0.00000000000E+00 -0.00000000000E+00 -0.47397230582E+03  0.47397230582E+03  0.00000000000E+00 0. -1.
          5    1    1    2  502    0 -0.66428378890E+00 -0.58781806529E+02 -0.13578704979E+03  0.14804038281E+03  0.47000000000E+01 0. -1.
         -5    1    1    2    0  502  0.36779300859E+02  0.59309100612E+02 -0.21601201451E+03  0.22705410545E+03  0.47000000000E+01 0. -1.
        -11    1    1    2    0    0  0.94263274464E+01 -0.35261202675E+02 -0.17320502465E+02  0.40400592432E+02  0.00000000000E+00 0.  1.
         11    1    1    2    0    0 -0.45541344517E+02  0.34733908591E+02 -0.71622555139E+02  0.91707409030E+02  0.00000000000E+00 0. -1.
<mgrwt>
<rscale>  0 0.12112422E+03</rscale>
<asrwt>0</asrwt>
<pdfrwt beam="2">  1        1 0.72918814E-01 0.13012799E+03</pdfrwt>
<pdfrwt beam="1">  1       -1 0.51123362E-02 0.13012799E+03</pdfrwt>
<totfact> 0.78657855E+03</totfact>
</mgrwt>
</event>
<event>
 6    1  0.1045058E-005  0.1435221E+03  0.7546771E-02  0.1219798E+00
         -1   -1    0    0    0  501 -0.00000000000E+00  0.00000000000E+00  0.22184655255E+03  0.22184655255E+03  0.00000000000E+00 0.  1.
          1   -1    0    0  501    0  0.00000000000E+00 -0.00000000000E+00 -0.90407171841E+02  0.90407171841E+02  0.00000000000E+00 0. -1.
          5    1    1    2  502    0  0.52366910448E+02  0.29358479906E+02 -0.53305117543E+02  0.80422255679E+02  0.47000000000E+01 0. -1.
         -5    1    1    2    0  502 -0.53424929295E+01  0.18833489335E+02  0.59964770681E+02  0.63254298464E+02  0.47000000000E+01 0.  1.
        -11    1    1    2    0    0 -0.39135318209E+02 -0.56778971150E+02  0.13594358741E+03  0.15243386649E+03  0.00000000000E+00 0.  1.
         11    1    1    2    0    0 -0.78890993096E+01  0.85870019089E+01 -0.11163859838E+02  0.16143303757E+02  0.00000000000E+00 0. -1.
<mgrwt>
<rscale>  0 0.13529906E+03</rscale>
<asrwt>0</asrwt>
<pdfrwt beam="2">  1        1 0.13908796E-01 0.14352213E+03</pdfrwt>
<pdfrwt beam="1">  1       -1 0.34130239E-01 0.14352213E+03</pdfrwt>
<totfact> 0.32523164E+03</totfact>
</mgrwt>
</event>
<event>
 6    1  0.1045058E-005  0.1939042E+03  0.7546771E-02  0.1159292E+00
          2   -1    0    0  501    0  0.00000000000E+00  0.00000000000E+00  0.52503262280E+03  0.52503262280E+03  0.00000000000E+00 0.  1.
         -2   -1    0    0    0  501 -0.00000000000E+00 -0.00000000000E+00 -0.83466481873E+02  0.83466481873E+02  0.00000000000E+00 0. -1.
          5    1    1    2  502    0  0.19017084656E+02  0.30662294844E+02  0.17646798694E+03  0.18018009393E+03  0.47000000000E+01 0. -1.
         -5    1    1    2    0  502 -0.10382475399E+03  0.90912939899E+02  0.19625559368E+03  0.23996476873E+03  0.47000000000E+01 0. -1.
        -11    1    1    2    0    0  0.13124955643E+02  0.18269369327E+01  0.40820910383E+02  0.42917931959E+02  0.00000000000E+00 0.  1.
         11    1    1    2    0    0  0.71682713689E+02 -0.12340217168E+03  0.28021649920E+02  0.14543631005E+03  0.00000000000E+00 0. -1.
<mgrwt>
<rscale>  0 0.18908187E+03</rscale>
<asrwt>0</asrwt>
<pdfrwt beam="1">  1        2 0.80774248E-01 0.19390420E+03</pdfrwt>
<pdfrwt beam="2">  1       -2 0.12840998E-01 0.19390420E+03</pdfrwt>
<totfact> 0.25765676E+03</totfact>
</mgrwt>
</event>
<event>
 6    1  0.1045058E-005  0.1310100E+03  0.7546771E-02  0.1241247E+00
         -1   -1    0    0    0  501 -0.00000000000E+00  0.00000000000E+00  0.33731045221E+02  0.33731045221E+02  0.00000000000E+00 0.  1.
          1   -1    0    0  501    0  0.00000000000E+00 -0.00000000000E+00 -0.39212841627E+03  0.39212841627E+03  0.00000000000E+00 0. -1.
          5    1    1    2  502    0  0.75880096415E+02 -0.22975527910E+02 -0.10564429838E+03  0.13216834604E+03  0.47000000000E+01 0.  1.
         -5    1    1    2    0  502 -0.42938125323E+02  0.17361740463E+01 -0.13600231635E+03  0.14270745236E+03  0.47000000000E+01 0.  1.
        -11    1    1    2    0    0 -0.49696492644E+02  0.43864709989E+02 -0.69956837295E+02  0.96373301530E+02  0.00000000000E+00 0. -1.
         11    1    1    2    0    0  0.16754521552E+02 -0.22625356125E+02 -0.46793919026E+02  0.54610361563E+02  0.00000000000E+00 0.  1.
<mgrwt>
<rscale>  0 0.12112863E+03</rscale>
<asrwt>0</asrwt>
<pdfrwt beam="2">  1        1 0.60327447E-01 0.13100999E+03</pdfrwt>
<pdfrwt beam="1">  1       -1 0.51893917E-02 0.13100999E+03</pdfrwt>
<totfact> 0.97950915E+03</totfact>
</mgrwt>
</event>
<event>
 6    1  0.1045058E-005  0.1463344E+03  0.7546771E-02  0.1214600E+00
          2   -1    0    0  501    0  0.00000000000E+00  0.00000000000E+00  0.48727004457E+03  0.48727004457E+03  0.00000000000E+00 0. -1.
         -2   -1    0    0    0  501 -0.00000000000E+00 -0.00000000000E+00 -0.38262113285E+02  0.38262113285E+02  0.00000000000E+00 0.  1.
          5    1    1    2  502    0 -0.55796171976E+01 -0.28088439907E+02  0.16125853248E+03  0.16384900635E+03  0.47000000000E+01 0.  1.
         -5    1    1    2    0  502 -0.34594977511E+02  0.92693721805E+02  0.14536440030E+03  0.17590292040E+03  0.47000000000E+01 0.  1.
        -11    1    1    2    0    0  0.72308110020E+01  0.14992859581E+02 -0.28797294991E+01  0.16892699848E+02  0.00000000000E+00 0.  1.
         11    1    1    2    0    0  0.32943783706E+02 -0.79598141479E+02  0.14526472801E+03  0.16888753126E+03  0.00000000000E+00 0. -1.
<mgrwt>
<rscale>  0 0.13905980E+03</rscale>
<asrwt>0</asrwt>
<pdfrwt beam="1">  1        2 0.74964618E-01 0.14633437E+03</pdfrwt>
<pdfrwt beam="2">  1       -2 0.58864793E-02 0.14633437E+03</pdfrwt>
<totfact> 0.93572241E+03</totfact>
</mgrwt>
</event>
<event>
 6    1  0.1045058E-005  0.1253994E+03  0.7546771E-02  0.1257897E+00
          1   -1    0    0  501    0  0.00000000000E+00  0.00000000000E+00  0.65974775934E+03  0.65974775934E+03  0.00000000000E+00 0. -1.
         -1   -1    0    0    0  501 -0.00000000000E+00 -0.00000000000E+00 -0.19535147911E+02  0.19535147911E+02  0.00000000000E+00 0.  1.
          5    1    1    2  502    0 -0.53658517508E+02  0.60759459195E+01  0.38315436042E+03  0.38696964678E+03  0.47000000000E+01 0.  1.
         -5    1    1    2    0  502  0.56697273292E+02  0.35045107804E+01  0.14345172215E+03  0.15436109932E+03  0.47000000000E+01 0.  1.
        -11    1    1    2    0    0 -0.33771189658E+02  0.14584744611E+02  0.72041696948E+02  0.80890136144E+02  0.00000000000E+00 0.  1.
         11    1    1    2    0    0  0.30732433874E+02 -0.24165201311E+02  0.41564831906E+02  0.57062025005E+02  0.00000000000E+00 0. -1.
<mgrwt>
<rscale>  0 0.11145618E+03</rscale>
<asrwt>0</asrwt>
<pdfrwt beam="1">  1        1 0.10149964E+00 0.12539940E+03</pdfrwt>
<pdfrwt beam="2">  1       -1 0.30054079E-02 0.12539940E+03</pdfrwt>
<totfact> 0.10983633E+04</totfact>
</mgrwt>
</event>
<event>
 6    1  0.1715792E-005  0.1618761E+03  0.7546771E-02  0.1193143E+00
          1   -1    0    0  501    0  0.00000000000E+00  0.00000000000E+00  0.15008453108E+04  0.15008453108E+04  0.00000000000E+00 0. -1.
         -1   -1    0    0    0  501 -0.00000000000E+00 -0.00000000000E+00 -0.15639247872E+02  0.15639247872E+02  0.00000000000E+00 0.  1.
          5    1    1    2  502    0  0.96912385250E+02 -0.39996972639E+02  0.41904146863E+03  0.43198334536E+03  0.47000000000E+01 0. -1.
         -5    1    1    2    0  502 -0.19305571231E+02 -0.27497080673E+02  0.50435038110E+03  0.50549005078E+03  0.47000000000E+01 0. -1.
        -11    1    1    2    0    0 -0.30037911590E+02 -0.21918658415E+02  0.11500116188E+03  0.12086343927E+03  0.00000000000E+00 0.  1.
         11    1    1    2    0    0 -0.47568902430E+02  0.89412711727E+02  0.44681305131E+03  0.45814772325E+03  0.00000000000E+00 0. -1.
<mgrwt>
<rscale>  0 0.15612441E+03</rscale>
<asrwt>0</asrwt>
<pdfrwt beam="1">  1        1 0.23089916E+00 0.16187606E+03</pdfrwt>
<pdfrwt beam="2">  1       -1 0.24060393E-02 0.16187606E+03</pdfrwt>
<totfact> 0.37047118E+03</totfact>
</mgrwt>
</event>
<event>
 6    1  0.1045058E-005  0.1272950E+03  0.7546771E-02  0.1246067E+00
          2   -1    0    0  501    0  0.00000000000E+00  0.00000000000E+00  0.22894869474E+03  0.22894869474E+03  0.00000000000E+00 0. -1.
         -2   -1    0    0    0  501 -0.00000000000E+00 -0.00000000000E+00 -0.89950346535E+02  0.89950346535E+02  0.00000000000E+00 0.  1.
          5    1    1    2  502    0 -0.10330474139E+02  0.46017061419E+02  0.11618180254E+03  0.12547744769E+03  0.47000000000E+01 0. -1.
         -5    1    1    2    0  502  0.25595821962E+02 -0.64498364278E+02  0.59842489952E+02  0.91751832135E+02  0.47000000000E+01 0. -1.
        -11    1    1    2    0    0 -0.48550631590E+02  0.16369642879E+02 -0.44070069593E+02  0.67581802800E+02  0.00000000000E+00 0.  1.
         11    1    1    2    0    0  0.33285283768E+02  0.21116599804E+01  0.70441253026E+01  0.34087958646E+02  0.00000000000E+00 0. -1.
<mgrwt>
<rscale>  0 0.11821761E+03</rscale>
<asrwt>0</asrwt>
<pdfrwt beam="1">  1        2 0.35222876E-01 0.12729497E+03</pdfrwt>
<pdfrwt beam="2">  1       -2 0.13838515E-01 0.12729497E+03</pdfrwt>
<totfact> 0.54676694E+03</totfact>
</mgrwt>
</event>
<event>
 6    1  0.1045058E-005  0.1316671E+03  0.7546771E-02  0.1238120E+00
          2   -1    0    0  501    0  0.00000000000E+00  0.00000000000E+00  0.62138346565E+03  0.62138346565E+03  0.00000000000E+00 0. -1.
         -2   -1    0    0    0  501 -0.00000000000E+00 -0.00000000000E+00 -0.21744306955E+02  0.21744306955E+02  0.00000000000E+00 0.  1.
          5    1    1    2  502    0  0.38206654325E+02 -0.39709709825E+02  0.27055362523E+03  0.27614844489E+03  0.47000000000E+01 0. -1.
         -5    1    1    2    0  502 -0.11908163123E+01  0.58177613253E+02  0.86033131228E+02  0.10397039192E+03  0.47000000000E+01 0. -1.
        -11    1    1    2    0    0  0.15076458481E+02  0.26690835119E+02  0.91867605096E+02  0.96847081245E+02  0.00000000000E+00 0. -1.
         11    1    1    2    0    0 -0.52092296493E+02 -0.45158738546E+02  0.15118479714E+03  0.16616185455E+03  0.00000000000E+00 0.  1.
<mgrwt>
<rscale>  0 0.12306765E+03</rscale>
<asrwt>0</asrwt>
<pdfrwt beam="1">  1        2 0.95597443E-01 0.13166706E+03</pdfrwt>
<pdfrwt beam="2">  1       -2 0.33452785E-02 0.13166706E+03</pdfrwt>
<totfact> 0.16461509E+04</totfact>
</mgrwt>
</event>
<event>
 6    1  0.1045058E-005  0.1144665E+03  0.7546771E-02  0.1260497E+00
         -1   -1    0    0    0  501 -0.00000000000E+00  0.00000000000E+00  0.85627914388E+02  0.85627914388E+02  0.00000000000E+00 0.  1.
          1   -1    0    0  501    0  0.00000000000E+00 -0.00000000000E+00 -0.13477402151E+03  0.13477402151E+03  0.00000000000E+00 0. -1.
          5    1    1    2  502    0 -0.47714227076E+02  0.39925258085E+02 -0.39288309493E+02  0.73731505894E+02  0.47000000000E+01 0. -1.
         -5    1    1    2    0  502  0.21703231779E+02 -0.43189928682E+02 -0.43036590071E+01  0.48754606860E+02  0.47000000000E+01 0.  1.
        -11    1    1    2    0    0 -0.79899829952E+00  0.34616528213E+02 -0.33428711263E+02  0.48129213172E+02  0.00000000000E+00 0.  1.
         11    1    1    2    0    0  0.26809993597E+02 -0.31351857616E+02  0.27874572641E+02  0.49786609972E+02  0.00000000000E+00 0. -1.
<mgrwt>
<rscale>  0 0.11003914E+03</rscale>
<asrwt>0</asrwt>
<pdfrwt beam="2">  1        1 0.20734465E-01 0.11446654E+03</pdfrwt>
<pdfrwt beam="1">  1       -1 0.13173525E-01 0.11446654E+03</pdfrwt>
<totfact> 0.89556183E+03</totfact>
</mgrwt>
</event>
<event>
 6    1  0.1045058E-005  0.1378949E+03  0.7546771E-02  0.1227507E+00
         -1   -1    0    0    0  501 -0.00000000000E+00  0.00000000000E+00  0.33669584819E+03  0.33669584819E+03  0.00000000000E+00 0.  1.
          1   -1    0    0  501    0  0.00000000000E+00 -0.00000000000E+00 -0.48169484688E+02  0.48169484688E+02  0.00000000000E+00 0. -1.
          5    1    1    2  502    0  0.28857440515E+02 -0.90827904633E+02  0.96455059410E+02  0.13567655884E+03  0.47000000000E+01 0. -1.
         -5    1    1    2    0  502 -0.27408552981E+01  0.38796011096E+02  0.16229471844E+02  0.42404345545E+02  0.47000000000E+01 0. -1.
        -11    1    1    2    0    0 -0.39554052327E+02  0.61662572248E+02  0.17557990701E+03  0.19025009755E+03  0.00000000000E+00 0.  1.
         11    1    1    2    0    0  0.13437467109E+02 -0.96306787110E+01  0.26192523141E+00  0.16534330938E+02  0.00000000000E+00 0. -1.
<mgrwt>
<rscale>  0 0.12996536E+03</rscale>
<asrwt>0</asrwt>
<pdfrwt beam="2">  1        1 0.74106902E-02 0.13789491E+03</pdfrwt>
<pdfrwt beam="1">  1       -1 0.51799360E-01 0.13789491E+03</pdfrwt>
<totfact> 0.35705762E+03</totfact>
</mgrwt>
</event>
<event>
 6    1  0.1045058E-005  0.2015795E+03  0.7546771E-02  0.1152168E+00
          1   -1    0    0  501    0  0.00000000000E+00  0.00000000000E+00  0.10145983949E+04  0.10145983949E+04  0.00000000000E+00 0. -1.
         -1   -1    0    0    0  501 -0.00000000000E+00 -0.00000000000E+00 -0.39954746729E+02  0.39954746729E+02  0.00000000000E+00 0.  1.
          5    1    1    2  502    0  0.65288935632E+02 -0.31981092650E+02  0.20759718878E+03  0.22000935933E+03  0.47000000000E+01 0.  1.
         -5    1    1    2    0  502  0.76323031022E+02  0.10238385118E+03  0.44963484537E+03  0.46744116444E+03  0.47000000000E+01 0.  1.
        -11    1    1    2    0    0 -0.58925790518E+02 -0.58182579077E+01  0.42602079260E+02  0.72945445852E+02  0.00000000000E+00 0.  1.
         11    1    1    2    0    0 -0.82686176136E+02 -0.64584500621E+02  0.27480953473E+03  0.29415717197E+03  0.00000000000E+00 0. -1.
<mgrwt>
<rscale>  0 0.19714793E+03</rscale>
<asrwt>0</asrwt>
<pdfrwt beam="1">  1        1 0.15609204E+00 0.20157945E+03</pdfrwt>
<pdfrwt beam="2">  1       -1 0.61468849E-02 0.20157945E+03</pdfrwt>
<totfact> 0.20026897E+03</totfact>
</mgrwt>
</event>
<event>
 6    1  0.1045058E-005  0.1418017E+03  0.7546771E-02  0.1221960E+00
          1   -1    0    0  501    0  0.00000000000E+00  0.00000000000E+00  0.49971191455E+03  0.49971191455E+03  0.00000000000E+00 0. -1.
         -1   -1    0    0    0  501 -0.00000000000E+00 -0.00000000000E+00 -0.65289238208E+02  0.65289238208E+02  0.00000000000E+00 0.  1.
          5    1    1    2  502    0  0.14862291866E+02  0.70810931319E+02  0.32056867113E+03  0.32866615071E+03  0.47000000000E+01 0. -1.
         -5    1    1    2    0  502  0.42280027972E+02 -0.40192047994E+02  0.10923050800E+03  0.12392092384E+03  0.47000000000E+01 0.  1.
        -11    1    1    2    0    0  0.18865274944E+02 -0.28027405498E+02  0.12348266613E+02  0.35971012579E+02  0.00000000000E+00 0. -1.
         11    1    1    2    0    0 -0.76007594781E+02 -0.25914778263E+01 -0.77247693903E+01  0.76443065637E+02  0.00000000000E+00 0.  1.
<mgrwt>
<rscale>  0 0.13377482E+03</rscale>
<asrwt>0</asrwt>
<pdfrwt beam="1">  1        1 0.76878754E-01 0.14180171E+03</pdfrwt>
<pdfrwt beam="2">  1       -1 0.10044498E-01 0.14180171E+03</pdfrwt>
<totfact> 0.26750031E+03</totfact>
</mgrwt>
</event>
<event>
 6    1  0.1045058E-005  0.1219866E+03  0.7546771E-02  0.1248634E+00
          1   -1    0    0  501    0  0.00000000000E+00  0.00000000000E+00  0.23841511209E+03  0.23841511209E+03  0.00000000000E+00 0. -1.
         -1   -1    0    0    0  501 -0.00000000000E+00 -0.00000000000E+00 -0.32808409404E+03  0.32808409404E+03  0.00000000000E+00 0.  1.
          5    1    1    2  502    0 -0.39582218630E+02  0.16889173541E+02  0.14741451823E+03  0.15363959906E+03  0.47000000000E+01 0. -1.
         -5    1    1    2    0  502  0.57565731279E+02  0.28596954025E+02  0.66458472825E+02  0.92576551067E+02  0.47000000000E+01 0.  1.
        -11    1    1    2    0    0  0.28071341781E+02  0.61422751280E+01 -0.13629190726E+03  0.13928823266E+03  0.00000000000E+00 0.  1.
         11    1    1    2    0    0 -0.46054854429E+02 -0.51628402694E+02 -0.16725006575E+03  0.18099482334E+03  0.00000000000E+00 0. -1.
<mgrwt>
<rscale>  0 0.11670513E+03</rscale>
<asrwt>0</asrwt>
<pdfrwt beam="1">  1        1 0.36679248E-01 0.12198662E+03</pdfrwt>
<pdfrwt beam="2">  1       -1 0.50474476E-01 0.12198662E+03</pdfrwt>
<totfact> 0.47701989E+02</totfact>
</mgrwt>
</event>
<event>
 6    1  0.1045058E-005  0.3635861E+03  0.7546771E-02  0.1057173E+00
         -2   -1    0    0    0  501 -0.00000000000E+00  0.00000000000E+00  0.68233833581E+02  0.68233833581E+02  0.00000000000E+00 0.  1.
          2   -1    0    0  501    0  0.00000000000E+00 -0.00000000000E+00 -0.48434502118E+03  0.48434502118E+03  0.00000000000E+00 0. -1.
          5    1    1    2  502    0 -0.24035111516E+02 -0.31095085105E+02 -0.10723752015E+03  0.11430908376E+03  0.47000000000E+01 0. -1.
         -5    1    1    2    0  502  0.74412847841E+02  0.47222763038E+02 -0.31386121906E+03  0.32603407200E+03  0.47000000000E+01 0.  1.
        -11    1    1    2    0    0 -0.35213000625E+02  0.20923692563E+02  0.41313478237E+02  0.58176969735E+02  0.00000000000E+00 0.  1.
         11    1    1    2    0    0 -0.15164735700E+02 -0.37051370496E+02 -0.36325926625E+02  0.54058729264E+02  0.00000000000E+00 0. -1.
<mgrwt>
<rscale>  0 0.36358612E+03</rscale>
<asrwt>0</asrwt>
<pdfrwt beam="2">  1        2 0.74514621E-01 0.36358612E+03</pdfrwt>
<pdfrwt beam="1">  1       -2 0.10497512E-01 0.36358612E+03</pdfrwt>
<totfact> 0.39789190E+03</totfact>
</mgrwt>
</event>
<event>
 6    1  0.1045058E-005  0.1515191E+03  0.7546771E-02  0.1217205E+00
          2   -1    0    0  501    0  0.00000000000E+00  0.00000000000E+00  0.52239125574E+03  0.52239125574E+03  0.00000000000E+00 0. -1.
         -2   -1    0    0    0  501 -0.00000000000E+00 -0.00000000000E+00 -0.30913414287E+02  0.30913414287E+02  0.00000000000E+00 0.  1.
          5    1    1    2  502    0 -0.21369762972E+02  0.12509493130E+02  0.32507559875E+03  0.32605120624E+03  0.47000000000E+01 0. -1.
         -5    1    1    2    0  502 -0.18680496303E+02  0.13155211212E+02 -0.85719682557E+01  0.24851341290E+02  0.47000000000E+01 0.  1.
        -11    1    1    2    0    0 -0.15242978482E+02  0.17897732456E+02  0.84844754390E+02  0.88041521838E+02  0.00000000000E+00 0.  1.
         11    1    1    2    0    0  0.55293237758E+02 -0.43562436797E+02  0.90129456564E+02  0.11436060065E+03  0.00000000000E+00 0. -1.
<mgrwt>
<rscale>  0 0.13715813E+03</rscale>
<asrwt>0</asrwt>
<pdfrwt beam="1">  1        2 0.80367879E-01 0.15151914E+03</pdfrwt>
<pdfrwt beam="2">  1       -2 0.47559103E-02 0.15151914E+03</pdfrwt>
<totfact> 0.11984551E+04</totfact>
</mgrwt>
</event>
<event>
 6    1  0.1045058E-005  0.1279772E+03  0.7546771E-02  0.1245133E+00
         -2   -1    0    0    0  501 -0.00000000000E+00  0.00000000000E+00  0.53509169906E+02  0.53509169906E+02  0.00000000000E+00 0.  1.
          2   -1    0    0  501    0  0.00000000000E+00 -0.00000000000E+00 -0.23543049369E+03  0.23543049369E+03  0.00000000000E+00 0. -1.
          5    1    1    2  502    0  0.44044995139E+02  0.44225035063E+02 -0.70451936218E+02  0.94241077244E+02  0.47000000000E+01 0.  1.
         -5    1    1    2    0  502 -0.21852682919E+02 -0.60416516521E+02 -0.50575690411E+02  0.81900462025E+02  0.47000000000E+01 0.  1.
        -11    1    1    2    0    0  0.34063151367E+02  0.12969585810E+01 -0.10094095046E+02  0.35550965351E+02  0.00000000000E+00 0. -1.
         11    1    1    2    0    0 -0.56255463587E+02  0.14894522877E+02 -0.50799602105E+02  0.77247158971E+02  0.00000000000E+00 0.  1.
<mgrwt>
<rscale>  0 0.11877426E+03</rscale>
<asrwt>0</asrwt>
<pdfrwt beam="2">  1        2 0.36220077E-01 0.12797717E+03</pdfrwt>
<pdfrwt beam="1">  1       -2 0.82321798E-02 0.12797717E+03</pdfrwt>
<totfact> 0.12054589E+04</totfact>
</mgrwt>
</event>
<event>
 6    1  0.1045058E-005  0.1492202E+03  0.7546771E-02  0.1211222E+00
          3   -1    0    0  501    0  0.00000000000E+00  0.00000000000E+00  0.64166509715E+02  0.64166509715E+02  0.00000000000E+00 0. -1.
         -3   -1    0    0    0  501 -0.00000000000E+00 -0.00000000000E+00 -0.29582601982E+03  0.29582601982E+03  0.00000000000E+00 0.  1.
          5    1    1    2  502    0  0.45786476103E+02  0.14040097233E+02 -0.47217725140E+02  0.67417574056E+02  0.47000000000E+01 0.  1.
         -5    1    1    2    0  502 -0.28778049901E+02 -0.93741437008E+02 -0.44959967200E+02  0.10797741347E+03  0.47000000000E+01 0.  1.
        -11    1    1    2    0    0  0.35485742729E+01  0.82117971171E+02 -0.14166602905E+03  0.16378405708E+03  0.00000000000E+00 0.  1.
         11    1    1    2    0    0 -0.20557000474E+02 -0.24166313958E+01  0.21842112857E+01  0.20813484926E+02  0.00000000000E+00 0. -1.
<mgrwt>
<rscale>  0 0.14157715E+03</rscale>
<asrwt>0</asrwt>
<pdfrwt beam="1">  1        3 0.98717707E-02 0.14922022E+03</pdfrwt>
<pdfrwt beam="2">  1       -3 0.45511696E-01 0.14922022E+03</pdfrwt>
<totfact> 0.85133047E+02</totfact>
</mgrwt>
</event>
<event>
 6    1  0.1045058E-005  0.2842887E+03  0.7546771E-02  0.1093369E+00
          2   -1    0    0  501    0  0.00000000000E+00  0.00000000000E+00  0.32876801206E+03  0.32876801206E+03  0.00000000000E+00 0. -1.
         -2   -1    0    0    0  501 -0.00000000000E+00 -0.00000000000E+00 -0.61456778933E+02  0.61456778933E+02  0.00000000000E+00 0.  1.
          5    1    1    2  502    0 -0.93333833251E+02 -0.40730584422E+02  0.16615609621E+03  0.19493620301E+03  0.47000000000E+01 0.  1.
         -5    1    1    2    0  502  0.14513840115E+02 -0.34992760468E+01 -0.14558283639E+02  0.21375923612E+02  0.47000000000E+01 0.  1.
        -11    1    1    2    0    0  0.17108032101E+02  0.54140304680E+02  0.89814220979E+02  0.10625653694E+03  0.00000000000E+00 0. -1.
         11    1    1    2    0    0  0.61711961035E+02 -0.99104442115E+01  0.25899199573E+02  0.67656127422E+02  0.00000000000E+00 0.  1.
<mgrwt>
<rscale>  0 0.28428875E+03</rscale>
<asrwt>0</asrwt>
<pdfrwt beam="1">  1        2 0.50579693E-01 0.28428875E+03</pdfrwt>
<pdfrwt beam="2">  1       -2 0.94548893E-02 0.28428875E+03</pdfrwt>
<totfact> 0.71430469E+03</totfact>
</mgrwt>
</event>
<event>
 6    1  0.1045058E-005  0.1299364E+03  0.7546771E-02  0.1241550E+00
         -1   -1    0    0    0  501 -0.00000000000E+00  0.00000000000E+00  0.12039400529E+02  0.12039400529E+02  0.00000000000E+00 0.  1.
          1   -1    0    0  501    0  0.00000000000E+00 -0.00000000000E+00 -0.10964898840E+04  0.10964898840E+04  0.00000000000E+00 0. -1.
          5    1    1    2  502    0  0.14360664095E+02  0.42349579570E+02 -0.44335792181E+03  0.44563219408E+03  0.47000000000E+01 0. -1.
         -5    1    1    2    0  502 -0.48809029336E+02 -0.51147258445E+02 -0.25249736212E+03  0.26225058869E+03  0.47000000000E+01 0. -1.
        -11    1    1    2    0    0  0.60266642922E+02 -0.14574857325E+02 -0.27100385550E+03  0.27800644671E+03  0.00000000000E+00 0. -1.
         11    1    1    2    0    0 -0.25818277681E+02  0.23372536201E+02 -0.11759134404E+03  0.12264005505E+03  0.00000000000E+00 0.  1.
<mgrwt>
<rscale>  0 0.12094238E+03</rscale>
<asrwt>0</asrwt>
<pdfrwt beam="2">  1        1 0.16869077E+00 0.12993636E+03</pdfrwt>
<pdfrwt beam="1">  1       -1 0.18522153E-02 0.12993636E+03</pdfrwt>
<totfact> 0.10037212E+04</totfact>
</mgrwt>
</event>
<event>
 6    1  0.1045058E-005  0.3545096E+03  0.7546771E-02  0.1060779E+00
         -1   -1    0    0    0  501 -0.00000000000E+00  0.00000000000E+00  0.31508341472E+02  0.31508341472E+02  0.00000000000E+00 0.  1.
          1   -1    0    0  501    0  0.00000000000E+00 -0.00000000000E+00 -0.99717291829E+03  0.99717291829E+03  0.00000000000E+00 0. -1.
          5    1    1    2  502    0 -0.12591627423E+02  0.15065617478E+02 -0.40186974415E+03  0.40237656887E+03  0.47000000000E+01 0. -1.
         -5    1    1    2    0  502  0.11145380006E+03  0.20853358184E+01 -0.39510154701E+03  0.41055282318E+03  0.47000000000E+01 0. -1.
        -11    1    1    2    0    0 -0.68030890552E+02 -0.41077684543E+02 -0.15536849200E+03  0.17451345662E+03  0.00000000000E+00 0.  1.
         11    1    1    2    0    0 -0.30831282086E+02  0.23926731246E+02 -0.13324793663E+02  0.41238411091E+02  0.00000000000E+00 0. -1.
<mgrwt>
<rscale>  0 0.35450960E+03</rscale>
<asrwt>0</asrwt>
<pdfrwt beam="2">  1        1 0.15341121E+00 0.35450960E+03</pdfrwt>
<pdfrwt beam="1">  1       -1 0.48474376E-02 0.35450960E+03</pdfrwt>
<totfact> 0.29708787E+03</totfact>
</mgrwt>
</event>
<event>
 6    1  0.1045058E-005  0.2792289E+03  0.7546771E-02  0.1096111E+00
          2   -1    0    0  501    0  0.00000000000E+00  0.00000000000E+00  0.42786392736E+03  0.42786392736E+03  0.00000000000E+00 0. -1.
         -2   -1    0    0    0  501 -0.00000000000E+00 -0.00000000000E+00 -0.45556988582E+02  0.45556988582E+02  0.00000000000E+00 0.  1.
          5    1    1    2  502    0 -0.96270390513E+01 -0.41317872839E+02  0.71133956374E+02  0.82957677440E+02  0.47000000000E+01 0. -1.
         -5    1    1    2    0  502  0.89464781191E+02  0.57612982409E+02  0.18354355773E+03  0.21221105155E+03  0.47000000000E+01 0. -1.
        -11    1    1    2    0    0 -0.44829410173E+02  0.95690117258E+01  0.26563255420E+01  0.45916207021E+02  0.00000000000E+00 0.  1.
         11    1    1    2    0    0 -0.35008331967E+02 -0.25864121296E+02  0.12497309913E+03  0.13233597993E+03  0.00000000000E+00 0. -1.
<mgrwt>
<rscale>  0 0.27922888E+03</rscale>
<asrwt>0</asrwt>
<pdfrwt beam="1">  1        2 0.65825217E-01 0.27922888E+03</pdfrwt>
<pdfrwt beam="2">  1       -2 0.70087678E-02 0.27922888E+03</pdfrwt>
<totfact> 0.85718658E+03</totfact>
</mgrwt>
</event>
<event>
 6    1  0.1045058E-005  0.2194565E+03  0.7546771E-02  0.1137765E+00
         -1   -1    0    0    0  501 -0.00000000000E+00  0.00000000000E+00  0.33520728664E+03  0.33520728664E+03  0.00000000000E+00 0.  1.
          1   -1    0    0  501    0  0.00000000000E+00 -0.00000000000E+00 -0.13416699303E+03  0.13416699303E+03  0.00000000000E+00 0. -1.
          5    1    1    2  502    0 -0.80287474260E+02 -0.53332941718E+02  0.90100229213E+02  0.13202508284E+03  0.47000000000E+01 0. -1.
         -5    1    1    2    0  502 -0.17916873279E+02 -0.97893223384E+02 -0.13230045736E+02  0.10050483393E+03  0.47000000000E+01 0. -1.
        -11    1    1    2    0    0  0.27539611679E+02  0.11540361507E+03  0.96472835608E+02  0.15291642356E+03  0.00000000000E+00 0.  1.
         11    1    1    2    0    0  0.70664735860E+02  0.35822550028E+02  0.27697274526E+02  0.83927939334E+02  0.00000000000E+00 0. -1.
<mgrwt>
<rscale>  0 0.21487205E+03</rscale>
<asrwt>0</asrwt>
<pdfrwt beam="2">  1        1 0.20641076E-01 0.21945646E+03</pdfrwt>
<pdfrwt beam="1">  1       -1 0.51570351E-01 0.21945646E+03</pdfrwt>
<totfact> 0.94847590E+02</totfact>
</mgrwt>
</event>
<event>
 6    1  0.1045058E-005  0.1696001E+03  0.7546771E-02  0.1188583E+00
          2   -1    0    0  501    0  0.00000000000E+00  0.00000000000E+00  0.13865165315E+03  0.13865165315E+03  0.00000000000E+00 0.  1.
         -2   -1    0    0    0  501 -0.00000000000E+00 -0.00000000000E+00 -0.17001253127E+03  0.17001253127E+03  0.00000000000E+00 0. -1.
          5    1    1    2  502    0 -0.76079273030E+01  0.82677852033E+02  0.47746930724E+01  0.83297031571E+02  0.47000000000E+01 0.  1.
         -5    1    1    2    0  502  0.86186431752E+02  0.77797382365E+00 -0.15986656728E+01  0.86332797901E+02  0.47000000000E+01 0.  1.
        -11    1    1    2    0    0  0.15101041901E+01 -0.11062320194E+02 -0.28840076621E+02  0.30925804149E+02  0.00000000000E+00 0. -1.
         11    1    1    2    0    0 -0.80088608639E+02 -0.72393505663E+02 -0.56968289051E+01  0.10810855080E+03  0.00000000000E+00 0.  1.
<mgrwt>
<rscale>  0 0.16010043E+03</rscale>
<asrwt>0</asrwt>
<pdfrwt beam="1">  1        2 0.21331024E-01 0.16960009E+03</pdfrwt>
<pdfrwt beam="2">  1       -2 0.26155774E-01 0.16960009E+03</pdfrwt>
<totfact> 0.32909035E+03</totfact>
</mgrwt>
</event>
<event>
 6    1  0.1045058E-005  0.1386387E+03  0.7546771E-02  0.1226222E+00
          2   -1    0    0  501    0  0.00000000000E+00  0.00000000000E+00  0.36713374533E+03  0.36713374533E+03  0.00000000000E+00 0. -1.
         -2   -1    0    0    0  501 -0.00000000000E+00 -0.00000000000E+00 -0.44366500101E+02  0.44366500101E+02  0.00000000000E+00 0.  1.
          5    1    1    2  502    0  0.74299102528E+02  0.32733232054E+02  0.18152437319E+03  0.19890955025E+03  0.47000000000E+01 0.  1.
         -5    1    1    2    0  502 -0.15816527639E+02 -0.46059095926E+02  0.43891127710E+02  0.65727649857E+02  0.47000000000E+01 0.  1.
        -11    1    1    2    0    0 -0.43525310366E+02 -0.17199927066E+02  0.33690886724E+01  0.46921646306E+02  0.00000000000E+00 0.  1.
         11    1    1    2    0    0 -0.14957264523E+02  0.30525790937E+02  0.93982655653E+02  0.99941399019E+02  0.00000000000E+00 0. -1.
<mgrwt>
<rscale>  0 0.13083471E+03</rscale>
<asrwt>0</asrwt>
<pdfrwt beam="1">  1        2 0.56482113E-01 0.13863874E+03</pdfrwt>
<pdfrwt beam="2">  1       -2 0.68256157E-02 0.13863874E+03</pdfrwt>
<totfact> 0.10094891E+04</totfact>
</mgrwt>
</event>
<event>
 6    1  0.1045058E-005  0.1266308E+03  0.7546771E-02  0.1242135E+00
          3   -1    0    0  501    0  0.00000000000E+00  0.00000000000E+00  0.37100514282E+03  0.37100514282E+03  0.00000000000E+00 0. -1.
         -3   -1    0    0    0  501 -0.00000000000E+00 -0.00000000000E+00 -0.36731936671E+02  0.36731936671E+02  0.00000000000E+00 0.  1.
          5    1    1    2  502    0 -0.41095400853E+01 -0.27480165973E+02 -0.19858239467E+01  0.28250333420E+02  0.47000000000E+01 0.  1.
         -5    1    1    2    0  502  0.21320839098E+02  0.38167054705E+02  0.21592420179E+03  0.22035574230E+03  0.47000000000E+01 0.  1.
        -11    1    1    2    0    0 -0.36766171183E+02  0.13196658357E+00  0.12976625633E+03  0.13487420080E+03  0.00000000000E+00 0. -1.
         11    1    1    2    0    0  0.19554872170E+02 -0.10818855316E+02 -0.94314280267E+01  0.24256802975E+02  0.00000000000E+00 0.  1.
<mgrwt>
<rscale>  0 0.12058524E+03</rscale>
<asrwt>0</asrwt>
<pdfrwt beam="1">  1        3 0.57077712E-01 0.12663077E+03</pdfrwt>
<pdfrwt beam="2">  1       -3 0.56510674E-02 0.12663077E+03</pdfrwt>
<totfact> 0.13022427E+03</totfact>
</mgrwt>
</event>
<event>
 6    1  0.1045058E-005  0.1435039E+03  0.7546771E-02  0.1219075E+00
         -4   -1    0    0    0  501 -0.00000000000E+00  0.00000000000E+00  0.12727123615E+03  0.12727123615E+03  0.00000000000E+00 0.  1.
          4   -1    0    0  501    0  0.00000000000E+00 -0.00000000000E+00 -0.13989865059E+03  0.13989865059E+03  0.00000000000E+00 0. -1.
          5    1    1    2  502    0 -0.92876652846E+02 -0.19319481356E+02  0.20553146762E+01  0.95003312164E+02  0.47000000000E+01 0.  1.
         -5    1    1    2    0  502  0.30723577564E+02 -0.13929533697E+02 -0.41767290852E+02  0.53894032253E+02  0.47000000000E+01 0.  1.
        -11    1    1    2    0    0  0.49062339118E+02  0.30457956139E+02  0.59674360031E+02  0.83041131116E+02  0.00000000000E+00 0.  1.
         11    1    1    2    0    0  0.13090736163E+02  0.27910589133E+01 -0.32589798296E+02  0.35231411214E+02  0.00000000000E+00 0. -1.
<mgrwt>
<rscale>  0 0.13581401E+03</rscale>
<asrwt>0</asrwt>
<pdfrwt beam="2">  1        4 0.21522869E-01 0.14350393E+03</pdfrwt>
<pdfrwt beam="1">  1       -4 0.19580190E-01 0.14350393E+03</pdfrwt>
<totfact> 0.77404606E+02</totfact>
</mgrwt>
</event>
<event>
 6    1  0.1045058E-005  0.2456364E+03  0.7546771E-02  0.1126352E+00
          1   -1    0    0  501    0  0.00000000000E+00  0.00000000000E+00  0.11064538304E+04  0.11064538304E+04  0.00000000000E+00 0. -1.
         -1   -1    0    0    0  501 -0.00000000000E+00 -0.00000000000E+00 -0.66658856144E+02  0.66658856144E+02  0.00000000000E+00 0.  1.
          5    1    1    2  502    0 -0.76200861084E+02 -0.15928948786E+03  0.48057912089E+03  0.51201376310E+03  0.47000000000E+01 0. -1.
         -5    1    1    2    0  502 -0.22733794167E+02  0.20394390782E+02  0.43018759917E+03  0.43129597384E+03  0.47000000000E+01 0.  1.
        -11    1    1    2    0    0 -0.81683594892E+01  0.20793751892E+02 -0.33318066678E+01  0.22587676954E+02  0.00000000000E+00 0. -1.
         11    1    1    2    0    0  0.10710301474E+03  0.11810134519E+03  0.13236006084E+03  0.20721527262E+03  0.00000000000E+00 0.  1.
<mgrwt>
<rscale>  0 0.23040917E+03</rscale>
<asrwt>0</asrwt>
<pdfrwt beam="1">  1        1 0.17022365E+00 0.24563640E+03</pdfrwt>
<pdfrwt beam="2">  1       -1 0.10255209E-01 0.24563640E+03</pdfrwt>
<totfact> 0.78528700E+02</totfact>
</mgrwt>
</event>
<event>
 6    1  0.1045058E-005  0.1905922E+03  0.7546771E-02  0.1163229E+00
          2   -1    0    0  501    0  0.00000000000E+00  0.00000000000E+00  0.11401113184E+04  0.11401113184E+04  0.00000000000E+00 0. -1.
         -2   -1    0    0    0  501 -0.00000000000E+00 -0.00000000000E+00 -0.35525679089E+02  0.35525679089E+02  0.00000000000E+00 0.  1.
          5    1    1    2  502    0 -0.12984506853E+03 -0.18063661073E+02  0.66843475161E+03  0.68118510321E+03  0.47000000000E+01 0.  1.
         -5    1    1    2    0  502 -0.93870236244E+01  0.54328162081E+02  0.17609592737E+03  0.18458475301E+03  0.47000000000E+01 0.  1.
        -11    1    1    2    0    0  0.12088735910E+02 -0.24649247168E+02  0.10209743145E+02  0.29290984567E+02  0.00000000000E+00 0.  1.
         11    1    1    2    0    0  0.12714335624E+03 -0.11615253841E+02  0.24984521717E+03  0.28057615669E+03  0.00000000000E+00 0. -1.
<mgrwt>
<rscale>  0 0.18480881E+03</rscale>
<asrwt>0</asrwt>
<pdfrwt beam="1">  1        2 0.17540171E+00 0.19059217E+03</pdfrwt>
<pdfrwt beam="2">  1       -2 0.54654900E-02 0.19059217E+03</pdfrwt>
<totfact> 0.36690528E+03</totfact>
</mgrwt>
</event>
<event>
 6    1  0.1045058E-005  0.1278496E+03  0.7546771E-02  0.1245373E+00
          3   -1    0    0  501    0  0.00000000000E+00  0.00000000000E+00  0.93117310659E+02  0.93117310659E+02  0.00000000000E+00 0. -1.
         -3   -1    0    0    0  501 -0.00000000000E+00 -0.00000000000E+00 -0.14095976250E+03  0.14095976250E+03  0.00000000000E+00 0.  1.
          5    1    1    2  502    0 -0.10212544400E+02 -0.15819779699E+02  0.61508204388E+02  0.64497369713E+02  0.47000000000E+01 0.  1.
         -5    1    1    2    0  502  0.10170980207E+02 -0.11019320595E+02 -0.61372208778E+02  0.63352287055E+02  0.47000000000E+01 0.  1.
        -11    1    1    2    0    0  0.21334924807E+02 -0.26754058650E+02 -0.30841113537E+02  0.46066614321E+02  0.00000000000E+00 0. -1.
         11    1    1    2    0    0 -0.21293360614E+02  0.53593158944E+02 -0.17137333910E+02  0.60160802068E+02  0.00000000000E+00 0.  1.
<mgrwt>
<rscale>  0 0.11863098E+03</rscale>
<asrwt>0</asrwt>
<pdfrwt beam="1">  1        3 0.14325740E-01 0.12784958E+03</pdfrwt>
<pdfrwt beam="2">  1       -3 0.21686117E-01 0.12784958E+03</pdfrwt>
<totfact> 0.17722366E+03</totfact>
</mgrwt>
</event>
<event>
 6    1  0.1045058E-005  0.1521129E+03  0.7546771E-02  0.1206565E+00
          1   -1    0    0  501    0  0.00000000000E+00  0.00000000000E+00  0.17027302303E+03  0.17027302303E+03  0.00000000000E+00 0. -1.
         -1   -1    0    0    0  501 -0.00000000000E+00 -0.00000000000E+00 -0.11776887090E+03  0.11776887090E+03  0.00000000000E+00 0.  1.
          5    1    1    2  502    0 -0.70147702835E+02  0.25065727203E+02  0.67068706925E+02  0.10034586360E+03  0.47000000000E+01 0. -1.
         -5    1    1    2    0  502 -0.93891769275E+01 -0.59524078388E+02 -0.11635418250E+02  0.61552786364E+02  0.47000000000E+01 0. -1.
        -11    1    1    2    0    0  0.72201736781E+02  0.59022101645E+02 -0.19957198663E+02  0.95367652038E+02  0.00000000000E+00 0.  1.
         11    1    1    2    0    0  0.73351429807E+01 -0.24563750460E+02  0.17028062117E+02  0.30775591930E+02  0.00000000000E+00 0. -1.
<mgrwt>
<rscale>  0 0.14514804E+03</rscale>
<asrwt>0</asrwt>
<pdfrwt beam="1">  1        1 0.26195850E-01 0.15211286E+03</pdfrwt>
<pdfrwt beam="2">  1       -1 0.18118288E-01 0.15211286E+03</pdfrwt>
<totfact> 0.41241574E+03</totfact>
</mgrwt>
</event>
<event>
 6    1  0.1045058E-005  0.2974521E+03  0.7546771E-02  0.1086521E+00
         -2   -1    0    0    0  501 -0.00000000000E+00  0.00000000000E+00  0.21620119656E+02  0.21620119656E+02  0.00000000000E+00 0.  1.
          2   -1    0    0  501    0  0.00000000000E+00 -0.00000000000E+00 -0.10230951596E+04  0.10230951596E+04  0.00000000000E+00 0. -1.
          5    1    1    2  502    0  0.16978979544E+02 -0.18935141109E+02 -0.19585089126E+02  0.32442118169E+02  0.47000000000E+01 0.  1.
         -5    1    1    2    0  502 -0.19750304898E+02 -0.73998210240E+02 -0.67789469079E+03  0.68222365209E+03  0.47000000000E+01 0.  1.
        -11    1    1    2    0    0  0.30886894263E+02  0.47572876924E+02 -0.70251787959E+02  0.90291154425E+02  0.00000000000E+00 0.  1.
         11    1    1    2    0    0 -0.28115568909E+02  0.45360474426E+02 -0.23374347207E+03  0.23975835458E+03  0.00000000000E+00 0. -1.
<mgrwt>
<rscale>  0 0.29745211E+03</rscale>
<asrwt>0</asrwt>
<pdfrwt beam="2">  1        2 0.15739923E+00 0.29745211E+03</pdfrwt>
<pdfrwt beam="1">  1       -2 0.33261729E-02 0.29745211E+03</pdfrwt>
<totfact> 0.92273089E+03</totfact>
</mgrwt>
</event>
<event>
 6    1  0.1045058E-005  0.1282330E+03  0.7546771E-02  0.1244149E+00
          3   -1    0    0  501    0  0.00000000000E+00  0.00000000000E+00  0.22644704619E+03  0.22644704619E+03  0.00000000000E+00 0. -1.
         -3   -1    0    0    0  501 -0.00000000000E+00 -0.00000000000E+00 -0.60760779275E+02  0.60760779275E+02  0.00000000000E+00 0.  1.
          5    1    1    2  502    0  0.33407194303E+02 -0.36854944305E+02  0.94772046037E+02  0.10713616691E+03  0.47000000000E+01 0. -1.
         -5    1    1    2    0  502 -0.61173486975E+02  0.29412551723E+02  0.40149473540E+02  0.79002303340E+02  0.47000000000E+01 0. -1.
        -11    1    1    2    0    0  0.29314743298E+02  0.40267972389E+02 -0.77857276444E+01  0.50413106727E+02  0.00000000000E+00 0.  1.
         11    1    1    2    0    0 -0.15484506260E+01 -0.32825579808E+02  0.38550474980E+02  0.50656248482E+02  0.00000000000E+00 0. -1.
<mgrwt>
<rscale>  0 0.11936484E+03</rscale>
<asrwt>0</asrwt>
<pdfrwt beam="1">  1        3 0.34838007E-01 0.12823304E+03</pdfrwt>
<pdfrwt beam="2">  1       -3 0.93478123E-02 0.12823304E+03</pdfrwt>
<totfact> 0.15217195E+03</totfact>
</mgrwt>
</event>
<event>
 6    1  0.1045058E-005  0.1324126E+03  0.7546771E-02  0.1237277E+00
          2   -1    0    0  501    0  0.00000000000E+00  0.00000000000E+00  0.22531905457E+03  0.22531905457E+03  0.00000000000E+00 0.  1.
         -2   -1    0    0    0  501 -0.00000000000E+00 -0.00000000000E+00 -0.62319152141E+02  0.62319152141E+02  0.00000000000E+00 0. -1.
          5    1    1    2  502    0  0.20744137262E+02 -0.33593066925E+02  0.10214554099E+02  0.41051680740E+02  0.47000000000E+01 0. -1.
         -5    1    1    2    0  502 -0.44296153910E+02  0.70424826873E+02  0.10833288863E+03  0.13667446817E+03  0.47000000000E+01 0. -1.
        -11    1    1    2    0    0  0.35295385589E+02 -0.46905786679E+02  0.62765102229E+02  0.85938205274E+02  0.00000000000E+00 0.  1.
         11    1    1    2    0    0 -0.11743368941E+02  0.10074026731E+02 -0.18312642527E+02  0.23973852526E+02  0.00000000000E+00 0. -1.
<mgrwt>
<rscale>  0 0.12359816E+03</rscale>
<asrwt>0</asrwt>
<pdfrwt beam="1">  1        2 0.34664470E-01 0.13241257E+03</pdfrwt>
<pdfrwt beam="2">  1       -2 0.95875619E-02 0.13241257E+03</pdfrwt>
<totfact> 0.99959207E+03</totfact>
</mgrwt>
</event>
<event>
 6    1  0.1045058E-005  0.1377316E+03  0.7546771E-02  0.1231655E+00
          1   -1    0    0  501    0  0.00000000000E+00  0.00000000000E+00  0.15421581140E+03  0.15421581140E+03  0.00000000000E+00 0. -1.
         -1   -1    0    0    0  501 -0.00000000000E+00 -0.00000000000E+00 -0.91794969883E+02  0.91794969883E+02  0.00000000000E+00 0.  1.
          5    1    1    2  502    0  0.25499971230E+02 -0.45723069026E+02  0.13048837205E+02  0.54159114896E+02  0.47000000000E+01 0.  1.
         -5    1    1    2    0  502 -0.80450634858E+02  0.27537420232E+02  0.22700375288E+02  0.88136321686E+02  0.47000000000E+01 0.  1.
        -11    1    1    2    0    0  0.61539935065E+02 -0.17426885499E+02  0.15445263812E+02  0.65798298764E+02  0.00000000000E+00 0. -1.
         11    1    1    2    0    0 -0.65892714371E+01  0.35612534293E+02  0.11226365213E+02  0.37917045939E+02  0.00000000000E+00 0.  1.
<mgrwt>
<rscale>  0 0.12721009E+03</rscale>
<asrwt>0</asrwt>
<pdfrwt beam="1">  1        1 0.23725509E-01 0.13773157E+03</pdfrwt>
<pdfrwt beam="2">  1       -1 0.14122303E-01 0.13773157E+03</pdfrwt>
<totfact> 0.68787208E+03</totfact>
</mgrwt>
</event>
<event>
 6    1  0.1045058E-005  0.1672891E+03  0.7546771E-02  0.1187682E+00
         -2   -1    0    0    0  501 -0.00000000000E+00  0.00000000000E+00  0.16746824809E+02  0.16746824809E+02  0.00000000000E+00 0.  1.
          2   -1    0    0  501    0  0.00000000000E+00 -0.00000000000E+00 -0.16459327578E+04  0.16459327578E+04  0.00000000000E+00 0. -1.
          5    1    1    2  502    0 -0.64163618501E+02  0.10182332686E+02 -0.25161082363E+03  0.25990526429E+03  0.47000000000E+01 0.  1.
         -5    1    1    2    0  502 -0.23786199277E+02 -0.78190256033E+02 -0.91243070554E+03  0.91609572744E+03  0.47000000000E+01 0.  1.
        -11    1    1    2    0    0  0.28122522298E+02  0.60846789425E+02 -0.35362760639E+03  0.35992456438E+03  0.00000000000E+00 0. -1.
         11    1    1    2    0    0  0.59827295480E+02  0.71611339222E+01 -0.11151679738E+03  0.12675402645E+03  0.00000000000E+00 0.  1.
<mgrwt>
<rscale>  0 0.16090197E+03</rscale>
<asrwt>0</asrwt>
<pdfrwt beam="2">  1        2 0.25322036E+00 0.16728912E+03</pdfrwt>
<pdfrwt beam="1">  1       -2 0.25764353E-02 0.16728912E+03</pdfrwt>
<totfact> 0.60047822E+03</totfact>
</mgrwt>
</event>
<event>
 6    1  0.1045058E-005  0.1283586E+03  0.7546771E-02  0.1264233E+00
         -2   -1    0    0    0  501 -0.00000000000E+00  0.00000000000E+00  0.70931119346E+02  0.70931119346E+02  0.00000000000E+00 0. -1.
          2   -1    0    0  501    0  0.00000000000E+00 -0.00000000000E+00 -0.13399086828E+03  0.13399086828E+03  0.00000000000E+00 0.  1.
          5    1    1    2  502    0  0.33763041713E+02  0.45528609511E+02 -0.10985542255E+02  0.57927276894E+02  0.47000000000E+01 0.  1.
         -5    1    1    2    0  502 -0.14068190313E+02 -0.67022528536E+02 -0.45202676333E+02  0.82190664054E+02  0.47000000000E+01 0.  1.
        -11    1    1    2    0    0 -0.90162859347E+01  0.23797710995E+02  0.22185561013E+02  0.33761273349E+02  0.00000000000E+00 0. -1.
         11    1    1    2    0    0 -0.10678565465E+02 -0.23037919707E+01 -0.29057091360E+02  0.31042773332E+02  0.00000000000E+00 0.  1.
<mgrwt>
<rscale>  0 0.10804517E+03</rscale>
<asrwt>0</asrwt>
<pdfrwt beam="2">  1        2 0.20613980E-01 0.12835857E+03</pdfrwt>
<pdfrwt beam="1">  1       -2 0.10912480E-01 0.12835857E+03</pdfrwt>
<totfact> 0.14369869E+04</totfact>
</mgrwt>
</event>
<event>
 6    1  0.1045058E-005  0.1394937E+03  0.7546771E-02  0.1225779E+00
          3   -1    0    0  501    0  0.00000000000E+00  0.00000000000E+00  0.44022735892E+03  0.44022735892E+03  0.00000000000E+00 0. -1.
         -3   -1    0    0    0  501 -0.00000000000E+00 -0.00000000000E+00 -0.38508859231E+02  0.38508859231E+02  0.00000000000E+00 0.  1.
          5    1    1    2  502    0 -0.15977726676E+02 -0.59932842546E+02  0.69713263169E+02  0.93430521924E+02  0.47000000000E+01 0. -1.
         -5    1    1    2    0  502 -0.42816290294E+02  0.40501651702E+02  0.22483855165E+03  0.23248243549E+03  0.47000000000E+01 0. -1.
        -11    1    1    2    0    0  0.13133629783E+02  0.32842693733E+01 -0.15714770346E+02  0.20742050613E+02  0.00000000000E+00 0.  1.
         11    1    1    2    0    0  0.45660387186E+02  0.16146921471E+02  0.12288145522E+03  0.13208121012E+03  0.00000000000E+00 0. -1.
<mgrwt>
<rscale>  0 0.13113643E+03</rscale>
<asrwt>0</asrwt>
<pdfrwt beam="1">  1        3 0.67727283E-01 0.13949367E+03</pdfrwt>
<pdfrwt beam="2">  1       -3 0.59244402E-02 0.13949367E+03</pdfrwt>
<totfact> 0.86099324E+02</totfact>
</mgrwt>
</event>
<event>
 6    1  0.1045058E-005  0.1250471E+03  0.7546771E-02  0.1251294E+00
         -4   -1    0    0    0  501 -0.00000000000E+00  0.00000000000E+00  0.28544290440E+02  0.28544290440E+02  0.00000000000E+00 0.  1.
          4   -1    0    0  501    0  0.00000000000E+00 -0.00000000000E+00 -0.44202315716E+03  0.44202315716E+03  0.00000000000E+00 0. -1.
          5    1    1    2  502    0  0.40721218481E+02  0.17289111804E+02 -0.26815876486E+03  0.27182410525E+03  0.47000000000E+01 0. -1.
         -5    1    1    2    0  502 -0.39332765569E+02 -0.20401818473E+02 -0.36844897516E+02  0.57818138307E+02  0.47000000000E+01 0. -1.
        -11    1    1    2    0    0 -0.25422464874E+02 -0.47822373711E+01  0.35215290061E+01  0.26106946989E+02  0.00000000000E+00 0.  1.
         11    1    1    2    0    0  0.24034011963E+02  0.78949440400E+01 -0.11199673335E+03  0.11481825706E+03  0.00000000000E+00 0. -1.
<mgrwt>
<rscale>  0 0.11516465E+03</rscale>
<asrwt>0</asrwt>
<pdfrwt beam="2">  1        4 0.68003564E-01 0.12504709E+03</pdfrwt>
<pdfrwt beam="1">  1       -4 0.43914292E-02 0.12504709E+03</pdfrwt>
<totfact> 0.97098889E+02</totfact>
</mgrwt>
</event>
<event>
 6    1  0.1045058E-005  0.1380243E+03  0.7546771E-02  0.1228001E+00
          2   -1    0    0  501    0  0.00000000000E+00  0.00000000000E+00  0.41847934794E+03  0.41847934794E+03  0.00000000000E+00 0. -1.
         -2   -1    0    0    0  501 -0.00000000000E+00 -0.00000000000E+00 -0.36704772439E+02  0.36704772439E+02  0.00000000000E+00 0.  1.
          5    1    1    2  502    0  0.29334576288E+02  0.12521639431E+02  0.14862514988E+02  0.35500608048E+02  0.47000000000E+01 0. -1.
         -5    1    1    2    0  502 -0.56988591289E+02 -0.64092605190E+02  0.23104735677E+03  0.24649651650E+03  0.47000000000E+01 0. -1.
        -11    1    1    2    0    0 -0.23274217154E+02  0.86972594989E+01  0.35896173314E+01  0.25104120369E+02  0.00000000000E+00 0.  1.
         11    1    1    2    0    0  0.50928232156E+02  0.42873706259E+02  0.13227508641E+03  0.14808287546E+03  0.00000000000E+00 0. -1.
<mgrwt>
<rscale>  0 0.12963332E+03</rscale>
<asrwt>0</asrwt>
<pdfrwt beam="1">  1        2 0.64381435E-01 0.13802432E+03</pdfrwt>
<pdfrwt beam="2">  1       -2 0.56468884E-02 0.13802432E+03</pdfrwt>
<totfact> 0.11705292E+04</totfact>
</mgrwt>
</event>
<event>
 6    1  0.1045058E-005  0.1371405E+03  0.7546771E-02  0.1228225E+00
         -2   -1    0    0    0  501 -0.00000000000E+00  0.00000000000E+00  0.21770266480E+02  0.21770266480E+02  0.00000000000E+00 0.  1.
          2   -1    0    0  501    0  0.00000000000E+00 -0.00000000000E+00 -0.73286512718E+03  0.73286512718E+03  0.00000000000E+00 0. -1.
          5    1    1    2  502    0 -0.57645900016E+02 -0.27033047336E+02 -0.19456139494E+03  0.20476831259E+03  0.47000000000E+01 0. -1.
         -5    1    1    2    0  502  0.20206536645E+02  0.69242669356E+02 -0.28412372390E+03  0.29317440520E+03  0.47000000000E+01 0. -1.
        -11    1    1    2    0    0  0.39277906074E+01 -0.64094597655E+02 -0.17738767407E+03  0.18865294034E+03  0.00000000000E+00 0. -1.
         11    1    1    2    0    0  0.33511572764E+02  0.21884975636E+02 -0.55022067787E+02  0.68039735532E+02  0.00000000000E+00 0.  1.
<mgrwt>
<rscale>  0 0.12948273E+03</rscale>
<asrwt>0</asrwt>
<pdfrwt beam="2">  1        2 0.11274849E+00 0.13714047E+03</pdfrwt>
<pdfrwt beam="1">  1       -2 0.33492716E-02 0.13714047E+03</pdfrwt>
<totfact> 0.13578390E+04</totfact>
</mgrwt>
</event>
<event>
 6    1  0.1045058E-005  0.1863518E+03  0.7546771E-02  0.1166178E+00
          1   -1    0    0  501    0  0.00000000000E+00  0.00000000000E+00  0.35184916144E+03  0.35184916144E+03  0.00000000000E+00 0. -1.
         -1   -1    0    0    0  501 -0.00000000000E+00 -0.00000000000E+00 -0.89478992349E+02  0.89478992349E+02  0.00000000000E+00 0.  1.
          5    1    1    2  502    0  0.33043284910E+02  0.71906131317E+02  0.13314138416E+03  0.15495505340E+03  0.47000000000E+01 0.  1.
         -5    1    1    2    0  502  0.70511888256E+02  0.19603708646E+02 -0.12507003198E+01  0.73347706367E+02  0.47000000000E+01 0.  1.
        -11    1    1    2    0    0 -0.29862141410E+02  0.54117184804E-01  0.79475099283E+02  0.84900187422E+02  0.00000000000E+00 0. -1.
         11    1    1    2    0    0 -0.73693031756E+02 -0.91563957147E+02  0.51004385971E+02  0.12812520660E+03  0.00000000000E+00 0.  1.
<mgrwt>
<rscale>  0 0.18168906E+03</rscale>
<asrwt>0</asrwt>
<pdfrwt beam="1">  1        1 0.54130639E-01 0.18635181E+03</pdfrwt>
<pdfrwt beam="2">  1       -1 0.13765999E-01 0.18635181E+03</pdfrwt>
<totfact> 0.25955717E+03</totfact>
</mgrwt>
</event>
<event>
 6    1  0.1045058E-005  0.1916221E+03  0.7546771E-02  0.1176558E+00
          4   -1    0    0  501    0  0.00000000000E+00  0.00000000000E+00  0.23631701752E+03  0.23631701752E+03  0.00000000000E+00 0. -1.
         -4   -1    0    0    0  501 -0.00000000000E+00 -0.00000000000E+00 -0.11308760633E+03  0.11308760633E+03  0.00000000000E+00 0.  1.
          5    1    1    2  502    0 -0.19251120003E+02 -0.43860584830E+02  0.12423660135E+03  0.13323355297E+03  0.47000000000E+01 0. -1.
         -5    1    1    2    0  502 -0.56838581718E+02  0.74632032673E+02 -0.21899109631E+01  0.93954512306E+02  0.47000000000E+01 0.  1.
        -11    1    1    2    0    0  0.21534969907E+02 -0.43448487609E+02  0.32184067160E+02  0.58200860676E+02  0.00000000000E+00 0. -1.
         11    1    1    2    0    0  0.54554731815E+02  0.12677039766E+02 -0.31001346357E+02  0.64015697892E+02  0.00000000000E+00 0.  1.
<mgrwt>
<rscale>  0 0.17124251E+03</rscale>
<asrwt>0</asrwt>
<pdfrwt beam="1">  1        4 0.36356464E-01 0.19162208E+03</pdfrwt>
<pdfrwt beam="2">  1       -4 0.17398093E-01 0.19162208E+03</pdfrwt>
<totfact> 0.37587873E+02</totfact>
</mgrwt>
</event>
<event>
 6    1  0.1045058E-005  0.1302294E+03  0.7546771E-02  0.1240568E+00
          2   -1    0    0  501    0  0.00000000000E+00  0.00000000000E+00  0.81484134409E+02  0.81484134409E+02  0.00000000000E+00 0. -1.
         -2   -1    0    0    0  501 -0.00000000000E+00 -0.00000000000E+00 -0.16134343639E+03  0.16134343639E+03  0.00000000000E+00 0.  1.
          5    1    1    2  502    0 -0.36751689916E+02  0.17320372902E+02 -0.73580960935E+02  0.84183904883E+02  0.47000000000E+01 0.  1.
         -5    1    1    2    0  502  0.47783006244E+02  0.17509258067E+02  0.22324040903E+02  0.55769549093E+02  0.47000000000E+01 0.  1.
        -11    1    1    2    0    0 -0.88292420929E+01  0.25477437927E+02  0.12640565192E+02  0.29779846333E+02  0.00000000000E+00 0. -1.
         11    1    1    2    0    0 -0.22020742358E+01 -0.60307068896E+02 -0.41242947143E+02  0.73094270492E+02  0.00000000000E+00 0.  1.
<mgrwt>
<rscale>  0 0.12154602E+03</rscale>
<asrwt>0</asrwt>
<pdfrwt beam="1">  1        2 0.12536021E-01 0.13022940E+03</pdfrwt>
<pdfrwt beam="2">  1       -2 0.24822067E-01 0.13022940E+03</pdfrwt>
<totfact> 0.65805020E+03</totfact>
</mgrwt>
</event>
<event>
 6    1  0.1045058E-005  0.1633981E+03  0.7546771E-02  0.1192366E+00
          2   -1    0    0  501    0  0.00000000000E+00  0.00000000000E+00  0.14652279452E+04  0.14652279452E+04  0.00000000000E+00 0. -1.
         -2   -1    0    0    0  501 -0.00000000000E+00 -0.00000000000E+00 -0.42382711680E+02  0.42382711680E+02  0.00000000000E+00 0.  1.
          5    1    1    2  502    0 -0.69648639731E+02  0.31144466512E+02  0.12785900714E+04  0.12808729725E+04  0.47000000000E+01 0.  1.
         -5    1    1    2    0  502 -0.28492219864E+02  0.68457669587E+01  0.53322830856E+02  0.61025284993E+02  0.47000000000E+01 0.  1.
        -11    1    1    2    0    0  0.16230630925E+02 -0.33483577890E+02 -0.71035036913E+01  0.37881963165E+02  0.00000000000E+00 0.  1.
         11    1    1    2    0    0  0.81910228670E+02 -0.45066555803E+01  0.98035834906E+02  0.12783043625E+03  0.00000000000E+00 0. -1.
<mgrwt>
<rscale>  0 0.15679244E+03</rscale>
<asrwt>0</asrwt>
<pdfrwt beam="1">  1        2 0.22541965E+00 0.16339815E+03</pdfrwt>
<pdfrwt beam="2">  1       -2 0.65204183E-02 0.16339815E+03</pdfrwt>
<totfact> 0.18588217E+03</totfact>
</mgrwt>
</event>
<event>
 6    1  0.1045058E-005  0.1270031E+03  0.7546771E-02  0.1247044E+00
         -2   -1    0    0    0  501 -0.00000000000E+00  0.00000000000E+00  0.41529447167E+02  0.41529447167E+02  0.00000000000E+00 0.  1.
          2   -1    0    0  501    0  0.00000000000E+00 -0.00000000000E+00 -0.30321483722E+03  0.30321483722E+03  0.00000000000E+00 0. -1.
          5    1    1    2  502    0  0.56341481788E+02  0.28473691735E+02 -0.12053810665E+03  0.13614932555E+03  0.47000000000E+01 0.  1.
         -5    1    1    2    0  502 -0.40166851449E+02 -0.44075942812E+02 -0.61297006630E+02  0.85647403416E+02  0.47000000000E+01 0.  1.
        -11    1    1    2    0    0  0.16637713156E+02 -0.23901239104E+01 -0.83660652631E+02  0.85332473245E+02  0.00000000000E+00 0. -1.
         11    1    1    2    0    0 -0.32812343495E+02  0.17992374987E+02  0.38103758597E+01  0.37615082181E+02  0.00000000000E+00 0.  1.
<mgrwt>
<rscale>  0 0.11763859E+03</rscale>
<asrwt>0</asrwt>
<pdfrwt beam="2">  1        2 0.46648436E-01 0.12700307E+03</pdfrwt>
<pdfrwt beam="1">  1       -2 0.63891458E-02 0.12700307E+03</pdfrwt>
<totfact> 0.13581883E+04</totfact>
</mgrwt>
</event>
<event>
 6    1  0.1045058E-005  0.1687541E+03  0.7546771E-02  0.1185697E+00
          3   -1    0    0  501    0  0.00000000000E+00  0.00000000000E+00  0.20471948590E+03  0.20471948590E+03  0.00000000000E+00 0. -1.
         -3   -1    0    0    0  501 -0.00000000000E+00 -0.00000000000E+00 -0.19821406669E+03  0.19821406669E+03  0.00000000000E+00 0.  1.
          5    1    1    2  502    0  0.48975703524E+02  0.35341994261E+02  0.63813763045E+02  0.87988422238E+02  0.47000000000E+01 0.  1.
         -5    1    1    2    0  502 -0.74672275714E+02  0.75073644625E+02  0.65285959746E+02  0.12448432599E+03  0.47000000000E+01 0.  1.
        -11    1    1    2    0    0  0.12081104933E+02 -0.65034162028E+01 -0.73430885092E+02  0.74701689433E+02  0.00000000000E+00 0.  1.
         11    1    1    2    0    0  0.13615467257E+02 -0.10391222268E+03 -0.49163418484E+02  0.11575911493E+03  0.00000000000E+00 0. -1.
<mgrwt>
<rscale>  0 0.16268600E+03</rscale>
<asrwt>0</asrwt>
<pdfrwt beam="1">  1        3 0.31495306E-01 0.16875405E+03</pdfrwt>
<pdfrwt beam="2">  1       -3 0.30494472E-01 0.16875405E+03</pdfrwt>
<totfact> 0.24458923E+02</totfact>
</mgrwt>
</event>
<event>
 6    1  0.1045058E-005  0.1274885E+03  0.7546771E-02  0.1246840E+00
          1   -1    0    0  501    0  0.00000000000E+00  0.00000000000E+00  0.19967019432E+03  0.19967019432E+03  0.00000000000E+00 0. -1.
         -1   -1    0    0    0  501 -0.00000000000E+00 -0.00000000000E+00 -0.60837207876E+02  0.60837207876E+02  0.00000000000E+00 0.  1.
          5    1    1    2  502    0  0.38416883129E+02  0.43088068675E+02  0.70484633986E+02  0.91228351950E+02  0.47000000000E+01 0.  1.
         -5    1    1    2    0  502 -0.15979680860E+02 -0.54348433223E+02  0.53139604220E+01  0.57091422907E+02  0.47000000000E+01 0.  1.
        -11    1    1    2    0    0 -0.18059856051E+02  0.25262393302E+02  0.82304892882E+02  0.87968416539E+02  0.00000000000E+00 0. -1.
         11    1    1    2    0    0 -0.43773462173E+01 -0.14002028754E+02 -0.19270500843E+02  0.24219210802E+02  0.00000000000E+00 0.  1.
<mgrwt>
<rscale>  0 0.11775950E+03</rscale>
<asrwt>0</asrwt>
<pdfrwt beam="1">  1        1 0.30718491E-01 0.12748854E+03</pdfrwt>
<pdfrwt beam="2">  1       -1 0.93595705E-02 0.12748854E+03</pdfrwt>
<totfact> 0.93262751E+03</totfact>
</mgrwt>
</event>
<event>
 6    1  0.1045058E-005  0.1742241E+03  0.7546771E-02  0.1179321E+00
         -2   -1    0    0    0  501 -0.00000000000E+00  0.00000000000E+00  0.75362292661E+02  0.75362292661E+02  0.00000000000E+00 0.  1.
          2   -1    0    0  501    0  0.00000000000E+00 -0.00000000000E+00 -0.13863887111E+04  0.13863887111E+04  0.00000000000E+00 0. -1.
          5    1    1    2  502    0 -0.27434836880E+02 -0.64182050883E+02 -0.23176512404E+03  0.24209330568E+03  0.47000000000E+01 0. -1.
         -5    1    1    2    0  502 -0.34227815034E+02 -0.40355127903E+02 -0.10648815447E+04  0.10662058309E+04  0.47000000000E+01 0. -1.
        -11    1    1    2    0    0 -0.19319776117E+02  0.24313488858E+02  0.16753352974E+02  0.35285610744E+02  0.00000000000E+00 0. -1.
         11    1    1    2    0    0  0.80982428031E+02  0.80223689927E+02 -0.31133102689E+02  0.11816625643E+03  0.00000000000E+00 0.  1.
<mgrwt>
<rscale>  0 0.16859530E+03</rscale>
<asrwt>0</asrwt>
<pdfrwt beam="2">  1        2 0.21329055E+00 0.17422413E+03</pdfrwt>
<pdfrwt beam="1">  1       -2 0.11594200E-01 0.17422413E+03</pdfrwt>
<totfact> 0.83188863E+02</totfact>
</mgrwt>
</event>
<event>
 6    1  0.1045058E-005  0.2532787E+03  0.7546771E-02  0.1116192E+00
          4   -1    0    0  501    0  0.00000000000E+00  0.00000000000E+00  0.11623197517E+03  0.11623197517E+03  0.00000000000E+00 0. -1.
         -4   -1    0    0    0  501 -0.00000000000E+00 -0.00000000000E+00 -0.60289621488E+03  0.60289621488E+03  0.00000000000E+00 0.  1.
          5    1    1    2  502    0  0.90441457377E+02  0.54706477159E+01 -0.31618943082E+02  0.96080345339E+02  0.47000000000E+01 0. -1.
         -5    1    1    2    0  502  0.46108644507E+02 -0.15567292152E+03 -0.67972092575E+02  0.17607487317E+03  0.47000000000E+01 0.  1.
        -11    1    1    2    0    0 -0.14635075208E+03  0.15425520919E+03 -0.36350318526E+03  0.42112679550E+03  0.00000000000E+00 0.  1.
         11    1    1    2    0    0  0.98006502005E+01 -0.40529353847E+01 -0.23570018805E+02  0.25846176043E+02  0.00000000000E+00 0. -1.
<mgrwt>
<rscale>  0 0.24548552E+03</rscale>
<asrwt>0</asrwt>
<pdfrwt beam="1">  1        4 0.17881843E-01 0.25327868E+03</pdfrwt>
<pdfrwt beam="2">  1       -4 0.92753262E-01 0.25327868E+03</pdfrwt>
<totfact> 0.51226733E+01</totfact>
</mgrwt>
</event>
<event>
 6    1  0.1045058E-005  0.1375539E+03  0.7546771E-02  0.1228825E+00
         -1   -1    0    0    0  501 -0.00000000000E+00  0.00000000000E+00  0.12064410442E+03  0.12064410442E+03  0.00000000000E+00 0.  1.
          1   -1    0    0  501    0  0.00000000000E+00 -0.00000000000E+00 -0.12374472165E+03  0.12374472165E+03  0.00000000000E+00 0. -1.
          5    1    1    2  502    0 -0.20771709999E+02 -0.34060160458E+02  0.22272117848E+02  0.45931423885E+02  0.47000000000E+01 0. -1.
         -5    1    1    2    0  502  0.77972568315E+02  0.38997336770E+02 -0.28205206907E+02  0.91750408073E+02  0.47000000000E+01 0. -1.
        -11    1    1    2    0    0 -0.67144430954E+02 -0.24443827154E+02  0.24852888942E+02  0.75654090325E+02  0.00000000000E+00 0.  1.
         11    1    1    2    0    0  0.99435726376E+01  0.19506650842E+02 -0.22020417114E+02  0.31052903790E+02  0.00000000000E+00 0. -1.
<mgrwt>
<rscale>  0 0.12908171E+03</rscale>
<asrwt>0</asrwt>
<pdfrwt beam="2">  1        1 0.19037649E-01 0.13755394E+03</pdfrwt>
<pdfrwt beam="1">  1       -1 0.18560631E-01 0.13755394E+03</pdfrwt>
<totfact> 0.59076466E+03</totfact>
</mgrwt>
</event>
<event>
 6    1  0.1045058E-005  0.1258831E+03  0.7546771E-02  0.1247485E+00
          2   -1    0    0  501    0  0.00000000000E+00  0.00000000000E+00  0.13055749885E+04  0.13055749885E+04  0.00000000000E+00 0. -1.
         -2   -1    0    0    0  501 -0.00000000000E+00 -0.00000000000E+00 -0.15670959456E+02  0.15670959456E+02  0.00000000000E+00 0.  1.
          5    1    1    2  502    0 -0.26036201014E+02 -0.48594408749E+02  0.34186566869E+03  0.34631420091E+03  0.47000000000E+01 0.  1.
         -5    1    1    2    0  502  0.17970585479E+02  0.61110892573E+02  0.77354580139E+03  0.77617825271E+03  0.47000000000E+01 0.  1.
        -11    1    1    2    0    0  0.47041624614E+01 -0.42285395961E+02  0.15983708907E+03  0.16540277778E+03  0.00000000000E+00 0. -1.
         11    1    1    2    0    0  0.33614530743E+01  0.29768912137E+02  0.14655469898E+02  0.33350716552E+02  0.00000000000E+00 0.  1.
<mgrwt>
<rscale>  0 0.11737848E+03</rscale>
<asrwt>0</asrwt>
<pdfrwt beam="1">  1        2 0.20085760E+00 0.12588312E+03</pdfrwt>
<pdfrwt beam="2">  1       -2 0.24109179E-02 0.12588312E+03</pdfrwt>
<totfact> 0.98877223E+03</totfact>
</mgrwt>
</event>
<event>
 6    1  0.1045058E-005  0.2595780E+03  0.7546771E-02  0.1109500E+00
          1   -1    0    0  501    0  0.00000000000E+00  0.00000000000E+00  0.79962371380E+03  0.79962371380E+03  0.00000000000E+00 0. -1.
         -1   -1    0    0    0  501 -0.00000000000E+00 -0.00000000000E+00 -0.83999279353E+02  0.83999279353E+02  0.00000000000E+00 0.  1.
          5    1    1    2  502    0  0.94276766708E+02  0.18262771485E+03  0.40578006056E+03  0.45488519268E+03  0.47000000000E+01 0.  1.
         -5    1    1    2    0  502  0.49503696650E+02 -0.63131135748E+01  0.58543989164E+02  0.77071136311E+02  0.47000000000E+01 0.  1.
        -11    1    1    2    0    0 -0.53468770991E+02 -0.58969376957E+02  0.29316361647E+02  0.84827742810E+02  0.00000000000E+00 0.  1.
         11    1    1    2    0    0 -0.90311692367E+02 -0.11734522431E+03  0.22198402307E+03  0.26683892135E+03  0.00000000000E+00 0. -1.
<mgrwt>
<rscale>  0 0.25611560E+03</rscale>
<asrwt>0</asrwt>
<pdfrwt beam="1">  1        1 0.12301903E+00 0.25957795E+03</pdfrwt>
<pdfrwt beam="2">  1       -1 0.12922967E-01 0.25957795E+03</pdfrwt>
<totfact> 0.94176099E+02</totfact>
</mgrwt>
</event>
<event>
 6    1  0.1045058E-005  0.1698683E+03  0.7546771E-02  0.1190311E+00
         -1   -1    0    0    0  501 -0.00000000000E+00  0.00000000000E+00  0.23057521491E+03  0.23057521491E+03  0.00000000000E+00 0.  1.
          1   -1    0    0  501    0  0.00000000000E+00 -0.00000000000E+00 -0.11522206099E+03  0.11522206099E+03  0.00000000000E+00 0. -1.
          5    1    1    2  502    0  0.77242280384E+02 -0.10167450484E+03 -0.76880391729E+01  0.12800496381E+03  0.47000000000E+01 0. -1.
         -5    1    1    2    0  502 -0.32980622492E+02  0.25193543519E+02  0.35099017009E+01  0.41914740903E+02  0.47000000000E+01 0.  1.
        -11    1    1    2    0    0  0.29571233403E+02  0.19194851561E+02  0.38317831024E+02  0.52068765549E+02  0.00000000000E+00 0. -1.
         11    1    1    2    0    0 -0.73832891296E+02  0.57286109758E+02  0.81213460375E+02  0.12380880564E+03  0.00000000000E+00 0.  1.
<mgrwt>
<rscale>  0 0.15857890E+03</rscale>
<asrwt>0</asrwt>
<pdfrwt beam="2">  1        1 0.17726471E-01 0.16986833E+03</pdfrwt>
<pdfrwt beam="1">  1       -1 0.35473110E-01 0.16986833E+03</pdfrwt>
<totfact> 0.22395712E+03</totfact>
</mgrwt>
</event>
<event>
 6    1  0.1045058E-005  0.1590916E+03  0.7546771E-02  0.1197486E+00
         -2   -1    0    0    0  501 -0.00000000000E+00  0.00000000000E+00  0.27179219619E+03  0.27179219619E+03  0.00000000000E+00 0.  1.
          2   -1    0    0  501    0  0.00000000000E+00 -0.00000000000E+00 -0.80664113240E+02  0.80664113240E+02  0.00000000000E+00 0. -1.
          5    1    1    2  502    0  0.70042967909E+02 -0.11304512016E+02  0.90172024971E+01  0.71674327944E+02  0.47000000000E+01 0. -1.
         -5    1    1    2    0  502 -0.23938347542E+02 -0.75681466865E+02  0.70101569724E+02  0.10600494794E+03  0.47000000000E+01 0. -1.
        -11    1    1    2    0    0 -0.67834369543E+02  0.58755496790E+02  0.10559605852E+03  0.13857935513E+03  0.00000000000E+00 0.  1.
         11    1    1    2    0    0  0.21729749177E+02  0.28230482092E+02  0.64132522077E+01  0.36197678410E+02  0.00000000000E+00 0. -1.
<mgrwt>
<rscale>  0 0.15245699E+03</rscale>
<asrwt>0</asrwt>
<pdfrwt beam="2">  1        2 0.12409864E-01 0.15909162E+03</pdfrwt>
<pdfrwt beam="1">  1       -2 0.41814184E-01 0.15909162E+03</pdfrwt>
<totfact> 0.26052345E+03</totfact>
</mgrwt>
</event>
<event>
 6    1  0.1045058E-005  0.1287274E+03  0.7546771E-02  0.1242651E+00
          2   -1    0    0  501    0  0.00000000000E+00  0.00000000000E+00  0.87563544646E+03  0.87563544646E+03  0.00000000000E+00 0. -1.
         -2   -1    0    0    0  501 -0.00000000000E+00 -0.00000000000E+00 -0.22695358153E+02  0.22695358153E+02  0.00000000000E+00 0.  1.
          5    1    1    2  502    0 -0.28338627907E+02  0.26798504191E+02  0.56693949272E+03  0.56829896715E+03  0.47000000000E+01 0. -1.
         -5    1    1    2    0  502  0.16152709940E+02 -0.55042922487E+02  0.16202555936E+03  0.17194477381E+03  0.47000000000E+01 0. -1.
        -11    1    1    2    0    0  0.11494157901E+02 -0.57254120860E+01 -0.12214863150E+02  0.17722835303E+02  0.00000000000E+00 0.  1.
         11    1    1    2    0    0  0.69176006600E+00  0.33969830383E+02  0.13618989937E+03  0.14036422835E+03  0.00000000000E+00 0. -1.
<mgrwt>
<rscale>  0 0.12027070E+03</rscale>
<asrwt>0</asrwt>
<pdfrwt beam="1">  1        2 0.13471312E+00 0.12872742E+03</pdfrwt>
<pdfrwt beam="2">  1       -2 0.34915942E-02 0.12872742E+03</pdfrwt>
<totfact> 0.10190594E+04</totfact>
</mgrwt>
</event>
<event>
 6    1  0.1045058E-005  0.1495339E+03  0.7546771E-02  0.1210097E+00
          1   -1    0    0  501    0  0.00000000000E+00  0.00000000000E+00  0.86346387048E+02  0.86346387048E+02  0.00000000000E+00 0. -1.
         -1   -1    0    0    0  501 -0.00000000000E+00 -0.00000000000E+00 -0.21908219882E+03  0.21908219882E+03  0.00000000000E+00 0.  1.
          5    1    1    2  502    0  0.18750025197E+02 -0.65280612255E+02 -0.10761098057E+03  0.12733944763E+03  0.47000000000E+01 0.  1.
         -5    1    1    2    0  502 -0.44516937958E+02 -0.12641017550E+02  0.14610474356E+02  0.48755605327E+02  0.47000000000E+01 0.  1.
        -11    1    1    2    0    0  0.21955356958E+02  0.72468942380E+01 -0.52544561719E+02  0.57406324926E+02  0.00000000000E+00 0.  1.
         11    1    1    2    0    0  0.38115558025E+01  0.70674735567E+02  0.12809256169E+02  0.71927207987E+02  0.00000000000E+00 0. -1.
<mgrwt>
<rscale>  0 0.14242952E+03</rscale>
<asrwt>0</asrwt>
<pdfrwt beam="1">  1        1 0.13284060E-01 0.14953385E+03</pdfrwt>
<pdfrwt beam="2">  1       -1 0.33704953E-01 0.14953385E+03</pdfrwt>
<totfact> 0.35359084E+03</totfact>
</mgrwt>
</event>
<event>
 6    1  0.1045058E-005  0.1322140E+03  0.7546771E-02  0.1236968E+00
         -2   -1    0    0    0  501 -0.00000000000E+00  0.00000000000E+00  0.16803364594E+02  0.16803364594E+02  0.00000000000E+00 0.  1.
          2   -1    0    0  501    0  0.00000000000E+00 -0.00000000000E+00 -0.83056077234E+03  0.83056077234E+03  0.00000000000E+00 0. -1.
          5    1    1    2  502    0  0.25582698790E+02  0.34555271319E+02 -0.27446108076E+03  0.27784800900E+03  0.47000000000E+01 0. -1.
         -5    1    1    2    0  502 -0.67161974302E+02 -0.45769726108E+02 -0.24485596522E+03  0.25803513777E+03  0.47000000000E+01 0. -1.
        -11    1    1    2    0    0  0.38448388945E+02 -0.36498188077E+02 -0.13539740387E+03  0.14540582286E+03  0.00000000000E+00 0.  1.
         11    1    1    2    0    0  0.31308865672E+01  0.47712642867E+02 -0.15904295790E+03  0.16607516731E+03  0.00000000000E+00 0. -1.
<mgrwt>
<rscale>  0 0.12379295E+03</rscale>
<asrwt>0</asrwt>
<pdfrwt beam="2">  1        2 0.12777859E+00 0.13221404E+03</pdfrwt>
<pdfrwt beam="1">  1       -2 0.25851329E-02 0.13221404E+03</pdfrwt>
<totfact> 0.16979312E+04</totfact>
</mgrwt>
</event>
<event>
 6    1  0.1045058E-005  0.1259851E+03  0.7546771E-02  0.1249569E+00
          2   -1    0    0  501    0  0.00000000000E+00  0.00000000000E+00  0.39380042574E+03  0.39380042574E+03  0.00000000000E+00 0. -1.
         -2   -1    0    0    0  501 -0.00000000000E+00 -0.00000000000E+00 -0.40798837378E+02  0.40798837378E+02  0.00000000000E+00 0.  1.
          5    1    1    2  502    0 -0.48926069948E+01  0.60425491997E+02  0.18214669943E+03  0.19202783079E+03  0.47000000000E+01 0.  1.
         -5    1    1    2    0  502 -0.10766270110E+02 -0.61937683941E+02  0.12640167629E+03  0.14125035587E+03  0.47000000000E+01 0.  1.
        -11    1    1    2    0    0  0.26493728941E+02  0.38250633362E+02  0.42420257246E+02  0.62964329986E+02  0.00000000000E+00 0.  1.
         11    1    1    2    0    0 -0.10834851836E+02 -0.36738441418E+02  0.20329553970E+01  0.38356746470E+02  0.00000000000E+00 0. -1.
<mgrwt>
<rscale>  0 0.11616035E+03</rscale>
<asrwt>0</asrwt>
<pdfrwt beam="1">  1        2 0.60584678E-01 0.12598512E+03</pdfrwt>
<pdfrwt beam="2">  1       -2 0.62767445E-02 0.12598512E+03</pdfrwt>
<totfact> 0.10570088E+04</totfact>
</mgrwt>
</event>
<event>
 6    1  0.1045058E-005  0.1175637E+03  0.7546771E-02  0.1258721E+00
          1   -1    0    0  501    0  0.00000000000E+00  0.00000000000E+00  0.46821803710E+03  0.46821803710E+03  0.00000000000E+00 0. -1.
         -1   -1    0    0    0  501 -0.00000000000E+00 -0.00000000000E+00 -0.33016683479E+02  0.33016683479E+02  0.00000000000E+00 0.  1.
          5    1    1    2  502    0  0.40256036300E+02  0.48790125572E+02  0.27462102653E+03  0.28185071052E+03  0.47000000000E+01 0. -1.
         -5    1    1    2    0  502 -0.34462438856E+02 -0.31285617994E+02  0.92873347670E+02  0.10399037596E+03  0.47000000000E+01 0.  1.
        -11    1    1    2    0    0  0.13927246696E+02 -0.85852287821E+01 -0.19549793334E+02  0.25492523868E+02  0.00000000000E+00 0.  1.
         11    1    1    2    0    0 -0.19720844140E+02 -0.89192787953E+01  0.87256772757E+02  0.89901110226E+02  0.00000000000E+00 0. -1.
<mgrwt>
<rscale>  0 0.11100456E+03</rscale>
<asrwt>0</asrwt>
<pdfrwt beam="1">  1        1 0.72033539E-01 0.11756372E+03</pdfrwt>
<pdfrwt beam="2">  1       -1 0.50794901E-02 0.11756372E+03</pdfrwt>
<totfact> 0.80115841E+03</totfact>
</mgrwt>
</event>
<event>
 6    1  0.1045058E-005  0.1334474E+03  0.7546771E-02  0.1239015E+00
          2   -1    0    0  501    0  0.00000000000E+00  0.00000000000E+00  0.37508293441E+02  0.37508293441E+02  0.00000000000E+00 0. -1.
         -2   -1    0    0    0  501 -0.00000000000E+00 -0.00000000000E+00 -0.34738850289E+03  0.34738850289E+03  0.00000000000E+00 0.  1.
          5    1    1    2  502    0  0.31227238533E+02 -0.21449323819E+02 -0.14134799697E+03  0.14641229513E+03  0.47000000000E+01 0. -1.
         -5    1    1    2    0  502 -0.68840758324E+02 -0.62659797098E+01 -0.44356211062E+02  0.82267101372E+02  0.47000000000E+01 0. -1.
        -11    1    1    2    0    0 -0.28787175460E+01 -0.22254068699E+02 -0.65205915140E+02  0.68958987504E+02  0.00000000000E+00 0.  1.
         11    1    1    2    0    0  0.40492237337E+02  0.49969372228E+02 -0.58970086276E+02  0.87258412322E+02  0.00000000000E+00 0. -1.
<mgrwt>
<rscale>  0 0.12250887E+03</rscale>
<asrwt>0</asrwt>
<pdfrwt beam="1">  1        2 0.57705069E-02 0.13344742E+03</pdfrwt>
<pdfrwt beam="2">  1       -2 0.53444383E-01 0.13344742E+03</pdfrwt>
<totfact> 0.41489022E+03</totfact>
</mgrwt>
</event>
<event>
 6    1  0.1045058E-005  0.1368049E+03  0.7546771E-02  0.1231707E+00
         -2   -1    0    0    0  501 -0.00000000000E+00  0.00000000000E+00  0.44981674835E+03  0.44981674835E+03  0.00000000000E+00 0.  1.
          2   -1    0    0  501    0  0.00000000000E+00 -0.00000000000E+00 -0.59468508075E+02  0.59468508075E+02  0.00000000000E+00 0. -1.
          5    1    1    2  502    0  0.73596631516E+01  0.41552557099E+02 -0.87935998082E+01  0.43361238921E+02  0.47000000000E+01 0. -1.
         -5    1    1    2    0  502 -0.57890468161E+02 -0.64723569292E+02  0.46162182272E+02  0.98455491456E+02  0.47000000000E+01 0. -1.
        -11    1    1    2    0    0  0.35573406826E+02 -0.22074110423E+02  0.79317377517E+02  0.89688237804E+02  0.00000000000E+00 0.  1.
         11    1    1    2    0    0  0.14957398183E+02  0.45245122617E+02  0.27366228029E+03  0.27778028824E+03  0.00000000000E+00 0. -1.
<mgrwt>
<rscale>  0 0.12717620E+03</rscale>
<asrwt>0</asrwt>
<pdfrwt beam="2">  1        2 0.91490016E-02 0.13680488E+03</pdfrwt>
<pdfrwt beam="1">  1       -2 0.69202574E-01 0.13680488E+03</pdfrwt>
<totfact> 0.13613575E+03</totfact>
</mgrwt>
</event>
<event>
 6    1  0.1045058E-005  0.1381582E+03  0.7546771E-02  0.1227338E+00
          2   -1    0    0  501    0  0.00000000000E+00  0.00000000000E+00  0.47949086133E+03  0.47949086133E+03  0.00000000000E+00 0. -1.
         -2   -1    0    0    0  501 -0.00000000000E+00 -0.00000000000E+00 -0.35524415298E+02  0.35524415298E+02  0.00000000000E+00 0.  1.
          5    1    1    2  502    0  0.26919608849E+02 -0.54436013503E+02  0.18558295244E+03  0.19532298160E+03  0.47000000000E+01 0. -1.
         -5    1    1    2    0  502  0.30427496920E+02  0.67614730793E+02  0.14370282894E+03  0.16177199212E+03  0.47000000000E+01 0. -1.
        -11    1    1    2    0    0 -0.31504318251E+02 -0.33657330512E+02  0.11609849374E+03  0.12491676514E+03  0.00000000000E+00 0. -1.
         11    1    1    2    0    0 -0.25842787518E+02  0.20478613222E+02 -0.14178290735E+01  0.33003537772E+02  0.00000000000E+00 0.  1.
<mgrwt>
<rscale>  0 0.13007946E+03</rscale>
<asrwt>0</asrwt>
<pdfrwt beam="1">  1        2 0.73767820E-01 0.13815822E+03</pdfrwt>
<pdfrwt beam="2">  1       -2 0.54652950E-02 0.13815822E+03</pdfrwt>
<totfact> 0.10614311E+04</totfact>
</mgrwt>
</event>
<event>
 6    1  0.1045058E-005  0.1154422E+03  0.7546771E-02  0.1261029E+00
         -3   -1    0    0    0  501 -0.00000000000E+00  0.00000000000E+00  0.90747617363E+02  0.90747617363E+02  0.00000000000E+00 0.  1.
          3   -1    0    0  501    0  0.00000000000E+00 -0.00000000000E+00 -0.12149112573E+03  0.12149112573E+03  0.00000000000E+00 0. -1.
          5    1    1    2  502    0  0.33591098076E+02  0.34172894315E+02 -0.15748990113E+02  0.50658358298E+02  0.47000000000E+01 0. -1.
         -5    1    1    2    0  502 -0.38936626623E+02 -0.53793233194E+02 -0.62903354660E+01  0.66868760647E+02  0.47000000000E+01 0.  1.
        -11    1    1    2    0    0  0.16058130476E+02  0.40997246062E+02 -0.37109236138E+02  0.57582403092E+02  0.00000000000E+00 0. -1.
         11    1    1    2    0    0 -0.10712601929E+02 -0.21376907183E+02  0.28405053347E+02  0.37129221059E+02  0.00000000000E+00 0.  1.
<mgrwt>
<rscale>  0 0.10975232E+03</rscale>
<asrwt>0</asrwt>
<pdfrwt beam="2">  1        3 0.18690942E-01 0.11544216E+03</pdfrwt>
<pdfrwt beam="1">  1       -3 0.13961172E-01 0.11544216E+03</pdfrwt>
<totfact> 0.23602326E+03</totfact>
</mgrwt>
</event>
<event>
 6    1  0.1045058E-005  0.2381560E+03  0.7546771E-02  0.1153607E+00
          1   -1    0    0  501    0  0.00000000000E+00  0.00000000000E+00  0.51956350365E+03  0.51956350365E+03  0.00000000000E+00 0. -1.
         -1   -1    0    0    0  501 -0.00000000000E+00 -0.00000000000E+00 -0.58168240023E+02  0.58168240023E+02  0.00000000000E+00 0.  1.
          5    1    1    2  502    0  0.13669911167E+03  0.46213405384E+02  0.20375127636E+03  0.24971783794E+03  0.47000000000E+01 0. -1.
         -5    1    1    2    0  502 -0.93348248570E+02 -0.73573018624E+01  0.13712803335E+03  0.16611505932E+03  0.47000000000E+01 0.  1.
        -11    1    1    2    0    0 -0.18867443173E+02  0.17459567246E+02 -0.10239520267E+01  0.25726744412E+02  0.00000000000E+00 0.  1.
         11    1    1    2    0    0 -0.24483419931E+02 -0.56315670767E+02  0.12153990595E+03  0.13617210200E+03  0.00000000000E+00 0. -1.
<mgrwt>
<rscale>  0 0.19548333E+03</rscale>
<asrwt>0</asrwt>
<pdfrwt beam="1">  1        1 0.79932844E-01 0.23815603E+03</pdfrwt>
<pdfrwt beam="2">  1       -1 0.89489603E-02 0.23815603E+03</pdfrwt>
<totfact> 0.30836495E+03</totfact>
</mgrwt>
</event>
<event>
 6    1  0.1045058E-005  0.1281847E+03  0.7546771E-02  0.1244870E+00
          1   -1    0    0  501    0  0.00000000000E+00  0.00000000000E+00  0.20420318586E+03  0.20420318586E+03  0.00000000000E+00 0. -1.
         -1   -1    0    0    0  501 -0.00000000000E+00 -0.00000000000E+00 -0.62777309729E+02  0.62777309729E+02  0.00000000000E+00 0.  1.
          5    1    1    2  502    0 -0.83473808197E+01  0.76936871157E+02  0.58112914563E+02  0.96892526796E+02  0.47000000000E+01 0. -1.
         -5    1    1    2    0  502 -0.13022072751E+01 -0.50223890354E+02  0.45174249353E+02  0.67726934898E+02  0.47000000000E+01 0. -1.
        -11    1    1    2    0    0  0.32162316184E+02 -0.21098341721E+02 -0.17364833574E+02  0.42202986277E+02  0.00000000000E+00 0.  1.
         11    1    1    2    0    0 -0.22512728089E+02 -0.56146390828E+01  0.55503545793E+02  0.60158047622E+02  0.00000000000E+00 0. -1.
<mgrwt>
<rscale>  0 0.11893165E+03</rscale>
<asrwt>0</asrwt>
<pdfrwt beam="1">  1        1 0.31415874E-01 0.12818475E+03</pdfrwt>
<pdfrwt beam="2">  1       -1 0.96580478E-02 0.12818475E+03</pdfrwt>
<totfact> 0.86514024E+03</totfact>
</mgrwt>
</event>
<event>
 6    1  0.1045058E-005  0.1477886E+03  0.7546771E-02  0.1212373E+00
          1   -1    0    0  501    0  0.00000000000E+00  0.00000000000E+00  0.31129369059E+04  0.31129369059E+04  0.00000000000E+00 0. -1.
         -1   -1    0    0    0  501 -0.00000000000E+00 -0.00000000000E+00 -0.25728143665E+02  0.25728143665E+02  0.00000000000E+00 0.  1.
          5    1    1    2  502    0 -0.38747585014E+02 -0.53747170991E+02  0.90947012628E+03  0.91189261118E+03  0.47000000000E+01 0. -1.
         -5    1    1    2    0  502  0.69408463376E+02 -0.18893245635E+02  0.20472047177E+04  0.20484735135E+04  0.47000000000E+01 0. -1.
        -11    1    1    2    0    0 -0.29237108787E+01 -0.19483181883E+02  0.46713643467E+02  0.50698194717E+02  0.00000000000E+00 0. -1.
         11    1    1    2    0    0 -0.27737167483E+02  0.92123598509E+02  0.83820274788E+02  0.12760073012E+03  0.00000000000E+00 0.  1.
<mgrwt>
<rscale>  0 0.14071318E+03</rscale>
<asrwt>0</asrwt>
<pdfrwt beam="1">  1        1 0.47891307E+00 0.14778856E+03</pdfrwt>
<pdfrwt beam="2">  1       -1 0.39581784E-02 0.14778856E+03</pdfrwt>
<totfact> 0.15745280E+02</totfact>
</mgrwt>
</event>
<event>
 6    1  0.1045058E-005  0.1439617E+03  0.7546771E-02  0.1218522E+00
          1   -1    0    0  501    0  0.00000000000E+00  0.00000000000E+00  0.40146546188E+03  0.40146546188E+03  0.00000000000E+00 0. -1.
         -1   -1    0    0    0  501 -0.00000000000E+00 -0.00000000000E+00 -0.44210251150E+02  0.44210251150E+02  0.00000000000E+00 0.  1.
          5    1    1    2  502    0 -0.66803813853E+02 -0.70195669881E+02  0.23881091933E+03  0.25776525523E+03  0.47000000000E+01 0.  1.
         -5    1    1    2    0  502  0.12065072105E+02  0.24358812762E+02  0.93462477704E+01  0.29126621353E+02  0.47000000000E+01 0.  1.
        -11    1    1    2    0    0  0.27431454456E+02 -0.53523044663E+00 -0.91041080021E+01  0.28907714329E+02  0.00000000000E+00 0.  1.
         11    1    1    2    0    0  0.27307287291E+02  0.46372087566E+02  0.11820215163E+03  0.12987612211E+03  0.00000000000E+00 0. -1.
<mgrwt>
<rscale>  0 0.13620942E+03</rscale>
<asrwt>0</asrwt>
<pdfrwt beam="1">  1        1 0.61763915E-01 0.14396169E+03</pdfrwt>
<pdfrwt beam="2">  1       -1 0.68015774E-02 0.14396169E+03</pdfrwt>
<totfact> 0.63946137E+03</totfact>
</mgrwt>
</event>
<event>
 6    1  0.1045058E-005  0.1593454E+03  0.7546771E-02  0.1196694E+00
          2   -1    0    0  501    0  0.00000000000E+00  0.00000000000E+00  0.20067559057E+03  0.20067559057E+03  0.00000000000E+00 0. -1.
         -2   -1    0    0    0  501 -0.00000000000E+00 -0.00000000000E+00 -0.11018343471E+03  0.11018343471E+03  0.00000000000E+00 0.  1.
          5    1    1    2  502    0 -0.21834759213E+02  0.10720124200E+03  0.29978812786E+02  0.11353273631E+03  0.47000000000E+01 0. -1.
         -5    1    1    2    0  502 -0.36814258296E+02 -0.27477058141E+02  0.37605301714E+02  0.59552725001E+02  0.47000000000E+01 0. -1.
        -11    1    1    2    0    0  0.28523818249E+02 -0.96180632288E+02  0.24979185760E+02  0.10338414751E+03  0.00000000000E+00 0. -1.
         11    1    1    2    0    0  0.30125199260E+02  0.16456448424E+02 -0.20711444023E+01  0.34389416458E+02  0.00000000000E+00 0.  1.
<mgrwt>
<rscale>  0 0.15311727E+03</rscale>
<asrwt>0</asrwt>
<pdfrwt beam="1">  1        2 0.30873168E-01 0.15934542E+03</pdfrwt>
<pdfrwt beam="2">  1       -2 0.16951298E-01 0.15934542E+03</pdfrwt>
<totfact> 0.45791724E+03</totfact>
</mgrwt>
</event>
<event>
 6    1  0.1045058E-005  0.1775987E+03  0.7546771E-02  0.1259364E+00
         -2   -1    0    0    0  501 -0.00000000000E+00  0.00000000000E+00  0.22504089678E+02  0.22504089678E+02  0.00000000000E+00 0.  1.
          2   -1    0    0  501    0  0.00000000000E+00 -0.00000000000E+00 -0.47212959266E+03  0.47212959266E+03  0.00000000000E+00 0. -1.
          5    1    1    2  502    0 -0.30612962823E+02 -0.73136336275E+02 -0.20453966882E+03  0.21941887635E+03  0.47000000000E+01 0. -1.
         -5    1    1    2    0  502  0.17905993157E+02  0.95663165430E+02 -0.20550785550E+03  0.22743710006E+03  0.47000000000E+01 0.  1.
        -11    1    1    2    0    0  0.10741213697E+02 -0.12513203597E+02 -0.22772596140E+02  0.28116633349E+02  0.00000000000E+00 0. -1.
         11    1    1    2    0    0  0.19657559686E+01 -0.10013625559E+02 -0.16805382527E+02  0.19661072586E+02  0.00000000000E+00 0.  1.
<mgrwt>
<rscale>  0 0.11065375E+03</rscale>
<asrwt>0</asrwt>
<pdfrwt beam="2">  1        2 0.72635319E-01 0.17759868E+03</pdfrwt>
<pdfrwt beam="1">  1       -2 0.34621678E-02 0.17759868E+03</pdfrwt>
<totfact> 0.21798386E+04</totfact>
</mgrwt>
</event>
<event>
 6    1  0.1045058E-005  0.1843019E+03  0.7546771E-02  0.1171275E+00
         -1   -1    0    0    0  501 -0.00000000000E+00  0.00000000000E+00  0.59825536509E+02  0.59825536509E+02  0.00000000000E+00 0.  1.
          1   -1    0    0  501    0  0.00000000000E+00 -0.00000000000E+00 -0.48101267835E+03  0.48101267835E+03  0.00000000000E+00 0. -1.
          5    1    1    2  502    0 -0.54215059951E+02 -0.11500499793E+03 -0.21734094643E+03  0.25184240959E+03  0.47000000000E+01 0. -1.
         -5    1    1    2    0  502  0.31288573098E+02 -0.18469200638E+02 -0.50355562903E+01  0.36980170441E+02  0.47000000000E+01 0. -1.
        -11    1    1    2    0    0  0.31912448234E+02  0.18930939631E+02 -0.71298486259E+02  0.80375736204E+02  0.00000000000E+00 0.  1.
         11    1    1    2    0    0 -0.89859613807E+01  0.11454325894E+03 -0.12751215286E+03  0.17163989862E+03  0.00000000000E+00 0. -1.
<mgrwt>
<rscale>  0 0.17645846E+03</rscale>
<asrwt>0</asrwt>
<pdfrwt beam="2">  1        1 0.74001949E-01 0.18430186E+03</pdfrwt>
<pdfrwt beam="1">  1       -1 0.92039289E-02 0.18430186E+03</pdfrwt>
<totfact> 0.32438685E+03</totfact>
</mgrwt>
</event>
<event>
 6    1  0.2655520E-005  0.2316242E+03  0.7546771E-02  0.1128477E+00
         -1   -1    0    0    0  501 -0.00000000000E+00  0.00000000000E+00  0.63609777476E+02  0.63609777476E+02  0.00000000000E+00 0.  1.
          1   -1    0    0  501    0  0.00000000000E+00 -0.00000000000E+00 -0.81917524535E+03  0.81917524535E+03  0.00000000000E+00 0. -1.
          5    1    1    2  502    0 -0.56679312886E+02  0.12178209714E+03 -0.43412418914E+03  0.45445497608E+03  0.47000000000E+01 0.  1.
         -5    1    1    2    0  502 -0.47537581078E+02  0.43029802494E+02 -0.47383785135E+02  0.79866755356E+02  0.47000000000E+01 0.  1.
        -11    1    1    2    0    0  0.27724941097E+02 -0.60488330217E+02 -0.31617017273E+02  0.73669167449E+02  0.00000000000E+00 0.  1.
         11    1    1    2    0    0  0.76491952868E+02 -0.10432356941E+03 -0.24244047632E+03  0.27479412393E+03  0.00000000000E+00 0. -1.
<mgrwt>
<rscale>  0 0.22740922E+03</rscale>
<asrwt>0</asrwt>
<pdfrwt beam="2">  1        1 0.12602696E+00 0.23162423E+03</pdfrwt>
<pdfrwt beam="1">  1       -1 0.97861198E-02 0.23162423E+03</pdfrwt>
<totfact> 0.13996594E+03</totfact>
</mgrwt>
</event>
<event>
 6    1  0.1045058E-005  0.1677357E+03  0.7546771E-02  0.1185882E+00
          2   -1    0    0  501    0  0.00000000000E+00  0.00000000000E+00  0.95990559507E+03  0.95990559507E+03  0.00000000000E+00 0.  1.
         -2   -1    0    0    0  501 -0.00000000000E+00 -0.00000000000E+00 -0.36453380948E+02  0.36453380948E+02  0.00000000000E+00 0. -1.
          5    1    1    2  502    0 -0.83207620981E+01  0.55610328109E+02  0.65734921740E+03  0.65976649452E+03  0.47000000000E+01 0. -1.
         -5    1    1    2    0  502  0.72654892089E+01  0.56229498914E+02  0.92344774636E+02  0.10846285670E+03  0.47000000000E+01 0. -1.
        -11    1    1    2    0    0  0.48672008150E+02 -0.62112060069E+02  0.96081898212E+02  0.12433263267E+03  0.00000000000E+00 0.  1.
         11    1    1    2    0    0 -0.47616735260E+02 -0.49727766954E+02  0.77676323873E+02  0.10379699212E+03  0.00000000000E+00 0. -1.
<mgrwt>
<rscale>  0 0.16251876E+03</rscale>
<asrwt>0</asrwt>
<pdfrwt beam="1">  1        2 0.14767776E+00 0.16773567E+03</pdfrwt>
<pdfrwt beam="2">  1       -2 0.56082132E-02 0.16773567E+03</pdfrwt>
<totfact> 0.44954341E+03</totfact>
</mgrwt>
</event>
<event>
 6    1  0.1045058E-005  0.2287021E+03  0.7546771E-02  0.1127557E+00
          3   -1    0    0  501    0  0.00000000000E+00  0.00000000000E+00  0.10013442656E+03  0.10013442656E+03  0.00000000000E+00 0. -1.
         -3   -1    0    0    0  501 -0.00000000000E+00 -0.00000000000E+00 -0.13058604090E+03  0.13058604090E+03  0.00000000000E+00 0.  1.
          5    1    1    2  502    0 -0.32308226615E+02 -0.43838789500E+02  0.43587028276E+02  0.69911229468E+02  0.47000000000E+01 0. -1.
         -5    1    1    2    0  502  0.12613781876E+02  0.11937769476E+02 -0.58783076973E+02  0.61474856419E+02  0.47000000000E+01 0. -1.
        -11    1    1    2    0    0 -0.27129500831E+01  0.30559857520E+02 -0.49589936612E+02  0.58313178640E+02  0.00000000000E+00 0.  1.
         11    1    1    2    0    0  0.22407394822E+02  0.13411625033E+01  0.34334370974E+02  0.41021202928E+02  0.00000000000E+00 0. -1.
<mgrwt>
<rscale>  0 0.22870206E+03</rscale>
<asrwt>0</asrwt>
<pdfrwt beam="1">  1        3 0.15405296E-01 0.22870206E+03</pdfrwt>
<pdfrwt beam="2">  1       -3 0.20090160E-01 0.22870206E+03</pdfrwt>
<totfact> 0.19646683E+03</totfact>
</mgrwt>
</event>
<event>
 6    1  0.1045058E-005  0.3863379E+03  0.7546771E-02  0.1048616E+00
         -2   -1    0    0    0  501 -0.00000000000E+00  0.00000000000E+00  0.55281524389E+02  0.55281524389E+02  0.00000000000E+00 0.  1.
          2   -1    0    0  501    0  0.00000000000E+00 -0.00000000000E+00 -0.67498595355E+03  0.67498595355E+03  0.00000000000E+00 0. -1.
          5    1    1    2  502    0 -0.61461109078E+02 -0.15626580448E+03 -0.35108074911E+03  0.38919950151E+03  0.47000000000E+01 0. -1.
         -5    1    1    2    0  502 -0.10914937112E+02  0.24691972966E+02 -0.56950297603E+02  0.63200124827E+02  0.47000000000E+01 0. -1.
        -11    1    1    2    0    0  0.50494236761E+02  0.46561871642E+01 -0.69523958856E+02  0.86051896435E+02  0.00000000000E+00 0. -1.
         11    1    1    2    0    0  0.21881809429E+02  0.12691764434E+03 -0.14214942359E+03  0.19181595517E+03  0.00000000000E+00 0.  1.
<mgrwt>
<rscale>  0 0.38633795E+03</rscale>
<asrwt>0</asrwt>
<pdfrwt beam="2">  1        2 0.10384400E+00 0.38633795E+03</pdfrwt>
<pdfrwt beam="1">  1       -2 0.85048497E-02 0.38633795E+03</pdfrwt>
<totfact> 0.37845137E+03</totfact>
</mgrwt>
</event>
<event>
 6    1  0.1045058E-005  0.1918119E+03  0.7546771E-02  0.1161553E+00
          1   -1    0    0  501    0  0.00000000000E+00  0.00000000000E+00  0.66859733140E+03  0.66859733140E+03  0.00000000000E+00 0. -1.
         -1   -1    0    0    0  501 -0.00000000000E+00 -0.00000000000E+00 -0.61162431718E+02  0.61162431718E+02  0.00000000000E+00 0.  1.
          5    1    1    2  502    0 -0.82619893288E+01 -0.81620419015E+02  0.25995717519E+03  0.27263524387E+03  0.47000000000E+01 0.  1.
         -5    1    1    2    0  502  0.10133457163E+03 -0.30213252861E+02  0.21673293114E+03  0.24119865152E+03  0.47000000000E+01 0.  1.
        -11    1    1    2    0    0 -0.28130633026E+02  0.77123910094E+02  0.11387666553E+03  0.14038278019E+03  0.00000000000E+00 0. -1.
         11    1    1    2    0    0 -0.64941949271E+02  0.34709761782E+02  0.16868127826E+02  0.75543087536E+02  0.00000000000E+00 0.  1.
<mgrwt>
<rscale>  0 0.18661185E+03</rscale>
<asrwt>0</asrwt>
<pdfrwt beam="1">  1        1 0.10286112E+00 0.19181193E+03</pdfrwt>
<pdfrwt beam="2">  1       -1 0.94096054E-02 0.19181193E+03</pdfrwt>
<totfact> 0.20059576E+03</totfact>
</mgrwt>
</event>
<event>
 6    1  0.1045058E-005  0.1741239E+03  0.7546771E-02  0.1182340E+00
         -2   -1    0    0    0  501 -0.00000000000E+00  0.00000000000E+00  0.57790113714E+02  0.57790113714E+02  0.00000000000E+00 0. -1.
          2   -1    0    0  501    0  0.00000000000E+00 -0.00000000000E+00 -0.49190828574E+03  0.49190828574E+03  0.00000000000E+00 0.  1.
          5    1    1    2  502    0  0.35640764188E+02  0.74010597529E+02 -0.29005008151E+03  0.30149456447E+03  0.47000000000E+01 0.  1.
         -5    1    1    2    0  502 -0.35099817683E+02  0.47208923720E+02 -0.38852835708E+02  0.70656298536E+02  0.47000000000E+01 0.  1.
        -11    1    1    2    0    0  0.29512152402E+02 -0.51750937682E+02 -0.75640800804E+02  0.96284253316E+02  0.00000000000E+00 0.  1.
         11    1    1    2    0    0 -0.30053098907E+02 -0.69468583567E+02 -0.29574454007E+02  0.81263283139E+02  0.00000000000E+00 0. -1.
<mgrwt>
<rscale>  0 0.16576320E+03</rscale>
<asrwt>0</asrwt>
<pdfrwt beam="2">  1        2 0.75678198E-01 0.17412391E+03</pdfrwt>
<pdfrwt beam="1">  1       -2 0.88907867E-02 0.17412391E+03</pdfrwt>
<totfact> 0.49541551E+03</totfact>
</mgrwt>
</event>
<event>
 6    1  0.1045058E-005  0.2133977E+03  0.7546771E-02  0.1171329E+00
         -2   -1    0    0    0  501 -0.00000000000E+00  0.00000000000E+00  0.12694038357E+03  0.12694038357E+03  0.00000000000E+00 0.  1.
          2   -1    0    0  501    0  0.00000000000E+00 -0.00000000000E+00 -0.23313642041E+03  0.23313642041E+03  0.00000000000E+00 0. -1.
          5    1    1    2  502    0  0.28504645106E+02 -0.61457957343E+02 -0.17589710616E+03  0.18855099382E+03  0.47000000000E+01 0. -1.
         -5    1    1    2    0  502 -0.51237729647E+02  0.21145178062E+02  0.36324105356E+02  0.66437595717E+02  0.47000000000E+01 0.  1.
        -11    1    1    2    0    0  0.54841043889E+02  0.38691409606E+02  0.26826371052E+02  0.72278762137E+02  0.00000000000E+00 0.  1.
         11    1    1    2    0    0 -0.32107959348E+02  0.16213696748E+01  0.65505929151E+01  0.32809452306E+02  0.00000000000E+00 0. -1.
<mgrwt>
<rscale>  0 0.17640391E+03</rscale>
<asrwt>0</asrwt>
<pdfrwt beam="2">  1        2 0.35867141E-01 0.21339765E+03</pdfrwt>
<pdfrwt beam="1">  1       -2 0.19529290E-01 0.21339765E+03</pdfrwt>
<totfact> 0.31094471E+03</totfact>
</mgrwt>
</event>
<event>
 6    1  0.1100061E-005  0.3677241E+03  0.7546771E-02  0.1055567E+00
          1   -1    0    0  501    0  0.00000000000E+00  0.00000000000E+00  0.69604460241E+03  0.69604460241E+03  0.00000000000E+00 0. -1.
         -1   -1    0    0    0  501 -0.00000000000E+00 -0.00000000000E+00 -0.48567667062E+02  0.48567667062E+02  0.00000000000E+00 0.  1.
          5    1    1    2  502    0  0.77975844461E+02  0.92097436936E+02  0.17588214227E+03  0.21335132571E+03  0.47000000000E+01 0.  1.
         -5    1    1    2    0  502  0.80168391602E+01  0.18191237834E+02  0.26483964643E+03  0.26562627725E+03  0.47000000000E+01 0.  1.
        -11    1    1    2    0    0 -0.12527631446E+02 -0.52829481722E+02  0.21825270179E+02  0.58516989901E+02  0.00000000000E+00 0.  1.
         11    1    1    2    0    0 -0.73465052175E+02 -0.57459193048E+02  0.18492987646E+03  0.20711767661E+03  0.00000000000E+00 0. -1.
<mgrwt>
<rscale>  0 0.36772415E+03</rscale>
<asrwt>0</asrwt>
<pdfrwt beam="1">  1        1 0.10708378E+00 0.36772415E+03</pdfrwt>
<pdfrwt beam="2">  1       -1 0.74719493E-02 0.36772415E+03</pdfrwt>
<totfact> 0.27268893E+03</totfact>
</mgrwt>
</event>
<event>
 6    1  0.1045058E-005  0.1629296E+03  0.7546771E-02  0.1193297E+00
          1   -1    0    0  501    0  0.00000000000E+00  0.00000000000E+00  0.19379007692E+03  0.19379007692E+03  0.00000000000E+00 0. -1.
         -1   -1    0    0    0  501 -0.00000000000E+00 -0.00000000000E+00 -0.14690327261E+03  0.14690327261E+03  0.00000000000E+00 0.  1.
          5    1    1    2  502    0  0.13097069708E+02 -0.91204199439E+02  0.48390296540E+02  0.10417989264E+03  0.47000000000E+01 0.  1.
         -5    1    1    2    0  502  0.65771335488E+02  0.22714133004E+02  0.54588927025E+02  0.88565463719E+02  0.47000000000E+01 0.  1.
        -11    1    1    2    0    0 -0.64307990810E+02  0.89121760911E+02 -0.35901789306E+02  0.11561636746E+03  0.00000000000E+00 0. -1.
         11    1    1    2    0    0 -0.14560414386E+02 -0.20631694476E+02 -0.20190629946E+02  0.32331625719E+02  0.00000000000E+00 0.  1.
<mgrwt>
<rscale>  0 0.15599213E+03</rscale>
<asrwt>0</asrwt>
<pdfrwt beam="1">  1        1 0.29813858E-01 0.16292959E+03</pdfrwt>
<pdfrwt beam="2">  1       -1 0.22600503E-01 0.16292959E+03</pdfrwt>
<totfact> 0.24626541E+03</totfact>
</mgrwt>
</event>
<event>
 6    1  0.1045058E-005  0.1686828E+03  0.7546771E-02  0.1186229E+00
          1   -1    0    0  501    0  0.00000000000E+00  0.00000000000E+00  0.21695197974E+03  0.21695197974E+03  0.00000000000E+00 0. -1.
         -1   -1    0    0    0  501 -0.00000000000E+00 -0.00000000000E+00 -0.12532773357E+03  0.12532773357E+03  0.00000000000E+00 0.  1.
          5    1    1    2  502    0 -0.89950382440E+01 -0.64132576860E+02  0.56885218503E+02  0.86324482112E+02  0.47000000000E+01 0. -1.
         -5    1    1    2    0  502 -0.97744490657E+02  0.26222271575E+02  0.46046092443E+02  0.11128308771E+03  0.47000000000E+01 0. -1.
        -11    1    1    2    0    0  0.95751535302E+02 -0.81249483098E+01 -0.14739246530E+02  0.97219425456E+02  0.00000000000E+00 0.  1.
         11    1    1    2    0    0  0.10987993600E+02  0.46035253595E+02  0.34321817555E+01  0.47452718030E+02  0.00000000000E+00 0. -1.
<mgrwt>
<rscale>  0 0.16220594E+03</rscale>
<asrwt>0</asrwt>
<pdfrwt beam="1">  1        1 0.33377228E-01 0.16868283E+03</pdfrwt>
<pdfrwt beam="2">  1       -1 0.19281190E-01 0.16868283E+03</pdfrwt>
<totfact> 0.27702661E+03</totfact>
</mgrwt>
</event>
<event>
 6    1  0.1045058E-005  0.1415289E+03  0.7546771E-02  0.1222072E+00
          2   -1    0    0  501    0  0.00000000000E+00  0.00000000000E+00  0.22506301252E+03  0.22506301252E+03  0.00000000000E+00 0. -1.
         -2   -1    0    0    0  501 -0.00000000000E+00 -0.00000000000E+00 -0.72239150323E+02  0.72239150323E+02  0.00000000000E+00 0.  1.
          5    1    1    2  502    0  0.18169315333E+02 -0.34118432875E+02  0.14020167425E+02  0.41386550667E+02  0.47000000000E+01 0. -1.
         -5    1    1    2    0  502 -0.77874305732E+02  0.63132026298E+02  0.82569149670E+02  0.12996081992E+03  0.47000000000E+01 0. -1.
        -11    1    1    2    0    0  0.40017979323E+02 -0.84022937735E+01 -0.19303675336E+02  0.45218017330E+02  0.00000000000E+00 0.  1.
         11    1    1    2    0    0  0.19687011076E+02 -0.20611299650E+02  0.75538220438E+02  0.80736774925E+02  0.00000000000E+00 0. -1.
<mgrwt>
<rscale>  0 0.13369620E+03</rscale>
<asrwt>0</asrwt>
<pdfrwt beam="1">  1        2 0.34625079E-01 0.14152888E+03</pdfrwt>
<pdfrwt beam="2">  1       -2 0.11113716E-01 0.14152888E+03</pdfrwt>
<totfact> 0.79682241E+03</totfact>
</mgrwt>
</event>
<event>
 6    1  0.1045058E-005  0.1690512E+03  0.7546771E-02  0.1204784E+00
          1   -1    0    0  501    0  0.00000000000E+00  0.00000000000E+00  0.31709187991E+03  0.31709187991E+03  0.00000000000E+00 0. -1.
         -1   -1    0    0    0  501 -0.00000000000E+00 -0.00000000000E+00 -0.11374447607E+03  0.11374447607E+03  0.00000000000E+00 0.  1.
          5    1    1    2  502    0  0.55565994618E+02  0.94883986433E+01  0.21566215179E+03  0.22295708820E+03  0.47000000000E+01 0. -1.
         -5    1    1    2    0  502 -0.77105235841E+02  0.77848201210E+01  0.51395989333E+02  0.93109927172E+02  0.47000000000E+01 0.  1.
        -11    1    1    2    0    0 -0.26216651814E+02  0.78992573591E+01  0.45345908365E+01  0.27753803581E+02  0.00000000000E+00 0.  1.
         11    1    1    2    0    0  0.47755893038E+02 -0.25172476123E+02 -0.68245328118E+02  0.87015537027E+02  0.00000000000E+00 0. -1.
<mgrwt>
<rscale>  0 0.14654501E+03</rscale>
<asrwt>0</asrwt>
<pdfrwt beam="1">  1        1 0.48783366E-01 0.16905120E+03</pdfrwt>
<pdfrwt beam="2">  1       -1 0.17499150E-01 0.16905120E+03</pdfrwt>
<totfact> 0.20170445E+03</totfact>
</mgrwt>
</event>
<event>
 6    1  0.1045058E-005  0.2007351E+03  0.7546771E-02  0.1156538E+00
         -1   -1    0    0    0  501 -0.00000000000E+00  0.00000000000E+00  0.49311532249E+02  0.49311532249E+02  0.00000000000E+00 0.  1.
          1   -1    0    0  501    0  0.00000000000E+00 -0.00000000000E+00 -0.89181160693E+03  0.89181160693E+03  0.00000000000E+00 0. -1.
          5    1    1    2  502    0 -0.19022539685E+02 -0.15001520757E+02 -0.64334626243E+02  0.68905273927E+02  0.47000000000E+01 0. -1.
         -5    1    1    2    0  502  0.39122745883E+02  0.17077418836E+03 -0.60786520406E+03  0.63262675328E+03  0.47000000000E+01 0. -1.
        -11    1    1    2    0    0  0.52857885022E+01 -0.45068794375E+02 -0.16253075861E+02  0.48200604368E+02  0.00000000000E+00 0.  1.
         11    1    1    2    0    0 -0.25385994700E+02 -0.11070387323E+03 -0.15404716851E+03  0.19139050760E+03  0.00000000000E+00 0. -1.
<mgrwt>
<rscale>  0 0.19214786E+03</rscale>
<asrwt>0</asrwt>
<pdfrwt beam="2">  1        1 0.13720178E+00 0.20073508E+03</pdfrwt>
<pdfrwt beam="1">  1       -1 0.75863898E-02 0.20073508E+03</pdfrwt>
<totfact> 0.18056737E+03</totfact>
</mgrwt>
</event>
<event>
 6    1  0.1045058E-005  0.2859133E+03  0.7546771E-02  0.1092502E+00
         -2   -1    0    0    0  501 -0.00000000000E+00  0.00000000000E+00  0.62690129823E+02  0.62690129823E+02  0.00000000000E+00 0.  1.
          2   -1    0    0  501    0  0.00000000000E+00 -0.00000000000E+00 -0.32599406113E+03  0.32599406113E+03  0.00000000000E+00 0. -1.
          5    1    1    2  502    0  0.14325965142E+02 -0.79517149207E+00 -0.12446591182E+03  0.12537830266E+03  0.47000000000E+01 0. -1.
         -5    1    1    2    0  502 -0.48875373407E+02 -0.19267947648E+02  0.38178275263E+01  0.52884040496E+02  0.47000000000E+01 0. -1.
        -11    1    1    2    0    0  0.22291671900E+02  0.57317652766E+02  0.10006312106E+01  0.61507993119E+02  0.00000000000E+00 0.  1.
         11    1    1    2    0    0  0.12257736365E+02 -0.37254533627E+02 -0.14365647823E+03  0.14891385468E+03  0.00000000000E+00 0. -1.
<mgrwt>
<rscale>  0 0.28591334E+03</rscale>
<asrwt>0</asrwt>
<pdfrwt beam="2">  1        2 0.50152933E-01 0.28591334E+03</pdfrwt>
<pdfrwt beam="1">  1       -2 0.96446353E-02 0.28591334E+03</pdfrwt>
<totfact> 0.69864521E+03</totfact>
</mgrwt>
</event>
<event>
 6    1  0.1045058E-005  0.1293538E+03  0.7546771E-02  0.1242521E+00
         -2   -1    0    0    0  501 -0.00000000000E+00  0.00000000000E+00  0.63843745354E+02  0.63843745354E+02  0.00000000000E+00 0. -1.
          2   -1    0    0  501    0  0.00000000000E+00 -0.00000000000E+00 -0.22403052956E+03  0.22403052956E+03  0.00000000000E+00 0.  1.
          5    1    1    2  502    0  0.38669719804E+02 -0.16790412048E+02 -0.89956907462E+02  0.99456525007E+02  0.47000000000E+01 0.  1.
         -5    1    1    2    0  502 -0.70667958432E+02  0.25889821822E+02 -0.46625261757E+02  0.88658041129E+02  0.47000000000E+01 0.  1.
        -11    1    1    2    0    0 -0.14965348577E+02 -0.24631658943E+02 -0.38506699889E+02  0.48098297440E+02  0.00000000000E+00 0.  1.
         11    1    1    2    0    0  0.46963587205E+02  0.15532249168E+02  0.14902084899E+02  0.51661411341E+02  0.00000000000E+00 0. -1.
<mgrwt>
<rscale>  0 0.12034981E+03</rscale>
<asrwt>0</asrwt>
<pdfrwt beam="2">  1        2 0.34466235E-01 0.12935378E+03</pdfrwt>
<pdfrwt beam="1">  1       -2 0.98221146E-02 0.12935378E+03</pdfrwt>
<totfact> 0.96660359E+03</totfact>
</mgrwt>
</event>
<event>
 6    1  0.1045058E-005  0.1665073E+03  0.7546771E-02  0.1207338E+00
         -2   -1    0    0    0  501 -0.00000000000E+00  0.00000000000E+00  0.95138684071E+02  0.95138684071E+02  0.00000000000E+00 0.  1.
          2   -1    0    0  501    0  0.00000000000E+00 -0.00000000000E+00 -0.26803519718E+03  0.26803519718E+03  0.00000000000E+00 0. -1.
          5    1    1    2  502    0 -0.36982791703E+02 -0.13388728924E+02 -0.21410387215E+03  0.21773732572E+03  0.47000000000E+01 0. -1.
         -5    1    1    2    0  502  0.21077887379E+02  0.39175454932E+02  0.98302805092E+01  0.45800851743E+02  0.47000000000E+01 0.  1.
        -11    1    1    2    0    0 -0.62321314380E+01  0.11892916525E+02 -0.24956171361E+02  0.28338867562E+02  0.00000000000E+00 0. -1.
         11    1    1    2    0    0  0.22137035762E+02 -0.37679642533E+02  0.56333249884E+02  0.71296836229E+02  0.00000000000E+00 0.  1.
<mgrwt>
<rscale>  0 0.14454691E+03</rscale>
<asrwt>0</asrwt>
<pdfrwt beam="2">  1        2 0.41236184E-01 0.16650727E+03</pdfrwt>
<pdfrwt beam="1">  1       -2 0.14636721E-01 0.16650727E+03</pdfrwt>
<totfact> 0.42823601E+03</totfact>
</mgrwt>
</event>
<event>
 6    1  0.1045058E-005  0.1322695E+03  0.7546771E-02  0.1236428E+00
         -2   -1    0    0    0  501 -0.00000000000E+00  0.00000000000E+00  0.52414311033E+02  0.52414311033E+02  0.00000000000E+00 0. -1.
          2   -1    0    0  501    0  0.00000000000E+00 -0.00000000000E+00 -0.26576195132E+03  0.26576195132E+03  0.00000000000E+00 0.  1.
          5    1    1    2  502    0 -0.74425076649E+02  0.18693513779E+02 -0.10523375141E+03  0.13032563803E+03  0.47000000000E+01 0.  1.
         -5    1    1    2    0  502  0.37616314752E+02  0.40171954095E+01  0.91331316473E+00  0.38131996216E+02  0.47000000000E+01 0.  1.
        -11    1    1    2    0    0 -0.19208292438E+02 -0.36333613606E+02 -0.25974878202E+02  0.48618764625E+02  0.00000000000E+00 0. -1.
         11    1    1    2    0    0  0.56017054335E+02  0.13622904417E+02 -0.83052323842E+02  0.10109986348E+03  0.00000000000E+00 0.  1.
<mgrwt>
<rscale>  0 0.12413431E+03</rscale>
<asrwt>0</asrwt>
<pdfrwt beam="2">  1        2 0.40886454E-01 0.13226950E+03</pdfrwt>
<pdfrwt beam="1">  1       -2 0.80637402E-02 0.13226950E+03</pdfrwt>
<totfact> 0.10969929E+04</totfact>
</mgrwt>
</event>
<event>
 6    1  0.1045058E-005  0.1277685E+03  0.7546771E-02  0.1246817E+00
         -1   -1    0    0    0  501 -0.00000000000E+00  0.00000000000E+00  0.29326244296E+03  0.29326244296E+03  0.00000000000E+00 0.  1.
          1   -1    0    0  501    0  0.00000000000E+00 -0.00000000000E+00 -0.52527194263E+02  0.52527194263E+02  0.00000000000E+00 0. -1.
          5    1    1    2  502    0  0.17509124986E+02 -0.56730290303E+02  0.98346002644E+01  0.60363106763E+02  0.47000000000E+01 0. -1.
         -5    1    1    2    0  502  0.80715369926E+01  0.63506286632E+02  0.46560275223E+02  0.79297839693E+02  0.47000000000E+01 0. -1.
        -11    1    1    2    0    0 -0.17364420558E+02 -0.33928208742E+02  0.28147741303E+02  0.47380816690E+02  0.00000000000E+00 0.  1.
         11    1    1    2    0    0 -0.82162414207E+01  0.27152212413E+02  0.15619263191E+03  0.15874787408E+03  0.00000000000E+00 0. -1.
<mgrwt>
<rscale>  0 0.11777259E+03</rscale>
<asrwt>0</asrwt>
<pdfrwt beam="2">  1        1 0.80811070E-02 0.12776853E+03</pdfrwt>
<pdfrwt beam="1">  1       -1 0.45117298E-01 0.12776853E+03</pdfrwt>
<totfact> 0.40641507E+03</totfact>
</mgrwt>
</event>
<event>
 6    1  0.1045058E-005  0.1280549E+03  0.7546771E-02  0.1242434E+00
          2   -1    0    0  501    0  0.00000000000E+00  0.00000000000E+00  0.10725567034E+03  0.10725567034E+03  0.00000000000E+00 0. -1.
         -2   -1    0    0    0  501 -0.00000000000E+00 -0.00000000000E+00 -0.13143210100E+03  0.13143210100E+03  0.00000000000E+00 0.  1.
          5    1    1    2  502    0  0.46520711849E+02  0.47976255682E+02  0.27768262865E+02  0.72519405422E+02  0.47000000000E+01 0. -1.
         -5    1    1    2    0  502 -0.19115639189E+02 -0.52839370064E+02 -0.83415565110E+01  0.57000686447E+02  0.47000000000E+01 0. -1.
        -11    1    1    2    0    0 -0.60909014346E+01  0.29754146249E+02 -0.63809676848E+02  0.70668827348E+02  0.00000000000E+00 0.  1.
         11    1    1    2    0    0 -0.21314171225E+02 -0.24891031867E+02  0.20206539835E+02  0.38498852120E+02  0.00000000000E+00 0. -1.
<mgrwt>
<rscale>  0 0.12040259E+03</rscale>
<asrwt>0</asrwt>
<pdfrwt beam="1">  1        2 0.16500872E-01 0.12805490E+03</pdfrwt>
<pdfrwt beam="2">  1       -2 0.20220323E-01 0.12805490E+03</pdfrwt>
<totfact> 0.67668464E+03</totfact>
</mgrwt>
</event>
<event>
 6    1  0.1045058E-005  0.1275938E+03  0.7546771E-02  0.1246227E+00
          2   -1    0    0  501    0  0.00000000000E+00  0.00000000000E+00  0.15839765981E+03  0.15839765981E+03  0.00000000000E+00 0. -1.
         -2   -1    0    0    0  501 -0.00000000000E+00 -0.00000000000E+00 -0.80373859188E+02  0.80373859188E+02  0.00000000000E+00 0.  1.
          5    1    1    2  502    0  0.53490595055E+02  0.46439221449E+02  0.62944932013E+02  0.94878867585E+02  0.47000000000E+01 0.  1.
         -5    1    1    2    0  502 -0.28783597523E+02 -0.39843130304E+02  0.48681512691E+01  0.49616120521E+02  0.47000000000E+01 0.  1.
        -11    1    1    2    0    0 -0.43989645356E+02  0.11804954626E+02  0.35336902649E+02  0.57646704512E+02  0.00000000000E+00 0. -1.
         11    1    1    2    0    0  0.19282647824E+02 -0.18401045772E+02 -0.25126185308E+02  0.36629826381E+02  0.00000000000E+00 0.  1.
<mgrwt>
<rscale>  0 0.11812250E+03</rscale>
<asrwt>0</asrwt>
<pdfrwt beam="1">  1        2 0.24368871E-01 0.12759384E+03</pdfrwt>
<pdfrwt beam="2">  1       -2 0.12365209E-01 0.12759384E+03</pdfrwt>
<totfact> 0.97718208E+03</totfact>
</mgrwt>
</event>
<event>
 6    1  0.1045058E-005  0.1922251E+03  0.7546771E-02  0.1161225E+00
          1   -1    0    0  501    0  0.00000000000E+00  0.00000000000E+00  0.18450951655E+03  0.18450951655E+03  0.00000000000E+00 0. -1.
         -1   -1    0    0    0  501 -0.00000000000E+00 -0.00000000000E+00 -0.18374111392E+03  0.18374111392E+03  0.00000000000E+00 0.  1.
          5    1    1    2  502    0  0.58496501401E+02 -0.42432235777E+02  0.75659546491E+02  0.10473200220E+03  0.47000000000E+01 0. -1.
         -5    1    1    2    0  502  0.70428704462E+02 -0.26144776829E+02 -0.48292307704E+02  0.89431475170E+02  0.47000000000E+01 0. -1.
        -11    1    1    2    0    0 -0.12516697824E+03  0.31900105548E+02 -0.39425128920E+02  0.13505084215E+03  0.00000000000E+00 0.  1.
         11    1    1    2    0    0 -0.37582276216E+01  0.36676907058E+02  0.12826292764E+02  0.39036310946E+02  0.00000000000E+00 0. -1.
<mgrwt>
<rscale>  0 0.18696784E+03</rscale>
<asrwt>0</asrwt>
<pdfrwt beam="1">  1        1 0.28386079E-01 0.19222510E+03</pdfrwt>
<pdfrwt beam="2">  1       -1 0.28267864E-01 0.19222510E+03</pdfrwt>
<totfact> 0.18182742E+03</totfact>
</mgrwt>
</event>
<event>
 6    1  0.1045058E-005  0.1531270E+03  0.7546771E-02  0.1203037E+00
          2   -1    0    0  501    0  0.00000000000E+00  0.00000000000E+00  0.90986596376E+03  0.90986596376E+03  0.00000000000E+00 0. -1.
         -2   -1    0    0    0  501 -0.00000000000E+00 -0.00000000000E+00 -0.24129556284E+02  0.24129556284E+02  0.00000000000E+00 0.  1.
          5    1    1    2  502    0 -0.26423742319E+02  0.63538494996E+02  0.19796125225E+03  0.20963325570E+03  0.47000000000E+01 0. -1.
         -5    1    1    2    0  502  0.76585277299E+02  0.18576889714E+02  0.39247743145E+03  0.40033864381E+03  0.47000000000E+01 0.  1.
        -11    1    1    2    0    0 -0.19344621701E+02  0.12444258812E+02  0.17329486695E+02  0.28799046430E+02  0.00000000000E+00 0.  1.
         11    1    1    2    0    0 -0.30816913279E+02 -0.94559643522E+02  0.27796823708E+03  0.29522457410E+03  0.00000000000E+00 0. -1.
<mgrwt>
<rscale>  0 0.14793214E+03</rscale>
<asrwt>0</asrwt>
<pdfrwt beam="1">  1        2 0.13997935E+00 0.15312700E+03</pdfrwt>
<pdfrwt beam="2">  1       -2 0.37122401E-02 0.15312700E+03</pdfrwt>
<totfact> 0.89391438E+03</totfact>
</mgrwt>
</event>
<event>
 6    1  0.1045058E-005  0.2905606E+03  0.7546771E-02  0.1093304E+00
          2   -1    0    0  501    0  0.00000000000E+00  0.00000000000E+00  0.73879075775E+03  0.73879075775E+03  0.00000000000E+00 0. -1.
         -2   -1    0    0    0  501 -0.00000000000E+00 -0.00000000000E+00 -0.10509683620E+03  0.10509683620E+03  0.00000000000E+00 0.  1.
          5    1    1    2  502    0 -0.14092275331E+03  0.22564186367E+03  0.32706650836E+03  0.42162550200E+03  0.47000000000E+01 0. -1.
         -5    1    1    2    0  502  0.14433198310E+02 -0.87887264784E+01  0.24673068761E+01  0.17712609344E+02  0.47000000000E+01 0.  1.
        -11    1    1    2    0    0  0.70602120541E+02 -0.18863816508E+03  0.25498122517E+03  0.32493759699E+03  0.00000000000E+00 0.  1.
         11    1    1    2    0    0  0.55887434457E+02 -0.28214972108E+02  0.49178881137E+02  0.79611885614E+02  0.00000000000E+00 0. -1.
<mgrwt>
<rscale>  0 0.28441141E+03</rscale>
<asrwt>0</asrwt>
<pdfrwt beam="1">  1        2 0.11366011E+00 0.29056056E+03</pdfrwt>
<pdfrwt beam="2">  1       -2 0.16168745E-01 0.29056056E+03</pdfrwt>
<totfact> 0.11860035E+03</totfact>
</mgrwt>
</event>
<event>
 6    1  0.1045058E-005  0.2734570E+03  0.7546771E-02  0.1099317E+00
         -1   -1    0    0    0  501 -0.00000000000E+00  0.00000000000E+00  0.17233064564E+03  0.17233064564E+03  0.00000000000E+00 0.  1.
          1   -1    0    0  501    0  0.00000000000E+00 -0.00000000000E+00 -0.10848145176E+03  0.10848145176E+03  0.00000000000E+00 0. -1.
          5    1    1    2  502    0 -0.95618054996E+02  0.39708779085E+02  0.19301927661E+02  0.10542416226E+03  0.47000000000E+01 0. -1.
         -5    1    1    2    0  502  0.28765380546E+02 -0.10823702915E+02 -0.24130816094E+02  0.39357158791E+02  0.47000000000E+01 0. -1.
        -11    1    1    2    0    0  0.72670122772E+02  0.14082082039E+02  0.45013493047E+02  0.86634094527E+02  0.00000000000E+00 0.  1.
         11    1    1    2    0    0 -0.58174483220E+01 -0.42967158209E+02  0.23664589260E+02  0.49396681815E+02  0.00000000000E+00 0. -1.
<mgrwt>
<rscale>  0 0.27345697E+03</rscale>
<asrwt>0</asrwt>
<pdfrwt beam="2">  1        1 0.16689454E-01 0.27345697E+03</pdfrwt>
<pdfrwt beam="1">  1       -1 0.26512407E-01 0.27345697E+03</pdfrwt>
<totfact> 0.40568801E+03</totfact>
</mgrwt>
</event>
<event>
 6    1  0.1045058E-005  0.1665615E+03  0.7546771E-02  0.1188274E+00
         -1   -1    0    0    0  501 -0.00000000000E+00  0.00000000000E+00  0.73270639772E+02  0.73270639772E+02  0.00000000000E+00 0.  1.
          1   -1    0    0  501    0  0.00000000000E+00 -0.00000000000E+00 -0.35525919855E+03  0.35525919855E+03  0.00000000000E+00 0. -1.
          5    1    1    2  502    0 -0.21898266284E+02  0.67206994468E+02 -0.21665172816E+03  0.22793941188E+03  0.47000000000E+01 0. -1.
         -5    1    1    2    0  502 -0.20170438665E+02  0.34524284480E+02  0.58945906616E+01  0.40689175635E+02  0.47000000000E+01 0. -1.
        -11    1    1    2    0    0 -0.24800468981E+02 -0.58381877638E+02 -0.33373846907E+02  0.71675104155E+02  0.00000000000E+00 0.  1.
         11    1    1    2    0    0  0.66869173930E+02 -0.43349401309E+02 -0.37857574368E+02  0.88226146652E+02  0.00000000000E+00 0. -1.
<mgrwt>
<rscale>  0 0.16037464E+03</rscale>
<asrwt>0</asrwt>
<pdfrwt beam="2">  1        1 0.54655262E-01 0.16656154E+03</pdfrwt>
<pdfrwt beam="1">  1       -1 0.11272406E-01 0.16656154E+03</pdfrwt>
<totfact> 0.34852322E+03</totfact>
</mgrwt>
</event>
<event>
 6    1  0.1045058E-005  0.3750640E+03  0.7546771E-02  0.1052773E+00
          2   -1    0    0  501    0  0.00000000000E+00  0.00000000000E+00  0.84767113471E+03  0.84767113471E+03  0.00000000000E+00 0. -1.
         -2   -1    0    0    0  501 -0.00000000000E+00 -0.00000000000E+00 -0.41488082206E+02  0.41488082206E+02  0.00000000000E+00 0.  1.
          5    1    1    2  502    0  0.47333931462E+01  0.30863277610E+02  0.13159709772E+03  0.13533230599E+03  0.47000000000E+01 0.  1.
         -5    1    1    2    0  502 -0.12401785192E+03 -0.79183251291E+02  0.48914893628E+03  0.51082206955E+03  0.47000000000E+01 0.  1.
        -11    1    1    2    0    0  0.50507421073E+02  0.67902078252E+02  0.11344700737E+03  0.14153414887E+03  0.00000000000E+00 0.  1.
         11    1    1    2    0    0  0.68777037704E+02 -0.19582104570E+02  0.71990011138E+02  0.10147069251E+03  0.00000000000E+00 0. -1.
<mgrwt>
<rscale>  0 0.37506399E+03</rscale>
<asrwt>0</asrwt>
<pdfrwt beam="1">  1        2 0.13041093E+00 0.37506399E+03</pdfrwt>
<pdfrwt beam="2">  1       -2 0.63827825E-02 0.37506399E+03</pdfrwt>
<totfact> 0.44472179E+03</totfact>
</mgrwt>
</event>
<event>
 6    1  0.1045058E-005  0.1637317E+03  0.7546771E-02  0.1192505E+00
          2   -1    0    0  501    0  0.00000000000E+00  0.00000000000E+00  0.29243767663E+03  0.29243767663E+03  0.00000000000E+00 0. -1.
         -2   -1    0    0    0  501 -0.00000000000E+00 -0.00000000000E+00 -0.77459679261E+02  0.77459679261E+02  0.00000000000E+00 0.  1.
          5    1    1    2  502    0  0.35996728753E+02 -0.19101267012E+02 -0.91913438829E+01  0.42038002863E+02  0.47000000000E+01 0.  1.
         -5    1    1    2    0  502  0.45947162709E+02  0.85949677050E+02  0.12470105116E+03  0.15833802735E+03  0.47000000000E+01 0.  1.
        -11    1    1    2    0    0 -0.35317813246E+02 -0.26523133940E+02  0.98409826400E+02  0.10786713354E+03  0.00000000000E+00 0. -1.
         11    1    1    2    0    0 -0.46626078216E+02 -0.40325276098E+02  0.10584636953E+01  0.61654192134E+02  0.00000000000E+00 0.  1.
<mgrwt>
<rscale>  0 0.15667324E+03</rscale>
<asrwt>0</asrwt>
<pdfrwt beam="1">  1        2 0.44990411E-01 0.16373167E+03</pdfrwt>
<pdfrwt beam="2">  1       -2 0.11916874E-01 0.16373167E+03</pdfrwt>
<totfact> 0.54392199E+03</totfact>
</mgrwt>
</event>
<event>
 6    1  0.1045058E-005  0.1287408E+03  0.7546771E-02  0.1242988E+00
          1   -1    0    0  501    0  0.00000000000E+00  0.00000000000E+00  0.92112428749E+02  0.92112428749E+02  0.00000000000E+00 0. -1.
         -1   -1    0    0    0  501 -0.00000000000E+00 -0.00000000000E+00 -0.13904446301E+03  0.13904446301E+03  0.00000000000E+00 0.  1.
          5    1    1    2  502    0 -0.51616997333E+02 -0.14974892535E+02  0.24901212257E+02  0.59419880444E+02  0.47000000000E+01 0.  1.
         -5    1    1    2    0  502  0.29042824814E+02  0.35917982559E+02 -0.56523502760E+02  0.73147682865E+02  0.47000000000E+01 0.  1.
        -11    1    1    2    0    0 -0.28456555805E+02 -0.64735106908E+01  0.19541454423E+02  0.35121935452E+02  0.00000000000E+00 0. -1.
         11    1    1    2    0    0  0.51030728324E+02 -0.14469579333E+02 -0.34851198184E+02  0.63467393000E+02  0.00000000000E+00 0.  1.
<mgrwt>
<rscale>  0 0.12006584E+03</rscale>
<asrwt>0</asrwt>
<pdfrwt beam="1">  1        1 0.14171143E-01 0.12874078E+03</pdfrwt>
<pdfrwt beam="2">  1       -1 0.21391456E-01 0.12874078E+03</pdfrwt>
<totfact> 0.68456453E+03</totfact>
</mgrwt>
</event>
<event>
 6    1  0.1045058E-005  0.1887959E+03  0.7546771E-02  0.1163621E+00
         -1   -1    0    0    0  501 -0.00000000000E+00  0.00000000000E+00  0.48837269455E+02  0.48837269455E+02  0.00000000000E+00 0.  1.
          1   -1    0    0  501    0  0.00000000000E+00 -0.00000000000E+00 -0.66994268403E+03  0.66994268403E+03  0.00000000000E+00 0. -1.
          5    1    1    2  502    0  0.84544631875E+01  0.21661706835E+02 -0.54463151619E+02  0.59405659453E+02  0.47000000000E+01 0. -1.
         -5    1    1    2    0  502 -0.41577070202E+02 -0.15921602598E+03 -0.29972398296E+03  0.34195752903E+03  0.47000000000E+01 0. -1.
        -11    1    1    2    0    0  0.57291376655E+02  0.12979126662E+03 -0.24816326699E+03  0.28585500138E+03  0.00000000000E+00 0. -1.
         11    1    1    2    0    0 -0.24168769641E+02  0.77630525206E+01 -0.18755013002E+02  0.31561763625E+02  0.00000000000E+00 0.  1.
<mgrwt>
<rscale>  0 0.18438981E+03</rscale>
<asrwt>0</asrwt>
<pdfrwt beam="2">  1        1 0.10306810E+00 0.18879588E+03</pdfrwt>
<pdfrwt beam="1">  1       -1 0.75134262E-02 0.18879588E+03</pdfrwt>
<totfact> 0.28181801E+03</totfact>
</mgrwt>
</event>
<event>
 6    1  0.1045058E-005  0.1645116E+03  0.7546771E-02  0.1190829E+00
         -2   -1    0    0    0  501 -0.00000000000E+00  0.00000000000E+00  0.62113361170E+02  0.62113361170E+02  0.00000000000E+00 0.  1.
          2   -1    0    0  501    0  0.00000000000E+00 -0.00000000000E+00 -0.41374172319E+03  0.41374172319E+03  0.00000000000E+00 0. -1.
          5    1    1    2  502    0 -0.27778256275E+02  0.69033767763E+02 -0.17811469914E+03  0.19309124440E+03  0.47000000000E+01 0.  1.
         -5    1    1    2    0  502  0.75813896938E+02  0.26541468055E+02 -0.83574864579E+02  0.11601312204E+03  0.47000000000E+01 0.  1.
        -11    1    1    2    0    0 -0.52673717039E+02 -0.28827186668E+02 -0.78562118942E+02  0.98881412260E+02  0.00000000000E+00 0. -1.
         11    1    1    2    0    0  0.46380763763E+01 -0.66748049150E+02 -0.11376679356E+02  0.67869305661E+02  0.00000000000E+00 0.  1.
<mgrwt>
<rscale>  0 0.15812556E+03</rscale>
<asrwt>0</asrwt>
<pdfrwt beam="2">  1        2 0.63652572E-01 0.16451165E+03</pdfrwt>
<pdfrwt beam="1">  1       -2 0.95559018E-02 0.16451165E+03</pdfrwt>
<totfact> 0.53286995E+03</totfact>
</mgrwt>
</event>
<event>
 6    1  0.1045058E-005  0.3250368E+03  0.7546771E-02  0.1074677E+00
          2   -1    0    0  501    0  0.00000000000E+00  0.00000000000E+00  0.16458518212E+04  0.16458518212E+04  0.00000000000E+00 0. -1.
         -2   -1    0    0    0  501 -0.00000000000E+00 -0.00000000000E+00 -0.11524964183E+03  0.11524964183E+03  0.00000000000E+00 0.  1.
          5    1    1    2  502    0  0.69370007101E+02 -0.12873013880E+03  0.40254705957E+03  0.42831048515E+03  0.47000000000E+01 0.  1.
         -5    1    1    2    0  502  0.56668865744E+02 -0.14355495294E+03  0.96899982923E+03  0.98122481823E+03  0.47000000000E+01 0.  1.
        -11    1    1    2    0    0 -0.69209553703E+02  0.23057470719E+03  0.10455746219E+03  0.26246317993E+03  0.00000000000E+00 0. -1.
         11    1    1    2    0    0 -0.56829319142E+02  0.41710384545E+02  0.54497828336E+02  0.89102979672E+02  0.00000000000E+00 0.  1.
<mgrwt>
<rscale>  0 0.32212072E+03</rscale>
<asrwt>0</asrwt>
<pdfrwt beam="1">  1        2 0.25320796E+00 0.32503677E+03</pdfrwt>
<pdfrwt beam="2">  1       -2 0.17730715E-01 0.32503677E+03</pdfrwt>
<totfact> 0.29379645E+02</totfact>
</mgrwt>
</event>
<event>
 6    1  0.1045058E-005  0.1668761E+03  0.7546771E-02  0.1208151E+00
         -1   -1    0    0    0  501 -0.00000000000E+00  0.00000000000E+00  0.72047300436E+02  0.72047300436E+02  0.00000000000E+00 0.  1.
          1   -1    0    0  501    0  0.00000000000E+00 -0.00000000000E+00 -0.23795781346E+03  0.23795781346E+03  0.00000000000E+00 0. -1.
          5    1    1    2  502    0  0.83199096073E+02  0.77055360372E+01 -0.54174510543E+02  0.99691687043E+02  0.47000000000E+01 0. -1.
         -5    1    1    2    0  502 -0.81131786856E+02  0.13732750848E+02 -0.73348772946E+02  0.11033171700E+03  0.47000000000E+01 0.  1.
        -11    1    1    2    0    0 -0.17673347745E+02 -0.43393239694E+02  0.68299024669E+01  0.47349424910E+02  0.00000000000E+00 0.  1.
         11    1    1    2    0    0  0.15606038528E+02  0.21954952808E+02 -0.45217132007E+02  0.52632284943E+02  0.00000000000E+00 0. -1.
<mgrwt>
<rscale>  0 0.14391903E+03</rscale>
<asrwt>0</asrwt>
<pdfrwt beam="2">  1        1 0.36608895E-01 0.16687613E+03</pdfrwt>
<pdfrwt beam="1">  1       -1 0.11084200E-01 0.16687613E+03</pdfrwt>
<totfact> 0.58965058E+03</totfact>
</mgrwt>
</event>
<event>
 6    1  0.1045058E-005  0.1449939E+03  0.7546771E-02  0.1215676E+00
         -2   -1    0    0    0  501 -0.00000000000E+00  0.00000000000E+00  0.62040691085E+02  0.62040691085E+02  0.00000000000E+00 0.  1.
          2   -1    0    0  501    0  0.00000000000E+00 -0.00000000000E+00 -0.28900343683E+03  0.28900343683E+03  0.00000000000E+00 0. -1.
          5    1    1    2  502    0 -0.37778656643E+02 -0.58852260267E+02 -0.10805517919E+03  0.12879762104E+03  0.47000000000E+01 0. -1.
         -5    1    1    2    0  502  0.67133503384E+02 -0.85110265103E+01 -0.41584631825E+02  0.79565799518E+02  0.47000000000E+01 0. -1.
        -11    1    1    2    0    0 -0.55842091352E+01 -0.24041225295E+02 -0.22949497528E+02  0.33702275029E+02  0.00000000000E+00 0. -1.
         11    1    1    2    0    0 -0.23770637606E+02  0.91404512072E+02 -0.54373437204E+02  0.10897843233E+03  0.00000000000E+00 0.  1.
<mgrwt>
<rscale>  0 0.13827010E+03</rscale>
<asrwt>0</asrwt>
<pdfrwt beam="2">  1        2 0.44462067E-01 0.14499394E+03</pdfrwt>
<pdfrwt beam="1">  1       -2 0.95447218E-02 0.14499394E+03</pdfrwt>
<totfact> 0.77717400E+03</totfact>
</mgrwt>
</event>
<event>
 6    1  0.1045058E-005  0.1303142E+03  0.7546771E-02  0.1241699E+00
         -3   -1    0    0    0  501 -0.00000000000E+00  0.00000000000E+00  0.43199204539E+02  0.43199204539E+02  0.00000000000E+00 0.  1.
          3   -1    0    0  501    0  0.00000000000E+00 -0.00000000000E+00 -0.29744735997E+03  0.29744735997E+03  0.00000000000E+00 0. -1.
          5    1    1    2  502    0 -0.74209415182E+02 -0.10919715917E+02 -0.92125053884E+02  0.11889235909E+03  0.47000000000E+01 0.  1.
         -5    1    1    2    0  502  0.51402757038E+02 -0.18010008500E+02 -0.52765296253E+02  0.75979407250E+02  0.47000000000E+01 0.  1.
        -11    1    1    2    0    0  0.11374371464E+02 -0.32063352252E+02 -0.44455387680E+02  0.55979606801E+02  0.00000000000E+00 0.  1.
         11    1    1    2    0    0  0.11432286680E+02  0.60993076670E+02 -0.64902417616E+02  0.89795191367E+02  0.00000000000E+00 0. -1.
<mgrwt>
<rscale>  0 0.12085165E+03</rscale>
<asrwt>0</asrwt>
<pdfrwt beam="2">  1        3 0.45761130E-01 0.13031420E+03</pdfrwt>
<pdfrwt beam="1">  1       -3 0.66460319E-02 0.13031420E+03</pdfrwt>
<totfact> 0.15711671E+03</totfact>
</mgrwt>
</event>
<event>
 6    1  0.1045058E-005  0.4774992E+03  0.7546771E-02  0.1019825E+00
          2   -1    0    0  501    0  0.00000000000E+00  0.00000000000E+00  0.21124385743E+03  0.21124385743E+03  0.00000000000E+00 0. -1.
         -2   -1    0    0    0  501 -0.00000000000E+00 -0.00000000000E+00 -0.26983677478E+03  0.26983677478E+03  0.00000000000E+00 0.  1.
          5    1    1    2  502    0 -0.13850284350E+02  0.23603204408E+02 -0.82841602483E+01  0.28976869153E+02  0.47000000000E+01 0. -1.
         -5    1    1    2    0  502  0.19784006346E+03  0.61023789579E+02  0.43350283219E+02  0.21157960833E+03  0.47000000000E+01 0. -1.
        -11    1    1    2    0    0 -0.15991451804E+03 -0.44473988072E+02 -0.99218620306E+02  0.19337767015E+03  0.00000000000E+00 0.  1.
         11    1    1    2    0    0 -0.24075261067E+02 -0.40153005915E+02  0.55595799819E+01  0.47146484589E+02  0.00000000000E+00 0. -1.
<mgrwt>
<rscale>  0 0.47749916E+03</rscale>
<asrwt>0</asrwt>
<pdfrwt beam="1">  1        2 0.32499055E-01 0.47749916E+03</pdfrwt>
<pdfrwt beam="2">  1       -2 0.41513350E-01 0.47749916E+03</pdfrwt>
<totfact> 0.89601689E+02</totfact>
</mgrwt>
</event>
<event>
 6    1  0.1045058E-005  0.3391709E+03  0.7546771E-02  0.1067150E+00
         -2   -1    0    0    0  501 -0.00000000000E+00  0.00000000000E+00  0.32359189941E+02  0.32359189941E+02  0.00000000000E+00 0.  1.
          2   -1    0    0  501    0  0.00000000000E+00 -0.00000000000E+00 -0.88874988962E+03  0.88874988962E+03  0.00000000000E+00 0. -1.
          5    1    1    2  502    0 -0.14182554593E+01 -0.11814029111E+03 -0.55866977109E+03  0.57104565751E+03  0.47000000000E+01 0. -1.
         -5    1    1    2    0  502 -0.18834399316E+02  0.23704232702E+02 -0.58724103364E+02  0.66236210350E+02  0.47000000000E+01 0. -1.
        -11    1    1    2    0    0 -0.41762589347E+02  0.78722033760E+02 -0.13777282240E+03  0.16408114779E+03  0.00000000000E+00 0.  1.
         11    1    1    2    0    0  0.62015244123E+02  0.15714024645E+02 -0.10122400282E+03  0.11974606391E+03  0.00000000000E+00 0. -1.
<mgrwt>
<rscale>  0 0.33917091E+03</rscale>
<asrwt>0</asrwt>
<pdfrwt beam="2">  1        2 0.13673076E+00 0.33917091E+03</pdfrwt>
<pdfrwt beam="1">  1       -2 0.49783365E-02 0.33917091E+03</pdfrwt>
<totfact> 0.61132630E+03</totfact>
</mgrwt>
</event>
<event>
 6    1  0.1045058E-005  0.3918443E+03  0.7546771E-02  0.1046641E+00
          1   -1    0    0  501    0  0.00000000000E+00  0.00000000000E+00  0.10474468844E+04  0.10474468844E+04  0.00000000000E+00 0. -1.
         -1   -1    0    0    0  501 -0.00000000000E+00 -0.00000000000E+00 -0.36646721150E+02  0.36646721150E+02  0.00000000000E+00 0.  1.
          5    1    1    2  502    0 -0.16564279907E+03 -0.29495986583E+02  0.66954233512E+03  0.69037423086E+03  0.47000000000E+01 0.  1.
         -5    1    1    2    0  502  0.16077704265E+02  0.80571453083E+01  0.23987066904E+02  0.30345997160E+02  0.47000000000E+01 0.  1.
        -11    1    1    2    0    0  0.47534860253E+02 -0.19826640268E+01  0.20257584619E+03  0.20808764345E+03  0.00000000000E+00 0. -1.
         11    1    1    2    0    0  0.10203023455E+03  0.23421505302E+02  0.11469491500E+03  0.15528573405E+03  0.00000000000E+00 0.  1.
<mgrwt>
<rscale>  0 0.39184433E+03</rscale>
<asrwt>0</asrwt>
<pdfrwt beam="1">  1        1 0.16114565E+00 0.39184433E+03</pdfrwt>
<pdfrwt beam="2">  1       -1 0.56379579E-02 0.39184433E+03</pdfrwt>
<totfact> 0.21669715E+03</totfact>
</mgrwt>
</event>
<event>
 6    1  0.1045058E-005  0.1449936E+03  0.7546771E-02  0.1217477E+00
         -2   -1    0    0    0  501 -0.00000000000E+00  0.00000000000E+00  0.21479157792E+03  0.21479157792E+03  0.00000000000E+00 0.  1.
          2   -1    0    0  501    0  0.00000000000E+00 -0.00000000000E+00 -0.83324666275E+02  0.83324666275E+02  0.00000000000E+00 0. -1.
          5    1    1    2  502    0 -0.49622111221E+02 -0.12419395000E+02 -0.40310633861E+02  0.65296496816E+02  0.47000000000E+01 0. -1.
         -5    1    1    2    0  502 -0.11964842619E+02 -0.27649066738E+02  0.79133568064E+02  0.84804716526E+02  0.47000000000E+01 0. -1.
        -11    1    1    2    0    0  0.54162126633E+02  0.61194727489E+02  0.95213743025E+02  0.12547504730E+03  0.00000000000E+00 0. -1.
         11    1    1    2    0    0  0.74248272062E+01 -0.21126265750E+02 -0.25697655823E+01  0.22539983556E+02  0.00000000000E+00 0.  1.
<mgrwt>
<rscale>  0 0.13696113E+03</rscale>
<asrwt>0</asrwt>
<pdfrwt beam="2">  1        2 0.12819179E-01 0.14499363E+03</pdfrwt>
<pdfrwt beam="1">  1       -2 0.33044858E-01 0.14499363E+03</pdfrwt>
<totfact> 0.38721360E+03</totfact>
</mgrwt>
</event>
<event>
 6    1  0.1045058E-005  0.1637676E+03  0.7546771E-02  0.1193000E+00
         -1   -1    0    0    0  501 -0.00000000000E+00  0.00000000000E+00  0.35224587586E+03  0.35224587586E+03  0.00000000000E+00 0.  1.
          1   -1    0    0  501    0  0.00000000000E+00 -0.00000000000E+00 -0.64020579557E+02  0.64020579557E+02  0.00000000000E+00 0. -1.
          5    1    1    2  502    0  0.37808816098E+02  0.18644830792E+02 -0.15926614049E+02  0.45308755502E+02  0.47000000000E+01 0. -1.
         -5    1    1    2    0  502  0.38850505049E+02  0.54283479156E+02  0.15766023212E+03  0.17127433154E+03  0.47000000000E+01 0. -1.
        -11    1    1    2    0    0 -0.16824036660E+02 -0.52165805373E+02  0.20227733880E+02  0.58425000451E+02  0.00000000000E+00 0. -1.
         11    1    1    2    0    0 -0.59835284487E+02 -0.20762504576E+02  0.12626394434E+03  0.14125836792E+03  0.00000000000E+00 0.  1.
<mgrwt>
<rscale>  0 0.15624760E+03</rscale>
<asrwt>0</asrwt>
<pdfrwt beam="2">  1        1 0.98493201E-02 0.16376756E+03</pdfrwt>
<pdfrwt beam="1">  1       -1 0.54191672E-01 0.16376756E+03</pdfrwt>
<totfact> 0.22623912E+03</totfact>
</mgrwt>
</event>
<event>
 6    1  0.1045058E-005  0.1281093E+03  0.7546771E-02  0.1245788E+00
         -1   -1    0    0    0  501 -0.00000000000E+00  0.00000000000E+00  0.54457453406E+02  0.54457453406E+02  0.00000000000E+00 0.  1.
          1   -1    0    0  501    0  0.00000000000E+00 -0.00000000000E+00 -0.24761113469E+03  0.24761113469E+03  0.00000000000E+00 0. -1.
          5    1    1    2  502    0 -0.75178951453E+02  0.19583493500E+02 -0.86908148072E+02  0.11666406542E+03  0.47000000000E+01 0.  1.
         -5    1    1    2    0  502  0.48364455137E+02 -0.11351004121E+02 -0.68272764177E+02  0.84564922655E+02  0.47000000000E+01 0.  1.
        -11    1    1    2    0    0  0.26184296453E+01 -0.21836455780E+02  0.24230888214E+02  0.32723430726E+02  0.00000000000E+00 0.  1.
         11    1    1    2    0    0  0.24196066671E+02  0.13603966400E+02 -0.62203657252E+02  0.68116169296E+02  0.00000000000E+00 0. -1.
<mgrwt>
<rscale>  0 0.11838364E+03</rscale>
<asrwt>0</asrwt>
<pdfrwt beam="2">  1        1 0.38094020E-01 0.12810929E+03</pdfrwt>
<pdfrwt beam="1">  1       -1 0.83780700E-02 0.12810929E+03</pdfrwt>
<totfact> 0.84548893E+03</totfact>
</mgrwt>
</event>
<event>
 6    1  0.1045058E-005  0.2980784E+03  0.7546771E-02  0.1086461E+00
          2   -1    0    0  501    0  0.00000000000E+00  0.00000000000E+00  0.64740040828E+03  0.64740040828E+03  0.00000000000E+00 0. -1.
         -2   -1    0    0    0  501 -0.00000000000E+00 -0.00000000000E+00 -0.14811089693E+03  0.14811089693E+03  0.00000000000E+00 0.  1.
          5    1    1    2  502    0 -0.55254111309E+02  0.27127980600E+03  0.31694006480E+03  0.42085489736E+03  0.47000000000E+01 0.  1.
         -5    1    1    2    0  502 -0.69114202745E+01 -0.10208222018E+02  0.44187326058E+02  0.46114914194E+02  0.47000000000E+01 0.  1.
        -11    1    1    2    0    0  0.78071337318E+01 -0.15788396406E+03  0.14789575261E+02  0.15876721633E+03  0.00000000000E+00 0.  1.
         11    1    1    2    0    0  0.54358397852E+02 -0.10318761992E+03  0.12337254523E+03  0.16977427732E+03  0.00000000000E+00 0. -1.
<mgrwt>
<rscale>  0 0.29757095E+03</rscale>
<asrwt>0</asrwt>
<pdfrwt beam="1">  1        2 0.99600062E-01 0.29807842E+03</pdfrwt>
<pdfrwt beam="2">  1       -2 0.22786292E-01 0.29807842E+03</pdfrwt>
<totfact> 0.77432120E+02</totfact>
</mgrwt>
</event>
<event>
 6    1  0.1045058E-005  0.2934570E+03  0.7546771E-02  0.1109581E+00
         -2   -1    0    0    0  501 -0.00000000000E+00  0.00000000000E+00  0.40943343248E+02  0.40943343248E+02  0.00000000000E+00 0.  1.
          2   -1    0    0  501    0  0.00000000000E+00 -0.00000000000E+00 -0.13235447312E+04  0.13235447312E+04  0.00000000000E+00 0. -1.
          5    1    1    2  502    0  0.97180272194E+01  0.77168303222E+02 -0.75638914817E+03  0.76039201768E+03  0.47000000000E+01 0. -1.
         -5    1    1    2    0  502 -0.10668076392E+03  0.30268038839E+02 -0.11831686045E+03  0.16222795392E+03  0.47000000000E+01 0.  1.
        -11    1    1    2    0    0  0.11007819522E+03 -0.10603731784E+03 -0.39447821678E+03  0.42305340721E+03  0.00000000000E+00 0. -1.
         11    1    1    2    0    0 -0.13115458525E+02 -0.13990242165E+01 -0.13417162531E+02  0.18814695625E+02  0.00000000000E+00 0.  1.
<mgrwt>
<rscale>  0 0.25598346E+03</rscale>
<asrwt>0</asrwt>
<pdfrwt beam="2">  1        2 0.20362223E+00 0.29345700E+03</pdfrwt>
<pdfrwt beam="1">  1       -2 0.62989769E-02 0.29345700E+03</pdfrwt>
<totfact> 0.23369243E+03</totfact>
</mgrwt>
</event>
<event>
 6    1  0.1045058E-005  0.1325423E+03  0.7546771E-02  0.1238126E+00
         -1   -1    0    0    0  501 -0.00000000000E+00  0.00000000000E+00  0.92152146211E+02  0.92152146211E+02  0.00000000000E+00 0.  1.
          1   -1    0    0  501    0  0.00000000000E+00 -0.00000000000E+00 -0.14585551968E+03  0.14585551968E+03  0.00000000000E+00 0. -1.
          5    1    1    2  502    0 -0.32040225690E+02  0.30120814804E+02 -0.18861420754E+02  0.48079961934E+02  0.47000000000E+01 0.  1.
         -5    1    1    2    0  502  0.68543798329E+02 -0.54822896622E+02 -0.21818071484E+02  0.90564455095E+02  0.47000000000E+01 0.  1.
        -11    1    1    2    0    0  0.75971282236E+01 -0.19961183575E+02  0.19278543493E+02  0.28771990654E+02  0.00000000000E+00 0.  1.
         11    1    1    2    0    0 -0.44100700863E+02  0.44663265394E+02 -0.32302424724E+02  0.70591258207E+02  0.00000000000E+00 0. -1.
<mgrwt>
<rscale>  0 0.12306413E+03</rscale>
<asrwt>0</asrwt>
<pdfrwt beam="2">  1        1 0.22439311E-01 0.13254227E+03</pdfrwt>
<pdfrwt beam="1">  1       -1 0.14177253E-01 0.13254227E+03</pdfrwt>
<totfact> 0.73152457E+03</totfact>
</mgrwt>
</event>
<event>
 6    1  0.1045058E-005  0.1335482E+03  0.7546771E-02  0.1235372E+00
         -2   -1    0    0    0  501 -0.00000000000E+00  0.00000000000E+00  0.69424285718E+02  0.69424285718E+02  0.00000000000E+00 0.  1.
          2   -1    0    0  501    0  0.00000000000E+00 -0.00000000000E+00 -0.29016678364E+03  0.29016678364E+03  0.00000000000E+00 0. -1.
          5    1    1    2  502    0  0.15467528747E+02 -0.16851264469E+02  0.38906733469E+01  0.23673548505E+02  0.47000000000E+01 0. -1.
         -5    1    1    2    0  502 -0.19608311577E+02  0.63688175317E+02 -0.22431407096E+03  0.23405034071E+03  0.47000000000E+01 0. -1.
        -11    1    1    2    0    0  0.21618411514E+02 -0.38882269040E+02 -0.38690650516E+02  0.58958909415E+02  0.00000000000E+00 0. -1.
         11    1    1    2    0    0 -0.17477628684E+02 -0.79546418083E+01  0.38371550209E+02  0.42908270720E+02  0.00000000000E+00 0.  1.
<mgrwt>
<rscale>  0 0.12480634E+03</rscale>
<asrwt>0</asrwt>
<pdfrwt beam="2">  1        2 0.44641043E-01 0.13354823E+03</pdfrwt>
<pdfrwt beam="1">  1       -2 0.10680659E-01 0.13354823E+03</pdfrwt>
<totfact> 0.64492705E+03</totfact>
</mgrwt>
</event>
<event>
 6    1  0.1045058E-005  0.3132115E+03  0.7546771E-02  0.1078817E+00
         -1   -1    0    0    0  501 -0.00000000000E+00  0.00000000000E+00  0.11767159856E+02  0.11767159856E+02  0.00000000000E+00 0.  1.
          1   -1    0    0  501    0  0.00000000000E+00 -0.00000000000E+00 -0.20842206383E+04  0.20842206383E+04  0.00000000000E+00 0. -1.
          5    1    1    2  502    0 -0.52458069684E+01 -0.96388428275E+01 -0.82607491951E+03  0.82616117582E+03  0.47000000000E+01 0.  1.
         -5    1    1    2    0  502 -0.10148900322E+03 -0.23718059319E+01 -0.50883794792E+03  0.51888706910E+03  0.47000000000E+01 0.  1.
        -11    1    1    2    0    0  0.12835931417E+01 -0.25608305466E+02 -0.82273575872E+02  0.86176413287E+02  0.00000000000E+00 0.  1.
         11    1    1    2    0    0  0.10545121705E+03  0.37618954225E+02 -0.65526703509E+03  0.66476313990E+03  0.00000000000E+00 0. -1.
<mgrwt>
<rscale>  0 0.31321148E+03</rscale>
<asrwt>0</asrwt>
<pdfrwt beam="2">  1        1 0.32064929E+00 0.31321148E+03</pdfrwt>
<pdfrwt beam="1">  1       -1 0.18103325E-02 0.31321148E+03</pdfrwt>
<totfact> 0.23554946E+03</totfact>
</mgrwt>
</event>
<event>
 6    1  0.1045058E-005  0.1660815E+03  0.7546771E-02  0.1188242E+00
          2   -1    0    0  501    0  0.00000000000E+00  0.00000000000E+00  0.80447155649E+02  0.80447155649E+02  0.00000000000E+00 0. -1.
         -2   -1    0    0    0  501 -0.00000000000E+00 -0.00000000000E+00 -0.33593877086E+03  0.33593877086E+03  0.00000000000E+00 0.  1.
          5    1    1    2  502    0  0.11602205007E+02  0.50824270110E+02  0.56186870949E+01  0.52643871798E+02  0.47000000000E+01 0. -1.
         -5    1    1    2    0  502 -0.10284387710E+03  0.94620351784E+01 -0.73127761985E+02  0.12663393202E+03  0.47000000000E+01 0. -1.
        -11    1    1    2    0    0  0.75415985157E+02 -0.83156289993E+02 -0.12357841437E+03  0.16695557457E+03  0.00000000000E+00 0. -1.
         11    1    1    2    0    0  0.15825686937E+02  0.22869984704E+02 -0.64404125947E+02  0.70152548110E+02  0.00000000000E+00 0.  1.
<mgrwt>
<rscale>  0 0.16040376E+03</rscale>
<asrwt>0</asrwt>
<pdfrwt beam="1">  1        2 0.12376485E-01 0.16608147E+03</pdfrwt>
<pdfrwt beam="2">  1       -2 0.51682889E-01 0.16608147E+03</pdfrwt>
<totfact> 0.17303581E+03</totfact>
</mgrwt>
</event>
<event>
 6    1  0.1045058E-005  0.2842134E+03  0.7546771E-02  0.1093410E+00
          2   -1    0    0  501    0  0.00000000000E+00  0.00000000000E+00  0.33451356821E+03  0.33451356821E+03  0.00000000000E+00 0. -1.
         -2   -1    0    0    0  501 -0.00000000000E+00 -0.00000000000E+00 -0.60369185101E+02  0.60369185101E+02  0.00000000000E+00 0.  1.
          5    1    1    2  502    0  0.27540451431E+02  0.79580391008E+01  0.45569597504E+00  0.29053476731E+02  0.47000000000E+01 0.  1.
         -5    1    1    2    0  502 -0.55267352738E+02  0.63568541403E+02  0.22109548007E+03  0.23664475705E+03  0.47000000000E+01 0.  1.
        -11    1    1    2    0    0 -0.23522954930E+02 -0.58830351714E+02  0.39918557518E+02  0.74885452030E+02  0.00000000000E+00 0.  1.
         11    1    1    2    0    0  0.51249856237E+02 -0.12696228790E+02  0.12674649550E+02  0.54299067497E+02  0.00000000000E+00 0. -1.
<mgrwt>
<rscale>  0 0.28421338E+03</rscale>
<asrwt>0</asrwt>
<pdfrwt beam="1">  1        2 0.51463625E-01 0.28421338E+03</pdfrwt>
<pdfrwt beam="2">  1       -2 0.92875671E-02 0.28421338E+03</pdfrwt>
<totfact> 0.72116796E+03</totfact>
</mgrwt>
</event>
<event>
 6    1  0.1045058E-005  0.4218357E+03  0.7546771E-02  0.1036471E+00
          2   -1    0    0  501    0  0.00000000000E+00  0.00000000000E+00  0.24480369995E+04  0.24480369995E+04  0.00000000000E+00 0. -1.
         -2   -1    0    0    0  501 -0.00000000000E+00 -0.00000000000E+00 -0.18172249550E+02  0.18172249550E+02  0.00000000000E+00 0.  1.
          5    1    1    2  502    0  0.35476803328E+02 -0.40637623004E+02  0.97714860182E+03  0.97864779161E+03  0.47000000000E+01 0. -1.
         -5    1    1    2    0  502 -0.62433446014E+02 -0.10664500781E+03  0.86429359405E+03  0.87309598532E+03  0.47000000000E+01 0. -1.
        -11    1    1    2    0    0  0.46666869935E+02  0.55811462124E+02  0.36603005878E+03  0.37318992482E+03  0.00000000000E+00 0. -1.
         11    1    1    2    0    0 -0.19710227249E+02  0.91471168693E+02  0.22239249530E+03  0.24127554730E+03  0.00000000000E+00 0.  1.
<mgrwt>
<rscale>  0 0.42183570E+03</rscale>
<asrwt>0</asrwt>
<pdfrwt beam="1">  1        2 0.37662082E+00 0.42183570E+03</pdfrwt>
<pdfrwt beam="2">  1       -2 0.27957326E-02 0.42183570E+03</pdfrwt>
<totfact> 0.19891260E+03</totfact>
</mgrwt>
</event>
<event>
 6    1  0.1045058E-005  0.1523365E+03  0.7546771E-02  0.1204773E+00
         -2   -1    0    0    0  501 -0.00000000000E+00  0.00000000000E+00  0.89656874513E+02  0.89656874513E+02  0.00000000000E+00 0.  1.
          2   -1    0    0  501    0  0.00000000000E+00 -0.00000000000E+00 -0.26226939715E+03  0.26226939715E+03  0.00000000000E+00 0. -1.
          5    1    1    2  502    0  0.28126155466E+01  0.59967542138E+02 -0.74647247677E+01  0.60678077030E+02  0.47000000000E+01 0. -1.
         -5    1    1    2    0  502  0.47755798180E+02  0.10908783084E+02 -0.15238865321E+03  0.16013747043E+03  0.47000000000E+01 0. -1.
        -11    1    1    2    0    0  0.17906589947E+02  0.46626386236E+01  0.16762159844E+02  0.24967101656E+02  0.00000000000E+00 0.  1.
         11    1    1    2    0    0 -0.68475003673E+02 -0.75538963845E+02 -0.29521304495E+02  0.10614362254E+03  0.00000000000E+00 0. -1.
<mgrwt>
<rscale>  0 0.14655341E+03</rscale>
<asrwt>0</asrwt>
<pdfrwt beam="2">  1        2 0.40349137E-01 0.15233648E+03</pdfrwt>
<pdfrwt beam="1">  1       -2 0.13793366E-01 0.15233648E+03</pdfrwt>
<totfact> 0.48054863E+03</totfact>
</mgrwt>
</event>
<event>
 6    1  0.3154590E-005  0.2162529E+03  0.7546771E-02  0.1140002E+00
         -1   -1    0    0    0  501 -0.00000000000E+00  0.00000000000E+00  0.17105454778E+04  0.17105454778E+04  0.00000000000E+00 0.  1.
          1   -1    0    0  501    0  0.00000000000E+00 -0.00000000000E+00 -0.26872898747E+02  0.26872898747E+02  0.00000000000E+00 0. -1.
          5    1    1    2  502    0  0.13704278179E+03  0.88193795475E+02  0.42435723868E+03  0.45459875234E+03  0.47000000000E+01 0. -1.
         -5    1    1    2    0  502 -0.16963197998E+02  0.41112406924E+02  0.23804853165E+03  0.24221307460E+03  0.47000000000E+01 0. -1.
        -11    1    1    2    0    0 -0.10212007936E+03 -0.44627763961E+02  0.64059751904E+03  0.65021944706E+03  0.00000000000E+00 0. -1.
         11    1    1    2    0    0 -0.17959504433E+02 -0.84678438438E+02  0.38066928969E+03  0.39038710257E+03  0.00000000000E+00 0.  1.
<mgrwt>
<rscale>  0 0.21198764E+03</rscale>
<asrwt>0</asrwt>
<pdfrwt beam="2">  1        1 0.41342935E-02 0.21625290E+03</pdfrwt>
<pdfrwt beam="1">  1       -1 0.26316076E+00 0.21625290E+03</pdfrwt>
<totfact> 0.14318786E+02</totfact>
</mgrwt>
</event>
<event>
 6    1  0.1045058E-005  0.1283090E+03  0.7546771E-02  0.1243926E+00
         -2   -1    0    0    0  501 -0.00000000000E+00  0.00000000000E+00  0.15901454478E+02  0.15901454478E+02  0.00000000000E+00 0.  1.
          2   -1    0    0  501    0  0.00000000000E+00 -0.00000000000E+00 -0.85062411736E+03  0.85062411736E+03  0.00000000000E+00 0. -1.
          5    1    1    2  502    0 -0.40175563510E+02 -0.55719437830E+02 -0.27070000039E+03  0.27931937252E+03  0.47000000000E+01 0.  1.
         -5    1    1    2    0  502  0.11365938120E+02  0.56662363183E+02 -0.31171673300E+03  0.31706343149E+03  0.47000000000E+01 0.  1.
        -11    1    1    2    0    0  0.13868599638E+02 -0.37200878416E+02 -0.48883959908E+02  0.62975272506E+02  0.00000000000E+00 0.  1.
         11    1    1    2    0    0  0.14941025751E+02  0.36257953064E+02 -0.20342196958E+03  0.20716749532E+03  0.00000000000E+00 0. -1.
<mgrwt>
<rscale>  0 0.11949865E+03</rscale>
<asrwt>0</asrwt>
<pdfrwt beam="2">  1        2 0.13086525E+00 0.12830899E+03</pdfrwt>
<pdfrwt beam="1">  1       -2 0.24463775E-02 0.12830899E+03</pdfrwt>
<totfact> 0.17814939E+04</totfact>
</mgrwt>
</event>
<event>
 6    1  0.1045058E-005  0.3752516E+03  0.7546771E-02  0.1052703E+00
          2   -1    0    0  501    0  0.00000000000E+00  0.00000000000E+00  0.52819960149E+03  0.52819960149E+03  0.00000000000E+00 0. -1.
         -2   -1    0    0    0  501 -0.00000000000E+00 -0.00000000000E+00 -0.66647982358E+02  0.66647982358E+02  0.00000000000E+00 0.  1.
          5    1    1    2  502    0  0.33334426324E+02  0.44380581224E+01  0.10577199065E+03  0.11108863283E+03  0.47000000000E+01 0. -1.
         -5    1    1    2    0  502 -0.86079399061E+02 -0.95456831307E+02  0.30990148239E+03  0.33553343853E+03  0.47000000000E+01 0. -1.
        -11    1    1    2    0    0 -0.18106077111E+01  0.59358233271E+02 -0.14260617374E+02  0.61074080961E+02  0.00000000000E+00 0.  1.
         11    1    1    2    0    0  0.54555580448E+02  0.31660539914E+02  0.60138763474E+02  0.87151431530E+02  0.00000000000E+00 0. -1.
<mgrwt>
<rscale>  0 0.37525158E+03</rscale>
<asrwt>0</asrwt>
<pdfrwt beam="1">  1        2 0.81261475E-01 0.37525158E+03</pdfrwt>
<pdfrwt beam="2">  1       -2 0.10253536E-01 0.37525158E+03</pdfrwt>
<totfact> 0.37472575E+03</totfact>
</mgrwt>
</event>
<event>
 6    1  0.1045058E-005  0.2021653E+03  0.7546771E-02  0.1152059E+00
          2   -1    0    0  501    0  0.00000000000E+00  0.00000000000E+00  0.51615752220E+03  0.51615752220E+03  0.00000000000E+00 0. -1.
         -2   -1    0    0    0  501 -0.00000000000E+00 -0.00000000000E+00 -0.72561960187E+02  0.72561960187E+02  0.00000000000E+00 0.  1.
          5    1    1    2  502    0 -0.41726675554E+02 -0.60476866023E+01  0.14045319706E+02  0.44688376248E+02  0.47000000000E+01 0. -1.
         -5    1    1    2    0  502 -0.31246362196E+02  0.14719074873E+03  0.19187022977E+03  0.24388055834E+03  0.47000000000E+01 0. -1.
        -11    1    1    2    0    0  0.18660264725E+02 -0.12283625235E+03  0.14262529742E+03  0.18915318088E+03  0.00000000000E+00 0.  1.
         11    1    1    2    0    0  0.54312773025E+02 -0.18306809778E+02  0.95054715118E+02  0.11099736692E+03  0.00000000000E+00 0. -1.
<mgrwt>
<rscale>  0 0.19727410E+03</rscale>
<asrwt>0</asrwt>
<pdfrwt beam="1">  1        2 0.79408847E-01 0.20216532E+03</pdfrwt>
<pdfrwt beam="2">  1       -2 0.11163379E-01 0.20216532E+03</pdfrwt>
<totfact> 0.32946570E+03</totfact>
</mgrwt>
</event>
<event>
 6    1  0.1045058E-005  0.1341890E+03  0.7546771E-02  0.1233423E+00
         -2   -1    0    0    0  501 -0.00000000000E+00  0.00000000000E+00  0.73505216127E+02  0.73505216127E+02  0.00000000000E+00 0.  1.
          2   -1    0    0  501    0  0.00000000000E+00 -0.00000000000E+00 -0.19420685541E+03  0.19420685541E+03  0.00000000000E+00 0. -1.
          5    1    1    2  502    0  0.39009613295E+02 -0.15868921545E+02  0.39201761379E+01  0.42556202619E+02  0.47000000000E+01 0.  1.
         -5    1    1    2    0  502 -0.44920649478E+02  0.64322583982E+02 -0.77963931711E+02  0.11070557442E+03  0.47000000000E+01 0.  1.
        -11    1    1    2    0    0 -0.25693298568E+02  0.73856249362E+01  0.10304260130E+02  0.28650843335E+02  0.00000000000E+00 0.  1.
         11    1    1    2    0    0  0.31604334751E+02 -0.55839287374E+02 -0.56962143843E+02  0.85799451167E+02  0.00000000000E+00 0. -1.
<mgrwt>
<rscale>  0 0.12605936E+03</rscale>
<asrwt>0</asrwt>
<pdfrwt beam="2">  1        2 0.29877977E-01 0.13418903E+03</pdfrwt>
<pdfrwt beam="1">  1       -2 0.11308495E-01 0.13418903E+03</pdfrwt>
<totfact> 0.90520198E+03</totfact>
</mgrwt>
</event>
<event>
 6    1  0.1045058E-005  0.2440119E+03  0.7546771E-02  0.1117149E+00
         -4   -1    0    0    0  501 -0.00000000000E+00  0.00000000000E+00  0.30404511461E+03  0.30404511461E+03  0.00000000000E+00 0.  1.
          4   -1    0    0  501    0  0.00000000000E+00 -0.00000000000E+00 -0.48958056201E+02  0.48958056201E+02  0.00000000000E+00 0. -1.
          5    1    1    2  502    0 -0.18469448474E+00 -0.27266703350E+01 -0.30861271140E+02  0.31336510647E+02  0.47000000000E+01 0.  1.
         -5    1    1    2    0  502 -0.42259817470E+02 -0.26704841367E+01  0.12184286443E+03  0.12907671080E+03  0.47000000000E+01 0.  1.
        -11    1    1    2    0    0 -0.21810690462E+02  0.11664608667E+02  0.94372679325E+02  0.97560093875E+02  0.00000000000E+00 0.  1.
         11    1    1    2    0    0  0.64255202418E+02 -0.62674541955E+01  0.69732785789E+02  0.95029855486E+02  0.00000000000E+00 0. -1.
<mgrwt>
<rscale>  0 0.24401195E+03</rscale>
<asrwt>0</asrwt>
<pdfrwt beam="2">  1        4 0.75320089E-02 0.24401195E+03</pdfrwt>
<pdfrwt beam="1">  1       -4 0.46776170E-01 0.24401195E+03</pdfrwt>
<totfact> 0.10001953E+03</totfact>
</mgrwt>
</event>
<event>
 6    1  0.1045058E-005  0.1507788E+03  0.7546771E-02  0.1208222E+00
          2   -1    0    0  501    0  0.00000000000E+00  0.00000000000E+00  0.70023470299E+03  0.70023470299E+03  0.00000000000E+00 0. -1.
         -2   -1    0    0    0  501 -0.00000000000E+00 -0.00000000000E+00 -0.27404424082E+02  0.27404424082E+02  0.00000000000E+00 0.  1.
          5    1    1    2  502    0 -0.26211146336E+02 -0.39793372723E+02  0.76422183864E+02  0.90183018864E+02  0.47000000000E+01 0.  1.
         -5    1    1    2    0  502 -0.46285140488E+02  0.82788486365E+02  0.32635452242E+03  0.33989058829E+03  0.47000000000E+01 0.  1.
        -11    1    1    2    0    0 -0.17935215380E+02 -0.23788860873E+02  0.95534953160E+02  0.10007251934E+03  0.00000000000E+00 0. -1.
         11    1    1    2    0    0  0.90431502204E+02 -0.19206252769E+02  0.17451861946E+03  0.19749300058E+03  0.00000000000E+00 0.  1.
<mgrwt>
<rscale>  0 0.14386409E+03</rscale>
<asrwt>0</asrwt>
<pdfrwt beam="1">  1        2 0.10772840E+00 0.15077875E+03</pdfrwt>
<pdfrwt beam="2">  1       -2 0.42160658E-02 0.15077875E+03</pdfrwt>
<totfact> 0.10253616E+04</totfact>
</mgrwt>
</event>
<event>
 6    1  0.1045058E-005  0.1636464E+03  0.7546771E-02  0.1191301E+00
          2   -1    0    0  501    0  0.00000000000E+00  0.00000000000E+00  0.17905531571E+03  0.17905531571E+03  0.00000000000E+00 0.  1.
         -2   -1    0    0    0  501 -0.00000000000E+00 -0.00000000000E+00 -0.12976441025E+03  0.12976441025E+03  0.00000000000E+00 0. -1.
          5    1    1    2  502    0 -0.23007981672E+02  0.79334971101E+02 -0.19319620279E+02  0.84963183721E+02  0.47000000000E+01 0. -1.
         -5    1    1    2    0  502  0.62505552579E+02  0.18620991219E+02  0.48147066968E+02  0.81202927747E+02  0.47000000000E+01 0. -1.
        -11    1    1    2    0    0 -0.19331867162E+02 -0.10318958909E+03  0.41645267835E+02  0.11294308619E+03  0.00000000000E+00 0.  1.
         11    1    1    2    0    0 -0.20165703744E+02  0.52336267739E+01 -0.21181809058E+02  0.29710528297E+02  0.00000000000E+00 0. -1.
<mgrwt>
<rscale>  0 0.15771459E+03</rscale>
<asrwt>0</asrwt>
<pdfrwt beam="1">  1        2 0.27546972E-01 0.16364643E+03</pdfrwt>
<pdfrwt beam="2">  1       -2 0.19963755E-01 0.16364643E+03</pdfrwt>
<totfact> 0.39450425E+03</totfact>
</mgrwt>
</event>
<event>
 6    1  0.1045058E-005  0.2261491E+03  0.7546771E-02  0.1132546E+00
         -2   -1    0    0    0  501 -0.00000000000E+00  0.00000000000E+00  0.95427806947E+02  0.95427806947E+02  0.00000000000E+00 0. -1.
          2   -1    0    0  501    0  0.00000000000E+00 -0.00000000000E+00 -0.51728009469E+03  0.51728009469E+03  0.00000000000E+00 0.  1.
          5    1    1    2  502    0 -0.17995260713E+03 -0.33244653113E+02 -0.17664312753E+03  0.25438756314E+03  0.47000000000E+01 0.  1.
         -5    1    1    2    0  502 -0.79909821857E+01  0.19306463015E+02 -0.10326409065E+03  0.10546164103E+03  0.47000000000E+01 0.  1.
        -11    1    1    2    0    0  0.80398022104E+02  0.11940714923E+02 -0.88922305622E+01  0.81764872625E+02  0.00000000000E+00 0. -1.
         11    1    1    2    0    0  0.10754556722E+03  0.19974751749E+01 -0.13305283900E+03  0.17109382485E+03  0.00000000000E+00 0.  1.
<mgrwt>
<rscale>  0 0.22180272E+03</rscale>
<asrwt>0</asrwt>
<pdfrwt beam="2">  1        2 0.79581553E-01 0.22614906E+03</pdfrwt>
<pdfrwt beam="1">  1       -2 0.14681201E-01 0.22614906E+03</pdfrwt>
<totfact> 0.21129014E+03</totfact>
</mgrwt>
</event>
<event>
 6    1  0.1045058E-005  0.1412395E+03  0.7546771E-02  0.1223078E+00
         -2   -1    0    0    0  501 -0.00000000000E+00  0.00000000000E+00  0.25202013641E+03  0.25202013641E+03  0.00000000000E+00 0.  1.
          2   -1    0    0  501    0  0.00000000000E+00 -0.00000000000E+00 -0.63262644408E+02  0.63262644408E+02  0.00000000000E+00 0. -1.
          5    1    1    2  502    0  0.37454122362E+02  0.34042386412E+02  0.37956310646E+02  0.63438685929E+02  0.47000000000E+01 0. -1.
         -5    1    1    2    0  502 -0.32021756533E+01 -0.90164126221E+02  0.74742638158E+02  0.11725346709E+03  0.47000000000E+01 0. -1.
        -11    1    1    2    0    0 -0.74594153785E+01  0.17015901790E+02 -0.20106832640E+02  0.27376422526E+02  0.00000000000E+00 0. -1.
         11    1    1    2    0    0 -0.26792531330E+02  0.39105838019E+02  0.96165375840E+02  0.10721420527E+03  0.00000000000E+00 0.  1.
<mgrwt>
<rscale>  0 0.13299533E+03</rscale>
<asrwt>0</asrwt>
<pdfrwt beam="2">  1        2 0.97327146E-02 0.14123952E+03</pdfrwt>
<pdfrwt beam="1">  1       -2 0.38772328E-01 0.14123952E+03</pdfrwt>
<totfact> 0.40140806E+03</totfact>
</mgrwt>
</event>
<event>
 6    1  0.1045058E-005  0.1432272E+03  0.7546771E-02  0.1216577E+00
          2   -1    0    0  501    0  0.00000000000E+00  0.00000000000E+00  0.26479490331E+03  0.26479490331E+03  0.00000000000E+00 0. -1.
         -2   -1    0    0    0  501 -0.00000000000E+00 -0.00000000000E+00 -0.73010777785E+02  0.73010777785E+02  0.00000000000E+00 0.  1.
          5    1    1    2  502    0 -0.91005542146E+02  0.39414698951E+02  0.93975334354E+02  0.13670764668E+03  0.47000000000E+01 0. -1.
         -5    1    1    2    0  502  0.21131629574E+02 -0.36787496934E+02  0.59386401005E+02  0.73134809246E+02  0.47000000000E+01 0. -1.
        -11    1    1    2    0    0  0.12836812666E+02  0.45448163521E+01 -0.33340590152E+02  0.36014359175E+02  0.00000000000E+00 0.  1.
         11    1    1    2    0    0  0.57037099906E+02 -0.71720183690E+01  0.71762980319E+02  0.91948865993E+02  0.00000000000E+00 0. -1.
<mgrwt>
<rscale>  0 0.13761357E+03</rscale>
<asrwt>0</asrwt>
<pdfrwt beam="1">  1        2 0.40737677E-01 0.14322721E+03</pdfrwt>
<pdfrwt beam="2">  1       -2 0.11232427E-01 0.14322721E+03</pdfrwt>
<totfact> 0.65908248E+03</totfact>
</mgrwt>
</event>
<event>
 6    1  0.1045058E-005  0.3165013E+03  0.7546771E-02  0.1078726E+00
         -1   -1    0    0    0  501 -0.00000000000E+00  0.00000000000E+00  0.64373406896E+03  0.64373406896E+03  0.00000000000E+00 0.  1.
          1   -1    0    0  501    0  0.00000000000E+00 -0.00000000000E+00 -0.15805405485E+03  0.15805405485E+03  0.00000000000E+00 0. -1.
          5    1    1    2  502    0 -0.35260796294E+01 -0.94561022096E+02  0.99749041654E+02  0.13757245890E+03  0.47000000000E+01 0.  1.
         -5    1    1    2    0  502  0.11007382508E+03 -0.17598244501E+03  0.55282078230E+02  0.21485871194E+03  0.47000000000E+01 0.  1.
        -11    1    1    2    0    0 -0.95676923809E+01  0.98614751431E+02  0.16117062513E+03  0.18918874264E+03  0.00000000000E+00 0.  1.
         11    1    1    2    0    0 -0.96980053074E+02  0.17192871568E+03  0.16947826909E+03  0.26016821032E+03  0.00000000000E+00 0. -1.
<mgrwt>
<rscale>  0 0.31340354E+03</rscale>
<asrwt>0</asrwt>
<pdfrwt beam="2">  1        1 0.24316009E-01 0.31650131E+03</pdfrwt>
<pdfrwt beam="1">  1       -1 0.99036009E-01 0.31650131E+03</pdfrwt>
<totfact> 0.20457196E+02</totfact>
</mgrwt>
</event>
<event>
 6    1  0.1045058E-005  0.1344584E+03  0.7546771E-02  0.1233814E+00
         -2   -1    0    0    0  501 -0.00000000000E+00  0.00000000000E+00  0.10370539150E+03  0.10370539150E+03  0.00000000000E+00 0. -1.
          2   -1    0    0  501    0  0.00000000000E+00 -0.00000000000E+00 -0.13601870767E+03  0.13601870767E+03  0.00000000000E+00 0.  1.
          5    1    1    2  502    0 -0.61985226271E+02 -0.53611267628E+02 -0.43289248636E+02  0.92802938208E+02  0.47000000000E+01 0. -1.
         -5    1    1    2    0  502  0.27274057812E+02  0.18282613044E+02  0.26825881277E+02  0.42659653955E+02  0.47000000000E+01 0. -1.
        -11    1    1    2    0    0  0.12661322370E+02  0.49571074044E+02 -0.42753057587E+02  0.66674015921E+02  0.00000000000E+00 0.  1.
         11    1    1    2    0    0  0.22049846089E+02 -0.14242419460E+02  0.26903108772E+02  0.37587491087E+02  0.00000000000E+00 0. -1.
<mgrwt>
<rscale>  0 0.12580640E+03</rscale>
<asrwt>0</asrwt>
<pdfrwt beam="2">  1        2 0.20925955E-01 0.13445844E+03</pdfrwt>
<pdfrwt beam="1">  1       -2 0.15954676E-01 0.13445844E+03</pdfrwt>
<totfact> 0.76910638E+03</totfact>
</mgrwt>
</event>
<event>
 6    1  0.1045058E-005  0.9822505E+03  0.7546771E-02  0.9328229E-01
          2   -1    0    0  501    0  0.00000000000E+00  0.00000000000E+00  0.19323943621E+04  0.19323943621E+04  0.00000000000E+00 0.  1.
         -2   -1    0    0    0  501 -0.00000000000E+00 -0.00000000000E+00 -0.12482131019E+03  0.12482131019E+03  0.00000000000E+00 0. -1.
          5    1    1    2  502    0  0.54837034646E+02  0.18494998273E+02  0.93841305165E+03  0.94020758922E+03  0.47000000000E+01 0.  1.
         -5    1    1    2    0  502  0.31836305664E+01 -0.36522026001E+02  0.12713335648E+02  0.39085966665E+02  0.47000000000E+01 0. -1.
        -11    1    1    2    0    0  0.95426881836E+02  0.43502312460E+02 -0.77947389053E+02  0.13066956963E+03  0.00000000000E+00 0. -1.
         11    1    1    2    0    0 -0.15344754705E+03 -0.25475284731E+02  0.93439405371E+03  0.94725254681E+03  0.00000000000E+00 0.  1.
<mgrwt>
<rscale>  0 0.98225047E+03</rscale>
<asrwt>0</asrwt>
<pdfrwt beam="1">  1        2 0.29729142E+00 0.98225047E+03</pdfrwt>
<pdfrwt beam="2">  1       -2 0.19203280E-01 0.98225047E+03</pdfrwt>
<totfact> 0.16764314E+02</totfact>
</mgrwt>
</event>
<event>
 6    1  0.1045058E-005  0.3549217E+03  0.7546771E-02  0.1060613E+00
          1   -1    0    0  501    0  0.00000000000E+00  0.00000000000E+00  0.83893151097E+03  0.83893151097E+03  0.00000000000E+00 0. -1.
         -1   -1    0    0    0  501 -0.00000000000E+00 -0.00000000000E+00 -0.37538647343E+02  0.37538647343E+02  0.00000000000E+00 0.  1.
          5    1    1    2  502    0 -0.66193198259E+02 -0.13093848182E+03  0.38778730208E+03  0.41464141999E+03  0.47000000000E+01 0.  1.
         -5    1    1    2    0  502  0.30249141047E+02  0.33418443523E+01  0.15136829967E+03  0.15446886612E+03  0.47000000000E+01 0.  1.
        -11    1    1    2    0    0  0.29375132125E+02  0.60977183372E+02  0.21507129247E+03  0.22547012246E+03  0.00000000000E+00 0. -1.
         11    1    1    2    0    0  0.65689250876E+01  0.66619454099E+02  0.47165969415E+02  0.81889749738E+02  0.00000000000E+00 0.  1.
<mgrwt>
<rscale>  0 0.35492170E+03</rscale>
<asrwt>0</asrwt>
<pdfrwt beam="1">  1        1 0.12906637E+00 0.35492170E+03</pdfrwt>
<pdfrwt beam="2">  1       -1 0.57751771E-02 0.35492170E+03</pdfrwt>
<totfact> 0.30367592E+03</totfact>
</mgrwt>
</event>
<event>
 6    1  0.1045058E-005  0.3470685E+03  0.7546771E-02  0.1063825E+00
          2   -1    0    0  501    0  0.00000000000E+00  0.00000000000E+00  0.11530250138E+04  0.11530250138E+04  0.00000000000E+00 0. -1.
         -2   -1    0    0    0  501 -0.00000000000E+00 -0.00000000000E+00 -0.26117502065E+02  0.26117502065E+02  0.00000000000E+00 0.  1.
          5    1    1    2  502    0 -0.26646410276E+02 -0.85414409553E+02  0.93497644199E+03  0.93925964974E+03  0.47000000000E+01 0. -1.
         -5    1    1    2    0  502 -0.36328989084E+01  0.25692467692E+02  0.54054137251E+02  0.60143500102E+02  0.47000000000E+01 0.  1.
        -11    1    1    2    0    0  0.59958733192E+02  0.17788433743E+02  0.61671553081E+02  0.87834267348E+02  0.00000000000E+00 0.  1.
         11    1    1    2    0    0 -0.29679424008E+02  0.41933508118E+02  0.76205379412E+02  0.91905098683E+02  0.00000000000E+00 0. -1.
<mgrwt>
<rscale>  0 0.34706848E+03</rscale>
<asrwt>0</asrwt>
<pdfrwt beam="1">  1        2 0.17738842E+00 0.34706848E+03</pdfrwt>
<pdfrwt beam="2">  1       -2 0.40180781E-02 0.34706848E+03</pdfrwt>
<totfact> 0.58278589E+03</totfact>
</mgrwt>
</event>
<event>
 6    1  0.1045058E-005  0.1310218E+03  0.7546771E-02  0.1239490E+00
          2   -1    0    0  501    0  0.00000000000E+00  0.00000000000E+00  0.85173630891E+03  0.85173630891E+03  0.00000000000E+00 0.  1.
         -2   -1    0    0    0  501 -0.00000000000E+00 -0.00000000000E+00 -0.35732280975E+02  0.35732280975E+02  0.00000000000E+00 0. -1.
          5    1    1    2  502    0  0.10969625710E+00  0.11555868369E+02  0.20248596399E+01  0.12638836323E+02  0.47000000000E+01 0.  1.
         -5    1    1    2    0  502 -0.81616084012E+01  0.26844641000E+02  0.76259471378E+03  0.76312517590E+03  0.47000000000E+01 0.  1.
        -11    1    1    2    0    0 -0.14030706599E+02 -0.33873334201E+02  0.72229290188E+02  0.81002060830E+02  0.00000000000E+00 0.  1.
         11    1    1    2    0    0  0.22082618744E+02 -0.45271751686E+01 -0.20844835675E+02  0.30702516834E+02  0.00000000000E+00 0. -1.
<mgrwt>
<rscale>  0 0.12221332E+03</rscale>
<asrwt>0</asrwt>
<pdfrwt beam="1">  1        2 0.13103634E+00 0.13102179E+03</pdfrwt>
<pdfrwt beam="2">  1       -2 0.54972746E-02 0.13102179E+03</pdfrwt>
<totfact> 0.53718997E+03</totfact>
</mgrwt>
</event>
<event>
 6    1  0.1045058E-005  0.1253165E+03  0.7546771E-02  0.1250560E+00
          3   -1    0    0  501    0  0.00000000000E+00  0.00000000000E+00  0.13989638173E+03  0.13989638173E+03  0.00000000000E+00 0. -1.
         -3   -1    0    0    0  501 -0.00000000000E+00 -0.00000000000E+00 -0.10211282759E+03  0.10211282759E+03  0.00000000000E+00 0.  1.
          5    1    1    2  502    0 -0.30623583209E+02 -0.14111349068E+02 -0.23269749971E+02  0.41237183279E+02  0.47000000000E+01 0.  1.
         -5    1    1    2    0  502  0.31421245013E+02  0.22971618995E+02  0.95902217135E+02  0.10360654018E+03  0.47000000000E+01 0.  1.
        -11    1    1    2    0    0 -0.24549567349E+02  0.21523363560E+02 -0.46555088964E+02  0.56862225989E+02  0.00000000000E+00 0.  1.
         11    1    1    2    0    0  0.23751905545E+02 -0.30383633487E+02  0.11706175941E+02  0.40303259869E+02  0.00000000000E+00 0. -1.
<mgrwt>
<rscale>  0 0.11558709E+03</rscale>
<asrwt>0</asrwt>
<pdfrwt beam="1">  1        3 0.21522520E-01 0.12531652E+03</pdfrwt>
<pdfrwt beam="2">  1       -3 0.15709666E-01 0.12531652E+03</pdfrwt>
<totfact> 0.15291757E+03</totfact>
</mgrwt>
</event>
<event>
 6    1  0.1045058E-005  0.1353870E+03  0.7546771E-02  0.1231577E+00
          2   -1    0    0  501    0  0.00000000000E+00  0.00000000000E+00  0.31426783090E+03  0.31426783090E+03  0.00000000000E+00 0. -1.
         -2   -1    0    0    0  501 -0.00000000000E+00 -0.00000000000E+00 -0.50566550834E+02  0.50566550834E+02  0.00000000000E+00 0.  1.
          5    1    1    2  502    0 -0.52460291712E+01 -0.83477675341E+02  0.11904055813E+03  0.14556368909E+03  0.47000000000E+01 0.  1.
         -5    1    1    2    0  502 -0.27638290133E+02  0.43210542990E+02  0.80675896843E+02  0.95716855561E+02  0.47000000000E+01 0.  1.
        -11    1    1    2    0    0  0.25224493225E+01  0.51303936768E+02  0.73686474168E+02  0.89822898828E+02  0.00000000000E+00 0. -1.
         11    1    1    2    0    0  0.30361869982E+02 -0.11036804416E+02 -0.97016490750E+01  0.33730938251E+02  0.00000000000E+00 0.  1.
<mgrwt>
<rscale>  0 0.12726138E+03</rscale>
<asrwt>0</asrwt>
<pdfrwt beam="1">  1        2 0.48348896E-01 0.13538700E+03</pdfrwt>
<pdfrwt beam="2">  1       -2 0.77794695E-02 0.13538700E+03</pdfrwt>
<totfact> 0.97246331E+03</totfact>
</mgrwt>
</event>
<event>
 6    1  0.1045058E-005  0.1347412E+03  0.7546771E-02  0.1233208E+00
          2   -1    0    0  501    0  0.00000000000E+00  0.00000000000E+00  0.68071659437E+03  0.68071659437E+03  0.00000000000E+00 0. -1.
         -2   -1    0    0    0  501 -0.00000000000E+00 -0.00000000000E+00 -0.20900617829E+02  0.20900617829E+02  0.00000000000E+00 0.  1.
          5    1    1    2  502    0 -0.41855726093E+02 -0.89235253978E+00  0.91415518452E+02  0.10065577536E+03  0.47000000000E+01 0. -1.
         -5    1    1    2    0  502  0.90564633884E+02 -0.11647658173E+02  0.26987500634E+03  0.28494250279E+03  0.47000000000E+01 0. -1.
        -11    1    1    2    0    0  0.15094185400E+02 -0.25101866371E+02  0.96078126708E+02  0.10044373828E+03  0.00000000000E+00 0. -1.
         11    1    1    2    0    0 -0.63803093190E+02  0.37641877084E+02  0.20244732504E+03  0.21557519576E+03  0.00000000000E+00 0.  1.
<mgrwt>
<rscale>  0 0.12619844E+03</rscale>
<asrwt>0</asrwt>
<pdfrwt beam="1">  1        2 0.10472561E+00 0.13474119E+03</pdfrwt>
<pdfrwt beam="2">  1       -2 0.32154802E-02 0.13474119E+03</pdfrwt>
<totfact> 0.15724516E+04</totfact>
</mgrwt>
</event>
<event>
 6    1  0.1045058E-005  0.1279308E+03  0.7546771E-02  0.1245409E+00
         -2   -1    0    0    0  501 -0.00000000000E+00  0.00000000000E+00  0.11650535654E+02  0.11650535654E+02  0.00000000000E+00 0.  1.
          2   -1    0    0  501    0  0.00000000000E+00 -0.00000000000E+00 -0.10625762082E+04  0.10625762082E+04  0.00000000000E+00 0. -1.
          5    1    1    2  502    0  0.48837136808E+02  0.17950980529E+02 -0.13649373656E+03  0.14615038061E+03  0.47000000000E+01 0.  1.
         -5    1    1    2    0  502 -0.38218891848E+02 -0.43014934907E+02 -0.48129200307E+03  0.48474225165E+03  0.47000000000E+01 0.  1.
        -11    1    1    2    0    0  0.19868119410E+02 -0.27312212750E+02 -0.16708335661E+03  0.17046274429E+03  0.00000000000E+00 0.  1.
         11    1    1    2    0    0 -0.30486364369E+02  0.52376167128E+02 -0.26605657634E+03  0.27287136733E+03  0.00000000000E+00 0. -1.
<mgrwt>
<rscale>  0 0.11860904E+03</rscale>
<asrwt>0</asrwt>
<pdfrwt beam="2">  1        2 0.16347326E+00 0.12793081E+03</pdfrwt>
<pdfrwt beam="1">  1       -2 0.17923902E-02 0.12793081E+03</pdfrwt>
<totfact> 0.20764929E+04</totfact>
</mgrwt>
</event>
<event>
 6    1  0.1045058E-005  0.1426909E+03  0.7546771E-02  0.1220179E+00
         -2   -1    0    0    0  501 -0.00000000000E+00  0.00000000000E+00  0.24584830481E+02  0.24584830481E+02  0.00000000000E+00 0.  1.
          2   -1    0    0  501    0  0.00000000000E+00 -0.00000000000E+00 -0.11487429064E+04  0.11487429064E+04  0.00000000000E+00 0. -1.
          5    1    1    2  502    0 -0.45323633947E+02 -0.33654368640E+02 -0.80915619347E+03  0.81113666157E+03  0.47000000000E+01 0. -1.
         -5    1    1    2    0  502 -0.21871578685E+02  0.48526901004E+02 -0.16558750055E+03  0.17399579424E+03  0.47000000000E+01 0. -1.
        -11    1    1    2    0    0  0.85210714065E+02 -0.14780955604E+02 -0.84819078867E+02  0.12113471253E+03  0.00000000000E+00 0.  1.
         11    1    1    2    0    0 -0.18015501433E+02 -0.91576759186E-01 -0.64595303006E+02  0.67060568508E+02  0.00000000000E+00 0. -1.
<mgrwt>
<rscale>  0 0.13502875E+03</rscale>
<asrwt>0</asrwt>
<pdfrwt beam="2">  1        2 0.17672968E+00 0.14269088E+03</pdfrwt>
<pdfrwt beam="1">  1       -2 0.37822815E-02 0.14269088E+03</pdfrwt>
<totfact> 0.62536177E+03</totfact>
</mgrwt>
</event>
<event>
 6    1  0.1045058E-005  0.1576965E+03  0.7546771E-02  0.1198668E+00
         -1   -1    0    0    0  501 -0.00000000000E+00  0.00000000000E+00  0.12027910510E+03  0.12027910510E+03  0.00000000000E+00 0.  1.
          1   -1    0    0  501    0  0.00000000000E+00 -0.00000000000E+00 -0.10242492881E+04  0.10242492881E+04  0.00000000000E+00 0. -1.
          5    1    1    2  502    0  0.31414049074E+02 -0.10153529766E+03 -0.46133827207E+03  0.47344624871E+03  0.47000000000E+01 0.  1.
         -5    1    1    2    0  502 -0.21924884083E+02  0.58637618787E+01 -0.51705724759E+03  0.51757644028E+03  0.47000000000E+01 0.  1.
        -11    1    1    2    0    0  0.25235991552E+02  0.91593479416E+02  0.36115202213E+02  0.10163920785E+03  0.00000000000E+00 0. -1.
         11    1    1    2    0    0 -0.34725156543E+02  0.40780563606E+01  0.38310134461E+02  0.51866496344E+02  0.00000000000E+00 0.  1.
<mgrwt>
<rscale>  0 0.15147833E+03</rscale>
<asrwt>0</asrwt>
<pdfrwt beam="2">  1        1 0.15757681E+00 0.15769647E+03</pdfrwt>
<pdfrwt beam="1">  1       -1 0.18504478E-01 0.15769647E+03</pdfrwt>
<totfact> 0.35948716E+02</totfact>
</mgrwt>
</event>
<event>
 6    1  0.1045058E-005  0.1405972E+03  0.7546771E-02  0.1222890E+00
          4   -1    0    0  501    0  0.00000000000E+00  0.00000000000E+00  0.70241981791E+03  0.70241981791E+03  0.00000000000E+00 0. -1.
         -4   -1    0    0    0  501 -0.00000000000E+00 -0.00000000000E+00 -0.48977164626E+02  0.48977164626E+02  0.00000000000E+00 0.  1.
          5    1    1    2  502    0 -0.69427578025E+02 -0.13694932305E+02  0.22563568507E+03  0.23651911580E+03  0.47000000000E+01 0.  1.
         -5    1    1    2    0  502  0.42944970901E+02 -0.44961547802E+02  0.39112300860E+03  0.39606200166E+03  0.47000000000E+01 0.  1.
        -11    1    1    2    0    0 -0.20855630283E+02  0.60789385104E+02  0.11972143519E+02  0.65373074551E+02  0.00000000000E+00 0. -1.
         11    1    1    2    0    0  0.47338237408E+02 -0.21329049970E+01  0.24711816107E+02  0.53442790533E+02  0.00000000000E+00 0.  1.
<mgrwt>
<rscale>  0 0.13312598E+03</rscale>
<asrwt>0</asrwt>
<pdfrwt beam="1">  1        4 0.10806458E+00 0.14059724E+03</pdfrwt>
<pdfrwt beam="2">  1       -4 0.75349489E-02 0.14059724E+03</pdfrwt>
<totfact> 0.14651476E+02</totfact>
</mgrwt>
</event>
<event>
 6    1  0.1045058E-005  0.1301291E+03  0.7546771E-02  0.1241882E+00
          2   -1    0    0  501    0  0.00000000000E+00  0.00000000000E+00  0.39317822320E+03  0.39317822320E+03  0.00000000000E+00 0.  1.
         -2   -1    0    0    0  501 -0.00000000000E+00 -0.00000000000E+00 -0.32649867522E+02  0.32649867522E+02  0.00000000000E+00 0. -1.
          5    1    1    2  502    0 -0.59384649597E+02 -0.33217630738E+02  0.73106785842E+02  0.99983197267E+02  0.47000000000E+01 0.  1.
         -5    1    1    2    0  502  0.53375213572E+02 -0.24515249035E+01  0.13738920893E+03  0.14748833218E+03  0.47000000000E+01 0.  1.
        -11    1    1    2    0    0 -0.18485237962E+02 -0.23538605603E+02  0.30488996156E+02  0.42724101662E+02  0.00000000000E+00 0. -1.
         11    1    1    2    0    0  0.24494673986E+02  0.59207761244E+02  0.11954336475E+03  0.13563245961E+03  0.00000000000E+00 0.  1.
<mgrwt>
<rscale>  0 0.12073945E+03</rscale>
<asrwt>0</asrwt>
<pdfrwt beam="1">  1        2 0.60488954E-01 0.13012914E+03</pdfrwt>
<pdfrwt beam="2">  1       -2 0.50230568E-02 0.13012914E+03</pdfrwt>
<totfact> 0.14856087E+04</totfact>
</mgrwt>
</event>
<event>
 6    1  0.1045058E-005  0.1299834E+03  0.7546771E-02  0.1242251E+00
          1   -1    0    0  501    0  0.00000000000E+00  0.00000000000E+00  0.50139737907E+02  0.50139737907E+02  0.00000000000E+00 0. -1.
         -1   -1    0    0    0  501 -0.00000000000E+00 -0.00000000000E+00 -0.27535565796E+03  0.27535565796E+03  0.00000000000E+00 0.  1.
          5    1    1    2  502    0  0.44236576426E+02 -0.48567377638E+02 -0.75645430916E+02  0.10029948197E+03  0.47000000000E+01 0.  1.
         -5    1    1    2    0  502 -0.88712369463E+01  0.52947918337E+02 -0.85379657603E+01  0.54563428783E+02  0.47000000000E+01 0.  1.
        -11    1    1    2    0    0  0.45983806368E+00  0.29486201046E+02 -0.10840585553E+02  0.31419194743E+02  0.00000000000E+00 0.  1.
         11    1    1    2    0    0 -0.35825177544E+02 -0.33866741744E+02 -0.13019193782E+03  0.13921329037E+03  0.00000000000E+00 0. -1.
<mgrwt>
<rscale>  0 0.12051421E+03</rscale>
<asrwt>0</asrwt>
<pdfrwt beam="1">  1        1 0.77138057E-02 0.12998337E+03</pdfrwt>
<pdfrwt beam="2">  1       -1 0.42362409E-01 0.12998337E+03</pdfrwt>
<totfact> 0.48437047E+03</totfact>
</mgrwt>
</event>
<event>
 6    1  0.1045058E-005  0.1757045E+03  0.7546771E-02  0.1196120E+00
          3   -1    0    0  501    0  0.00000000000E+00  0.00000000000E+00  0.67307605220E+02  0.67307605220E+02  0.00000000000E+00 0. -1.
         -3   -1    0    0    0  501 -0.00000000000E+00 -0.00000000000E+00 -0.35694450897E+03  0.35694450897E+03  0.00000000000E+00 0.  1.
          5    1    1    2  502    0  0.10647891327E+03 -0.18542136493E+02 -0.49311802143E+02  0.11889202508E+03  0.47000000000E+01 0. -1.
         -5    1    1    2    0  502 -0.63816192408E+02  0.21303661154E+02 -0.35371160737E+02  0.76154851479E+02  0.47000000000E+01 0.  1.
        -11    1    1    2    0    0 -0.63234859680E+02 -0.11881846947E+01 -0.19731639245E+03  0.20720477309E+03  0.00000000000E+00 0.  1.
         11    1    1    2    0    0  0.20572138820E+02 -0.15733399659E+01 -0.76375484221E+01  0.22000464545E+02  0.00000000000E+00 0. -1.
<mgrwt>
<rscale>  0 0.15359787E+03</rscale>
<asrwt>0</asrwt>
<pdfrwt beam="1">  1        3 0.10355016E-01 0.17570452E+03</pdfrwt>
<pdfrwt beam="2">  1       -3 0.54914539E-01 0.17570452E+03</pdfrwt>
<totfact> 0.55225453E+02</totfact>
</mgrwt>
</event>
<event>
 6    1  0.1045058E-005  0.1254807E+03  0.7546771E-02  0.1251740E+00
          2   -1    0    0  501    0  0.00000000000E+00  0.00000000000E+00  0.10942557844E+04  0.10942557844E+04  0.00000000000E+00 0. -1.
         -2   -1    0    0    0  501 -0.00000000000E+00 -0.00000000000E+00 -0.13721752625E+02  0.13721752625E+02  0.00000000000E+00 0.  1.
          5    1    1    2  502    0 -0.40868786936E+02  0.13574283164E+02  0.11292144424E+03  0.12094569640E+03  0.47000000000E+01 0. -1.
         -5    1    1    2    0  502  0.36244977506E+02 -0.36199584100E+01  0.76688112948E+03  0.76776009225E+03  0.47000000000E+01 0. -1.
        -11    1    1    2    0    0 -0.11509237861E+02 -0.37978787749E+02  0.44055663699E+02  0.59293780272E+02  0.00000000000E+00 0.  1.
         11    1    1    2    0    0  0.16133047291E+02  0.28024462996E+02  0.15667579434E+03  0.15997796809E+03  0.00000000000E+00 0. -1.
<mgrwt>
<rscale>  0 0.11490896E+03</rscale>
<asrwt>0</asrwt>
<pdfrwt beam="1">  1        2 0.16834697E+00 0.12548072E+03</pdfrwt>
<pdfrwt beam="2">  1       -2 0.21110397E-02 0.12548072E+03</pdfrwt>
<totfact> 0.15689043E+04</totfact>
</mgrwt>
</event>
<event>
 6    1  0.1045058E-005  0.1665592E+03  0.7546771E-02  0.1185263E+00
         -1   -1    0    0    0  501 -0.00000000000E+00  0.00000000000E+00  0.28297466481E+03  0.28297466481E+03  0.00000000000E+00 0.  1.
          1   -1    0    0  501    0  0.00000000000E+00 -0.00000000000E+00 -0.13521156937E+03  0.13521156937E+03  0.00000000000E+00 0. -1.
          5    1    1    2  502    0 -0.29236777617E+02  0.70359517067E+02 -0.10874065585E+02  0.77107626793E+02  0.47000000000E+01 0.  1.
         -5    1    1    2    0  502  0.85695166269E+02  0.24164374692E+02 -0.33654237724E+02  0.95300977135E+02  0.47000000000E+01 0.  1.
        -11    1    1    2    0    0 -0.26955848048E+02 -0.10894576160E+03  0.10988236753E+03  0.15706664639E+03  0.00000000000E+00 0.  1.
         11    1    1    2    0    0 -0.29502540605E+02  0.14421869843E+02  0.82409031213E+02  0.88710983860E+02  0.00000000000E+00 0. -1.
<mgrwt>
<rscale>  0 0.16307954E+03</rscale>
<asrwt>0</asrwt>
<pdfrwt beam="2">  1        1 0.20801780E-01 0.16655917E+03</pdfrwt>
<pdfrwt beam="1">  1       -1 0.43534564E-01 0.16655917E+03</pdfrwt>
<totfact> 0.12721242E+03</totfact>
</mgrwt>
</event>
<event>
 6    1  0.1045058E-005  0.1264841E+03  0.7546771E-02  0.1241802E+00
          2   -1    0    0  501    0  0.00000000000E+00  0.00000000000E+00  0.26512897060E+03  0.26512897060E+03  0.00000000000E+00 0. -1.
         -2   -1    0    0    0  501 -0.00000000000E+00 -0.00000000000E+00 -0.83585570248E+02  0.83585570248E+02  0.00000000000E+00 0.  1.
          5    1    1    2  502    0 -0.77621142729E+02  0.34936704343E+02  0.16796388528E+03  0.18836021837E+03  0.47000000000E+01 0. -1.
         -5    1    1    2    0  502  0.36929332303E+02  0.12639598900E+01  0.37088237613E+02  0.52564251618E+02  0.47000000000E+01 0.  1.
        -11    1    1    2    0    0 -0.59993557635E+01  0.12341291548E+02 -0.36678954877E+02  0.39161785933E+02  0.00000000000E+00 0.  1.
         11    1    1    2    0    0  0.46691166189E+02 -0.48541955781E+02  0.13170232337E+02  0.68628284919E+02  0.00000000000E+00 0. -1.
<mgrwt>
<rscale>  0 0.12078861E+03</rscale>
<asrwt>0</asrwt>
<pdfrwt beam="1">  1        2 0.40789072E-01 0.12648410E+03</pdfrwt>
<pdfrwt beam="2">  1       -2 0.12859319E-01 0.12648410E+03</pdfrwt>
<totfact> 0.52623679E+03</totfact>
</mgrwt>
</event>
<event>
 6    1  0.1045058E-005  0.1269398E+03  0.7546771E-02  0.1246747E+00
          2   -1    0    0  501    0  0.00000000000E+00  0.00000000000E+00  0.53926769608E+03  0.53926769608E+03  0.00000000000E+00 0. -1.
         -2   -1    0    0    0  501 -0.00000000000E+00 -0.00000000000E+00 -0.27187353845E+02  0.27187353845E+02  0.00000000000E+00 0.  1.
          5    1    1    2  502    0 -0.33125465272E+02  0.39737792657E+02  0.95229870336E+02  0.10847675704E+03  0.47000000000E+01 0.  1.
         -5    1    1    2    0  502  0.21537443694E+02 -0.58564681754E+02  0.30683476657E+03  0.31315067844E+03  0.47000000000E+01 0.  1.
        -11    1    1    2    0    0 -0.18728314247E+02  0.48285524628E+02  0.64300490850E+02  0.82563882943E+02  0.00000000000E+00 0. -1.
         11    1    1    2    0    0  0.30316335825E+02 -0.29458635530E+02  0.45715214476E+02  0.62263731496E+02  0.00000000000E+00 0.  1.
<mgrwt>
<rscale>  0 0.11781446E+03</rscale>
<asrwt>0</asrwt>
<pdfrwt beam="1">  1        2 0.82964253E-01 0.12693984E+03</pdfrwt>
<pdfrwt beam="2">  1       -2 0.41826702E-02 0.12693984E+03</pdfrwt>
<totfact> 0.13834409E+04</totfact>
</mgrwt>
</event>
<event>
 6    1  0.1045058E-005  0.1550814E+03  0.7546771E-02  0.1202718E+00
          1   -1    0    0  501    0  0.00000000000E+00  0.00000000000E+00  0.43670781154E+03  0.43670781154E+03  0.00000000000E+00 0. -1.
         -1   -1    0    0    0  501 -0.00000000000E+00 -0.00000000000E+00 -0.52540637536E+02  0.52540637536E+02  0.00000000000E+00 0.  1.
          5    1    1    2  502    0 -0.94964675719E+02  0.40203758046E+02  0.28163013198E+03  0.29995375149E+03  0.47000000000E+01 0.  1.
         -5    1    1    2    0  502  0.40103468867E+01 -0.27882869123E+02  0.98425486434E+01  0.30207665194E+02  0.47000000000E+01 0.  1.
        -11    1    1    2    0    0  0.90371278514E+02  0.23569189466E+02  0.67441545111E+02  0.11519911753E+03  0.00000000000E+00 0. -1.
         11    1    1    2    0    0  0.58305031775E+00 -0.35890078389E+02  0.25252948266E+02  0.43887914858E+02  0.00000000000E+00 0.  1.
<mgrwt>
<rscale>  0 0.14818787E+03</rscale>
<asrwt>0</asrwt>
<pdfrwt beam="1">  1        1 0.67185815E-01 0.15508139E+03</pdfrwt>
<pdfrwt beam="2">  1       -1 0.80831753E-02 0.15508139E+03</pdfrwt>
<totfact> 0.44474130E+03</totfact>
</mgrwt>
</event>
<event>
 6    1  0.1045058E-005  0.1255507E+03  0.7546771E-02  0.1250314E+00
         -3   -1    0    0    0  501 -0.00000000000E+00  0.00000000000E+00  0.29940240846E+02  0.29940240846E+02  0.00000000000E+00 0.  1.
          3   -1    0    0  501    0  0.00000000000E+00 -0.00000000000E+00 -0.39727585477E+03  0.39727585477E+03  0.00000000000E+00 0. -1.
          5    1    1    2  502    0  0.37284577587E+02  0.21426604069E+02 -0.20816806248E+03  0.21261531301E+03  0.47000000000E+01 0.  1.
         -5    1    1    2    0  502 -0.47027733027E+02 -0.13336664599E+02 -0.32665750054E+02  0.58979789105E+02  0.47000000000E+01 0.  1.
        -11    1    1    2    0    0  0.12770434565E+02  0.31009171117E+02 -0.10638613442E+03  0.11154668211E+03  0.00000000000E+00 0. -1.
         11    1    1    2    0    0 -0.30272791250E+01 -0.39099110587E+02 -0.20115666973E+02  0.44074311400E+02  0.00000000000E+00 0.  1.
<mgrwt>
<rscale>  0 0.11572881E+03</rscale>
<asrwt>0</asrwt>
<pdfrwt beam="2">  1        3 0.61119359E-01 0.12555068E+03</pdfrwt>
<pdfrwt beam="1">  1       -3 0.46061912E-02 0.12555068E+03</pdfrwt>
<totfact> 0.15615600E+03</totfact>
</mgrwt>
</event>
<event>
 6    1  0.1045058E-005  0.1692497E+03  0.7546771E-02  0.1186510E+00
         -1   -1    0    0    0  501 -0.00000000000E+00  0.00000000000E+00  0.28693153636E+02  0.28693153636E+02  0.00000000000E+00 0.  1.
          1   -1    0    0  501    0  0.00000000000E+00 -0.00000000000E+00 -0.98795974790E+03  0.98795974790E+03  0.00000000000E+00 0. -1.
          5    1    1    2  502    0 -0.23459235705E+02 -0.11037906028E+03 -0.40544536639E+03  0.42088229687E+03  0.47000000000E+01 0. -1.
         -5    1    1    2    0  502 -0.47648122034E+02  0.21149072116E+02 -0.30393265248E+03  0.30840683201E+03  0.47000000000E+01 0. -1.
        -11    1    1    2    0    0  0.24352107012E+02 -0.78239080708E+01 -0.16849783334E+02  0.30629297280E+02  0.00000000000E+00 0.  1.
         11    1    1    2    0    0  0.46755250726E+02  0.97053896238E+02 -0.23303879205E+03  0.25673447537E+03  0.00000000000E+00 0. -1.
<mgrwt>
<rscale>  0 0.16195196E+03</rscale>
<asrwt>0</asrwt>
<pdfrwt beam="2">  1        1 0.15199379E+00 0.16924970E+03</pdfrwt>
<pdfrwt beam="1">  1       -1 0.44143319E-02 0.16924970E+03</pdfrwt>
<totfact> 0.34250225E+03</totfact>
</mgrwt>
</event>
<event>
 6    1  0.1045058E-005  0.1944737E+03  0.7546771E-02  0.1154750E+00
         -2   -1    0    0    0  501 -0.00000000000E+00  0.00000000000E+00  0.13272697659E+03  0.13272697659E+03  0.00000000000E+00 0.  1.
          2   -1    0    0  501    0  0.00000000000E+00 -0.00000000000E+00 -0.35174006289E+03  0.35174006289E+03  0.00000000000E+00 0. -1.
          5    1    1    2  502    0  0.63403681286E+02  0.31171666800E+02 -0.19962050679E+03  0.21180683733E+03  0.47000000000E+01 0. -1.
         -5    1    1    2    0  502  0.72320440739E+02  0.24160745003E+02 -0.16546937050E+02  0.78165714181E+02  0.47000000000E+01 0.  1.
        -11    1    1    2    0    0 -0.58523116179E+02  0.38028109989E+02  0.16748902108E+02  0.71774772716E+02  0.00000000000E+00 0.  1.
         11    1    1    2    0    0 -0.77201005846E+02 -0.93360521792E+02 -0.19594544577E+02  0.12271971525E+03  0.00000000000E+00 0. -1.
<mgrwt>
<rscale>  0 0.19417363E+03</rscale>
<asrwt>0</asrwt>
<pdfrwt beam="2">  1        2 0.54113855E-01 0.19447367E+03</pdfrwt>
<pdfrwt beam="1">  1       -2 0.20419535E-01 0.19447367E+03</pdfrwt>
<totfact> 0.18457964E+03</totfact>
</mgrwt>
</event>
<event>
 6    1  0.1045058E-005  0.1456437E+03  0.7546771E-02  0.1214977E+00
         -1   -1    0    0    0  501 -0.00000000000E+00  0.00000000000E+00  0.38191119561E+03  0.38191119561E+03  0.00000000000E+00 0.  1.
          1   -1    0    0  501    0  0.00000000000E+00 -0.00000000000E+00 -0.50029302413E+02  0.50029302413E+02  0.00000000000E+00 0. -1.
          5    1    1    2  502    0  0.79710250496E+02  0.12901215869E+02  0.11823376343E+03  0.14325319619E+03  0.47000000000E+01 0.  1.
         -5    1    1    2    0  502 -0.25322261126E+02  0.38373548663E+02  0.31167903374E+01  0.46320087732E+02  0.47000000000E+01 0.  1.
        -11    1    1    2    0    0  0.16812177425E+02 -0.16082427713E+02  0.76456308649E+01  0.24489782813E+02  0.00000000000E+00 0. -1.
         11    1    1    2    0    0 -0.71200166796E+02 -0.35192336819E+02  0.20288570857E+03  0.21787743129E+03  0.00000000000E+00 0.  1.
<mgrwt>
<rscale>  0 0.13878208E+03</rscale>
<asrwt>0</asrwt>
<pdfrwt beam="2">  1        1 0.76968160E-02 0.14564365E+03</pdfrwt>
<pdfrwt beam="1">  1       -1 0.58755567E-01 0.14564365E+03</pdfrwt>
<totfact> 0.26901746E+03</totfact>
</mgrwt>
</event>
<event>
 6    1  0.1045058E-005  0.1933055E+03  0.7546771E-02  0.1186747E+00
          1   -1    0    0  501    0  0.00000000000E+00  0.00000000000E+00  0.41858676751E+03  0.41858676751E+03  0.00000000000E+00 0. -1.
         -1   -1    0    0    0  501 -0.00000000000E+00 -0.00000000000E+00 -0.64264583126E+02  0.64264583126E+02  0.00000000000E+00 0.  1.
          5    1    1    2  502    0 -0.93063354992E+02  0.34797845593E+02  0.16654327259E+03  0.19398564314E+03  0.47000000000E+01 0. -1.
         -5    1    1    2    0  502  0.93179134716E+02 -0.93168525530E+01  0.16753637309E+03  0.19198875278E+03  0.47000000000E+01 0.  1.
        -11    1    1    2    0    0 -0.24324060671E+02 -0.48571907618E+02  0.29964087585E+02  0.62038187288E+02  0.00000000000E+00 0.  1.
         11    1    1    2    0    0  0.24208280946E+02  0.23090914579E+02 -0.97215488840E+01  0.34838767417E+02  0.00000000000E+00 0. -1.
<mgrwt>
<rscale>  0 0.16173903E+03</rscale>
<asrwt>0</asrwt>
<pdfrwt beam="1">  1        1 0.64397963E-01 0.19330552E+03</pdfrwt>
<pdfrwt beam="2">  1       -1 0.98868592E-02 0.19330552E+03</pdfrwt>
<totfact> 0.34857562E+03</totfact>
</mgrwt>
</event>
<event>
 6    1  0.1045058E-005  0.1424058E+03  0.7546771E-02  0.1221813E+00
         -1   -1    0    0    0  501 -0.00000000000E+00  0.00000000000E+00  0.22721338192E+03  0.22721338192E+03  0.00000000000E+00 0.  1.
          1   -1    0    0  501    0  0.00000000000E+00 -0.00000000000E+00 -0.85559161936E+02  0.85559161936E+02  0.00000000000E+00 0. -1.
          5    1    1    2  502    0 -0.30721194793E+02 -0.13276486523E+02 -0.23711130850E+02  0.41283951241E+02  0.47000000000E+01 0.  1.
         -5    1    1    2    0  502  0.93762211511E+02 -0.12634929071E+02  0.37164021968E+02  0.10175582671E+03  0.47000000000E+01 0.  1.
        -11    1    1    2    0    0  0.51929131012E+01  0.26779863528E+02  0.84269559923E+02  0.88574749036E+02  0.00000000000E+00 0.  1.
         11    1    1    2    0    0 -0.68233929820E+02 -0.86844793491E+00  0.43931768947E+02  0.81158016876E+02  0.00000000000E+00 0. -1.
<mgrwt>
<rscale>  0 0.13387756E+03</rscale>
<asrwt>0</asrwt>
<pdfrwt beam="2">  1        1 0.13162948E-01 0.14240575E+03</pdfrwt>
<pdfrwt beam="1">  1       -1 0.34955905E-01 0.14240575E+03</pdfrwt>
<totfact> 0.33530334E+03</totfact>
</mgrwt>
</event>
<event>
 6    1  0.1045058E-005  0.2762688E+03  0.7546771E-02  0.1136519E+00
          2   -1    0    0  501    0  0.00000000000E+00  0.00000000000E+00  0.24180446027E+03  0.24180446027E+03  0.00000000000E+00 0. -1.
         -2   -1    0    0    0  501 -0.00000000000E+00 -0.00000000000E+00 -0.15724043806E+03  0.15724043806E+03  0.00000000000E+00 0.  1.
          5    1    1    2  502    0  0.27231247709E+01  0.69830419657E+02  0.18619999114E+03  0.19893775313E+03  0.47000000000E+01 0. -1.
         -5    1    1    2    0  502  0.27978695479E+02 -0.26791378149E+02 -0.86401088527E+02  0.94804131991E+02  0.47000000000E+01 0.  1.
        -11    1    1    2    0    0 -0.16513716289E+01 -0.66135382231E+02 -0.16448861207E+02  0.68170234311E+02  0.00000000000E+00 0. -1.
         11    1    1    2    0    0 -0.29050448621E+02  0.23096340723E+02  0.12139808029E+01  0.37132778906E+02  0.00000000000E+00 0.  1.
<mgrwt>
<rscale>  0 0.21650143E+03</rscale>
<asrwt>0</asrwt>
<pdfrwt beam="1">  1        2 0.37200686E-01 0.27626884E+03</pdfrwt>
<pdfrwt beam="2">  1       -2 0.24190837E-01 0.27626884E+03</pdfrwt>
<totfact> 0.20801598E+03</totfact>
</mgrwt>
</event>
<event>
 6    1  0.1045058E-005  0.3767858E+03  0.7546771E-02  0.1052128E+00
          3   -1    0    0  501    0  0.00000000000E+00  0.00000000000E+00  0.59947951013E+02  0.59947951013E+02  0.00000000000E+00 0. -1.
         -3   -1    0    0    0  501 -0.00000000000E+00 -0.00000000000E+00 -0.59204511345E+03  0.59204511345E+03  0.00000000000E+00 0.  1.
          5    1    1    2  502    0  0.26493741634E+02 -0.15185095867E+02 -0.18522138150E+02  0.36023118742E+02  0.47000000000E+01 0. -1.
         -5    1    1    2    0  502 -0.13933643195E+03 -0.76088142497E+02 -0.17266334098E+03  0.23460342285E+03  0.47000000000E+01 0. -1.
        -11    1    1    2    0    0  0.11145413047E+03  0.39390724737E+02 -0.21899890677E+03  0.24886577419E+03  0.00000000000E+00 0.  1.
         11    1    1    2    0    0  0.13885598455E+01  0.51882513627E+02 -0.12191277654E+03  0.13250074868E+03  0.00000000000E+00 0. -1.
<mgrwt>
<rscale>  0 0.37678584E+03</rscale>
<asrwt>0</asrwt>
<pdfrwt beam="1">  1        3 0.92227616E-02 0.37678584E+03</pdfrwt>
<pdfrwt beam="2">  1       -3 0.91083865E-01 0.37678584E+03</pdfrwt>
<totfact> 0.24453931E+02</totfact>
</mgrwt>
</event>
<event>
 6    1  0.1045058E-005  0.2358358E+03  0.7546771E-02  0.1125330E+00
          1   -1    0    0  501    0  0.00000000000E+00  0.00000000000E+00  0.12000573084E+03  0.12000573084E+03  0.00000000000E+00 0. -1.
         -1   -1    0    0    0  501 -0.00000000000E+00 -0.00000000000E+00 -0.45678789427E+03  0.45678789427E+03  0.00000000000E+00 0.  1.
          5    1    1    2  502    0 -0.12041589322E+03  0.28227562459E+02 -0.12836625793E+03  0.17831648493E+03  0.47000000000E+01 0.  1.
         -5    1    1    2    0  502 -0.78518047284E+02 -0.77637286779E+01  0.19535624548E+02  0.81419222907E+02  0.47000000000E+01 0.  1.
        -11    1    1    2    0    0  0.67030542341E+02 -0.64653251779E+01 -0.19723574004E+02  0.70170602162E+02  0.00000000000E+00 0. -1.
         11    1    1    2    0    0  0.13190339816E+03 -0.13998508603E+02 -0.20822795604E+03  0.24688731511E+03  0.00000000000E+00 0.  1.
<mgrwt>
<rscale>  0 0.23187100E+03</rscale>
<asrwt>0</asrwt>
<pdfrwt beam="1">  1        1 0.18462421E-01 0.23583581E+03</pdfrwt>
<pdfrwt beam="2">  1       -1 0.70275058E-01 0.23583581E+03</pdfrwt>
<totfact> 0.60395563E+02</totfact>
</mgrwt>
</event>
<event>
 6    1  0.1045058E-005  0.2789472E+03  0.7546771E-02  0.1096265E+00
         -1   -1    0    0    0  501 -0.00000000000E+00  0.00000000000E+00  0.46035614689E+03  0.46035614689E+03  0.00000000000E+00 0.  1.
          1   -1    0    0  501    0  0.00000000000E+00 -0.00000000000E+00 -0.42256165961E+02  0.42256165961E+02  0.00000000000E+00 0. -1.
          5    1    1    2  502    0  0.99553483432E+01  0.30700343247E+02  0.16477616971E+03  0.16797290299E+03  0.47000000000E+01 0.  1.
         -5    1    1    2    0  502  0.71695302051E+02 -0.71608923818E+01  0.29063912547E+02  0.77835054624E+02  0.47000000000E+01 0.  1.
        -11    1    1    2    0    0 -0.34416557414E+02 -0.57405906260E+02  0.12433550361E+03  0.14120642676E+03  0.00000000000E+00 0.  1.
         11    1    1    2    0    0 -0.47234092980E+02  0.33866455396E+02  0.99924395057E+02  0.11559792848E+03  0.00000000000E+00 0. -1.
<mgrwt>
<rscale>  0 0.27894720E+03</rscale>
<asrwt>0</asrwt>
<pdfrwt beam="2">  1        1 0.65009489E-02 0.27894720E+03</pdfrwt>
<pdfrwt beam="1">  1       -1 0.70824019E-01 0.27894720E+03</pdfrwt>
<totfact> 0.24175951E+03</totfact>
</mgrwt>
</event>
<event>
 6    1  0.1045058E-005  0.1708984E+03  0.7546771E-02  0.1182399E+00
          3   -1    0    0  501    0  0.00000000000E+00  0.00000000000E+00  0.17073536398E+03  0.17073536398E+03  0.00000000000E+00 0. -1.
         -3   -1    0    0    0  501 -0.00000000000E+00 -0.00000000000E+00 -0.16241031724E+03  0.16241031724E+03  0.00000000000E+00 0.  1.
          5    1    1    2  502    0 -0.80066992695E+02 -0.43100406442E+02  0.76413995071E+02  0.11886781313E+03  0.47000000000E+01 0.  1.
         -5    1    1    2    0  502  0.90735986428E+01 -0.49316465599E+02 -0.29480850536E+02  0.58357985913E+02  0.47000000000E+01 0.  1.
        -11    1    1    2    0    0 -0.63561701376E+01  0.11860494252E+02 -0.42087500521E+02  0.44186309224E+02  0.00000000000E+00 0.  1.
         11    1    1    2    0    0  0.77349564190E+02  0.80556377789E+02  0.34794027304E+01  0.11173357296E+03  0.00000000000E+00 0. -1.
<mgrwt>
<rscale>  0 0.16570819E+03</rscale>
<asrwt>0</asrwt>
<pdfrwt beam="1">  1        3 0.26266979E-01 0.17089840E+03</pdfrwt>
<pdfrwt beam="2">  1       -3 0.24986203E-01 0.17089840E+03</pdfrwt>
<totfact> 0.49411404E+02</totfact>
</mgrwt>
</event>
<event>
 6    1  0.1045058E-005  0.1557599E+03  0.7546771E-02  0.1200769E+00
         -2   -1    0    0    0  501 -0.00000000000E+00  0.00000000000E+00  0.27478792253E+03  0.27478792253E+03  0.00000000000E+00 0.  1.
          2   -1    0    0  501    0  0.00000000000E+00 -0.00000000000E+00 -0.83046658480E+02  0.83046658480E+02  0.00000000000E+00 0. -1.
          5    1    1    2  502    0  0.32907388837E+02  0.81128838002E+01 -0.32206301980E+02  0.46989903286E+02  0.47000000000E+01 0.  1.
         -5    1    1    2    0  502 -0.93163832930E+01  0.81759175310E+02  0.82676846445E+02  0.11674291706E+03  0.47000000000E+01 0.  1.
        -11    1    1    2    0    0  0.18638247760E+02 -0.73667151536E+02  0.46491071000E+02  0.89082283187E+02  0.00000000000E+00 0. -1.
         11    1    1    2    0    0 -0.42229253303E+02 -0.16204907574E+02  0.94779648586E+02  0.10501947748E+03  0.00000000000E+00 0.  1.
<mgrwt>
<rscale>  0 0.14975934E+03</rscale>
<asrwt>0</asrwt>
<pdfrwt beam="2">  1        2 0.12776409E-01 0.15575995E+03</pdfrwt>
<pdfrwt beam="1">  1       -2 0.42275065E-01 0.15575995E+03</pdfrwt>
<totfact> 0.24607579E+03</totfact>
</mgrwt>
</event>
<event>
 6    1  0.1045058E-005  0.2675097E+03  0.7546771E-02  0.1102713E+00
          2   -1    0    0  501    0  0.00000000000E+00  0.00000000000E+00  0.78472411503E+03  0.78472411503E+03  0.00000000000E+00 0.  1.
         -2   -1    0    0    0  501 -0.00000000000E+00 -0.00000000000E+00 -0.22798277329E+02  0.22798277329E+02  0.00000000000E+00 0. -1.
          5    1    1    2  502    0 -0.17860011616E+02  0.15522710376E+02  0.28822827402E+03  0.28923617080E+03  0.47000000000E+01 0.  1.
         -5    1    1    2    0  502  0.82551804054E+02 -0.44088560583E+02  0.22563793797E+03  0.24432185858E+03  0.47000000000E+01 0.  1.
        -11    1    1    2    0    0 -0.67526030111E+02 -0.17652926007E+02  0.15664906052E+03  0.17149436930E+03  0.00000000000E+00 0. -1.
         11    1    1    2    0    0  0.28342376728E+01  0.46218776214E+02  0.91410565184E+02  0.10246999368E+03  0.00000000000E+00 0.  1.
<mgrwt>
<rscale>  0 0.26750969E+03</rscale>
<asrwt>0</asrwt>
<pdfrwt beam="1">  1        2 0.12072677E+00 0.26750969E+03</pdfrwt>
<pdfrwt beam="2">  1       -2 0.35074279E-02 0.26750969E+03</pdfrwt>
<totfact> 0.12123519E+04</totfact>
</mgrwt>
</event>
<event>
 6    1  0.1045058E-005  0.1395669E+03  0.7546771E-02  0.1225078E+00
          1   -1    0    0  501    0  0.00000000000E+00  0.00000000000E+00  0.52128586493E+03  0.52128586493E+03  0.00000000000E+00 0. -1.
         -1   -1    0    0    0  501 -0.00000000000E+00 -0.00000000000E+00 -0.49091254633E+02  0.49091254633E+02  0.00000000000E+00 0.  1.
          5    1    1    2  502    0  0.12429691723E+02  0.99758310428E+01 -0.26537885767E+01  0.16826973439E+02  0.47000000000E+01 0. -1.
         -5    1    1    2    0  502  0.23548596822E+02  0.40912507315E+02  0.43286665373E+03  0.43545837869E+03  0.47000000000E+01 0. -1.
        -11    1    1    2    0    0 -0.18905941449E+02  0.10083205602E+02  0.49877164194E+02  0.54284778394E+02  0.00000000000E+00 0. -1.
         11    1    1    2    0    0 -0.17072347096E+02 -0.60971543959E+02 -0.78954190449E+01  0.63806989037E+02  0.00000000000E+00 0.  1.
<mgrwt>
<rscale>  0 0.13161551E+03</rscale>
<asrwt>0</asrwt>
<pdfrwt beam="1">  1        1 0.80197822E-01 0.13956694E+03</pdfrwt>
<pdfrwt beam="2">  1       -1 0.75525011E-02 0.13956694E+03</pdfrwt>
<totfact> 0.38974895E+03</totfact>
</mgrwt>
</event>
<event>
 6    1  0.1045058E-005  0.1358542E+03  0.7546771E-02  0.1231007E+00
          3   -1    0    0  501    0  0.00000000000E+00  0.00000000000E+00  0.10213946319E+03  0.10213946319E+03  0.00000000000E+00 0. -1.
         -3   -1    0    0    0  501 -0.00000000000E+00 -0.00000000000E+00 -0.14359499993E+03  0.14359499993E+03  0.00000000000E+00 0.  1.
          5    1    1    2  502    0  0.52976193345E+02 -0.18374937321E+02 -0.79665653045E+01  0.56830199240E+02  0.47000000000E+01 0. -1.
         -5    1    1    2    0  502 -0.38343559335E+02  0.69536406806E+02 -0.73779405163E+01  0.79887823980E+02  0.47000000000E+01 0. -1.
        -11    1    1    2    0    0 -0.50405142364E+02 -0.21300293221E+02 -0.29734711879E+02  0.62277876960E+02  0.00000000000E+00 0.  1.
         11    1    1    2    0    0  0.35772508355E+02 -0.29861176264E+02  0.36236809572E+01  0.46738562938E+02  0.00000000000E+00 0. -1.
<mgrwt>
<rscale>  0 0.12763525E+03</rscale>
<asrwt>0</asrwt>
<pdfrwt beam="1">  1        3 0.15713764E-01 0.13585420E+03</pdfrwt>
<pdfrwt beam="2">  1       -3 0.22091538E-01 0.13585420E+03</pdfrwt>
<totfact> 0.14794161E+03</totfact>
</mgrwt>
</event>
<event>
 6    1  0.1045058E-005  0.3817115E+03  0.7546771E-02  0.1051371E+00
         -1   -1    0    0    0  501 -0.00000000000E+00  0.00000000000E+00  0.15126665189E+03  0.15126665189E+03  0.00000000000E+00 0.  1.
          1   -1    0    0  501    0  0.00000000000E+00 -0.00000000000E+00 -0.11102298096E+04  0.11102298096E+04  0.00000000000E+00 0. -1.
          5    1    1    2  502    0  0.43116036964E+02  0.15939669854E+03 -0.43920431665E+03  0.46924281765E+03  0.47000000000E+01 0. -1.
         -5    1    1    2    0  502  0.12836021022E+03  0.15789288871E+03 -0.29728622473E+03  0.36028835297E+03  0.47000000000E+01 0. -1.
        -11    1    1    2    0    0 -0.19996385079E+02 -0.10337279975E+03 -0.88763493936E+02  0.13771255934E+03  0.00000000000E+00 0.  1.
         11    1    1    2    0    0 -0.15147986210E+03 -0.21391678750E+03 -0.13370912238E+03  0.29425273152E+03  0.00000000000E+00 0. -1.
<mgrwt>
<rscale>  0 0.37881840E+03</rscale>
<asrwt>0</asrwt>
<pdfrwt beam="2">  1        1 0.17080459E+00 0.38171147E+03</pdfrwt>
<pdfrwt beam="1">  1       -1 0.23271792E-01 0.38171147E+03</pdfrwt>
<totfact> 0.20667110E+02</totfact>
</mgrwt>
</event>
<event>
 6    1  0.1045058E-005  0.1293964E+03  0.7546771E-02  0.1241540E+00
         -1   -1    0    0    0  501 -0.00000000000E+00  0.00000000000E+00  0.10091046758E+03  0.10091046758E+03  0.00000000000E+00 0.  1.
          1   -1    0    0  501    0  0.00000000000E+00 -0.00000000000E+00 -0.13194561138E+03  0.13194561138E+03  0.00000000000E+00 0. -1.
          5    1    1    2  502    0  0.66346511570E+02 -0.14638201999E+02 -0.56747274324E+02  0.88648066524E+02  0.47000000000E+01 0.  1.
         -5    1    1    2    0  502 -0.33466040517E+02  0.20888149353E+02  0.21891150439E+02  0.45360810385E+02  0.47000000000E+01 0.  1.
        -11    1    1    2    0    0  0.68839008697E+01 -0.28010642438E+02  0.33850902273E+02  0.44473225267E+02  0.00000000000E+00 0.  1.
         11    1    1    2    0    0 -0.39764371924E+02  0.21760695083E+02 -0.30029922183E+02  0.54373976784E+02  0.00000000000E+00 0. -1.
<mgrwt>
<rscale>  0 0.12094880E+03</rscale>
<asrwt>0</asrwt>
<pdfrwt beam="2">  1        1 0.20299325E-01 0.12939641E+03</pdfrwt>
<pdfrwt beam="1">  1       -1 0.15524687E-01 0.12939641E+03</pdfrwt>
<totfact> 0.71915511E+03</totfact>
</mgrwt>
</event>
<event>
 6    1  0.1045058E-005  0.1478706E+03  0.7546771E-02  0.1220076E+00
          2   -1    0    0  501    0  0.00000000000E+00  0.00000000000E+00  0.35006224318E+03  0.35006224318E+03  0.00000000000E+00 0. -1.
         -2   -1    0    0    0  501 -0.00000000000E+00 -0.00000000000E+00 -0.59686498386E+02  0.59686498386E+02  0.00000000000E+00 0.  1.
          5    1    1    2  502    0 -0.14848139158E+02  0.68697584474E+01  0.24325979612E+03  0.24385462724E+03  0.47000000000E+01 0. -1.
         -5    1    1    2    0  502  0.46514677436E+02  0.30180108051E+02  0.22001711196E+02  0.59838277336E+02  0.47000000000E+01 0.  1.
        -11    1    1    2    0    0 -0.45359540968E+02 -0.52256841005E+02 -0.52981419991E+01  0.69399824908E+02  0.00000000000E+00 0.  1.
         11    1    1    2    0    0  0.13693002690E+02  0.15206974507E+02  0.30412379475E+02  0.36656012081E+02  0.00000000000E+00 0. -1.
<mgrwt>
<rscale>  0 0.13510213E+03</rscale>
<asrwt>0</asrwt>
<pdfrwt beam="1">  1        2 0.53855728E-01 0.14787060E+03</pdfrwt>
<pdfrwt beam="2">  1       -2 0.91825384E-02 0.14787060E+03</pdfrwt>
<totfact> 0.67437088E+03</totfact>
</mgrwt>
</event>
<event>
 6    1  0.1045058E-005  0.2740778E+03  0.7546771E-02  0.1098968E+00
         -1   -1    0    0    0  501 -0.00000000000E+00  0.00000000000E+00  0.38920833404E+02  0.38920833404E+02  0.00000000000E+00 0.  1.
          1   -1    0    0  501    0  0.00000000000E+00 -0.00000000000E+00 -0.48250913632E+03  0.48250913632E+03  0.00000000000E+00 0. -1.
          5    1    1    2  502    0  0.28504464550E+02  0.96419607293E+02 -0.24777112294E+03  0.26743572037E+03  0.47000000000E+01 0.  1.
         -5    1    1    2    0  502 -0.73501394411E+01 -0.15491719008E+02  0.47137887337E+01  0.18393686739E+02  0.47000000000E+01 0.  1.
        -11    1    1    2    0    0 -0.56808221364E+02 -0.51286092826E+02 -0.11182117447E+03  0.13550428920E+03  0.00000000000E+00 0.  1.
         11    1    1    2    0    0  0.35653896255E+02 -0.29641795459E+02 -0.88709794242E+02  0.10009627341E+03  0.00000000000E+00 0. -1.
<mgrwt>
<rscale>  0 0.27407778E+03</rscale>
<asrwt>0</asrwt>
<pdfrwt beam="2">  1        1 0.74232170E-01 0.27407778E+03</pdfrwt>
<pdfrwt beam="1">  1       -1 0.59878209E-02 0.27407778E+03</pdfrwt>
<totfact> 0.63149899E+03</totfact>
</mgrwt>
</event>
<event>
 6    1  0.1045058E-005  0.1398782E+03  0.7546771E-02  0.1225713E+00
         -1   -1    0    0    0  501 -0.00000000000E+00  0.00000000000E+00  0.13540390962E+02  0.13540390962E+02  0.00000000000E+00 0.  1.
          1   -1    0    0  501    0  0.00000000000E+00 -0.00000000000E+00 -0.11784480997E+04  0.11784480997E+04  0.00000000000E+00 0. -1.
          5    1    1    2  502    0 -0.14279874758E+02  0.21467305211E+02 -0.44153723440E+03  0.44231434453E+03  0.47000000000E+01 0. -1.
         -5    1    1    2    0  502  0.57386011518E+02 -0.67389332356E+02 -0.32443981000E+03  0.33632983327E+03  0.47000000000E+01 0. -1.
        -11    1    1    2    0    0  0.24878901190E+02 -0.32937102283E+00 -0.11969895260E+03  0.12225754562E+03  0.00000000000E+00 0. -1.
         11    1    1    2    0    0 -0.67985037951E+02  0.46251398168E+02 -0.27923171170E+03  0.29108676720E+03  0.00000000000E+00 0.  1.
<mgrwt>
<rscale>  0 0.13118140E+03</rscale>
<asrwt>0</asrwt>
<pdfrwt beam="2">  1        1 0.18129977E+00 0.13987824E+03</pdfrwt>
<pdfrwt beam="1">  1       -1 0.20831364E-02 0.13987824E+03</pdfrwt>
<totfact> 0.74581731E+03</totfact>
</mgrwt>
</event>
<event>
 6    1  0.1045058E-005  0.1255673E+03  0.7546771E-02  0.1250181E+00
          1   -1    0    0  501    0  0.00000000000E+00  0.00000000000E+00  0.91209493188E+03  0.91209493188E+03  0.00000000000E+00 0. -1.
         -1   -1    0    0    0  501 -0.00000000000E+00 -0.00000000000E+00 -0.13844312769E+02  0.13844312769E+02  0.00000000000E+00 0.  1.
          5    1    1    2  502    0 -0.27733217583E+02 -0.19815340752E+02  0.51692675330E+02  0.62096713032E+02  0.47000000000E+01 0.  1.
         -5    1    1    2    0  502  0.36462074639E+02  0.27913798880E+02  0.58764232232E+03  0.58945250194E+03  0.47000000000E+01 0.  1.
        -11    1    1    2    0    0  0.77222537330E+01 -0.46037489106E+02  0.17062190684E+03  0.17689239300E+03  0.00000000000E+00 0.  1.
         11    1    1    2    0    0 -0.16451110788E+02  0.37939030978E+02  0.88293714614E+02  0.97497636680E+02  0.00000000000E+00 0. -1.
<mgrwt>
<rscale>  0 0.11580602E+03</rscale>
<asrwt>0</asrwt>
<pdfrwt beam="1">  1        1 0.14032225E+00 0.12556727E+03</pdfrwt>
<pdfrwt beam="2">  1       -1 0.21298950E-02 0.12556727E+03</pdfrwt>
<totfact> 0.11167874E+04</totfact>
</mgrwt>
</event>
<event>
 6    1  0.1045058E-005  0.1800956E+03  0.7546771E-02  0.1174077E+00
         -1   -1    0    0    0  501 -0.00000000000E+00  0.00000000000E+00  0.40309514530E+02  0.40309514530E+02  0.00000000000E+00 0.  1.
          1   -1    0    0  501    0  0.00000000000E+00 -0.00000000000E+00 -0.82707797668E+03  0.82707797668E+03  0.00000000000E+00 0. -1.
          5    1    1    2  502    0  0.15275244916E+02  0.66662123362E+02 -0.32915424457E+03  0.33621686233E+03  0.47000000000E+01 0. -1.
         -5    1    1    2    0  502 -0.97740037069E+02  0.33395170963E+02 -0.25836704543E+03  0.27828757150E+03  0.47000000000E+01 0. -1.
        -11    1    1    2    0    0  0.15235314286E+02 -0.82918402251E+02 -0.88746124339E+02  0.12240690674E+03  0.00000000000E+00 0. -1.
         11    1    1    2    0    0  0.67229477868E+02 -0.17138892075E+02 -0.11050104782E+03  0.13047615064E+03  0.00000000000E+00 0.  1.
<mgrwt>
<rscale>  0 0.17366698E+03</rscale>
<asrwt>0</asrwt>
<pdfrwt beam="2">  1        1 0.12724276E+00 0.18009562E+03</pdfrwt>
<pdfrwt beam="1">  1       -1 0.62014641E-02 0.18009562E+03</pdfrwt>
<totfact> 0.27522131E+03</totfact>
</mgrwt>
</event>
<event>
 6    1  0.1098562E-005  0.1308742E+03  0.7546771E-02  0.1238326E+00
         -3   -1    0    0    0  501 -0.00000000000E+00  0.00000000000E+00  0.37255325487E+03  0.37255325487E+03  0.00000000000E+00 0.  1.
          3   -1    0    0  501    0  0.00000000000E+00 -0.00000000000E+00 -0.36555229211E+02  0.36555229211E+02  0.00000000000E+00 0. -1.
          5    1    1    2  502    0  0.57414750010E+02  0.13345897820E+02  0.17802237061E+03  0.18758630266E+03  0.47000000000E+01 0. -1.
         -5    1    1    2    0  502 -0.27340238199E+02  0.11126393703E+02 -0.40004868159E+01  0.30155914119E+02  0.47000000000E+01 0. -1.
        -11    1    1    2    0    0 -0.97524969831E-01  0.31821038114E+02  0.25695613282E+02  0.40900519798E+02  0.00000000000E+00 0.  1.
         11    1    1    2    0    0 -0.29976986841E+02 -0.56293329637E+02  0.13628052858E+03  0.15046574750E+03  0.00000000000E+00 0. -1.
<mgrwt>
<rscale>  0 0.12293914E+03</rscale>
<asrwt>0</asrwt>
<pdfrwt beam="2">  1        3 0.56238817E-02 0.13087420E+03</pdfrwt>
<pdfrwt beam="1">  1       -3 0.57315883E-01 0.13087420E+03</pdfrwt>
<totfact> 0.13075980E+03</totfact>
</mgrwt>
</event>
<event>
 6    1  0.1045058E-005  0.1492831E+03  0.7546771E-02  0.1210879E+00
         -3   -1    0    0    0  501 -0.00000000000E+00  0.00000000000E+00  0.17763720010E+03  0.17763720010E+03  0.00000000000E+00 0.  1.
          3   -1    0    0  501    0  0.00000000000E+00 -0.00000000000E+00 -0.10333011446E+03  0.10333011446E+03  0.00000000000E+00 0. -1.
          5    1    1    2  502    0 -0.76710194744E+01 -0.75572326224E+02  0.45596322167E+02  0.88719420793E+02  0.47000000000E+01 0.  1.
         -5    1    1    2    0  502 -0.58693858550E+02  0.28069298905E+02 -0.66282903692E+01  0.65565835659E+02  0.47000000000E+01 0.  1.
        -11    1    1    2    0    0  0.32127029282E+02 -0.21970278963E+02  0.29824850750E+02  0.49034282808E+02  0.00000000000E+00 0.  1.
         11    1    1    2    0    0  0.34237848743E+02  0.69473306282E+02  0.55142030939E+01  0.77647775293E+02  0.00000000000E+00 0. -1.
<mgrwt>
<rscale>  0 0.14183675E+03</rscale>
<asrwt>0</asrwt>
<pdfrwt beam="2">  1        3 0.15896941E-01 0.14928306E+03</pdfrwt>
<pdfrwt beam="1">  1       -3 0.27328800E-01 0.14928306E+03</pdfrwt>
<totfact> 0.10026304E+03</totfact>
</mgrwt>
</event>
<event>
 6    1  0.1045058E-005  0.1263066E+03  0.7546771E-02  0.1249260E+00
          1   -1    0    0  501    0  0.00000000000E+00  0.00000000000E+00  0.31894068068E+02  0.31894068068E+02  0.00000000000E+00 0. -1.
         -1   -1    0    0    0  501 -0.00000000000E+00 -0.00000000000E+00 -0.39009472632E+03  0.39009472632E+03  0.00000000000E+00 0.  1.
          5    1    1    2  502    0  0.51987319398E+02  0.30469786452E+02 -0.30808237603E+02  0.67840450830E+02  0.47000000000E+01 0.  1.
         -5    1    1    2    0  502 -0.34908946914E+02 -0.24428626863E+02 -0.12851373262E+03  0.13547421104E+03  0.47000000000E+01 0.  1.
        -11    1    1    2    0    0  0.80702474786E+01  0.21536166347E+02 -0.82614031309E+01  0.24437392188E+02  0.00000000000E+00 0. -1.
         11    1    1    2    0    0 -0.25148619962E+02 -0.27577325935E+02 -0.19061728490E+03  0.19423674033E+03  0.00000000000E+00 0.  1.
<mgrwt>
<rscale>  0 0.11634003E+03</rscale>
<asrwt>0</asrwt>
<pdfrwt beam="1">  1        1 0.49067797E-02 0.12630662E+03</pdfrwt>
<pdfrwt beam="2">  1       -1 0.60014574E-01 0.12630662E+03</pdfrwt>
<totfact> 0.47184563E+03</totfact>
</mgrwt>
</event>
<event>
 6    1  0.1045058E-005  0.1348980E+03  0.7546771E-02  0.1256171E+00
         -1   -1    0    0    0  501 -0.00000000000E+00  0.00000000000E+00  0.28041210007E+02  0.28041210007E+02  0.00000000000E+00 0.  1.
          1   -1    0    0  501    0  0.00000000000E+00 -0.00000000000E+00 -0.56772824983E+03  0.56772824983E+03  0.00000000000E+00 0. -1.
          5    1    1    2  502    0  0.78397143417E+01 -0.78100267350E+02 -0.19995435498E+03  0.21486029637E+03  0.47000000000E+01 0. -1.
         -5    1    1    2    0  502 -0.19376072623E+02  0.36598628819E+02 -0.30371110793E+03  0.30655736642E+03  0.47000000000E+01 0.  1.
        -11    1    1    2    0    0  0.10508226096E+01 -0.11180576517E+02 -0.47199932133E+01  0.12181455387E+02  0.00000000000E+00 0. -1.
         11    1    1    2    0    0  0.10485535672E+02  0.52682215049E+02 -0.31301583701E+02  0.62170341667E+02  0.00000000000E+00 0.  1.
<mgrwt>
<rscale>  0 0.11240999E+03</rscale>
<asrwt>0</asrwt>
<pdfrwt beam="2">  1        1 0.87342804E-01 0.13489804E+03</pdfrwt>
<pdfrwt beam="1">  1       -1 0.43140325E-02 0.13489804E+03</pdfrwt>
<totfact> 0.79901324E+03</totfact>
</mgrwt>
</event>
<event>
 6    1  0.1045058E-005  0.1255628E+03  0.7546771E-02  0.1250929E+00
         -1   -1    0    0    0  501 -0.00000000000E+00  0.00000000000E+00  0.18382129045E+02  0.18382129045E+02  0.00000000000E+00 0.  1.
          1   -1    0    0  501    0  0.00000000000E+00 -0.00000000000E+00 -0.68671836168E+03  0.68671836168E+03  0.00000000000E+00 0. -1.
          5    1    1    2  502    0  0.35177349294E+02  0.40788061929E+02 -0.13992564613E+03  0.15000796093E+03  0.47000000000E+01 0.  1.
         -5    1    1    2    0  502 -0.36066388278E+02 -0.52681450383E+02 -0.34638435676E+03  0.35225038280E+03  0.47000000000E+01 0.  1.
        -11    1    1    2    0    0 -0.29671521405E+02  0.33927579195E+02 -0.59435461420E+02  0.74592586004E+02  0.00000000000E+00 0. -1.
         11    1    1    2    0    0  0.30560560389E+02 -0.22034190742E+02 -0.12259076833E+03  0.12824956098E+03  0.00000000000E+00 0.  1.
<mgrwt>
<rscale>  0 0.11537436E+03</rscale>
<asrwt>0</asrwt>
<pdfrwt beam="2">  1        1 0.10564895E+00 0.12556283E+03</pdfrwt>
<pdfrwt beam="1">  1       -1 0.28280206E-02 0.12556283E+03</pdfrwt>
<totfact> 0.11341844E+04</totfact>
</mgrwt>
</event>
<event>
 6    1  0.1045058E-005  0.1529980E+03  0.7546771E-02  0.1205614E+00
         -3   -1    0    0    0  501 -0.00000000000E+00  0.00000000000E+00  0.61445648393E+03  0.61445648393E+03  0.00000000000E+00 0.  1.
          3   -1    0    0  501    0  0.00000000000E+00 -0.00000000000E+00 -0.41083254358E+02  0.41083254358E+02  0.00000000000E+00 0. -1.
          5    1    1    2  502    0 -0.31237817520E+02  0.12107381215E+02  0.61993894924E+02  0.70623812777E+02  0.47000000000E+01 0.  1.
         -5    1    1    2    0  502  0.11050618466E+03  0.26651097960E+02  0.90312417335E+02  0.14525949399E+03  0.47000000000E+01 0.  1.
        -11    1    1    2    0    0 -0.81366832687E+02 -0.61604217544E+02  0.31437401322E+03  0.33052482700E+03  0.00000000000E+00 0. -1.
         11    1    1    2    0    0  0.20984655508E+01  0.22845738370E+02  0.10669290410E+03  0.10913160451E+03  0.00000000000E+00 0.  1.
<mgrwt>
<rscale>  0 0.14589176E+03</rscale>
<asrwt>0</asrwt>
<pdfrwt beam="2">  1        3 0.63205011E-02 0.15299800E+03</pdfrwt>
<pdfrwt beam="1">  1       -3 0.94531760E-01 0.15299800E+03</pdfrwt>
<totfact> 0.38043548E+02</totfact>
</mgrwt>
</event>
<event>
 6    1  0.1045058E-005  0.1227245E+03  0.7546771E-02  0.1253408E+00
         -2   -1    0    0    0  501 -0.00000000000E+00  0.00000000000E+00  0.10413255106E+02  0.10413255106E+02  0.00000000000E+00 0.  1.
          2   -1    0    0  501    0  0.00000000000E+00 -0.00000000000E+00 -0.23341377140E+04  0.23341377140E+04  0.00000000000E+00 0. -1.
          5    1    1    2  502    0  0.42159118305E+02  0.19291723347E+01 -0.17939675347E+04  0.17944700384E+04  0.47000000000E+01 0. -1.
         -5    1    1    2    0  502 -0.42388456861E+02  0.53200307317E+01 -0.29673196867E+03  0.29982834294E+03  0.47000000000E+01 0.  1.
        -11    1    1    2    0    0 -0.37797088217E+02 -0.27654855966E+02 -0.14181781905E+03  0.14935094487E+03  0.00000000000E+00 0.  1.
         11    1    1    2    0    0  0.38026426773E+02  0.20405652900E+02 -0.91207136467E+02  0.10090164293E+03  0.00000000000E+00 0. -1.
<mgrwt>
<rscale>  0 0.11395966E+03</rscale>
<asrwt>0</asrwt>
<pdfrwt beam="2">  1        2 0.35909826E+00 0.12272447E+03</pdfrwt>
<pdfrwt beam="1">  1       -2 0.16020386E-02 0.12272447E+03</pdfrwt>
<totfact> 0.52708372E+03</totfact>
</mgrwt>
</event>
<event>
 6    1  0.1045058E-005  0.1390924E+03  0.7546771E-02  0.1226667E+00
         -2   -1    0    0    0  501 -0.00000000000E+00  0.00000000000E+00  0.24258319277E+02  0.24258319277E+02  0.00000000000E+00 0.  1.
          2   -1    0    0  501    0  0.00000000000E+00 -0.00000000000E+00 -0.64815396137E+03  0.64815396137E+03  0.00000000000E+00 0. -1.
          5    1    1    2  502    0 -0.38767955135E+02  0.59778151449E+01 -0.10025026840E+03  0.10775386274E+03  0.47000000000E+01 0. -1.
         -5    1    1    2    0  502  0.98854234892E+02  0.45842117787E+01 -0.30780257231E+03  0.32335381283E+03  0.47000000000E+01 0. -1.
        -11    1    1    2    0    0 -0.32195183017E+01  0.13629047552E+02  0.26393297399E+01  0.14250694606E+02  0.00000000000E+00 0.  1.
         11    1    1    2    0    0 -0.56866761455E+02 -0.24191074476E+02 -0.21848213112E+03  0.22705391047E+03  0.00000000000E+00 0. -1.
<mgrwt>
<rscale>  0 0.13053315E+03</rscale>
<asrwt>0</asrwt>
<pdfrwt beam="2">  1        2 0.99716011E-01 0.13909244E+03</pdfrwt>
<pdfrwt beam="1">  1       -2 0.37320485E-02 0.13909244E+03</pdfrwt>
<totfact> 0.13392259E+04</totfact>
</mgrwt>
</event>
<event>
 6    1  0.1045058E-005  0.1637532E+03  0.7546771E-02  0.1194947E+00
          1   -1    0    0  501    0  0.00000000000E+00  0.00000000000E+00  0.63995913863E+03  0.63995913863E+03  0.00000000000E+00 0. -1.
         -1   -1    0    0    0  501 -0.00000000000E+00 -0.00000000000E+00 -0.35907783346E+02  0.35907783346E+02  0.00000000000E+00 0.  1.
          5    1    1    2  502    0  0.39278456115E+02 -0.90163287334E+02  0.38171417289E+03  0.39420808627E+03  0.47000000000E+01 0. -1.
         -5    1    1    2    0  502 -0.37351288598E+02 -0.15609075291E+02  0.35704489836E+02  0.54181755101E+02  0.47000000000E+01 0. -1.
        -11    1    1    2    0    0  0.34799188911E+02  0.43841035037E+02  0.10209794086E+03  0.11643457145E+03  0.00000000000E+00 0. -1.
         11    1    1    2    0    0 -0.36726356428E+02  0.61931327588E+02  0.84534751705E+02  0.11104250915E+03  0.00000000000E+00 0.  1.
<mgrwt>
<rscale>  0 0.15458713E+03</rscale>
<asrwt>0</asrwt>
<pdfrwt beam="1">  1        1 0.98455244E-01 0.16375320E+03</pdfrwt>
<pdfrwt beam="2">  1       -1 0.55242748E-02 0.16375320E+03</pdfrwt>
<totfact> 0.47503457E+03</totfact>
</mgrwt>
</event>
<event>
 6    1  0.1045058E-005  0.1316606E+03  0.7546771E-02  0.1239644E+00
         -1   -1    0    0    0  501 -0.00000000000E+00  0.00000000000E+00  0.17596112681E+02  0.17596112681E+02  0.00000000000E+00 0.  1.
          1   -1    0    0  501    0  0.00000000000E+00 -0.00000000000E+00 -0.74654903103E+03  0.74654903103E+03  0.00000000000E+00 0. -1.
          5    1    1    2  502    0 -0.20289043920E+01 -0.96530419576E+01  0.52713733173E+01  0.12131572393E+02  0.47000000000E+01 0.  1.
         -5    1    1    2    0  502 -0.36476830492E+02  0.24717793108E+02 -0.43662435768E+03  0.43886723297E+03  0.47000000000E+01 0.  1.
        -11    1    1    2    0    0 -0.83666419639E+01  0.16843825680E+02 -0.12783752975E+02  0.22740701428E+02  0.00000000000E+00 0.  1.
         11    1    1    2    0    0  0.46872376848E+02 -0.31908576831E+02 -0.28481618101E+03  0.29040563691E+03  0.00000000000E+00 0. -1.
<mgrwt>
<rscale>  0 0.12211762E+03</rscale>
<asrwt>0</asrwt>
<pdfrwt beam="2">  1        1 0.11485369E+00 0.13166064E+03</pdfrwt>
<pdfrwt beam="1">  1       -1 0.27070944E-02 0.13166064E+03</pdfrwt>
<totfact> 0.10751566E+04</totfact>
</mgrwt>
</event>
<event>
 6    1  0.1045058E-005  0.2067190E+03  0.7546771E-02  0.1148204E+00
         -1   -1    0    0    0  501 -0.00000000000E+00  0.00000000000E+00  0.41747861099E+03  0.41747861099E+03  0.00000000000E+00 0.  1.
          1   -1    0    0  501    0  0.00000000000E+00 -0.00000000000E+00 -0.98108249255E+02  0.98108249255E+02  0.00000000000E+00 0. -1.
          5    1    1    2  502    0 -0.41882453287E+02 -0.25490619944E+02 -0.19021094844E+02  0.52799655752E+02  0.47000000000E+01 0. -1.
         -5    1    1    2    0  502 -0.12244600602E+03  0.35704294177E+02  0.12852591729E+03  0.18113205798E+03  0.47000000000E+01 0. -1.
        -11    1    1    2    0    0  0.14082207420E+03  0.20021717707E+02  0.19314056219E+03  0.23986455036E+03  0.00000000000E+00 0.  1.
         11    1    1    2    0    0  0.23506385116E+02 -0.30235391940E+02  0.16724977105E+02  0.41790596145E+02  0.00000000000E+00 0. -1.
<mgrwt>
<rscale>  0 0.20182999E+03</rscale>
<asrwt>0</asrwt>
<pdfrwt beam="2">  1        1 0.15093577E-01 0.20671899E+03</pdfrwt>
<pdfrwt beam="1">  1       -1 0.64227477E-01 0.20671899E+03</pdfrwt>
<totfact> 0.93691469E+02</totfact>
</mgrwt>
</event>
<event>
 6    1  0.1045058E-005  0.1420571E+03  0.7546771E-02  0.1218100E+00
          4   -1    0    0  501    0  0.00000000000E+00  0.00000000000E+00  0.13654707337E+03  0.13654707337E+03  0.00000000000E+00 0. -1.
         -4   -1    0    0    0  501 -0.00000000000E+00 -0.00000000000E+00 -0.12740068794E+03  0.12740068794E+03  0.00000000000E+00 0.  1.
          5    1    1    2  502    0  0.34580312273E+02  0.63394275656E+02 -0.30629127449E+02  0.78580313254E+02  0.47000000000E+01 0. -1.
         -5    1    1    2    0  502 -0.45997080833E+02  0.31299461679E+01  0.44338514568E+02  0.64136743621E+02  0.47000000000E+01 0. -1.
        -11    1    1    2    0    0 -0.17165024318E+02 -0.58420047444E+02 -0.41605493269E+02  0.73746573299E+02  0.00000000000E+00 0.  1.
         11    1    1    2    0    0  0.28581792878E+02 -0.81041743804E+01  0.37042491584E+02  0.47484131131E+02  0.00000000000E+00 0. -1.
<mgrwt>
<rscale>  0 0.13651279E+03</rscale>
<asrwt>0</asrwt>
<pdfrwt beam="1">  1        4 0.21007242E-01 0.14205707E+03</pdfrwt>
<pdfrwt beam="2">  1       -4 0.19600106E-01 0.14205707E+03</pdfrwt>
<totfact> 0.80573698E+02</totfact>
</mgrwt>
</event>
<event>
 6    1  0.1045058E-005  0.1649870E+03  0.7546771E-02  0.1187786E+00
          2   -1    0    0  501    0  0.00000000000E+00  0.00000000000E+00  0.59021740309E+03  0.59021740309E+03  0.00000000000E+00 0. -1.
         -2   -1    0    0    0  501 -0.00000000000E+00 -0.00000000000E+00 -0.45233388513E+02  0.45233388513E+02  0.00000000000E+00 0.  1.
          5    1    1    2  502    0 -0.21019261204E+02  0.11182669260E+02  0.12464809283E+03  0.12698857618E+03  0.47000000000E+01 0. -1.
         -5    1    1    2    0  502  0.12388444342E+03 -0.43031182137E+02  0.24900503072E+03  0.28146870747E+03  0.47000000000E+01 0. -1.
        -11    1    1    2    0    0 -0.11752907159E+03  0.27445752032E+02  0.10839328260E+03  0.16222039233E+03  0.00000000000E+00 0.  1.
         11    1    1    2    0    0  0.14663889378E+02  0.44027608445E+01  0.62937608417E+02  0.64773115627E+02  0.00000000000E+00 0. -1.
<mgrwt>
<rscale>  0 0.16080971E+03</rscale>
<asrwt>0</asrwt>
<pdfrwt beam="1">  1        2 0.90802672E-01 0.16498696E+03</pdfrwt>
<pdfrwt beam="2">  1       -2 0.69589833E-02 0.16498696E+03</pdfrwt>
<totfact> 0.58894739E+03</totfact>
</mgrwt>
</event>
<event>
 6    1  0.1045058E-005  0.1130838E+03  0.7546771E-02  0.1266201E+00
          3   -1    0    0  501    0  0.00000000000E+00  0.00000000000E+00  0.26219288625E+03  0.26219288625E+03  0.00000000000E+00 0. -1.
         -3   -1    0    0    0  501 -0.00000000000E+00 -0.00000000000E+00 -0.41964856776E+02  0.41964856776E+02  0.00000000000E+00 0.  1.
          5    1    1    2  502    0  0.67695096915E+01 -0.56202360773E+02  0.13478114422E+03  0.14626201987E+03  0.47000000000E+01 0. -1.
         -5    1    1    2    0  502 -0.33244607268E+01  0.41455725571E+02  0.22694786032E+02  0.47610634681E+02  0.47000000000E+01 0.  1.
        -11    1    1    2    0    0 -0.58367906713E+01  0.47140677124E+02  0.10323215778E+02  0.48609467690E+02  0.00000000000E+00 0.  1.
         11    1    1    2    0    0  0.23917417066E+01 -0.32394041922E+02  0.52428883441E+02  0.61675620786E+02  0.00000000000E+00 0. -1.
<mgrwt>
<rscale>  0 0.10701435E+03</rscale>
<asrwt>0</asrwt>
<pdfrwt beam="1">  1        3 0.40337366E-01 0.11308376E+03</pdfrwt>
<pdfrwt beam="2">  1       -3 0.64561320E-02 0.11308376E+03</pdfrwt>
<totfact> 0.20501249E+03</totfact>
</mgrwt>
</event>
<event>
 6    1  0.1045058E-005  0.3468078E+03  0.7546771E-02  0.1063933E+00
         -3   -1    0    0    0  501 -0.00000000000E+00  0.00000000000E+00  0.48009506097E+03  0.48009506097E+03  0.00000000000E+00 0.  1.
          3   -1    0    0  501    0  0.00000000000E+00 -0.00000000000E+00 -0.62631173982E+02  0.62631173982E+02  0.00000000000E+00 0. -1.
          5    1    1    2  502    0  0.12893825912E+03 -0.61771168239E+02  0.14255247719E+03  0.20195061436E+03  0.47000000000E+01 0. -1.
         -5    1    1    2    0  502 -0.28365976811E+02 -0.17443505533E+02  0.16553359227E+02  0.37483439375E+02  0.47000000000E+01 0. -1.
        -11    1    1    2    0    0 -0.33793604442E+02  0.37750133704E+02  0.19746216429E+03  0.20385874183E+03  0.00000000000E+00 0.  1.
         11    1    1    2    0    0 -0.66778677864E+02  0.41464540068E+02  0.60895886283E+02  0.99433439378E+02  0.00000000000E+00 0. -1.
<mgrwt>
<rscale>  0 0.34680783E+03</rscale>
<asrwt>0</asrwt>
<pdfrwt beam="2">  1        3 0.96355655E-02 0.34680783E+03</pdfrwt>
<pdfrwt beam="1">  1       -3 0.73860776E-01 0.34680783E+03</pdfrwt>
<totfact> 0.35966271E+02</totfact>
</mgrwt>
</event>
<event>
 6    1  0.1045058E-005  0.1728256E+03  0.7546771E-02  0.1181596E+00
         -2   -1    0    0    0  501 -0.00000000000E+00  0.00000000000E+00  0.19676477731E+03  0.19676477731E+03  0.00000000000E+00 0. -1.
          2   -1    0    0  501    0  0.00000000000E+00 -0.00000000000E+00 -0.14217151532E+03  0.14217151532E+03  0.00000000000E+00 0.  1.
          5    1    1    2  502    0 -0.81905474420E+02  0.12024257289E+03 -0.11665202133E+02  0.14603064752E+03  0.47000000000E+01 0. -1.
         -5    1    1    2    0  502  0.10866902305E+02 -0.24339063959E+02 -0.57508654568E+01  0.27670237687E+02  0.47000000000E+01 0. -1.
        -11    1    1    2    0    0 -0.83641566225E+01 -0.71949479052E+01  0.40649054326E+02  0.42119734198E+02  0.00000000000E+00 0. -1.
         11    1    1    2    0    0  0.79402728738E+02 -0.88708561021E+02  0.31360275257E+02  0.12311567322E+03  0.00000000000E+00 0.  1.
<mgrwt>
<rscale>  0 0.16645535E+03</rscale>
<asrwt>0</asrwt>
<pdfrwt beam="2">  1        2 0.21872541E-01 0.17282557E+03</pdfrwt>
<pdfrwt beam="1">  1       -2 0.30271504E-01 0.17282557E+03</pdfrwt>
<totfact> 0.24655747E+03</totfact>
</mgrwt>
</event>
<event>
 6    1  0.1045058E-005  0.1254253E+03  0.7546771E-02  0.1250846E+00
         -1   -1    0    0    0  501 -0.00000000000E+00  0.00000000000E+00  0.17188965107E+03  0.17188965107E+03  0.00000000000E+00 0.  1.
          1   -1    0    0  501    0  0.00000000000E+00 -0.00000000000E+00 -0.87438620925E+02  0.87438620925E+02  0.00000000000E+00 0. -1.
          5    1    1    2  502    0 -0.73828037007E+01 -0.37084999674E+02 -0.54713584336E+02  0.66674352657E+02  0.47000000000E+01 0. -1.
         -5    1    1    2    0  502 -0.43766262234E+00  0.42872066581E+02  0.40986941287E+02  0.59499789895E+02  0.47000000000E+01 0. -1.
        -11    1    1    2    0    0  0.33105656349E+02 -0.36959119271E+02  0.58608715586E+02  0.76791552414E+02  0.00000000000E+00 0.  1.
         11    1    1    2    0    0 -0.25285190026E+02  0.31172052364E+02  0.39568957611E+02  0.56362577032E+02  0.00000000000E+00 0. -1.
<mgrwt>
<rscale>  0 0.11542241E+03</rscale>
<asrwt>0</asrwt>
<pdfrwt beam="2">  1        1 0.13452096E-01 0.12542525E+03</pdfrwt>
<pdfrwt beam="1">  1       -1 0.26444562E-01 0.12542525E+03</pdfrwt>
<totfact> 0.51729148E+03</totfact>
</mgrwt>
</event>
<event>
 6    1  0.1045058E-005  0.1451373E+03  0.7546771E-02  0.1215982E+00
          1   -1    0    0  501    0  0.00000000000E+00  0.00000000000E+00  0.34459373264E+03  0.34459373264E+03  0.00000000000E+00 0. -1.
         -1   -1    0    0    0  501 -0.00000000000E+00 -0.00000000000E+00 -0.50821502200E+02  0.50821502200E+02  0.00000000000E+00 0.  1.
          5    1    1    2  502    0 -0.38040798522E+02 -0.27862479450E+01  0.14814054761E+03  0.15304436408E+03  0.47000000000E+01 0. -1.
         -5    1    1    2    0  502 -0.11579530688E+02 -0.51800230449E+02 -0.14580092893E+01  0.53306333551E+02  0.47000000000E+01 0. -1.
        -11    1    1    2    0    0  0.30359670851E+02  0.79561500182E+02  0.12190900749E+03  0.14870624746E+03  0.00000000000E+00 0.  1.
         11    1    1    2    0    0  0.19260658358E+02 -0.24975021787E+02  0.25180684634E+02  0.40358289759E+02  0.00000000000E+00 0. -1.
<mgrwt>
<rscale>  0 0.13804647E+03</rscale>
<asrwt>0</asrwt>
<pdfrwt beam="1">  1        1 0.53014419E-01 0.14513733E+03</pdfrwt>
<pdfrwt beam="2">  1       -1 0.78186928E-02 0.14513733E+03</pdfrwt>
<totfact> 0.62843582E+03</totfact>
</mgrwt>
</event>
<event>
 6    1  0.1045058E-005  0.1144025E+03  0.7546771E-02  0.1263562E+00
          1   -1    0    0  501    0  0.00000000000E+00  0.00000000000E+00  0.34738894876E+03  0.34738894876E+03  0.00000000000E+00 0. -1.
         -1   -1    0    0    0  501 -0.00000000000E+00 -0.00000000000E+00 -0.82866812183E+02  0.82866812183E+02  0.00000000000E+00 0.  1.
          5    1    1    2  502    0 -0.24808545733E+01 -0.29355525323E+02  0.29650050732E+03  0.29799755426E+03  0.47000000000E+01 0. -1.
         -5    1    1    2    0  502  0.20414359960E+02  0.18882043603E+02  0.11310649158E+02  0.30385826425E+02  0.47000000000E+01 0.  1.
        -11    1    1    2    0    0 -0.50861657310E+02  0.39738515883E+01 -0.45331299967E+02  0.68246805328E+02  0.00000000000E+00 0.  1.
         11    1    1    2    0    0  0.32928151924E+02  0.64996301316E+01  0.20422800625E+01  0.33625574922E+02  0.00000000000E+00 0. -1.
<mgrwt>
<rscale>  0 0.10840015E+03</rscale>
<asrwt>0</asrwt>
<pdfrwt beam="1">  1        1 0.53444453E-01 0.11440252E+03</pdfrwt>
<pdfrwt beam="2">  1       -1 0.12748741E-01 0.11440252E+03</pdfrwt>
<totfact> 0.29153197E+03</totfact>
</mgrwt>
</event>
<event>
 6    1  0.1045058E-005  0.1359486E+03  0.7546771E-02  0.1232974E+00
         -2   -1    0    0    0  501 -0.00000000000E+00  0.00000000000E+00  0.95506330217E+02  0.95506330217E+02  0.00000000000E+00 0.  1.
          2   -1    0    0  501    0  0.00000000000E+00 -0.00000000000E+00 -0.15584806491E+03  0.15584806491E+03  0.00000000000E+00 0. -1.
          5    1    1    2  502    0  0.41132351218E+02 -0.10689319261E+02 -0.90085687805E+01  0.43696409171E+02  0.47000000000E+01 0. -1.
         -5    1    1    2    0  502 -0.74876376430E+02  0.52153859203E+02 -0.54103000054E+02  0.10618719976E+03  0.47000000000E+01 0. -1.
        -11    1    1    2    0    0  0.20648646629E+02 -0.37641807304E+02 -0.38708455538E+02  0.57806719288E+02  0.00000000000E+00 0. -1.
         11    1    1    2    0    0  0.13095378583E+02 -0.38227326378E+01  0.41478289677E+02  0.43664066915E+02  0.00000000000E+00 0.  1.
<mgrwt>
<rscale>  0 0.12635019E+03</rscale>
<asrwt>0</asrwt>
<pdfrwt beam="2">  1        2 0.23976625E-01 0.13594862E+03</pdfrwt>
<pdfrwt beam="1">  1       -2 0.14693282E-01 0.13594862E+03</pdfrwt>
<totfact> 0.75672714E+03</totfact>
</mgrwt>
</event>
<event>
 6    1  0.1045058E-005  0.3503355E+03  0.7546771E-02  0.1062477E+00
          1   -1    0    0  501    0  0.00000000000E+00  0.00000000000E+00  0.89227178644E+03  0.89227178644E+03  0.00000000000E+00 0. -1.
         -1   -1    0    0    0  501 -0.00000000000E+00 -0.00000000000E+00 -0.34388325469E+02  0.34388325469E+02  0.00000000000E+00 0.  1.
          5    1    1    2  502    0  0.82112549423E+01  0.93305965376E+01  0.55637281707E+01  0.14405894996E+02  0.47000000000E+01 0.  1.
         -5    1    1    2    0  502 -0.34392734684E+02 -0.47417378832E+02  0.79557421677E+03  0.79774162008E+03  0.47000000000E+01 0.  1.
        -11    1    1    2    0    0  0.22061329402E+02 -0.47808721081E+01 -0.17580441734E+02  0.28611727048E+02  0.00000000000E+00 0.  1.
         11    1    1    2    0    0  0.41201503396E+01  0.42867654402E+02  0.74325957756E+02  0.85900869781E+02  0.00000000000E+00 0. -1.
<mgrwt>
<rscale>  0 0.35033545E+03</rscale>
<asrwt>0</asrwt>
<pdfrwt beam="1">  1        1 0.13727256E+00 0.35033545E+03</pdfrwt>
<pdfrwt beam="2">  1       -1 0.52905123E-02 0.35033545E+03</pdfrwt>
<totfact> 0.31395834E+03</totfact>
</mgrwt>
</event>
<event>
 6    1  0.1045058E-005  0.2834041E+03  0.7546771E-02  0.1151609E+00
         -2   -1    0    0    0  501 -0.00000000000E+00  0.00000000000E+00  0.41095992257E+02  0.41095992257E+02  0.00000000000E+00 0.  1.
          2   -1    0    0  501    0  0.00000000000E+00 -0.00000000000E+00 -0.11724334740E+04  0.11724334740E+04  0.00000000000E+00 0. -1.
          5    1    1    2  502    0 -0.13518416173E+03  0.57909654990E+02 -0.57228584997E+03  0.59089886597E+03  0.47000000000E+01 0. -1.
         -5    1    1    2    0  502  0.10334584521E+03 -0.88683982533E+02 -0.53360617743E+03  0.55072938461E+03  0.47000000000E+01 0.  1.
        -11    1    1    2    0    0  0.45520292029E+02  0.26910658663E+02 -0.21992553138E+02  0.57270873309E+02  0.00000000000E+00 0.  1.
         11    1    1    2    0    0 -0.13681975504E+02  0.38636688798E+01 -0.34529011900E+01  0.14630342359E+02  0.00000000000E+00 0. -1.
<mgrwt>
<rscale>  0 0.19779927E+03</rscale>
<asrwt>0</asrwt>
<pdfrwt beam="2">  1        2 0.18037436E+00 0.28340410E+03</pdfrwt>
<pdfrwt beam="1">  1       -2 0.63224611E-02 0.28340410E+03</pdfrwt>
<totfact> 0.28271777E+03</totfact>
</mgrwt>
</event>
<event>
 6    1  0.1045058E-005  0.2608737E+03  0.7546771E-02  0.1108896E+00
          1   -1    0    0  501    0  0.00000000000E+00  0.00000000000E+00  0.81338009340E+03  0.81338009340E+03  0.00000000000E+00 0. -1.
         -1   -1    0    0    0  501 -0.00000000000E+00 -0.00000000000E+00 -0.93355480311E+02  0.93355480311E+02  0.00000000000E+00 0.  1.
          5    1    1    2  502    0  0.16386592549E+01  0.83246399701E+02  0.34967000007E+03  0.35947718595E+03  0.47000000000E+01 0.  1.
         -5    1    1    2    0  502 -0.36645963329E+02  0.14303711036E+03  0.19691032414E+03  0.24616723446E+03  0.47000000000E+01 0.  1.
        -11    1    1    2    0    0  0.50886973984E+01 -0.44346947112E+02 -0.44804622388E+01  0.44862245834E+02  0.00000000000E+00 0.  1.
         11    1    1    2    0    0  0.29918606675E+02 -0.18193656295E+03  0.17792475111E+03  0.25622890747E+03  0.00000000000E+00 0. -1.
<mgrwt>
<rscale>  0 0.25710329E+03</rscale>
<asrwt>0</asrwt>
<pdfrwt beam="1">  1        1 0.12513539E+00 0.26087375E+03</pdfrwt>
<pdfrwt beam="2">  1       -1 0.14362382E-01 0.26087375E+03</pdfrwt>
<totfact> 0.77615323E+02</totfact>
</mgrwt>
</event>
<event>
 6    1  0.1045058E-005  0.4861550E+03  0.7546771E-02  0.1017457E+00
          2   -1    0    0  501    0  0.00000000000E+00  0.00000000000E+00  0.61446704870E+03  0.61446704870E+03  0.00000000000E+00 0. -1.
         -2   -1    0    0    0  501 -0.00000000000E+00 -0.00000000000E+00 -0.96159236682E+02  0.96159236682E+02  0.00000000000E+00 0.  1.
          5    1    1    2  502    0 -0.16905937727E+03 -0.50783145311E+02  0.37327902177E+03  0.41293984911E+03  0.47000000000E+01 0. -1.
         -5    1    1    2    0  502  0.31792458065E+01  0.29655174292E+02  0.97178447754E+02  0.10176088479E+03  0.47000000000E+01 0. -1.
        -11    1    1    2    0    0  0.58013015222E+02  0.24410550656E+02 -0.22796543723E+02  0.66940774750E+02  0.00000000000E+00 0.  1.
         11    1    1    2    0    0  0.10786711624E+03 -0.32825796369E+01  0.70646886217E+02  0.12898477673E+03  0.00000000000E+00 0. -1.
<mgrwt>
<rscale>  0 0.48615505E+03</rscale>
<asrwt>0</asrwt>
<pdfrwt beam="1">  1        2 0.94533390E-01 0.48615505E+03</pdfrwt>
<pdfrwt beam="2">  1       -2 0.14793729E-01 0.48615505E+03</pdfrwt>
<totfact> 0.17262631E+03</totfact>
</mgrwt>
</event>
<event>
 6    1  0.1045058E-005  0.2308342E+03  0.7546771E-02  0.1128640E+00
         -3   -1    0    0    0  501 -0.00000000000E+00  0.00000000000E+00  0.14705344925E+03  0.14705344925E+03  0.00000000000E+00 0.  1.
          3   -1    0    0  501    0  0.00000000000E+00 -0.00000000000E+00 -0.44257775554E+03  0.44257775554E+03  0.00000000000E+00 0. -1.
          5    1    1    2  502    0 -0.13308819483E+03  0.65827118238E+02 -0.18122585967E+03  0.23433006489E+03  0.47000000000E+01 0. -1.
         -5    1    1    2    0  502 -0.60673792819E+02 -0.55079686371E+02 -0.11183742854E+03  0.13872556148E+03  0.47000000000E+01 0. -1.
        -11    1    1    2    0    0  0.87598755168E+02 -0.35008601890E+02  0.36162412350E+02  0.10102902642E+03  0.00000000000E+00 0.  1.
         11    1    1    2    0    0  0.10616323248E+03  0.24261170023E+02 -0.38623430437E+02  0.11554655200E+03  0.00000000000E+00 0. -1.
<mgrwt>
<rscale>  0 0.22718017E+03</rscale>
<asrwt>0</asrwt>
<pdfrwt beam="2">  1        3 0.68088885E-01 0.23083416E+03</pdfrwt>
<pdfrwt beam="1">  1       -3 0.22623608E-01 0.23083416E+03</pdfrwt>
<totfact> 0.94028918E+01</totfact>
</mgrwt>
</event>
<event>
 6    1  0.1045058E-005  0.1256551E+03  0.7546771E-02  0.1250347E+00
         -2   -1    0    0    0  501 -0.00000000000E+00  0.00000000000E+00  0.17310486095E+03  0.17310486095E+03  0.00000000000E+00 0. -1.
          2   -1    0    0  501    0  0.00000000000E+00 -0.00000000000E+00 -0.15002076868E+03  0.15002076868E+03  0.00000000000E+00 0.  1.
          5    1    1    2  502    0 -0.30010783657E+02 -0.39041798163E+02  0.21760487227E+01  0.49514990938E+02  0.47000000000E+01 0.  1.
         -5    1    1    2    0  502  0.18958142517E+02  0.32543118059E+02 -0.10897263803E+03  0.11539320404E+03  0.47000000000E+01 0.  1.
        -11    1    1    2    0    0 -0.89949069286E+01 -0.24712912213E+02  0.11546061498E+03  0.11841786180E+03  0.00000000000E+00 0. -1.
         11    1    1    2    0    0  0.20047548069E+02  0.31211592317E+02  0.14420066595E+02  0.39799572851E+02  0.00000000000E+00 0.  1.
<mgrwt>
<rscale>  0 0.11571013E+03</rscale>
<asrwt>0</asrwt>
<pdfrwt beam="2">  1        2 0.23080118E-01 0.12565509E+03</pdfrwt>
<pdfrwt beam="1">  1       -2 0.26631517E-01 0.12565509E+03</pdfrwt>
<totfact> 0.28743660E+03</totfact>
</mgrwt>
</event>
<event>
 6    1  0.1045058E-005  0.1147995E+03  0.7546771E-02  0.1262943E+00
          3   -1    0    0  501    0  0.00000000000E+00  0.00000000000E+00  0.10361059911E+03  0.10361059911E+03  0.00000000000E+00 0. -1.
         -3   -1    0    0    0  501 -0.00000000000E+00 -0.00000000000E+00 -0.10521490405E+03  0.10521490405E+03  0.00000000000E+00 0.  1.
          5    1    1    2  502    0 -0.17221111556E+02 -0.48574280298E+02 -0.35368831666E+01  0.51871253428E+02  0.47000000000E+01 0. -1.
         -5    1    1    2    0  502  0.98795437589E+01  0.61960590240E+02 -0.10359812596E+02  0.63766259454E+02  0.47000000000E+01 0.  1.
        -11    1    1    2    0    0  0.43452014994E+02 -0.91254402241E+00  0.28195150035E+02  0.51806146635E+02  0.00000000000E+00 0.  1.
         11    1    1    2    0    0 -0.36110447198E+02 -0.12473765919E+02 -0.15902759206E+02  0.41381843644E+02  0.00000000000E+00 0. -1.
<mgrwt>
<rscale>  0 0.10872814E+03</rscale>
<asrwt>0</asrwt>
<pdfrwt beam="1">  1        3 0.15940092E-01 0.11479946E+03</pdfrwt>
<pdfrwt beam="2">  1       -3 0.16186908E-01 0.11479946E+03</pdfrwt>
<totfact> 0.24122869E+03</totfact>
</mgrwt>
</event>
<event>
 6    1  0.1045058E-005  0.1264518E+03  0.7546771E-02  0.1247397E+00
          2   -1    0    0  501    0  0.00000000000E+00  0.00000000000E+00  0.51565858915E+03  0.51565858915E+03  0.00000000000E+00 0. -1.
         -2   -1    0    0    0  501 -0.00000000000E+00 -0.00000000000E+00 -0.30947146812E+02  0.30947146812E+02  0.00000000000E+00 0.  1.
          5    1    1    2  502    0 -0.31996549071E+02 -0.32369788231E+02  0.48270573053E+02  0.66511055964E+02  0.47000000000E+01 0. -1.
         -5    1    1    2    0  502  0.14447413068E+02  0.24706118128E+02  0.35353202070E+03  0.35471974808E+03  0.47000000000E+01 0. -1.
        -11    1    1    2    0    0 -0.31624464643E+02 -0.15415045600E+02  0.14574297031E+02  0.38080710717E+02  0.00000000000E+00 0.  1.
         11    1    1    2    0    0  0.49173600646E+02  0.23078715703E+02  0.68334551558E+02  0.87294221204E+02  0.00000000000E+00 0. -1.
<mgrwt>
<rscale>  0 0.11743054E+03</rscale>
<asrwt>0</asrwt>
<pdfrwt beam="1">  1        2 0.79332084E-01 0.12645183E+03</pdfrwt>
<pdfrwt beam="2">  1       -2 0.47610999E-02 0.12645183E+03</pdfrwt>
<totfact> 0.11980053E+04</totfact>
</mgrwt>
</event>
<event>
 6    1  0.1045058E-005  0.1781221E+03  0.7546771E-02  0.1176056E+00
         -1   -1    0    0    0  501 -0.00000000000E+00  0.00000000000E+00  0.23751881390E+02  0.23751881390E+02  0.00000000000E+00 0.  1.
          1   -1    0    0  501    0  0.00000000000E+00 -0.00000000000E+00 -0.14830057565E+04  0.14830057565E+04  0.00000000000E+00 0. -1.
          5    1    1    2  502    0  0.61363762059E+02 -0.21049256148E+02 -0.88594271633E+03  0.88832717458E+03  0.47000000000E+01 0. -1.
         -5    1    1    2    0  502  0.64319522967E+02  0.38532251252E+02 -0.23604907251E+03  0.24771554262E+03  0.47000000000E+01 0. -1.
        -11    1    1    2    0    0 -0.10508573133E+03 -0.22156479445E+02 -0.33201397394E+03  0.34895157171E+03  0.00000000000E+00 0. -1.
         11    1    1    2    0    0 -0.20597553696E+02  0.46734843409E+01 -0.52481122810E+01  0.21763348930E+02  0.00000000000E+00 0.  1.
<mgrwt>
<rscale>  0 0.17172948E+03</rscale>
<asrwt>0</asrwt>
<pdfrwt beam="2">  1        1 0.22815484E+00 0.17812210E+03</pdfrwt>
<pdfrwt beam="1">  1       -1 0.36541338E-02 0.17812210E+03</pdfrwt>
<totfact> 0.20662187E+03</totfact>
</mgrwt>
</event>
<event>
 6    1  0.1045058E-005  0.1373908E+03  0.7546771E-02  0.1227186E+00
         -2   -1    0    0    0  501 -0.00000000000E+00  0.00000000000E+00  0.27967728293E+02  0.27967728293E+02  0.00000000000E+00 0.  1.
          2   -1    0    0  501    0  0.00000000000E+00 -0.00000000000E+00 -0.59269505154E+03  0.59269505154E+03  0.00000000000E+00 0. -1.
          5    1    1    2  502    0  0.34215279033E+01 -0.32744768220E+02 -0.29821563047E+03  0.30006429137E+03  0.47000000000E+01 0. -1.
         -5    1    1    2    0  502 -0.63957542830E+02  0.20475334084E+02 -0.94776824623E+02  0.11625206698E+03  0.47000000000E+01 0.  1.
        -11    1    1    2    0    0  0.84024340203E+02  0.59147749971E+01 -0.11442659569E+03  0.14208631219E+03  0.00000000000E+00 0. -1.
         11    1    1    2    0    0 -0.23488325276E+02  0.63546591386E+01 -0.57308272466E+02  0.62260109300E+02  0.00000000000E+00 0.  1.
<mgrwt>
<rscale>  0 0.13018171E+03</rscale>
<asrwt>0</asrwt>
<pdfrwt beam="2">  1        2 0.91183862E-01 0.13739083E+03</pdfrwt>
<pdfrwt beam="1">  1       -2 0.43027271E-02 0.13739083E+03</pdfrwt>
<totfact> 0.12000480E+04</totfact>
</mgrwt>
</event>
<event>
 6    1  0.1045058E-005  0.1136605E+03  0.7546771E-02  0.1263753E+00
          2   -1    0    0  501    0  0.00000000000E+00  0.00000000000E+00  0.25551249510E+03  0.25551249510E+03  0.00000000000E+00 0. -1.
         -2   -1    0    0    0  501 -0.00000000000E+00 -0.00000000000E+00 -0.42390263437E+02  0.42390263437E+02  0.00000000000E+00 0.  1.
          5    1    1    2  502    0  0.39930776138E+02 -0.15025459819E+02  0.11856412685E+03  0.12609430400E+03  0.47000000000E+01 0. -1.
         -5    1    1    2    0  502 -0.30411000630E+02  0.32879126003E+02  0.11191266171E+02  0.46402589632E+02  0.47000000000E+01 0.  1.
        -11    1    1    2    0    0 -0.40467886941E+02  0.42929584308E+01  0.76619799006E+02  0.86756400140E+02  0.00000000000E+00 0.  1.
         11    1    1    2    0    0  0.30948111432E+02 -0.22146624614E+02  0.67470396405E+01  0.38649464769E+02  0.00000000000E+00 0. -1.
<mgrwt>
<rscale>  0 0.10829865E+03</rscale>
<asrwt>0</asrwt>
<pdfrwt beam="1">  1        2 0.39309613E-01 0.11366053E+03</pdfrwt>
<pdfrwt beam="2">  1       -2 0.65215792E-02 0.11366053E+03</pdfrwt>
<totfact> 0.15620966E+04</totfact>
</mgrwt>
</event>
<event>
 6    1  0.1045058E-005  0.2983149E+03  0.7546771E-02  0.1086086E+00
         -1   -1    0    0    0  501 -0.00000000000E+00  0.00000000000E+00  0.21127548290E+03  0.21127548290E+03  0.00000000000E+00 0.  1.
          1   -1    0    0  501    0  0.00000000000E+00 -0.00000000000E+00 -0.10530303172E+03  0.10530303172E+03  0.00000000000E+00 0. -1.
          5    1    1    2  502    0  0.12457697897E+03  0.28621953568E+02  0.19004486373E+02  0.12931318733E+03  0.47000000000E+01 0. -1.
         -5    1    1    2    0  502 -0.25176936283E+02 -0.76950842511E+01  0.27440104184E+02  0.38316338027E+02  0.47000000000E+01 0. -1.
        -11    1    1    2    0    0 -0.16557408592E+02 -0.42010949154E+02  0.66775726954E+00  0.45160973505E+02  0.00000000000E+00 0. -1.
         11    1    1    2    0    0 -0.82842634097E+02  0.21084079837E+02  0.58860103354E+02  0.10378801575E+03  0.00000000000E+00 0.  1.
<mgrwt>
<rscale>  0 0.29831493E+03</rscale>
<asrwt>0</asrwt>
<pdfrwt beam="2">  1        1 0.16200466E-01 0.29831493E+03</pdfrwt>
<pdfrwt beam="1">  1       -1 0.32503920E-01 0.29831493E+03</pdfrwt>
<totfact> 0.29904473E+03</totfact>
</mgrwt>
</event>
<event>
 6    1  0.1045058E-005  0.2082075E+03  0.7546771E-02  0.1146483E+00
         -2   -1    0    0    0  501 -0.00000000000E+00  0.00000000000E+00  0.33637135023E+03  0.33637135023E+03  0.00000000000E+00 0.  1.
          2   -1    0    0  501    0  0.00000000000E+00 -0.00000000000E+00 -0.13013184691E+03  0.13013184691E+03  0.00000000000E+00 0. -1.
          5    1    1    2  502    0  0.63079412452E+02 -0.85881727615E+02 -0.36410308766E+02  0.11270529711E+03  0.47000000000E+01 0.  1.
         -5    1    1    2    0  502  0.58714777011E+02 -0.27656369130E+02  0.74570230231E+02  0.98970243152E+02  0.47000000000E+01 0.  1.
        -11    1    1    2    0    0 -0.55987778168E+02  0.76145741252E+02  0.14953695636E+03  0.17690140342E+03  0.00000000000E+00 0.  1.
         11    1    1    2    0    0 -0.65806411294E+02  0.37392355493E+02  0.18542625494E+02  0.77926253451E+02  0.00000000000E+00 0. -1.
<mgrwt>
<rscale>  0 0.20390852E+03</rscale>
<asrwt>0</asrwt>
<pdfrwt beam="2">  1        2 0.20020284E-01 0.20820748E+03</pdfrwt>
<pdfrwt beam="1">  1       -2 0.51749438E-01 0.20820748E+03</pdfrwt>
<totfact> 0.98841348E+02</totfact>
</mgrwt>
</event>
<event>
 6    1  0.1045058E-005  0.1754917E+03  0.7546771E-02  0.1177690E+00
         -2   -1    0    0    0  501 -0.00000000000E+00  0.00000000000E+00  0.30180026849E+02  0.30180026849E+02  0.00000000000E+00 0. -1.
          2   -1    0    0  501    0  0.00000000000E+00 -0.00000000000E+00 -0.90823388985E+03  0.90823388985E+03  0.00000000000E+00 0.  1.
          5    1    1    2  502    0  0.47043377903E+02 -0.74541871598E+02 -0.12294737051E+03  0.15135295155E+03  0.47000000000E+01 0.  1.
         -5    1    1    2    0  502  0.30956128088E+02 -0.20791780969E+02 -0.36993625825E+03  0.37184069868E+03  0.47000000000E+01 0.  1.
        -11    1    1    2    0    0 -0.29408726800E+02  0.97461969570E+02 -0.20924406347E+03  0.23269462139E+03  0.00000000000E+00 0. -1.
         11    1    1    2    0    0 -0.48590779191E+02 -0.21283170032E+01 -0.17592617076E+03  0.18252564509E+03  0.00000000000E+00 0.  1.
<mgrwt>
<rscale>  0 0.17015148E+03</rscale>
<asrwt>0</asrwt>
<pdfrwt beam="2">  1        2 0.13972831E+00 0.17549166E+03</pdfrwt>
<pdfrwt beam="1">  1       -2 0.46430806E-02 0.17549166E+03</pdfrwt>
<totfact> 0.64528462E+03</totfact>
</mgrwt>
</event>
<event>
 6    1  0.1045058E-005  0.1633295E+03  0.7546771E-02  0.1191861E+00
         -2   -1    0    0    0  501 -0.00000000000E+00  0.00000000000E+00  0.37258337102E+02  0.37258337102E+02  0.00000000000E+00 0. -1.
          2   -1    0    0  501    0  0.00000000000E+00 -0.00000000000E+00 -0.69412062700E+03  0.69412062700E+03  0.00000000000E+00 0.  1.
          5    1    1    2  502    0  0.15574784480E+02 -0.43839354880E+02 -0.22952974117E+03  0.23424443436E+03  0.47000000000E+01 0. -1.
         -5    1    1    2    0  502 -0.10698364914E+03 -0.80854610917E+01 -0.24157700690E+03  0.26437173851E+03  0.47000000000E+01 0. -1.
        -11    1    1    2    0    0  0.20103020768E+02  0.86450693084E+01  0.68013619976E+01  0.22915653872E+02  0.00000000000E+00 0.  1.
         11    1    1    2    0    0  0.71305843889E+02  0.43279746663E+02 -0.19255690383E+03  0.20984713736E+03  0.00000000000E+00 0. -1.
<mgrwt>
<rscale>  0 0.15722925E+03</rscale>
<asrwt>0</asrwt>
<pdfrwt beam="2">  1        2 0.10678779E+00 0.16332948E+03</pdfrwt>
<pdfrwt beam="1">  1       -2 0.57320521E-02 0.16332948E+03</pdfrwt>
<totfact> 0.65531498E+03</totfact>
</mgrwt>
</event>
<event>
 6    1  0.1045058E-005  0.1645691E+03  0.7546771E-02  0.1190061E+00
         -2   -1    0    0    0  501 -0.00000000000E+00  0.00000000000E+00  0.23835659143E+02  0.23835659143E+02  0.00000000000E+00 0. -1.
          2   -1    0    0  501    0  0.00000000000E+00 -0.00000000000E+00 -0.99875114788E+03  0.99875114788E+03  0.00000000000E+00 0.  1.
          5    1    1    2  502    0 -0.87320774774E+02 -0.52340077821E+02 -0.29523887337E+03  0.31233392996E+03  0.47000000000E+01 0.  1.
         -5    1    1    2    0  502 -0.19489305024E+02  0.59357639524E+02 -0.17909240684E+03  0.18973492711E+03  0.47000000000E+01 0.  1.
        -11    1    1    2    0    0  0.17262713041E+02  0.36243442475E+02 -0.19736803399E+03  0.20140935734E+03  0.00000000000E+00 0.  1.
         11    1    1    2    0    0  0.89547366757E+02 -0.43261004177E+02 -0.30321617454E+03  0.31910859261E+03  0.00000000000E+00 0. -1.
<mgrwt>
<rscale>  0 0.15879740E+03</rscale>
<asrwt>0</asrwt>
<pdfrwt beam="2">  1        2 0.15365400E+00 0.16456905E+03</pdfrwt>
<pdfrwt beam="1">  1       -2 0.36670249E-02 0.16456905E+03</pdfrwt>
<totfact> 0.80537547E+03</totfact>
</mgrwt>
</event>
<event>
 6    1  0.1045058E-005  0.4827984E+03  0.7546771E-02  0.1054046E+00
         -2   -1    0    0    0  501 -0.00000000000E+00  0.00000000000E+00  0.21589551261E+03  0.21589551261E+03  0.00000000000E+00 0.  1.
          2   -1    0    0  501    0  0.00000000000E+00 -0.00000000000E+00 -0.54804317567E+03  0.54804317567E+03  0.00000000000E+00 0. -1.
          5    1    1    2  502    0  0.79018839360E+01 -0.54146145525E+02 -0.43559330046E+03  0.43904197778E+03  0.47000000000E+01 0. -1.
         -5    1    1    2    0  502  0.12579100123E+03  0.37573192944E+01  0.89923255326E+02  0.15474422537E+03  0.47000000000E+01 0.  1.
        -11    1    1    2    0    0 -0.96699122775E+02 -0.11107107856E+02  0.12355464209E+01  0.97342769456E+02  0.00000000000E+00 0.  1.
         11    1    1    2    0    0 -0.36993762390E+02  0.61495934086E+02  0.12286835653E+02  0.72809715665E+02  0.00000000000E+00 0. -1.
<mgrwt>
<rscale>  0 0.37169779E+03</rscale>
<asrwt>0</asrwt>
<pdfrwt beam="2">  1        2 0.84314334E-01 0.48279838E+03</pdfrwt>
<pdfrwt beam="1">  1       -2 0.33214694E-01 0.48279838E+03</pdfrwt>
<totfact> 0.47396990E+02</totfact>
</mgrwt>
</event>
<event>
 6    1  0.1045058E-005  0.1275249E+03  0.7546771E-02  0.1244909E+00
          2   -1    0    0  501    0  0.00000000000E+00  0.00000000000E+00  0.11180919736E+03  0.11180919736E+03  0.00000000000E+00 0.  1.
         -2   -1    0    0    0  501 -0.00000000000E+00 -0.00000000000E+00 -0.12092709447E+03  0.12092709447E+03  0.00000000000E+00 0. -1.
          5    1    1    2  502    0  0.17758526874E+02 -0.54912533770E+02 -0.26555436921E+02  0.63702691245E+02  0.47000000000E+01 0. -1.
         -5    1    1    2    0  502  0.28070650652E+01  0.40297938576E+02  0.52543411524E+02  0.66443235640E+02  0.47000000000E+01 0. -1.
        -11    1    1    2    0    0 -0.12543569835E+02  0.49109617593E+02  0.27374298005E+01  0.50760114325E+02  0.00000000000E+00 0.  1.
         11    1    1    2    0    0 -0.80220221041E+01 -0.34495022400E+02 -0.37843301516E+02  0.51830250613E+02  0.00000000000E+00 0. -1.
<mgrwt>
<rscale>  0 0.11890822E+03</rscale>
<asrwt>0</asrwt>
<pdfrwt beam="1">  1        2 0.17201415E-01 0.12752485E+03</pdfrwt>
<pdfrwt beam="2">  1       -2 0.18604168E-01 0.12752485E+03</pdfrwt>
<totfact> 0.74187364E+03</totfact>
</mgrwt>
</event>
<event>
 6    1  0.1045058E-005  0.1338986E+03  0.7546771E-02  0.1237018E+00
         -3   -1    0    0    0  501 -0.00000000000E+00  0.00000000000E+00  0.41175937887E+03  0.41175937887E+03  0.00000000000E+00 0.  1.
          3   -1    0    0  501    0  0.00000000000E+00 -0.00000000000E+00 -0.39551815252E+02  0.39551815252E+02  0.00000000000E+00 0. -1.
          5    1    1    2  502    0  0.70496655367E+02 -0.14811717936E+02  0.85386731828E+02  0.11181301077E+03  0.47000000000E+01 0. -1.
         -5    1    1    2    0  502 -0.34254604522E+02  0.46286431421E+02  0.30825396343E+02  0.65483637073E+02  0.47000000000E+01 0. -1.
        -11    1    1    2    0    0 -0.30698803650E+02 -0.60253264247E+02  0.16172866168E+03  0.17529698345E+03  0.00000000000E+00 0. -1.
         11    1    1    2    0    0 -0.55432471952E+01  0.28778550763E+02  0.94266773773E+02  0.98717562830E+02  0.00000000000E+00 0.  1.
<mgrwt>
<rscale>  0 0.12376113E+03</rscale>
<asrwt>0</asrwt>
<pdfrwt beam="2">  1        3 0.60848949E-02 0.13389863E+03</pdfrwt>
<pdfrwt beam="1">  1       -3 0.63347594E-01 0.13389863E+03</pdfrwt>
<totfact> 0.94196786E+02</totfact>
</mgrwt>
</event>
<event>
 6    1  0.1045058E-005  0.2284249E+03  0.7546771E-02  0.1130589E+00
          3   -1    0    0  501    0  0.00000000000E+00  0.00000000000E+00  0.40131922791E+03  0.40131922791E+03  0.00000000000E+00 0. -1.
         -3   -1    0    0    0  501 -0.00000000000E+00 -0.00000000000E+00 -0.14318411348E+03  0.14318411348E+03  0.00000000000E+00 0.  1.
          5    1    1    2  502    0  0.30141111472E+02 -0.51818261612E+02  0.27865830509E+02  0.66273775713E+02  0.47000000000E+01 0.  1.
         -5    1    1    2    0  502  0.15797791311E+03  0.17700256504E+02  0.21114289520E+03  0.26433639988E+03  0.47000000000E+01 0.  1.
        -11    1    1    2    0    0 -0.32736252727E+02 -0.40835797967E+01 -0.31953612389E+02  0.45927891431E+02  0.00000000000E+00 0. -1.
         11    1    1    2    0    0 -0.15538277185E+03  0.38201584905E+02  0.51080001119E+02  0.16796527436E+03  0.00000000000E+00 0.  1.
<mgrwt>
<rscale>  0 0.22447653E+03</rscale>
<asrwt>0</asrwt>
<pdfrwt beam="1">  1        3 0.61741419E-01 0.22842486E+03</pdfrwt>
<pdfrwt beam="2">  1       -3 0.22028325E-01 0.22842486E+03</pdfrwt>
<totfact> 0.12116154E+02</totfact>
</mgrwt>
</event>
<event>
 6    1  0.1045058E-005  0.2337644E+03  0.7546771E-02  0.1127039E+00
         -1   -1    0    0    0  501 -0.00000000000E+00  0.00000000000E+00  0.51203529729E+02  0.51203529729E+02  0.00000000000E+00 0.  1.
          1   -1    0    0  501    0  0.00000000000E+00 -0.00000000000E+00 -0.27172301247E+04  0.27172301247E+04  0.00000000000E+00 0. -1.
          5    1    1    2  502    0 -0.16607228198E+02  0.42395789029E+02 -0.17053485194E+03  0.17657131330E+03  0.47000000000E+01 0.  1.
         -5    1    1    2    0  502 -0.39702682315E+02  0.14694507410E+03 -0.22834532973E+04  0.22885257719E+04  0.47000000000E+01 0.  1.
        -11    1    1    2    0    0 -0.11414509259E+02 -0.34204823327E+02 -0.57951031821E+01  0.36521831572E+02  0.00000000000E+00 0.  1.
         11    1    1    2    0    0  0.67724419772E+02 -0.15513603980E+03 -0.20624334260E+03  0.26681473768E+03  0.00000000000E+00 0. -1.
<mgrwt>
<rscale>  0 0.22943357E+03</rscale>
<asrwt>0</asrwt>
<pdfrwt beam="2">  1        1 0.41803540E+00 0.23376442E+03</pdfrwt>
<pdfrwt beam="1">  1       -1 0.78774662E-02 0.23376442E+03</pdfrwt>
<totfact> 0.10124851E+02</totfact>
</mgrwt>
</event>
<event>
 6    1  0.1045058E-005  0.1818928E+03  0.7546771E-02  0.1169983E+00
          2   -1    0    0  501    0  0.00000000000E+00  0.00000000000E+00  0.39353830376E+03  0.39353830376E+03  0.00000000000E+00 0. -1.
         -2   -1    0    0    0  501 -0.00000000000E+00 -0.00000000000E+00 -0.83763900559E+02  0.83763900559E+02  0.00000000000E+00 0.  1.
          5    1    1    2  502    0  0.11785804226E+03  0.24646102190E+02  0.92537048329E+02  0.15193137856E+03  0.47000000000E+01 0. -1.
         -5    1    1    2    0  502  0.14199933826E+02 -0.29210510303E+02  0.13732784695E+03  0.14119461598E+03  0.47000000000E+01 0. -1.
        -11    1    1    2    0    0 -0.10388410568E+03 -0.24741171538E+02  0.15354714663E+02  0.10788790592E+03  0.00000000000E+00 0.  1.
         11    1    1    2    0    0 -0.28173870409E+02  0.29305579652E+02  0.64554793264E+02  0.76288303860E+02  0.00000000000E+00 0. -1.
<mgrwt>
<rscale>  0 0.17776567E+03</rscale>
<asrwt>0</asrwt>
<pdfrwt beam="1">  1        2 0.60544353E-01 0.18189277E+03</pdfrwt>
<pdfrwt beam="2">  1       -2 0.12886754E-01 0.18189277E+03</pdfrwt>
<totfact> 0.35070129E+03</totfact>
</mgrwt>
</event>
<event>
 6    1  0.1045058E-005  0.1254308E+03  0.7546771E-02  0.1250309E+00
          2   -1    0    0  501    0  0.00000000000E+00  0.00000000000E+00  0.88197530765E+03  0.88197530765E+03  0.00000000000E+00 0.  1.
         -2   -1    0    0    0  501 -0.00000000000E+00 -0.00000000000E+00 -0.14685070764E+02  0.14685070764E+02  0.00000000000E+00 0. -1.
          5    1    1    2  502    0 -0.14949780877E+01  0.42810677612E+02  0.57001108609E+03  0.57163775010E+03  0.47000000000E+01 0. -1.
         -5    1    1    2    0  502  0.10153321827E+02 -0.36758719122E+02  0.63892846437E+02  0.74556550359E+02  0.47000000000E+01 0. -1.
        -11    1    1    2    0    0  0.51587216308E+01  0.37324210232E+02  0.15774319774E+03  0.16218084200E+03  0.00000000000E+00 0.  1.
         11    1    1    2    0    0 -0.13817065370E+02 -0.43376168721E+02  0.75643106617E+02  0.88285235951E+02  0.00000000000E+00 0. -1.
<mgrwt>
<rscale>  0 0.11573173E+03</rscale>
<asrwt>0</asrwt>
<pdfrwt beam="1">  1        2 0.13568847E+00 0.12543077E+03</pdfrwt>
<pdfrwt beam="2">  1       -2 0.22592423E-02 0.12543077E+03</pdfrwt>
<totfact> 0.19063773E+04</totfact>
</mgrwt>
</event>
<event>
 6    1  0.1045058E-005  0.1345880E+03  0.7546771E-02  0.1229296E+00
          1   -1    0    0  501    0  0.00000000000E+00  0.00000000000E+00  0.70122814883E+03  0.70122814883E+03  0.00000000000E+00 0. -1.
         -1   -1    0    0    0  501 -0.00000000000E+00 -0.00000000000E+00 -0.26959164572E+02  0.26959164572E+02  0.00000000000E+00 0.  1.
          5    1    1    2  502    0  0.66364180896E+02  0.19960790475E+02  0.19039595637E+03  0.20267054020E+03  0.47000000000E+01 0. -1.
         -5    1    1    2    0  502 -0.26560246793E+02 -0.50030673217E+02  0.32934492769E+03  0.33421353408E+03  0.47000000000E+01 0. -1.
        -11    1    1    2    0    0 -0.15416906141E+02  0.47712211069E+02  0.15317546077E+03  0.16117337827E+03  0.00000000000E+00 0. -1.
         11    1    1    2    0    0 -0.24387027961E+02 -0.17642328327E+02  0.13526394342E+01  0.30129860853E+02  0.00000000000E+00 0.  1.
<mgrwt>
<rscale>  0 0.12876773E+03</rscale>
<asrwt>0</asrwt>
<pdfrwt beam="1">  1        1 0.10788124E+00 0.13458797E+03</pdfrwt>
<pdfrwt beam="2">  1       -1 0.41475643E-02 0.13458797E+03</pdfrwt>
<totfact> 0.63216913E+03</totfact>
</mgrwt>
</event>
<event>
 6    1  0.1045058E-005  0.1516704E+03  0.7546771E-02  0.1206704E+00
         -2   -1    0    0    0  501 -0.00000000000E+00  0.00000000000E+00  0.78127307511E+02  0.78127307511E+02  0.00000000000E+00 0.  1.
          2   -1    0    0  501    0  0.00000000000E+00 -0.00000000000E+00 -0.24830762850E+03  0.24830762850E+03  0.00000000000E+00 0. -1.
          5    1    1    2  502    0  0.17186374304E+02  0.33117139070E+02  0.64872716843E+01  0.38161381734E+02  0.47000000000E+01 0.  1.
         -5    1    1    2    0  502 -0.98798410163E+02 -0.63200197866E+01 -0.95845374844E+02  0.13787492295E+03  0.47000000000E+01 0.  1.
        -11    1    1    2    0    0  0.69041824656E+02  0.25225677482E+01 -0.63470242587E+01  0.69378826862E+02  0.00000000000E+00 0.  1.
         11    1    1    2    0    0  0.12570211203E+02 -0.29319687032E+02 -0.74475193569E+02  0.81019804458E+02  0.00000000000E+00 0. -1.
<mgrwt>
<rscale>  0 0.14503965E+03</rscale>
<asrwt>0</asrwt>
<pdfrwt beam="2">  1        2 0.38201174E-01 0.15167040E+03</pdfrwt>
<pdfrwt beam="1">  1       -2 0.12019586E-01 0.15167040E+03</pdfrwt>
<totfact> 0.63588312E+03</totfact>
</mgrwt>
</event>
<event>
 6    1  0.1045058E-005  0.1303049E+03  0.7546771E-02  0.1240898E+00
          3   -1    0    0  501    0  0.00000000000E+00  0.00000000000E+00  0.59551992293E+02  0.59551992293E+02  0.00000000000E+00 0. -1.
         -3   -1    0    0    0  501 -0.00000000000E+00 -0.00000000000E+00 -0.22739465008E+03  0.22739465008E+03  0.00000000000E+00 0.  1.
          5    1    1    2  502    0 -0.60553456539E+02  0.20468891325E+01 -0.88488020417E+02  0.10734584580E+03  0.47000000000E+01 0. -1.
         -5    1    1    2    0  502  0.28820593750E+02  0.16616321433E+02  0.20775295730E+02  0.39502299613E+02  0.47000000000E+01 0. -1.
        -11    1    1    2    0    0 -0.36868539905E+00  0.17282223839E+02 -0.88965132146E+02  0.90628946410E+02  0.00000000000E+00 0.  1.
         11    1    1    2    0    0  0.32101548188E+02 -0.35945434404E+02 -0.11164800952E+02  0.49469550543E+02  0.00000000000E+00 0. -1.
<mgrwt>
<rscale>  0 0.12134263E+03</rscale>
<asrwt>0</asrwt>
<pdfrwt beam="1">  1        3 0.91618451E-02 0.13030489E+03</pdfrwt>
<pdfrwt beam="2">  1       -3 0.34983792E-01 0.13030489E+03</pdfrwt>
<totfact> 0.15644235E+03</totfact>
</mgrwt>
</event>
<event>
 6    1  0.1045058E-005  0.1292025E+03  0.7546771E-02  0.1242746E+00
         -1   -1    0    0    0  501 -0.00000000000E+00  0.00000000000E+00  0.52595046888E+02  0.52595046888E+02  0.00000000000E+00 0.  1.
          1   -1    0    0  501    0  0.00000000000E+00 -0.00000000000E+00 -0.60649472735E+03  0.60649472735E+03  0.00000000000E+00 0. -1.
          5    1    1    2  502    0 -0.34729388579E+02  0.69684779317E+02 -0.27562186399E+03  0.28644650602E+03  0.47000000000E+01 0.  1.
         -5    1    1    2    0  502  0.11820846272E+02 -0.46374903842E+02 -0.27134044757E+03  0.27556867130E+03  0.47000000000E+01 0.  1.
        -11    1    1    2    0    0  0.33387300678E+02 -0.35852307695E+02  0.29466870865E+02  0.57169889734E+02  0.00000000000E+00 0.  1.
         11    1    1    2    0    0 -0.10478758371E+02  0.12542432220E+02 -0.36404239766E+02  0.39904707190E+02  0.00000000000E+00 0. -1.
<mgrwt>
<rscale>  0 0.12021306E+03</rscale>
<asrwt>0</asrwt>
<pdfrwt beam="2">  1        1 0.93306873E-01 0.12920251E+03</pdfrwt>
<pdfrwt beam="1">  1       -1 0.80915464E-02 0.12920251E+03</pdfrwt>
<totfact> 0.28598500E+03</totfact>
</mgrwt>
</event>
<event>
 6    1  0.1045058E-005  0.1392864E+03  0.7546771E-02  0.1225685E+00
         -2   -1    0    0    0  501 -0.00000000000E+00  0.00000000000E+00  0.48047459298E+03  0.48047459298E+03  0.00000000000E+00 0.  1.
          2   -1    0    0  501    0  0.00000000000E+00 -0.00000000000E+00 -0.35420106647E+02  0.35420106647E+02  0.00000000000E+00 0. -1.
          5    1    1    2  502    0 -0.32029419089E+02  0.68158111852E+02  0.96482178009E+02  0.12248392781E+03  0.47000000000E+01 0.  1.
         -5    1    1    2    0  502  0.61880776762E+02 -0.14452282379E+02  0.73421088351E+02  0.97215457687E+02  0.47000000000E+01 0.  1.
        -11    1    1    2    0    0 -0.53478073157E+02 -0.10238688591E+02  0.96297918000E+02  0.11062560311E+03  0.00000000000E+00 0. -1.
         11    1    1    2    0    0  0.23626715484E+02 -0.43467140882E+02  0.17885330198E+03  0.18556971102E+03  0.00000000000E+00 0.  1.
<mgrwt>
<rscale>  0 0.13120043E+03</rscale>
<asrwt>0</asrwt>
<pdfrwt beam="2">  1        2 0.54492475E-02 0.13928640E+03</pdfrwt>
<pdfrwt beam="1">  1       -2 0.73919164E-01 0.13928640E+03</pdfrwt>
<totfact> 0.22857038E+03</totfact>
</mgrwt>
</event>
<event>
 6    1  0.1045058E-005  0.1254239E+03  0.7546771E-02  0.1250409E+00
          2   -1    0    0  501    0  0.00000000000E+00  0.00000000000E+00  0.22774086837E+03  0.22774086837E+03  0.00000000000E+00 0. -1.
         -2   -1    0    0    0  501 -0.00000000000E+00 -0.00000000000E+00 -0.51393813275E+02  0.51393813275E+02  0.00000000000E+00 0.  1.
          5    1    1    2  502    0  0.61295861412E+02 -0.33745928388E+01  0.36297671829E+02  0.71471543171E+02  0.47000000000E+01 0. -1.
         -5    1    1    2    0  502 -0.60209518929E+02 -0.69602987456E+01  0.72048818382E+02  0.94269582361E+02  0.47000000000E+01 0. -1.
        -11    1    1    2    0    0  0.11209601510E+02  0.22690431825E+02 -0.14434759068E+02  0.29135427434E+02  0.00000000000E+00 0.  1.
         11    1    1    2    0    0 -0.12295943992E+02 -0.12355540241E+02  0.82435323951E+02  0.84258128678E+02  0.00000000000E+00 0. -1.
<mgrwt>
<rscale>  0 0.11567427E+03</rscale>
<asrwt>0</asrwt>
<pdfrwt beam="1">  1        2 0.35037056E-01 0.12542392E+03</pdfrwt>
<pdfrwt beam="2">  1       -2 0.79067407E-02 0.12542392E+03</pdfrwt>
<totfact> 0.13268536E+04</totfact>
</mgrwt>
</event>
<event>
 6    1  0.1045058E-005  0.5108780E+03  0.7546771E-02  0.1012119E+00
          1   -1    0    0  501    0  0.00000000000E+00  0.00000000000E+00  0.11711100103E+04  0.11711100103E+04  0.00000000000E+00 0. -1.
         -1   -1    0    0    0  501 -0.00000000000E+00 -0.00000000000E+00 -0.30972446002E+03  0.30972446002E+03  0.00000000000E+00 0.  1.
          5    1    1    2  502    0  0.53258418392E+02 -0.32915701319E+03  0.43427914030E+03  0.54754110363E+03  0.47000000000E+01 0. -1.
         -5    1    1    2    0  502  0.81970189282E+02 -0.13446312544E+03  0.41058325148E+03  0.43977282821E+03  0.47000000000E+01 0.  1.
        -11    1    1    2    0    0 -0.11948937251E+03  0.46220719103E+03  0.14902100410E+02  0.47763508055E+03  0.00000000000E+00 0.  1.
         11    1    1    2    0    0 -0.15739235168E+02  0.14129475988E+01  0.16210581016E+01  0.15885457940E+02  0.00000000000E+00 0. -1.
<mgrwt>
<rscale>  0 0.50641123E+03</rscale>
<asrwt>0</asrwt>
<pdfrwt beam="1">  1        1 0.18017077E+00 0.51087801E+03</pdfrwt>
<pdfrwt beam="2">  1       -1 0.47649917E-01 0.51087801E+03</pdfrwt>
<totfact> 0.52104996E+01</totfact>
</mgrwt>
</event>
<event>
 6    1  0.1045058E-005  0.2010875E+03  0.7546771E-02  0.1153385E+00
         -2   -1    0    0    0  501 -0.00000000000E+00  0.00000000000E+00  0.77558968368E+02  0.77558968368E+02  0.00000000000E+00 0.  1.
          2   -1    0    0  501    0  0.00000000000E+00 -0.00000000000E+00 -0.47371157458E+03  0.47371157458E+03  0.00000000000E+00 0. -1.
          5    1    1    2  502    0  0.36101036094E+02 -0.64573657630E+02 -0.99682401345E+02  0.12422444689E+03  0.47000000000E+01 0.  1.
         -5    1    1    2    0  502 -0.96958738650E+02 -0.80710464499E+02 -0.13516080024E+03  0.18494785211E+03  0.47000000000E+01 0.  1.
        -11    1    1    2    0    0 -0.31094029248E+01  0.29044475663E+02  0.46970562805E+01  0.29585677123E+02  0.00000000000E+00 0.  1.
         11    1    1    2    0    0  0.63967105481E+02  0.11623964647E+03 -0.16600646091E+03  0.21251256682E+03  0.00000000000E+00 0. -1.
<mgrwt>
<rscale>  0 0.19573827E+03</rscale>
<asrwt>0</asrwt>
<pdfrwt beam="2">  1        2 0.72878704E-01 0.20108750E+03</pdfrwt>
<pdfrwt beam="1">  1       -2 0.11932149E-01 0.20108750E+03</pdfrwt>
<totfact> 0.32564350E+03</totfact>
</mgrwt>
</event>
<event>
 6    1  0.1045058E-005  0.1564025E+03  0.7546771E-02  0.1200799E+00
          2   -1    0    0  501    0  0.00000000000E+00  0.00000000000E+00  0.67970389008E+03  0.67970389008E+03  0.00000000000E+00 0. -1.
         -2   -1    0    0    0  501 -0.00000000000E+00 -0.00000000000E+00 -0.30770001389E+02  0.30770001389E+02  0.00000000000E+00 0.  1.
          5    1    1    2  502    0 -0.23480922990E+02  0.27622689527E+02  0.30026782818E+02  0.47308185418E+02  0.47000000000E+01 0.  1.
         -5    1    1    2    0  502 -0.36129589441E+02 -0.10030581938E+03  0.28701958517E+03  0.30621714012E+03  0.47000000000E+01 0.  1.
        -11    1    1    2    0    0  0.76919262742E+02  0.76320064885E+02  0.23933816084E+03  0.26272434322E+03  0.00000000000E+00 0.  1.
         11    1    1    2    0    0 -0.17308750310E+02 -0.36369350268E+01  0.92549359863E+02  0.94224222707E+02  0.00000000000E+00 0. -1.
<mgrwt>
<rscale>  0 0.14973463E+03</rscale>
<asrwt>0</asrwt>
<pdfrwt beam="1">  1        2 0.10456982E+00 0.15640255E+03</pdfrwt>
<pdfrwt beam="2">  1       -2 0.47338469E-02 0.15640255E+03</pdfrwt>
<totfact> 0.89499546E+03</totfact>
</mgrwt>
</event>
<event>
 6    1  0.1045058E-005  0.1341585E+03  0.7546771E-02  0.1234259E+00
         -2   -1    0    0    0  501 -0.00000000000E+00  0.00000000000E+00  0.24202183403E+02  0.24202183403E+02  0.00000000000E+00 0.  1.
          2   -1    0    0  501    0  0.00000000000E+00 -0.00000000000E+00 -0.68056236854E+03  0.68056236854E+03  0.00000000000E+00 0. -1.
          5    1    1    2  502    0  0.28127276183E+02  0.10455124375E+02 -0.32734340637E+03  0.32874952317E+03  0.47000000000E+01 0.  1.
         -5    1    1    2    0  502 -0.76429472181E+02 -0.39747158897E+01 -0.17228858256E+03  0.18858077385E+03  0.47000000000E+01 0.  1.
        -11    1    1    2    0    0 -0.76174768938E+01  0.16737500736E+02  0.10679052696E+01  0.18420377488E+02  0.00000000000E+00 0.  1.
         11    1    1    2    0    0  0.55919672892E+02 -0.23217909222E+02 -0.15779610147E+03  0.16901387743E+03  0.00000000000E+00 0. -1.
<mgrwt>
<rscale>  0 0.12551978E+03</rscale>
<asrwt>0</asrwt>
<pdfrwt beam="2">  1        2 0.10470193E+00 0.13415853E+03</pdfrwt>
<pdfrwt beam="1">  1       -2 0.37234119E-02 0.13415853E+03</pdfrwt>
<totfact> 0.12661248E+04</totfact>
</mgrwt>
</event>
<event>
 6    1  0.1045058E-005  0.1297483E+03  0.7546771E-02  0.1244196E+00
         -2   -1    0    0    0  501 -0.00000000000E+00  0.00000000000E+00  0.20046818879E+02  0.20046818879E+02  0.00000000000E+00 0.  1.
          2   -1    0    0  501    0  0.00000000000E+00 -0.00000000000E+00 -0.84922278889E+03  0.84922278889E+03  0.00000000000E+00 0. -1.
          5    1    1    2  502    0  0.34421832026E+02 -0.23397055665E+02 -0.11820138911E+03  0.12540312246E+03  0.47000000000E+01 0.  1.
         -5    1    1    2    0  502 -0.68558281333E+02  0.30065421437E+02 -0.57093906320E+03  0.57584518005E+03  0.47000000000E+01 0.  1.
        -11    1    1    2    0    0 -0.25939065778E+02 -0.17416941517E+02 -0.38839055898E+02  0.49846336357E+02  0.00000000000E+00 0. -1.
         11    1    1    2    0    0  0.60075515084E+02  0.10748575745E+02 -0.10119646180E+03  0.11817496890E+03  0.00000000000E+00 0.  1.
<mgrwt>
<rscale>  0 0.11933622E+03</rscale>
<asrwt>0</asrwt>
<pdfrwt beam="2">  1        2 0.13064966E+00 0.12974829E+03</pdfrwt>
<pdfrwt beam="1">  1       -2 0.30841259E-02 0.12974829E+03</pdfrwt>
<totfact> 0.12729221E+04</totfact>
</mgrwt>
</event>
<event>
 6    1  0.1045058E-005  0.2213889E+03  0.7546771E-02  0.1136410E+00
         -2   -1    0    0    0  501 -0.00000000000E+00  0.00000000000E+00  0.26701439227E+02  0.26701439227E+02  0.00000000000E+00 0.  1.
          2   -1    0    0  501    0  0.00000000000E+00 -0.00000000000E+00 -0.18736273340E+04  0.18736273340E+04  0.00000000000E+00 0. -1.
          5    1    1    2  502    0  0.14275988694E+02 -0.17321543741E+02 -0.24972578149E+03  0.25077658517E+03  0.47000000000E+01 0.  1.
         -5    1    1    2    0  502 -0.19006561417E+03 -0.32568097951E+02 -0.10098394077E+04  0.10280969497E+04  0.47000000000E+01 0.  1.
        -11    1    1    2    0    0  0.95204931419E+02  0.35518317685E+02 -0.18712775050E+03  0.21293737311E+03  0.00000000000E+00 0.  1.
         11    1    1    2    0    0  0.80584694056E+02  0.14371324007E+02 -0.40023295505E+03  0.40851786519E+03  0.00000000000E+00 0. -1.
<mgrwt>
<rscale>  0 0.21664443E+03</rscale>
<asrwt>0</asrwt>
<pdfrwt beam="2">  1        2 0.28825032E+00 0.22138892E+03</pdfrwt>
<pdfrwt beam="1">  1       -2 0.41079142E-02 0.22138892E+03</pdfrwt>
<totfact> 0.22895272E+03</totfact>
</mgrwt>
</event>
<event>
 6    1  0.1045058E-005  0.1418458E+03  0.7546771E-02  0.1221923E+00
          1   -1    0    0  501    0  0.00000000000E+00  0.00000000000E+00  0.25831322604E+02  0.25831322604E+02  0.00000000000E+00 0. -1.
         -1   -1    0    0    0  501 -0.00000000000E+00 -0.00000000000E+00 -0.67636026790E+03  0.67636026790E+03  0.00000000000E+00 0.  1.
          5    1    1    2  502    0  0.79838994002E+02 -0.41478059034E+02 -0.15740651733E+03  0.18136591753E+03  0.47000000000E+01 0. -1.
         -5    1    1    2    0  502 -0.13250870852E+02  0.49403774494E+02 -0.10677363824E+03  0.11848636350E+03  0.47000000000E+01 0. -1.
        -11    1    1    2    0    0 -0.68306873546E+02  0.19914454100E+02 -0.34630315974E+03  0.35353683387E+03  0.00000000000E+00 0.  1.
         11    1    1    2    0    0  0.17187503957E+01 -0.27840169560E+02 -0.40045629994E+02  0.48802475610E+02  0.00000000000E+00 0. -1.
<mgrwt>
<rscale>  0 0.13380070E+03</rscale>
<asrwt>0</asrwt>
<pdfrwt beam="1">  1        1 0.39740498E-02 0.14184582E+03</pdfrwt>
<pdfrwt beam="2">  1       -1 0.10405542E+00 0.14184582E+03</pdfrwt>
<totfact> 0.20560302E+03</totfact>
</mgrwt>
</event>
<event>
 6    1  0.1842590E-005  0.1685743E+03  0.7546771E-02  0.1185964E+00
          1   -1    0    0  501    0  0.00000000000E+00  0.00000000000E+00  0.41704857388E+03  0.41704857388E+03  0.00000000000E+00 0. -1.
         -1   -1    0    0    0  501 -0.00000000000E+00 -0.00000000000E+00 -0.59422319142E+02  0.59422319142E+02  0.00000000000E+00 0.  1.
          5    1    1    2  502    0  0.65820643316E+02 -0.69424392258E+02  0.15080260322E+03  0.17864942895E+03  0.47000000000E+01 0. -1.
         -5    1    1    2    0  502 -0.53312318463E+02 -0.42983555384E+02  0.59216154160E+02  0.90655569309E+02  0.47000000000E+01 0. -1.
        -11    1    1    2    0    0  0.35627694116E+02  0.43286622332E+02  0.86596836030E+02  0.10316043947E+03  0.00000000000E+00 0. -1.
         11    1    1    2    0    0 -0.48136018969E+02  0.69121325310E+02  0.61010661327E+02  0.10400545529E+03  0.00000000000E+00 0.  1.
<mgrwt>
<rscale>  0 0.16244462E+03</rscale>
<asrwt>0</asrwt>
<pdfrwt beam="1">  1        1 0.64161317E-01 0.16857433E+03</pdfrwt>
<pdfrwt beam="2">  1       -1 0.91418955E-02 0.16857433E+03</pdfrwt>
<totfact> 0.39268725E+03</totfact>
</mgrwt>
</event>
<event>
 6    1  0.1045058E-005  0.1488747E+03  0.7546771E-02  0.1211275E+00
          1   -1    0    0  501    0  0.00000000000E+00  0.00000000000E+00  0.19070623777E+03  0.19070623777E+03  0.00000000000E+00 0. -1.
         -1   -1    0    0    0  501 -0.00000000000E+00 -0.00000000000E+00 -0.11516607614E+03  0.11516607614E+03  0.00000000000E+00 0.  1.
          5    1    1    2  502    0 -0.75703383976E+02 -0.40240492764E+02  0.45949715185E+02  0.97384628812E+02  0.47000000000E+01 0.  1.
         -5    1    1    2    0  502 -0.24709367080E+01  0.60912055981E+02  0.57246173341E+02  0.83759169374E+02  0.47000000000E+01 0.  1.
        -11    1    1    2    0    0  0.25533138401E+02 -0.92142609735E+01  0.33572302418E+02  0.43173409079E+02  0.00000000000E+00 0. -1.
         11    1    1    2    0    0  0.52641182283E+02 -0.11457302243E+02 -0.61228029311E+02  0.81555106647E+02  0.00000000000E+00 0.  1.
<mgrwt>
<rscale>  0 0.14153714E+03</rscale>
<asrwt>0</asrwt>
<pdfrwt beam="1">  1        1 0.29339421E-01 0.14887473E+03</pdfrwt>
<pdfrwt beam="2">  1       -1 0.17717858E-01 0.14887473E+03</pdfrwt>
<totfact> 0.37041053E+03</totfact>
</mgrwt>
</event>
<event>
 6    1  0.1045058E-005  0.2428102E+03  0.7546771E-02  0.1117935E+00
         -2   -1    0    0    0  501 -0.00000000000E+00  0.00000000000E+00  0.73061502344E+01  0.73061502344E+01  0.00000000000E+00 0.  1.
          2   -1    0    0  501    0  0.00000000000E+00 -0.00000000000E+00 -0.20173694299E+04  0.20173694299E+04  0.00000000000E+00 0. -1.
          5    1    1    2  502    0  0.40178135781E+02 -0.53718938514E+02 -0.45094675014E+03  0.45593318415E+03  0.47000000000E+01 0. -1.
         -5    1    1    2    0  502 -0.10091690230E+02  0.22000789965E+02 -0.95095771570E+03  0.95127732235E+03  0.47000000000E+01 0.  1.
        -11    1    1    2    0    0 -0.63135569049E+02  0.34102694813E+01 -0.36998785001E+03  0.37535148751E+03  0.00000000000E+00 0.  1.
         11    1    1    2    0    0  0.33049123498E+02  0.28307879068E+02 -0.23817096378E+03  0.24211358609E+03  0.00000000000E+00 0. -1.
<mgrwt>
<rscale>  0 0.24281025E+03</rscale>
<asrwt>0</asrwt>
<pdfrwt beam="2">  1        2 0.31036460E+00 0.24281025E+03</pdfrwt>
<pdfrwt beam="1">  1       -2 0.11240228E-02 0.24281025E+03</pdfrwt>
<totfact> 0.13044729E+04</totfact>
</mgrwt>
</event>
<event>
 6    1  0.1045058E-005  0.2373408E+03  0.7546771E-02  0.1124528E+00
          2   -1    0    0  501    0  0.00000000000E+00  0.00000000000E+00  0.45336606589E+03  0.45336606589E+03  0.00000000000E+00 0. -1.
         -2   -1    0    0    0  501 -0.00000000000E+00 -0.00000000000E+00 -0.16807980070E+03  0.16807980070E+03  0.00000000000E+00 0.  1.
          5    1    1    2  502    0  0.15717593411E+02  0.44304618353E+02  0.28861422281E+02  0.55362565386E+02  0.47000000000E+01 0.  1.
         -5    1    1    2    0  502 -0.14163309410E+03  0.11333705382E+03  0.29090364976E+03  0.34285892807E+03  0.47000000000E+01 0.  1.
        -11    1    1    2    0    0  0.86035685605E+01 -0.65739619057E+02 -0.33306607157E+02  0.74196017319E+02  0.00000000000E+00 0.  1.
         11    1    1    2    0    0  0.11731193213E+03 -0.91902053116E+02 -0.11721997003E+01  0.14902835582E+03  0.00000000000E+00 0. -1.
<mgrwt>
<rscale>  0 0.23302573E+03</rscale>
<asrwt>0</asrwt>
<pdfrwt beam="1">  1        2 0.69748625E-01 0.23734080E+03</pdfrwt>
<pdfrwt beam="2">  1       -2 0.25858431E-01 0.23734080E+03</pdfrwt>
<totfact> 0.93124721E+02</totfact>
</mgrwt>
</event>
<event>
 6    1  0.1045058E-005  0.1316743E+03  0.7546771E-02  0.1239610E+00
          2   -1    0    0  501    0  0.00000000000E+00  0.00000000000E+00  0.38514194527E+03  0.38514194527E+03  0.00000000000E+00 0.  1.
         -2   -1    0    0    0  501 -0.00000000000E+00 -0.00000000000E+00 -0.34990719713E+02  0.34990719713E+02  0.00000000000E+00 0. -1.
          5    1    1    2  502    0  0.33916990754E+01 -0.20910883904E+02  0.19790021349E+03  0.19908629583E+03  0.47000000000E+01 0.  1.
         -5    1    1    2    0  502 -0.34634362087E+02  0.47868337357E+02  0.36047620346E+02  0.69371735535E+02  0.47000000000E+01 0.  1.
        -11    1    1    2    0    0 -0.21856674314E+02 -0.36812360290E+01  0.80705143683E+02  0.83693404326E+02  0.00000000000E+00 0.  1.
         11    1    1    2    0    0  0.53099337325E+02 -0.23276217425E+02  0.35498248037E+02  0.67981229289E+02  0.00000000000E+00 0. -1.
<mgrwt>
<rscale>  0 0.12213847E+03</rscale>
<asrwt>0</asrwt>
<pdfrwt beam="1">  1        2 0.59252604E-01 0.13167432E+03</pdfrwt>
<pdfrwt beam="2">  1       -2 0.53831879E-02 0.13167432E+03</pdfrwt>
<totfact> 0.13698908E+04</totfact>
</mgrwt>
</event>
<event>
 6    1  0.1045058E-005  0.1401481E+03  0.7546771E-02  0.1224496E+00
         -2   -1    0    0    0  501 -0.00000000000E+00  0.00000000000E+00  0.78870791622E+03  0.78870791622E+03  0.00000000000E+00 0.  1.
          2   -1    0    0  501    0  0.00000000000E+00 -0.00000000000E+00 -0.20244271625E+02  0.20244271625E+02  0.00000000000E+00 0. -1.
          5    1    1    2  502    0 -0.70000045357E+02 -0.40768478212E+02  0.13162981283E+03  0.15463043940E+03  0.47000000000E+01 0.  1.
         -5    1    1    2    0  502  0.71801540440E+01  0.32306937033E+02  0.24425027813E+03  0.24652703941E+03  0.47000000000E+01 0.  1.
        -11    1    1    2    0    0  0.71606072496E+02 -0.24414934667E+02  0.29044078144E+03  0.30013224782E+03  0.00000000000E+00 0. -1.
         11    1    1    2    0    0 -0.87861811833E+01  0.32876475846E+02  0.10214277220E+03  0.10766246122E+03  0.00000000000E+00 0.  1.
<mgrwt>
<rscale>  0 0.13201477E+03</rscale>
<asrwt>0</asrwt>
<pdfrwt beam="2">  1        2 0.31145039E-02 0.14014806E+03</pdfrwt>
<pdfrwt beam="1">  1       -2 0.12133966E+00 0.14014806E+03</pdfrwt>
<totfact> 0.15509101E+03</totfact>
</mgrwt>
</event>
<event>
 6    1  0.1045058E-005  0.1369023E+03  0.7546771E-02  0.1229168E+00
         -1   -1    0    0    0  501 -0.00000000000E+00  0.00000000000E+00  0.67187206434E+02  0.67187206434E+02  0.00000000000E+00 0.  1.
          1   -1    0    0  501    0  0.00000000000E+00 -0.00000000000E+00 -0.22724755766E+03  0.22724755766E+03  0.00000000000E+00 0. -1.
          5    1    1    2  502    0  0.21618729615E+02  0.14230318020E+02 -0.13179698399E+03  0.13439645237E+03  0.47000000000E+01 0. -1.
         -5    1    1    2    0  502  0.34181490048E+02 -0.12803467332E+02  0.20421124964E+02  0.42088185782E+02  0.47000000000E+01 0. -1.
        -11    1    1    2    0    0 -0.57700650181E+02 -0.23218733521E+02  0.25416783543E+01  0.62248973858E+02  0.00000000000E+00 0.  1.
         11    1    1    2    0    0  0.19004305185E+01  0.21791882833E+02 -0.51226170554E+02  0.55701152082E+02  0.00000000000E+00 0. -1.
<mgrwt>
<rscale>  0 0.12885269E+03</rscale>
<asrwt>0</asrwt>
<pdfrwt beam="2">  1        1 0.34961163E-01 0.13690232E+03</pdfrwt>
<pdfrwt beam="1">  1       -1 0.10336493E-01 0.13690232E+03</pdfrwt>
<totfact> 0.68648135E+03</totfact>
</mgrwt>
</event>
<event>
 6    1  0.1896166E-005  0.1385349E+03  0.7546771E-02  0.1227349E+00
          3   -1    0    0  501    0  0.00000000000E+00  0.00000000000E+00  0.87609400985E+02  0.87609400985E+02  0.00000000000E+00 0. -1.
         -3   -1    0    0    0  501 -0.00000000000E+00 -0.00000000000E+00 -0.17317028111E+03  0.17317028111E+03  0.00000000000E+00 0.  1.
          5    1    1    2  502    0  0.42649860262E+02  0.32514777843E+01 -0.87781578288E+02  0.97761332719E+02  0.47000000000E+01 0. -1.
         -5    1    1    2    0  502  0.16889883100E+02  0.13998798258E+01  0.44115759387E+02  0.47492294543E+02  0.47000000000E+01 0. -1.
        -11    1    1    2    0    0 -0.37417899089E+02  0.44321124550E+00 -0.70014367831E+02  0.79387072696E+02  0.00000000000E+00 0.  1.
         11    1    1    2    0    0 -0.22121844273E+02 -0.50945688556E+01  0.28119306608E+02  0.36138982138E+02  0.00000000000E+00 0. -1.
<mgrwt>
<rscale>  0 0.13007229E+03</rscale>
<asrwt>0</asrwt>
<pdfrwt beam="1">  1        3 0.13478369E-01 0.13853488E+03</pdfrwt>
<pdfrwt beam="2">  1       -3 0.26641582E-01 0.13853488E+03</pdfrwt>
<totfact> 0.13762658E+03</totfact>
</mgrwt>
</event>
<event>
 6    1  0.1045058E-005  0.1290898E+03  0.7546771E-02  0.1244359E+00
          1   -1    0    0  501    0  0.00000000000E+00  0.00000000000E+00  0.56790685983E+03  0.56790685983E+03  0.00000000000E+00 0. -1.
         -1   -1    0    0    0  501 -0.00000000000E+00 -0.00000000000E+00 -0.26388840960E+02  0.26388840960E+02  0.00000000000E+00 0.  1.
          5    1    1    2  502    0 -0.39261651369E+02  0.36592768111E+02  0.30619313359E+03  0.31089682051E+03  0.47000000000E+01 0. -1.
         -5    1    1    2    0  502  0.15838809984E+02 -0.58443646911E+02  0.12119482541E+03  0.13556106916E+03  0.47000000000E+01 0. -1.
        -11    1    1    2    0    0 -0.96315544591E+01  0.48356234939E+02  0.77366928344E+02  0.91742759388E+02  0.00000000000E+00 0. -1.
         11    1    1    2    0    0  0.33054395844E+02 -0.26505356139E+02  0.36763131520E+02  0.56095051723E+02  0.00000000000E+00 0.  1.
<mgrwt>
<rscale>  0 0.11923842E+03</rscale>
<asrwt>0</asrwt>
<pdfrwt beam="1">  1        1 0.87370277E-01 0.12908981E+03</pdfrwt>
<pdfrwt beam="2">  1       -1 0.40598221E-02 0.12908981E+03</pdfrwt>
<totfact> 0.87074846E+03</totfact>
</mgrwt>
</event>
<event>
 6    1  0.1045058E-005  0.1297035E+03  0.7546771E-02  0.1242032E+00
          2   -1    0    0  501    0  0.00000000000E+00  0.00000000000E+00  0.20390573194E+03  0.20390573194E+03  0.00000000000E+00 0. -1.
         -2   -1    0    0    0  501 -0.00000000000E+00 -0.00000000000E+00 -0.64598140684E+02  0.64598140684E+02  0.00000000000E+00 0.  1.
          5    1    1    2  502    0 -0.12106604258E+02 -0.40124105449E+02  0.87474917896E+02  0.97110581121E+02  0.47000000000E+01 0.  1.
         -5    1    1    2    0  502  0.32746426751E+02  0.12355813157E+02 -0.28491619858E+02  0.45374629320E+02  0.47000000000E+01 0.  1.
        -11    1    1    2    0    0 -0.30270164681E+02  0.57458418645E+02  0.45757531084E+02  0.79444977148E+02  0.00000000000E+00 0.  1.
         11    1    1    2    0    0  0.96303421882E+01 -0.29690126353E+02  0.34566762136E+02  0.46573685039E+02  0.00000000000E+00 0. -1.
<mgrwt>
<rscale>  0 0.12064807E+03</rscale>
<asrwt>0</asrwt>
<pdfrwt beam="1">  1        2 0.31370112E-01 0.12970353E+03</pdfrwt>
<pdfrwt beam="2">  1       -2 0.99381756E-02 0.12970353E+03</pdfrwt>
<totfact> 0.10501334E+04</totfact>
</mgrwt>
</event>
<event>
 6    1  0.1045058E-005  0.1340662E+03  0.7546771E-02  0.1234502E+00
          2   -1    0    0  501    0  0.00000000000E+00  0.00000000000E+00  0.38364912389E+03  0.38364912389E+03  0.00000000000E+00 0.  1.
         -2   -1    0    0    0  501 -0.00000000000E+00 -0.00000000000E+00 -0.51474484007E+02  0.51474484007E+02  0.00000000000E+00 0. -1.
          5    1    1    2  502    0  0.49771441044E+02 -0.69322013044E+02  0.18707945288E+03  0.20567826703E+03  0.47000000000E+01 0.  1.
         -5    1    1    2    0  502 -0.43409065636E+02  0.21273186353E+02  0.11143272355E+03  0.12155754734E+03  0.47000000000E+01 0.  1.
        -11    1    1    2    0    0 -0.69669853351E+01 -0.13875344810E+02 -0.20431689461E+02  0.25661605805E+02  0.00000000000E+00 0. -1.
         11    1    1    2    0    0  0.60460992698E+00  0.61924171501E+02  0.54094152911E+02  0.82226187729E+02  0.00000000000E+00 0.  1.
<mgrwt>
<rscale>  0 0.12536388E+03</rscale>
<asrwt>0</asrwt>
<pdfrwt beam="1">  1        2 0.59022940E-01 0.13406625E+03</pdfrwt>
<pdfrwt beam="2">  1       -2 0.79191516E-02 0.13406625E+03</pdfrwt>
<totfact> 0.76499439E+03</totfact>
</mgrwt>
</event>
<event>
 6    1  0.1045058E-005  0.1536676E+03  0.7546771E-02  0.1204375E+00
          2   -1    0    0  501    0  0.00000000000E+00  0.00000000000E+00  0.47585820822E+03  0.47585820822E+03  0.00000000000E+00 0. -1.
         -2   -1    0    0    0  501 -0.00000000000E+00 -0.00000000000E+00 -0.43298442555E+02  0.43298442555E+02  0.00000000000E+00 0.  1.
          5    1    1    2  502    0  0.10768834229E+03  0.10403696635E+01  0.19961600722E+03  0.22686229694E+03  0.47000000000E+01 0.  1.
         -5    1    1    2    0  502 -0.26787076717E+02  0.36939697763E+02  0.84439672306E+02  0.96094937479E+02  0.47000000000E+01 0.  1.
        -11    1    1    2    0    0  0.10566562734E+02 -0.64236569591E+01 -0.61193493314E+01  0.13797175544E+02  0.00000000000E+00 0.  1.
         11    1    1    2    0    0 -0.91467828307E+02 -0.31556410467E+02  0.15462343547E+03  0.18240224081E+03  0.00000000000E+00 0. -1.
<mgrwt>
<rscale>  0 0.14686795E+03</rscale>
<asrwt>0</asrwt>
<pdfrwt beam="1">  1        2 0.73208952E-01 0.15366765E+03</pdfrwt>
<pdfrwt beam="2">  1       -2 0.66612992E-02 0.15366765E+03</pdfrwt>
<totfact> 0.79788677E+03</totfact>
</mgrwt>
</event>
<event>
 6    1  0.1045058E-005  0.1323401E+03  0.7546771E-02  0.1236243E+00
          1   -1    0    0  501    0  0.00000000000E+00  0.00000000000E+00  0.11181071787E+03  0.11181071787E+03  0.00000000000E+00 0. -1.
         -1   -1    0    0    0  501 -0.00000000000E+00 -0.00000000000E+00 -0.13284117660E+03  0.13284117660E+03  0.00000000000E+00 0.  1.
          5    1    1    2  502    0 -0.25364812397E+02  0.60186749834E+02  0.39738606259E+02  0.76596771413E+02  0.47000000000E+01 0. -1.
         -5    1    1    2    0  502  0.48311558551E+02 -0.23263496089E+02 -0.19565254442E+02  0.57272036120E+02  0.47000000000E+01 0. -1.
        -11    1    1    2    0    0  0.18483083788E+02 -0.12325025192E+02  0.22028626325E+02  0.31285635843E+02  0.00000000000E+00 0. -1.
         11    1    1    2    0    0 -0.41429829942E+02 -0.24598228552E+02 -0.63232436875E+02  0.79497451092E+02  0.00000000000E+00 0.  1.
<mgrwt>
<rscale>  0 0.12425225E+03</rscale>
<asrwt>0</asrwt>
<pdfrwt beam="1">  1        1 0.17201649E-01 0.13234007E+03</pdfrwt>
<pdfrwt beam="2">  1       -1 0.20437104E-01 0.13234007E+03</pdfrwt>
<totfact> 0.57499452E+03</totfact>
</mgrwt>
</event>
<event>
 6    1  0.1045058E-005  0.1403133E+03  0.7546771E-02  0.1223341E+00
         -1   -1    0    0    0  501 -0.00000000000E+00  0.00000000000E+00  0.62805672560E+02  0.62805672560E+02  0.00000000000E+00 0.  1.
          1   -1    0    0  501    0  0.00000000000E+00 -0.00000000000E+00 -0.30541161649E+03  0.30541161649E+03  0.00000000000E+00 0. -1.
          5    1    1    2  502    0 -0.46116865928E+02 -0.29129675337E+02 -0.22022967546E+03  0.22693281663E+03  0.47000000000E+01 0. -1.
         -5    1    1    2    0  502 -0.14898606865E+02  0.10889850636E+02  0.13196097510E+02  0.23168606408E+02  0.47000000000E+01 0. -1.
        -11    1    1    2    0    0  0.15879281718E+02 -0.17048324883E+02  0.25387829752E+02  0.34457783862E+02  0.00000000000E+00 0.  1.
         11    1    1    2    0    0  0.45136191075E+02  0.35288149584E+02 -0.60960195729E+02  0.83658082150E+02  0.00000000000E+00 0. -1.
<mgrwt>
<rscale>  0 0.13281268E+03</rscale>
<asrwt>0</asrwt>
<pdfrwt beam="2">  1        1 0.46986403E-01 0.14031329E+03</pdfrwt>
<pdfrwt beam="1">  1       -1 0.96624111E-02 0.14031329E+03</pdfrwt>
<totfact> 0.52861214E+03</totfact>
</mgrwt>
</event>
<event>
 6    1  0.1045058E-005  0.1495330E+03  0.7546771E-02  0.1209563E+00
          1   -1    0    0  501    0  0.00000000000E+00  0.00000000000E+00  0.17022350964E+03  0.17022350964E+03  0.00000000000E+00 0. -1.
         -1   -1    0    0    0  501 -0.00000000000E+00 -0.00000000000E+00 -0.12151928094E+03  0.12151928094E+03  0.00000000000E+00 0.  1.
          5    1    1    2  502    0  0.57766113764E+02  0.18047899026E+02 -0.27445762683E+01  0.60764078677E+02  0.47000000000E+01 0.  1.
         -5    1    1    2    0  502 -0.40819010385E+02  0.62249337896E+02  0.73309173432E+02  0.10458248700E+03  0.47000000000E+01 0.  1.
        -11    1    1    2    0    0 -0.15906614616E+02 -0.95724777059E+02 -0.37845461332E+02  0.10415628774E+03  0.00000000000E+00 0.  1.
         11    1    1    2    0    0 -0.10404887629E+01  0.15427540137E+02  0.15985092861E+02  0.22239937170E+02  0.00000000000E+00 0. -1.
<mgrwt>
<rscale>  0 0.14283602E+03</rscale>
<asrwt>0</asrwt>
<pdfrwt beam="1">  1        1 0.26188232E-01 0.14953302E+03</pdfrwt>
<pdfrwt beam="2">  1       -1 0.18695274E-01 0.14953302E+03</pdfrwt>
<totfact> 0.39205343E+03</totfact>
</mgrwt>
</event>
<event>
 6    1  0.1045058E-005  0.1411584E+03  0.7546771E-02  0.1222552E+00
         -2   -1    0    0    0  501 -0.00000000000E+00  0.00000000000E+00  0.20392677261E+02  0.20392677261E+02  0.00000000000E+00 0. -1.
          2   -1    0    0  501    0  0.00000000000E+00 -0.00000000000E+00 -0.11163317847E+04  0.11163317847E+04  0.00000000000E+00 0.  1.
          5    1    1    2  502    0 -0.23820390699E+02  0.76579319474E+02 -0.41532786453E+03  0.42302615550E+03  0.47000000000E+01 0. -1.
         -5    1    1    2    0  502  0.53585058525E+02 -0.18137086950E+02 -0.48302705316E+03  0.48635124807E+03  0.47000000000E+01 0. -1.
        -11    1    1    2    0    0 -0.18791221161E+02 -0.78657420554E+02 -0.10839108900E+03  0.13523582357E+03  0.00000000000E+00 0. -1.
         11    1    1    2    0    0 -0.10973446664E+02  0.20215188030E+02 -0.89193100797E+02  0.92111234866E+02  0.00000000000E+00 0.  1.
<mgrwt>
<rscale>  0 0.13336114E+03</rscale>
<asrwt>0</asrwt>
<pdfrwt beam="2">  1        2 0.17174341E+00 0.14115844E+03</pdfrwt>
<pdfrwt beam="1">  1       -2 0.31373340E-02 0.14115844E+03</pdfrwt>
<totfact> 0.85975317E+03</totfact>
</mgrwt>
</event>
<event>
 6    1  0.1045058E-005  0.1429693E+03  0.7546771E-02  0.1219919E+00
         -2   -1    0    0    0  501 -0.00000000000E+00  0.00000000000E+00  0.14697869167E+02  0.14697869167E+02  0.00000000000E+00 0.  1.
          2   -1    0    0  501    0  0.00000000000E+00 -0.00000000000E+00 -0.11815982676E+04  0.11815982676E+04  0.00000000000E+00 0. -1.
          5    1    1    2  502    0 -0.30454160954E+02 -0.89787860917E+00 -0.57377697595E+02  0.65134877652E+02  0.47000000000E+01 0. -1.
         -5    1    1    2    0  502  0.63738180771E+02 -0.59972951858E+02 -0.71627437811E+03  0.72161650853E+03  0.47000000000E+01 0. -1.
        -11    1    1    2    0    0  0.79458024830E+01  0.68475393425E+02 -0.19264670625E+03  0.20460881875E+03  0.00000000000E+00 0.  1.
         11    1    1    2    0    0 -0.41229822300E+02 -0.76045629574E+01 -0.20060161650E+03  0.20493593186E+03  0.00000000000E+00 0. -1.
<mgrwt>
<rscale>  0 0.13521317E+03</rscale>
<asrwt>0</asrwt>
<pdfrwt beam="2">  1        2 0.18178439E+00 0.14296926E+03</pdfrwt>
<pdfrwt beam="1">  1       -2 0.22612101E-02 0.14296926E+03</pdfrwt>
<totfact> 0.12774016E+04</totfact>
</mgrwt>
</event>
<event>
 6    1  0.1045058E-005  0.1299157E+03  0.7546771E-02  0.1242396E+00
         -1   -1    0    0    0  501 -0.00000000000E+00  0.00000000000E+00  0.30755484961E+03  0.30755484961E+03  0.00000000000E+00 0.  1.
          1   -1    0    0  501    0  0.00000000000E+00 -0.00000000000E+00 -0.42142371173E+02  0.42142371173E+02  0.00000000000E+00 0. -1.
          5    1    1    2  502    0 -0.99099494799E+01 -0.10964817435E+02 -0.23363494159E+02  0.28042417503E+02  0.47000000000E+01 0. -1.
         -5    1    1    2    0  502 -0.25251402437E+02  0.71435735499E+01  0.15365984967E+03  0.15595545316E+03  0.47000000000E+01 0. -1.
        -11    1    1    2    0    0  0.49124076890E+02 -0.82045619230E+01  0.13830377879E+03  0.14699804418E+03  0.00000000000E+00 0.  1.
         11    1    1    2    0    0 -0.13962724973E+02  0.12025805808E+02 -0.31876558642E+01  0.18701305941E+02  0.00000000000E+00 0. -1.
<mgrwt>
<rscale>  0 0.12042566E+03</rscale>
<asrwt>0</asrwt>
<pdfrwt beam="2">  1        1 0.64834419E-02 0.12991565E+03</pdfrwt>
<pdfrwt beam="1">  1       -1 0.47316129E-01 0.12991565E+03</pdfrwt>
<totfact> 0.50237765E+03</totfact>
</mgrwt>
</event>
<event>
 6    1  0.1045058E-005  0.1405480E+03  0.7546771E-02  0.1223488E+00
          1   -1    0    0  501    0  0.00000000000E+00  0.00000000000E+00  0.79610816235E+03  0.79610816235E+03  0.00000000000E+00 0. -1.
         -1   -1    0    0    0  501 -0.00000000000E+00 -0.00000000000E+00 -0.24084692030E+02  0.24084692030E+02  0.00000000000E+00 0.  1.
          5    1    1    2  502    0 -0.31055776133E+02 -0.29683469799E+02  0.24439075759E+03  0.24818239665E+03  0.47000000000E+01 0. -1.
         -5    1    1    2    0  502  0.93440064522E+02  0.14304187362E+02  0.34648852030E+03  0.35918246078E+03  0.47000000000E+01 0. -1.
        -11    1    1    2    0    0 -0.21226756612E+02 -0.15499344660E+02  0.19076098935E+01  0.26352302682E+02  0.00000000000E+00 0.  1.
         11    1    1    2    0    0 -0.41157531776E+02  0.30878627097E+02  0.17923658254E+03  0.18647569427E+03  0.00000000000E+00 0. -1.
<mgrwt>
<rscale>  0 0.13271085E+03</rscale>
<asrwt>0</asrwt>
<pdfrwt beam="1">  1        1 0.12247816E+00 0.14054803E+03</pdfrwt>
<pdfrwt beam="2">  1       -1 0.37053378E-02 0.14054803E+03</pdfrwt>
<totfact> 0.62067845E+03</totfact>
</mgrwt>
</event>
<event>
 6    1  0.1045058E-005  0.1322816E+03  0.7546771E-02  0.1237903E+00
          2   -1    0    0  501    0  0.00000000000E+00  0.00000000000E+00  0.96270636833E+03  0.96270636833E+03  0.00000000000E+00 0. -1.
         -2   -1    0    0    0  501 -0.00000000000E+00 -0.00000000000E+00 -0.15060925057E+02  0.15060925057E+02  0.00000000000E+00 0.  1.
          5    1    1    2  502    0 -0.25128960289E+01 -0.28347947860E+02  0.38146803216E+02  0.47824568895E+02  0.47000000000E+01 0. -1.
         -5    1    1    2    0  502 -0.29725054677E+02  0.57197068533E+02  0.62888477485E+03  0.63219714770E+03  0.47000000000E+01 0. -1.
        -11    1    1    2    0    0 -0.30100360237E+02 -0.44224333177E+01  0.61218447206E+02  0.68361450256E+02  0.00000000000E+00 0. -1.
         11    1    1    2    0    0  0.62338310944E+02 -0.24426687355E+02  0.21939541801E+03  0.22938412654E+03  0.00000000000E+00 0.  1.
<mgrwt>
<rscale>  0 0.12320385E+03</rscale>
<asrwt>0</asrwt>
<pdfrwt beam="1">  1        2 0.14810862E+00 0.13228155E+03</pdfrwt>
<pdfrwt beam="2">  1       -2 0.23170661E-02 0.13228155E+03</pdfrwt>
<totfact> 0.16436218E+04</totfact>
</mgrwt>
</event>
<event>
 6    1  0.1045058E-005  0.1514425E+03  0.7546771E-02  0.1208087E+00
         -2   -1    0    0    0  501 -0.00000000000E+00  0.00000000000E+00  0.89840175675E+02  0.89840175675E+02  0.00000000000E+00 0.  1.
          2   -1    0    0  501    0  0.00000000000E+00 -0.00000000000E+00 -0.21501564140E+03  0.21501564140E+03  0.00000000000E+00 0. -1.
          5    1    1    2  502    0  0.80282369929E+02 -0.23902008250E+02 -0.62998300413E+02  0.10491635132E+03  0.47000000000E+01 0.  1.
         -5    1    1    2    0  502 -0.40590910498E+02 -0.51822045824E+02 -0.27413195458E+02  0.71461316344E+02  0.47000000000E+01 0.  1.
        -11    1    1    2    0    0 -0.20207836166E+02 -0.17123754810E+02 -0.18289544676E+02  0.32188306351E+02  0.00000000000E+00 0. -1.
         11    1    1    2    0    0 -0.19483623265E+02  0.92847808884E+02 -0.16474425174E+02  0.96289843052E+02  0.00000000000E+00 0.  1.
<mgrwt>
<rscale>  0 0.14396788E+03</rscale>
<asrwt>0</asrwt>
<pdfrwt beam="2">  1        2 0.33079329E-01 0.15144254E+03</pdfrwt>
<pdfrwt beam="1">  1       -2 0.13821566E-01 0.15144254E+03</pdfrwt>
<totfact> 0.59246978E+03</totfact>
</mgrwt>
</event>
<event>
 6    1  0.1045058E-005  0.1318393E+03  0.7546771E-02  0.1233573E+00
         -2   -1    0    0    0  501 -0.00000000000E+00  0.00000000000E+00  0.92216261942E+02  0.92216261942E+02  0.00000000000E+00 0.  1.
          2   -1    0    0  501    0  0.00000000000E+00 -0.00000000000E+00 -0.16101333097E+03  0.16101333097E+03  0.00000000000E+00 0. -1.
          5    1    1    2  502    0  0.34501348258E+01 -0.19503654694E+02 -0.83251381783E+02  0.85704017091E+02  0.47000000000E+01 0.  1.
         -5    1    1    2    0  502  0.36895452851E+02  0.30750672940E+02  0.29622258179E+02  0.56625493437E+02  0.47000000000E+01 0.  1.
        -11    1    1    2    0    0  0.37384345712E+01  0.41125784316E+02 -0.33518697807E+01  0.41431160491E+02  0.00000000000E+00 0.  1.
         11    1    1    2    0    0 -0.44084022248E+02 -0.52372802562E+02 -0.11816075647E+02  0.69468921896E+02  0.00000000000E+00 0. -1.
<mgrwt>
<rscale>  0 0.12596258E+03</rscale>
<asrwt>0</asrwt>
<pdfrwt beam="2">  1        2 0.24771281E-01 0.13183932E+03</pdfrwt>
<pdfrwt beam="1">  1       -2 0.14187117E-01 0.13183932E+03</pdfrwt>
<totfact> 0.77106032E+03</totfact>
</mgrwt>
</event>
<event>
 6    1  0.1045058E-005  0.1315917E+03  0.7546771E-02  0.1238657E+00
         -2   -1    0    0    0  501 -0.00000000000E+00  0.00000000000E+00  0.12732762386E+02  0.12732762386E+02  0.00000000000E+00 0. -1.
          2   -1    0    0  501    0  0.00000000000E+00 -0.00000000000E+00 -0.14256542954E+04  0.14256542954E+04  0.00000000000E+00 0.  1.
          5    1    1    2  502    0 -0.81237159132E+01 -0.25021858029E+02 -0.11131520741E+04  0.11134728188E+04  0.47000000000E+01 0.  1.
         -5    1    1    2    0  502  0.16150820190E+02 -0.15316291237E+02 -0.32265693371E+02  0.39479143086E+02  0.47000000000E+01 0.  1.
        -11    1    1    2    0    0  0.25142241198E+01  0.66303001273E+02 -0.22455683771E+03  0.23415418566E+03  0.00000000000E+00 0.  1.
         11    1    1    2    0    0 -0.10541328396E+02 -0.25964852008E+02 -0.42946927828E+02  0.51280910230E+02  0.00000000000E+00 0. -1.
<mgrwt>
<rscale>  0 0.12273190E+03</rscale>
<asrwt>0</asrwt>
<pdfrwt beam="2">  1        2 0.21933145E+00 0.13159166E+03</pdfrwt>
<pdfrwt beam="1">  1       -2 0.19588864E-02 0.13159166E+03</pdfrwt>
<totfact> 0.11570499E+04</totfact>
</mgrwt>
</event>
<event>
 6    1  0.1045058E-005  0.1815116E+03  0.7546771E-02  0.1171907E+00
          1   -1    0    0  501    0  0.00000000000E+00  0.00000000000E+00  0.16805924260E+04  0.16805924260E+04  0.00000000000E+00 0. -1.
         -1   -1    0    0    0  501 -0.00000000000E+00 -0.00000000000E+00 -0.19289286912E+02  0.19289286912E+02  0.00000000000E+00 0.  1.
          5    1    1    2  502    0  0.10289846468E+03  0.10144228127E+03  0.10909951754E+04  0.11005322318E+04  0.47000000000E+01 0. -1.
         -5    1    1    2    0  502 -0.23074793178E+02  0.31906525429E+01  0.57488829504E+02  0.62206767008E+02  0.47000000000E+01 0. -1.
        -11    1    1    2    0    0 -0.91834085709E+02 -0.86557785778E+02  0.48854995194E+03  0.50458577578E+03  0.00000000000E+00 0. -1.
         11    1    1    2    0    0  0.12010414206E+02 -0.18075148039E+02  0.24269182187E+02  0.32556938279E+02  0.00000000000E+00 0.  1.
<mgrwt>
<rscale>  0 0.17582412E+03</rscale>
<asrwt>0</asrwt>
<pdfrwt beam="1">  1        1 0.25855256E+00 0.18151162E+03</pdfrwt>
<pdfrwt beam="2">  1       -1 0.29675839E-02 0.18151162E+03</pdfrwt>
<totfact> 0.20876683E+03</totfact>
</mgrwt>
</event>
<event>
 6    1  0.1045058E-005  0.3033098E+03  0.7546771E-02  0.1083598E+00
         -2   -1    0    0    0  501 -0.00000000000E+00  0.00000000000E+00  0.35048902558E+02  0.35048902558E+02  0.00000000000E+00 0.  1.
          2   -1    0    0  501    0  0.00000000000E+00 -0.00000000000E+00 -0.65620331820E+03  0.65620331820E+03  0.00000000000E+00 0. -1.
          5    1    1    2  502    0  0.88596090092E+02  0.20813242314E+02 -0.47066394401E+03  0.47940493993E+03  0.47000000000E+01 0. -1.
         -5    1    1    2    0  502 -0.32356615981E+02  0.48219526619E+01 -0.61742105706E+02  0.70031274744E+02  0.47000000000E+01 0.  1.
        -11    1    1    2    0    0 -0.56915763134E+02  0.23297876294E+02 -0.45422433160E+02  0.76455167040E+02  0.00000000000E+00 0.  1.
         11    1    1    2    0    0  0.67628902431E+00 -0.48933071269E+02 -0.43325932759E+02  0.65360839041E+02  0.00000000000E+00 0. -1.
<mgrwt>
<rscale>  0 0.30330978E+03</rscale>
<asrwt>0</asrwt>
<pdfrwt beam="2">  1        2 0.10095436E+00 0.30330978E+03</pdfrwt>
<pdfrwt beam="1">  1       -2 0.53921386E-02 0.30330978E+03</pdfrwt>
<totfact> 0.79131270E+03</totfact>
</mgrwt>
</event>
<event>
 6    1  0.1045058E-005  0.1259470E+03  0.7546771E-02  0.1248003E+00
         -3   -1    0    0    0  501 -0.00000000000E+00  0.00000000000E+00  0.52319722697E+03  0.52319722697E+03  0.00000000000E+00 0.  1.
          3   -1    0    0  501    0  0.00000000000E+00 -0.00000000000E+00 -0.24112745664E+02  0.24112745664E+02  0.00000000000E+00 0. -1.
          5    1    1    2  502    0 -0.47874212790E+01  0.56088357506E+02  0.87240233007E+02  0.10393157126E+03  0.47000000000E+01 0. -1.
         -5    1    1    2    0  502 -0.48104186017E+01 -0.68092005130E+02  0.14213338015E+03  0.15774551989E+03  0.47000000000E+01 0. -1.
        -11    1    1    2    0    0  0.39666942277E+02  0.35050436197E+02  0.11915911753E+03  0.13038747899E+03  0.00000000000E+00 0.  1.
         11    1    1    2    0    0 -0.30069102396E+02 -0.23046788572E+02  0.15055175062E+03  0.15524540250E+03  0.00000000000E+00 0. -1.
<mgrwt>
<rscale>  0 0.11707410E+03</rscale>
<asrwt>0</asrwt>
<pdfrwt beam="2">  1        3 0.37096536E-02 0.12594700E+03</pdfrwt>
<pdfrwt beam="1">  1       -3 0.80491872E-01 0.12594700E+03</pdfrwt>
<totfact> 0.12235610E+03</totfact>
</mgrwt>
</event>
<event>
 6    1  0.1045058E-005  0.1280284E+03  0.7546771E-02  0.1244742E+00
          1   -1    0    0  501    0  0.00000000000E+00  0.00000000000E+00  0.65216641110E+02  0.65216641110E+02  0.00000000000E+00 0. -1.
         -1   -1    0    0    0  501 -0.00000000000E+00 -0.00000000000E+00 -0.19234960672E+03  0.19234960672E+03  0.00000000000E+00 0.  1.
          5    1    1    2  502    0  0.10077639323E+02 -0.50006004471E+02 -0.13805843986E+02  0.53055165872E+02  0.47000000000E+01 0. -1.
         -5    1    1    2    0  502 -0.31570371030E+02  0.67461036823E+02 -0.51427959551E+02  0.90634457243E+02  0.47000000000E+01 0. -1.
        -11    1    1    2    0    0 -0.35998187167E+01  0.35771864052E+02 -0.16519606189E+02  0.39566176732E+02  0.00000000000E+00 0.  1.
         11    1    1    2    0    0  0.25092550424E+02 -0.53226896404E+02 -0.45379555889E+02  0.74310447988E+02  0.00000000000E+00 0. -1.
<mgrwt>
<rscale>  0 0.11900806E+03</rscale>
<asrwt>0</asrwt>
<pdfrwt beam="1">  1        1 0.10033330E-01 0.12802835E+03</pdfrwt>
<pdfrwt beam="2">  1       -1 0.29592247E-01 0.12802835E+03</pdfrwt>
<totfact> 0.63132845E+03</totfact>
</mgrwt>
</event>
<event>
 6    1  0.1045058E-005  0.1258138E+03  0.7546771E-02  0.1249235E+00
          1   -1    0    0  501    0  0.00000000000E+00  0.00000000000E+00  0.63778903791E+03  0.63778903791E+03  0.00000000000E+00 0. -1.
         -1   -1    0    0    0  501 -0.00000000000E+00 -0.00000000000E+00 -0.21131379956E+02  0.21131379956E+02  0.00000000000E+00 0.  1.
          5    1    1    2  502    0  0.52166185435E+02 -0.19726155197E+02  0.25377007545E+03  0.25986876168E+03  0.47000000000E+01 0. -1.
         -5    1    1    2    0  502 -0.59808521233E+02  0.31463290002E+02  0.20940566144E+03  0.22009047884E+03  0.47000000000E+01 0. -1.
        -11    1    1    2    0    0 -0.28340434400E+01 -0.48374097216E+02  0.54657152222E+02  0.73044434235E+02  0.00000000000E+00 0.  1.
         11    1    1    2    0    0  0.10476379238E+02  0.36636962411E+02  0.98824768836E+02  0.10591674312E+03  0.00000000000E+00 0. -1.
<mgrwt>
<rscale>  0 0.11635477E+03</rscale>
<asrwt>0</asrwt>
<pdfrwt beam="1">  1        1 0.98121376E-01 0.12581379E+03</pdfrwt>
<pdfrwt beam="2">  1       -1 0.32509820E-02 0.12581379E+03</pdfrwt>
<totfact> 0.10271667E+04</totfact>
</mgrwt>
</event>
<event>
 6    1  0.1045058E-005  0.1263978E+03  0.7546771E-02  0.1247822E+00
          1   -1    0    0  501    0  0.00000000000E+00  0.00000000000E+00  0.12979646215E+04  0.12979646215E+04  0.00000000000E+00 0. -1.
         -1   -1    0    0    0  501 -0.00000000000E+00 -0.00000000000E+00 -0.12223196978E+02  0.12223196978E+02  0.00000000000E+00 0.  1.
          5    1    1    2  502    0  0.80137121262E-01  0.28489705125E+02  0.90150354440E+03  0.90196585317E+03  0.47000000000E+01 0. -1.
         -5    1    1    2    0  502  0.12599413377E+02 -0.42271403977E+02  0.13235589787E+03  0.13959151304E+03  0.47000000000E+01 0. -1.
        -11    1    1    2    0    0 -0.92303006749E+00  0.48126437829E+02  0.83508393119E+02  0.96388057995E+02  0.00000000000E+00 0.  1.
         11    1    1    2    0    0 -0.11756520431E+02 -0.34344738977E+02  0.16837358918E+03  0.17224239432E+03  0.00000000000E+00 0. -1.
<mgrwt>
<rscale>  0 0.11718051E+03</rscale>
<asrwt>0</asrwt>
<pdfrwt beam="1">  1        1 0.19968676E+00 0.12639779E+03</pdfrwt>
<pdfrwt beam="2">  1       -1 0.18804929E-02 0.12639779E+03</pdfrwt>
<totfact> 0.71413636E+03</totfact>
</mgrwt>
</event>
<event>
 6    1  0.1045058E-005  0.1303097E+03  0.7546771E-02  0.1240369E+00
          2   -1    0    0  501    0  0.00000000000E+00  0.00000000000E+00  0.19809834596E+03  0.19809834596E+03  0.00000000000E+00 0. -1.
         -2   -1    0    0    0  501 -0.00000000000E+00 -0.00000000000E+00 -0.99637643815E+02  0.99637643815E+02  0.00000000000E+00 0.  1.
          5    1    1    2  502    0 -0.65770301950E+02 -0.45001204898E+02  0.11827634230E+03  0.14269626557E+03  0.47000000000E+01 0. -1.
         -5    1    1    2    0  502  0.34520412469E+02  0.25491577557E+02  0.20899936284E+02  0.47962242859E+02  0.47000000000E+01 0. -1.
        -11    1    1    2    0    0  0.46985159165E+02 -0.18973947431E+02 -0.41495046594E+02  0.65493929144E+02  0.00000000000E+00 0. -1.
         11    1    1    2    0    0 -0.15735269684E+02  0.38483574773E+02  0.77947014942E+00  0.41583552194E+02  0.00000000000E+00 0.  1.
<mgrwt>
<rscale>  0 0.12166882E+03</rscale>
<asrwt>0</asrwt>
<pdfrwt beam="1">  1        2 0.30476668E-01 0.13030975E+03</pdfrwt>
<pdfrwt beam="2">  1       -2 0.15328868E-01 0.13030975E+03</pdfrwt>
<totfact> 0.54165254E+03</totfact>
</mgrwt>
</event>
<event>
 6    1  0.1045058E-005  0.1348178E+03  0.7546771E-02  0.1238851E+00
          2   -1    0    0  501    0  0.00000000000E+00  0.00000000000E+00  0.11717150482E+03  0.11717150482E+03  0.00000000000E+00 0. -1.
         -2   -1    0    0    0  501 -0.00000000000E+00 -0.00000000000E+00 -0.13684753870E+03  0.13684753870E+03  0.00000000000E+00 0.  1.
          5    1    1    2  502    0  0.86736485543E+01  0.90016192801E+02  0.21266700000E+02  0.93018867304E+02  0.47000000000E+01 0. -1.
         -5    1    1    2    0  502  0.76123761925E+01 -0.42215369837E+02  0.22877574533E+02  0.48842186051E+02  0.47000000000E+01 0. -1.
        -11    1    1    2    0    0  0.20435682053E+01 -0.40917621386E+02  0.43806938081E+01  0.41202164860E+02  0.00000000000E+00 0. -1.
         11    1    1    2    0    0 -0.18329592952E+02 -0.68832015781E+01 -0.68201002219E+02  0.70955825310E+02  0.00000000000E+00 0.  1.
<mgrwt>
<rscale>  0 0.12261075E+03</rscale>
<asrwt>0</asrwt>
<pdfrwt beam="1">  1        2 0.18026386E-01 0.13481781E+03</pdfrwt>
<pdfrwt beam="2">  1       -2 0.21053467E-01 0.13481781E+03</pdfrwt>
<totfact> 0.57285513E+03</totfact>
</mgrwt>
</event>
<event>
 6    1  0.1045058E-005  0.1863365E+03  0.7546771E-02  0.1169214E+00
         -1   -1    0    0    0  501 -0.00000000000E+00  0.00000000000E+00  0.41740665554E+02  0.41740665554E+02  0.00000000000E+00 0.  1.
          1   -1    0    0  501    0  0.00000000000E+00 -0.00000000000E+00 -0.70737425171E+03  0.70737425171E+03  0.00000000000E+00 0. -1.
          5    1    1    2  502    0 -0.61294221794E+02  0.84028224960E+02 -0.28009364255E+03  0.29881810991E+03  0.47000000000E+01 0. -1.
         -5    1    1    2    0  502  0.58459443541E+02  0.44019263252E+02 -0.95001088123E+02  0.12001041130E+03  0.47000000000E+01 0.  1.
        -11    1    1    2    0    0 -0.28863875962E+02 -0.78069642426E+02 -0.23429687973E+03  0.24864235410E+03  0.00000000000E+00 0. -1.
         11    1    1    2    0    0  0.31698654215E+02 -0.49977845786E+02 -0.56241975759E+02  0.81644041949E+02  0.00000000000E+00 0.  1.
<mgrwt>
<rscale>  0 0.17854937E+03</rscale>
<asrwt>0</asrwt>
<pdfrwt beam="2">  1        1 0.10882680E+00 0.18633645E+03</pdfrwt>
<pdfrwt beam="1">  1       -1 0.64216413E-02 0.18633645E+03</pdfrwt>
<totfact> 0.33028031E+03</totfact>
</mgrwt>
</event>
<event>
 6    1  0.1045058E-005  0.1388878E+03  0.7546771E-02  0.1226192E+00
         -2   -1    0    0    0  501 -0.00000000000E+00  0.00000000000E+00  0.12587865726E+03  0.12587865726E+03  0.00000000000E+00 0. -1.
          2   -1    0    0  501    0  0.00000000000E+00 -0.00000000000E+00 -0.15254734735E+03  0.15254734735E+03  0.00000000000E+00 0.  1.
          5    1    1    2  502    0  0.97261280645E+02 -0.17965382617E+01 -0.71116830288E+02  0.12059302556E+03  0.47000000000E+01 0.  1.
         -5    1    1    2    0  502 -0.36966078027E+02 -0.35830000243E+01 -0.49511902136E+01  0.37761529344E+02  0.47000000000E+01 0.  1.
        -11    1    1    2    0    0 -0.44826013649E+02 -0.15277857836E+02  0.71723725731E+02  0.85948108021E+02  0.00000000000E+00 0. -1.
         11    1    1    2    0    0 -0.15469188969E+02  0.20657396122E+02 -0.22324395314E+02  0.34123341689E+02  0.00000000000E+00 0.  1.
<mgrwt>
<rscale>  0 0.13085519E+03</rscale>
<asrwt>0</asrwt>
<pdfrwt beam="2">  1        2 0.23468823E-01 0.13888780E+03</pdfrwt>
<pdfrwt beam="1">  1       -2 0.19365947E-01 0.13888780E+03</pdfrwt>
<totfact> 0.49111091E+03</totfact>
</mgrwt>
</event>
<event>
 6    1  0.1045058E-005  0.1315640E+03  0.7546771E-02  0.1238724E+00
         -2   -1    0    0    0  501 -0.00000000000E+00  0.00000000000E+00  0.18483444189E+02  0.18483444189E+02  0.00000000000E+00 0.  1.
          2   -1    0    0  501    0  0.00000000000E+00 -0.00000000000E+00 -0.10715525592E+04  0.10715525592E+04  0.00000000000E+00 0. -1.
          5    1    1    2  502    0 -0.31171205871E+02 -0.13433068766E+02 -0.64029301848E+02  0.72621848690E+02  0.47000000000E+01 0.  1.
         -5    1    1    2    0  502  0.25169706513E+01  0.42824713015E+02 -0.82093752544E+03  0.82207104429E+03  0.47000000000E+01 0.  1.
        -11    1    1    2    0    0  0.50212964478E+02 -0.29839666851E+01 -0.44614290761E+02  0.67236008202E+02  0.00000000000E+00 0.  1.
         11    1    1    2    0    0 -0.21558729258E+02 -0.26407677565E+02 -0.12348799693E+03  0.12810710217E+03  0.00000000000E+00 0. -1.
<mgrwt>
<rscale>  0 0.12269030E+03</rscale>
<asrwt>0</asrwt>
<pdfrwt beam="2">  1        2 0.16485419E+00 0.13156400E+03</pdfrwt>
<pdfrwt beam="1">  1       -2 0.28436076E-02 0.13156400E+03</pdfrwt>
<totfact> 0.10501593E+04</totfact>
</mgrwt>
</event>
<event>
 6    1  0.1045058E-005  0.2677684E+03  0.7546771E-02  0.1104608E+00
          4   -1    0    0  501    0  0.00000000000E+00  0.00000000000E+00  0.12176623670E+03  0.12176623670E+03  0.00000000000E+00 0. -1.
         -4   -1    0    0    0  501 -0.00000000000E+00 -0.00000000000E+00 -0.58346968328E+03  0.58346968328E+03  0.00000000000E+00 0.  1.
          5    1    1    2  502    0  0.15944369716E+03  0.65222149364E+01 -0.10735005081E+03  0.19238231535E+03  0.47000000000E+01 0.  1.
         -5    1    1    2    0  502  0.75672882649E+02  0.21671664746E+02 -0.20151020185E+03  0.21638968938E+03  0.47000000000E+01 0.  1.
        -11    1    1    2    0    0 -0.18192539755E+03  0.16223826466E+02 -0.12719015471E+03  0.22256998511E+03  0.00000000000E+00 0. -1.
         11    1    1    2    0    0 -0.53191182263E+02 -0.44417706149E+02 -0.25653039205E+02  0.73893930133E+02  0.00000000000E+00 0.  1.
<mgrwt>
<rscale>  0 0.26426491E+03</rscale>
<asrwt>0</asrwt>
<pdfrwt beam="1">  1        4 0.18733267E-01 0.26776836E+03</pdfrwt>
<pdfrwt beam="2">  1       -4 0.89764567E-01 0.26776836E+03</pdfrwt>
<totfact> 0.51090120E+01</totfact>
</mgrwt>
</event>
<event>
 6    1  0.1045058E-005  0.1547626E+03  0.7546771E-02  0.1202846E+00
          4   -1    0    0  501    0  0.00000000000E+00  0.00000000000E+00  0.28317894861E+03  0.28317894861E+03  0.00000000000E+00 0. -1.
         -4   -1    0    0    0  501 -0.00000000000E+00 -0.00000000000E+00 -0.72370375639E+02  0.72370375639E+02  0.00000000000E+00 0.  1.
          5    1    1    2  502    0 -0.15170729929E+02 -0.38426301856E+02  0.14207434441E+03  0.14803358086E+03  0.47000000000E+01 0. -1.
         -5    1    1    2    0  502 -0.50435016390E+02 -0.25001646208E+02 -0.75920019872E+01  0.56995628653E+02  0.47000000000E+01 0. -1.
        -11    1    1    2    0    0  0.20867440459E+02  0.23539669464E+02 -0.19849221650E+02  0.37196205585E+02  0.00000000000E+00 0.  1.
         11    1    1    2    0    0  0.44738305860E+02  0.39888278599E+02  0.96175452191E+02  0.11332390915E+03  0.00000000000E+00 0. -1.
<mgrwt>
<rscale>  0 0.14808535E+03</rscale>
<asrwt>0</asrwt>
<pdfrwt beam="1">  1        4 0.43565991E-01 0.15476265E+03</pdfrwt>
<pdfrwt beam="2">  1       -4 0.11133904E-01 0.15476265E+03</pdfrwt>
<totfact> 0.55127166E+02</totfact>
</mgrwt>
</event>
<event>
 6    1  0.1045058E-005  0.1259497E+03  0.7546771E-02  0.1248609E+00
         -1   -1    0    0    0  501 -0.00000000000E+00  0.00000000000E+00  0.15761020813E+03  0.15761020813E+03  0.00000000000E+00 0.  1.
          1   -1    0    0  501    0  0.00000000000E+00 -0.00000000000E+00 -0.77457149681E+02  0.77457149681E+02  0.00000000000E+00 0. -1.
          5    1    1    2  502    0  0.50052396273E+02 -0.15962495930E+01  0.42067084420E+02  0.65570725000E+02  0.47000000000E+01 0. -1.
         -5    1    1    2    0  502 -0.61355538614E+02  0.12065100083E+02 -0.12174131143E+02  0.63877760040E+02  0.47000000000E+01 0. -1.
        -11    1    1    2    0    0 -0.16284814281E+02  0.60015660099E+01 -0.21122600888E+02  0.27338219383E+02  0.00000000000E+00 0. -1.
         11    1    1    2    0    0  0.27587956622E+02 -0.16470416500E+02  0.71382706057E+02  0.78280653385E+02  0.00000000000E+00 0.  1.
<mgrwt>
<rscale>  0 0.11671980E+03</rscale>
<asrwt>0</asrwt>
<pdfrwt beam="2">  1        1 0.11916485E-01 0.12594968E+03</pdfrwt>
<pdfrwt beam="1">  1       -1 0.24247724E-01 0.12594968E+03</pdfrwt>
<totfact> 0.69887821E+03</totfact>
</mgrwt>
</event>
<event>
 6    1  0.1045058E-005  0.1286025E+03  0.7546771E-02  0.1242812E+00
          1   -1    0    0  501    0  0.00000000000E+00  0.00000000000E+00  0.31906863580E+03  0.31906863580E+03  0.00000000000E+00 0. -1.
         -1   -1    0    0    0  501 -0.00000000000E+00 -0.00000000000E+00 -0.40862052811E+02  0.40862052811E+02  0.00000000000E+00 0.  1.
          5    1    1    2  502    0  0.10434587724E+02  0.24993179273E+02  0.17640873906E+03  0.17853759506E+03  0.47000000000E+01 0.  1.
         -5    1    1    2    0  502  0.16703031936E+02 -0.38297524933E+02  0.29320919760E+01  0.42147109690E+02  0.47000000000E+01 0.  1.
        -11    1    1    2    0    0 -0.58901776377E+02  0.24446874305E+02  0.71960749227E+02  0.96153098509E+02  0.00000000000E+00 0.  1.
         11    1    1    2    0    0  0.31764156717E+02 -0.11142528646E+02  0.26905002724E+02  0.43092885354E+02  0.00000000000E+00 0. -1.
<mgrwt>
<rscale>  0 0.12017269E+03</rscale>
<asrwt>0</asrwt>
<pdfrwt beam="1">  1        1 0.49087481E-01 0.12860251E+03</pdfrwt>
<pdfrwt beam="2">  1       -1 0.62864699E-02 0.12860251E+03</pdfrwt>
<totfact> 0.95137462E+03</totfact>
</mgrwt>
</event>
<event>
 6    1  0.1045058E-005  0.1312947E+03  0.7546771E-02  0.1239242E+00
          1   -1    0    0  501    0  0.00000000000E+00  0.00000000000E+00  0.52850153677E+02  0.52850153677E+02  0.00000000000E+00 0. -1.
         -1   -1    0    0    0  501 -0.00000000000E+00 -0.00000000000E+00 -0.26995760200E+03  0.26995760200E+03  0.00000000000E+00 0.  1.
          5    1    1    2  502    0 -0.80752438296E+02  0.18612646764E+02 -0.42272070313E+02  0.93147221316E+02  0.47000000000E+01 0. -1.
         -5    1    1    2    0  502  0.47035795354E+02  0.32494300517E+01 -0.38045485502E+02  0.60765728888E+02  0.47000000000E+01 0. -1.
        -11    1    1    2    0    0  0.17796880357E+02 -0.47372805789E+02 -0.12788483669E+03  0.13753342552E+03  0.00000000000E+00 0.  1.
         11    1    1    2    0    0  0.15919762586E+02  0.25510728973E+02 -0.89050558150E+01  0.31361379954E+02  0.00000000000E+00 0. -1.
<mgrwt>
<rscale>  0 0.12236746E+03</rscale>
<asrwt>0</asrwt>
<pdfrwt beam="1">  1        1 0.81307931E-02 0.13129466E+03</pdfrwt>
<pdfrwt beam="2">  1       -1 0.41531938E-01 0.13129466E+03</pdfrwt>
<totfact> 0.46775046E+03</totfact>
</mgrwt>
</event>
<event>
 6    1  0.1045058E-005  0.1759684E+03  0.7546771E-02  0.1179839E+00
          1   -1    0    0  501    0  0.00000000000E+00  0.00000000000E+00  0.12035179404E+04  0.12035179404E+04  0.00000000000E+00 0. -1.
         -1   -1    0    0    0  501 -0.00000000000E+00 -0.00000000000E+00 -0.21612124893E+02  0.21612124893E+02  0.00000000000E+00 0.  1.
          5    1    1    2  502    0 -0.68939534205E+02 -0.76942894239E+02  0.31762712184E+03  0.33403884037E+03  0.47000000000E+01 0. -1.
         -5    1    1    2    0  502  0.51957158409E+02 -0.45750301764E+02  0.31906070043E+03  0.32651869315E+03  0.47000000000E+01 0. -1.
        -11    1    1    2    0    0 -0.12444212558E+02  0.23888268974E+02  0.35655917257E+02  0.44686152846E+02  0.00000000000E+00 0.  1.
         11    1    1    2    0    0  0.29426588354E+02  0.98804927029E+02  0.50956207602E+03  0.51988637896E+03  0.00000000000E+00 0. -1.
<mgrwt>
<rscale>  0 0.16810435E+03</rscale>
<asrwt>0</asrwt>
<pdfrwt beam="1">  1        1 0.18515655E+00 0.17596838E+03</pdfrwt>
<pdfrwt beam="2">  1       -1 0.33249432E-02 0.17596838E+03</pdfrwt>
<totfact> 0.36549991E+03</totfact>
</mgrwt>
</event>
<event>
 6    1  0.1045058E-005  0.2474180E+03  0.7546771E-02  0.1114948E+00
         -1   -1    0    0    0  501 -0.00000000000E+00  0.00000000000E+00  0.12759782027E+03  0.12759782027E+03  0.00000000000E+00 0.  1.
          1   -1    0    0  501    0  0.00000000000E+00 -0.00000000000E+00 -0.11993865691E+03  0.11993865691E+03  0.00000000000E+00 0. -1.
          5    1    1    2  502    0  0.49817345346E+02  0.15695118604E+02 -0.67767532550E+02  0.85689165670E+02  0.47000000000E+01 0.  1.
         -5    1    1    2    0  502  0.28870834723E+01  0.82710489388E+01  0.52018653788E+02  0.52960134474E+02  0.47000000000E+01 0.  1.
        -11    1    1    2    0    0 -0.20847847474E+02 -0.24560940470E+02  0.55176806099E+02  0.63893289728E+02  0.00000000000E+00 0.  1.
         11    1    1    2    0    0 -0.31856581345E+02  0.59477292678E+00 -0.31768763975E+02  0.44993887299E+02  0.00000000000E+00 0. -1.
<mgrwt>
<rscale>  0 0.24741796E+03</rscale>
<asrwt>0</asrwt>
<pdfrwt beam="2">  1        1 0.18452101E-01 0.24741796E+03</pdfrwt>
<pdfrwt beam="1">  1       -1 0.19630434E-01 0.24741796E+03</pdfrwt>
<totfact> 0.58197112E+03</totfact>
</mgrwt>
</event>
<event>
 6    1  0.1045058E-005  0.1401715E+03  0.7546771E-02  0.1224206E+00
          2   -1    0    0  501    0  0.00000000000E+00  0.00000000000E+00  0.80802015316E+03  0.80802015316E+03  0.00000000000E+00 0. -1.
         -2   -1    0    0    0  501 -0.00000000000E+00 -0.00000000000E+00 -0.22207637557E+02  0.22207637557E+02  0.00000000000E+00 0.  1.
          5    1    1    2  502    0 -0.13561966728E+02 -0.53948999852E+02  0.37371565444E+03  0.37786227902E+03  0.47000000000E+01 0.  1.
         -5    1    1    2    0  502  0.68892987674E+02  0.22943435263E+02  0.20312656567E+03  0.21576639370E+03  0.47000000000E+01 0.  1.
        -11    1    1    2    0    0 -0.39932096963E+02 -0.86676740532E+01  0.18127623631E+03  0.18582458070E+03  0.00000000000E+00 0.  1.
         11    1    1    2    0    0 -0.15398923982E+02  0.39673238643E+02  0.27694059188E+02  0.50774537305E+02  0.00000000000E+00 0. -1.
<mgrwt>
<rscale>  0 0.13221464E+03</rscale>
<asrwt>0</asrwt>
<pdfrwt beam="1">  1        2 0.12431077E+00 0.14017152E+03</pdfrwt>
<pdfrwt beam="2">  1       -2 0.34165603E-02 0.14017152E+03</pdfrwt>
<totfact> 0.11713541E+04</totfact>
</mgrwt>
</event>
<event>
 6    1  0.1045058E-005  0.1399144E+03  0.7546771E-02  0.1224252E+00
          2   -1    0    0  501    0  0.00000000000E+00  0.00000000000E+00  0.79149465355E+03  0.79149465355E+03  0.00000000000E+00 0. -1.
         -2   -1    0    0    0  501 -0.00000000000E+00 -0.00000000000E+00 -0.20815626711E+02  0.20815626711E+02  0.00000000000E+00 0.  1.
          5    1    1    2  502    0  0.19982625678E+02 -0.93767908651E+02  0.43183830232E+03  0.44237781971E+03  0.47000000000E+01 0. -1.
         -5    1    1    2    0  502 -0.19511473277E+02  0.30897707738E+02  0.77237448491E+02  0.85574992739E+02  0.47000000000E+01 0. -1.
        -11    1    1    2    0    0 -0.99107820347E+01 -0.53409838106E+01 -0.24084687708E+01  0.11513054782E+02  0.00000000000E+00 0.  1.
         11    1    1    2    0    0  0.94396296335E+01  0.68211184724E+02  0.26401174480E+03  0.27284441303E+03  0.00000000000E+00 0. -1.
<mgrwt>
<rscale>  0 0.13218275E+03</rscale>
<asrwt>0</asrwt>
<pdfrwt beam="1">  1        2 0.12176839E+00 0.13991445E+03</pdfrwt>
<pdfrwt beam="2">  1       -2 0.32024047E-02 0.13991445E+03</pdfrwt>
<totfact> 0.13222342E+04</totfact>
</mgrwt>
</event>
<event>
 6    1  0.1045058E-005  0.1494781E+03  0.7546771E-02  0.1201537E+00
          2   -1    0    0  501    0  0.00000000000E+00  0.00000000000E+00  0.60277865137E+02  0.60277865137E+02  0.00000000000E+00 0. -1.
         -2   -1    0    0    0  501 -0.00000000000E+00 -0.00000000000E+00 -0.37256385465E+03  0.37256385465E+03  0.00000000000E+00 0.  1.
          5    1    1    2  502    0  0.24961383290E+01 -0.47272778031E+02 -0.27099498059E+02  0.54748689887E+02  0.47000000000E+01 0. -1.
         -5    1    1    2    0  502 -0.84249885960E+02  0.53106628076E+02 -0.10406133195E+03  0.14411525955E+03  0.47000000000E+01 0. -1.
        -11    1    1    2    0    0  0.80861804712E+02  0.10877379579E+02 -0.19554709181E+03  0.21188585126E+03  0.00000000000E+00 0.  1.
         11    1    1    2    0    0  0.89194291888E+00 -0.16711229624E+02  0.14421932301E+02  0.22091919089E+02  0.00000000000E+00 0. -1.
<mgrwt>
<rscale>  0 0.14913720E+03</rscale>
<asrwt>0</asrwt>
<pdfrwt beam="1">  1        2 0.92735176E-02 0.14947812E+03</pdfrwt>
<pdfrwt beam="2">  1       -2 0.57317517E-01 0.14947812E+03</pdfrwt>
<totfact> 0.19886297E+03</totfact>
</mgrwt>
</event>
<event>
 6    1  0.1045058E-005  0.1320330E+03  0.7546771E-02  0.1237905E+00
          1   -1    0    0  501    0  0.00000000000E+00  0.00000000000E+00  0.69321825313E+02  0.69321825313E+02  0.00000000000E+00 0. -1.
         -1   -1    0    0    0  501 -0.00000000000E+00 -0.00000000000E+00 -0.25003393339E+03  0.25003393339E+03  0.00000000000E+00 0.  1.
          5    1    1    2  502    0  0.30707873361E+02  0.79538023328E+02 -0.25217588637E+02  0.89035315566E+02  0.47000000000E+01 0. -1.
         -5    1    1    2    0  502 -0.25343475173E+02 -0.37351878807E+02  0.11158783137E-01  0.45382206962E+02  0.47000000000E+01 0. -1.
        -11    1    1    2    0    0 -0.22215162578E+02  0.22803794900E+02 -0.37699416953E+02  0.49343414442E+02  0.00000000000E+00 0. -1.
         11    1    1    2    0    0  0.16850764391E+02 -0.64989939421E+02 -0.11780626127E+03  0.13559482173E+03  0.00000000000E+00 0.  1.
<mgrwt>
<rscale>  0 0.12320292E+03</rscale>
<asrwt>0</asrwt>
<pdfrwt beam="1">  1        1 0.10664896E-01 0.13203297E+03</pdfrwt>
<pdfrwt beam="2">  1       -1 0.38466759E-01 0.13203297E+03</pdfrwt>
<totfact> 0.37310519E+03</totfact>
</mgrwt>
</event>
<event>
 6    1  0.1045058E-005  0.2052581E+03  0.7546771E-02  0.1149434E+00
          2   -1    0    0  501    0  0.00000000000E+00  0.00000000000E+00  0.87367820976E+02  0.87367820976E+02  0.00000000000E+00 0. -1.
         -2   -1    0    0    0  501 -0.00000000000E+00 -0.00000000000E+00 -0.48666861840E+03  0.48666861840E+03  0.00000000000E+00 0.  1.
          5    1    1    2  502    0  0.71937407286E+02  0.11109792518E+03 -0.26707859012E+02  0.13510417936E+03  0.47000000000E+01 0.  1.
         -5    1    1    2    0  502  0.43918437167E+02  0.32692235448E+01 -0.91757142273E+02  0.10188709488E+03  0.47000000000E+01 0.  1.
        -11    1    1    2    0    0 -0.10469953571E+03 -0.75839459944E+02 -0.26318386331E+03  0.29322237699E+03  0.00000000000E+00 0.  1.
         11    1    1    2    0    0 -0.11156308746E+02 -0.38527688786E+02 -0.17651932830E+02  0.43822788144E+02  0.00000000000E+00 0. -1.
<mgrwt>
<rscale>  0 0.20036160E+03</rscale>
<asrwt>0</asrwt>
<pdfrwt beam="1">  1        2 0.13441204E-01 0.20525815E+03</pdfrwt>
<pdfrwt beam="2">  1       -2 0.74872093E-01 0.20525815E+03</pdfrwt>
<totfact> 0.72910839E+02</totfact>
</mgrwt>
</event>
<event>
 6    1  0.1045058E-005  0.1255513E+03  0.7546771E-02  0.1248282E+00
         -4   -1    0    0    0  501 -0.00000000000E+00  0.00000000000E+00  0.19885256751E+02  0.19885256751E+02  0.00000000000E+00 0.  1.
          4   -1    0    0  501    0  0.00000000000E+00 -0.00000000000E+00 -0.64165761738E+03  0.64165761738E+03  0.00000000000E+00 0. -1.
          5    1    1    2  502    0  0.10684172029E+02  0.14218786433E+02 -0.43299905285E+03  0.43338965745E+03  0.47000000000E+01 0. -1.
         -5    1    1    2    0  502 -0.93329488923E+01 -0.25118923546E+01  0.55647304300E+01  0.12102469293E+02  0.47000000000E+01 0. -1.
        -11    1    1    2    0    0 -0.28497490871E+02 -0.43759049728E+02 -0.11416271027E+03  0.12553918048E+03  0.00000000000E+00 0.  1.
         11    1    1    2    0    0  0.27146267734E+02  0.32052155650E+02 -0.80175327941E+02  0.90511566908E+02  0.00000000000E+00 0. -1.
<mgrwt>
<rscale>  0 0.11691081E+03</rscale>
<asrwt>0</asrwt>
<pdfrwt beam="2">  1        4 0.98716579E-01 0.12555132E+03</pdfrwt>
<pdfrwt beam="1">  1       -4 0.30592696E-02 0.12555132E+03</pdfrwt>
<totfact> 0.75254813E+02</totfact>
</mgrwt>
</event>
<event>
 6    1  0.1045058E-005  0.1315597E+03  0.7546771E-02  0.1238715E+00
         -1   -1    0    0    0  501 -0.00000000000E+00  0.00000000000E+00  0.25362516664E+02  0.25362516664E+02  0.00000000000E+00 0.  1.
          1   -1    0    0  501    0  0.00000000000E+00 -0.00000000000E+00 -0.52648005445E+03  0.52648005445E+03  0.00000000000E+00 0. -1.
          5    1    1    2  502    0 -0.51429664645E+02 -0.62673069943E+02 -0.13209375481E+03  0.15506054998E+03  0.47000000000E+01 0. -1.
         -5    1    1    2    0  502  0.17393206208E+02  0.39769093476E+02 -0.14959076681E+03  0.15583193490E+03  0.47000000000E+01 0. -1.
        -11    1    1    2    0    0  0.27318767968E+02 -0.31064219064E+02 -0.12850258257E+03  0.13499709077E+03  0.00000000000E+00 0. -1.
         11    1    1    2    0    0  0.67176904694E+01  0.53968195532E+02 -0.90930433605E+02  0.10595299547E+03  0.00000000000E+00 0.  1.
<mgrwt>
<rscale>  0 0.12269591E+03</rscale>
<asrwt>0</asrwt>
<pdfrwt beam="2">  1        1 0.80996922E-01 0.13155975E+03</pdfrwt>
<pdfrwt beam="1">  1       -1 0.39019261E-02 0.13155975E+03</pdfrwt>
<totfact> 0.10218708E+04</totfact>
</mgrwt>
</event>
<event>
 6    1  0.1045058E-005  0.1570193E+03  0.7546771E-02  0.1200086E+00
          2   -1    0    0  501    0  0.00000000000E+00  0.00000000000E+00  0.19642147342E+03  0.19642147342E+03  0.00000000000E+00 0. -1.
         -2   -1    0    0    0  501 -0.00000000000E+00 -0.00000000000E+00 -0.12836735492E+03  0.12836735492E+03  0.00000000000E+00 0.  1.
          5    1    1    2  502    0  0.45561394624E+02  0.90600205614E+02  0.11573114383E+03  0.15394812629E+03  0.47000000000E+01 0. -1.
         -5    1    1    2    0  502 -0.31524690358E+02  0.33802242251E+01 -0.12018349989E+02  0.34231020353E+02  0.47000000000E+01 0. -1.
        -11    1    1    2    0    0 -0.32672624430E+02 -0.14141075581E+01 -0.25834438027E+02  0.41676351513E+02  0.00000000000E+00 0.  1.
         11    1    1    2    0    0  0.18635920163E+02 -0.92566322281E+02 -0.98242373152E+01  0.94933330184E+02  0.00000000000E+00 0. -1.
<mgrwt>
<rscale>  0 0.15031565E+03</rscale>
<asrwt>0</asrwt>
<pdfrwt beam="1">  1        2 0.30218688E-01 0.15701926E+03</pdfrwt>
<pdfrwt beam="2">  1       -2 0.19748824E-01 0.15701926E+03</pdfrwt>
<totfact> 0.36241043E+03</totfact>
</mgrwt>
</event>
<event>
 6    1  0.1045058E-005  0.1289265E+03  0.7546771E-02  0.1243384E+00
         -2   -1    0    0    0  501 -0.00000000000E+00  0.00000000000E+00  0.15552699013E+02  0.15552699013E+02  0.00000000000E+00 0.  1.
          2   -1    0    0  501    0  0.00000000000E+00 -0.00000000000E+00 -0.83073151286E+03  0.83073151286E+03  0.00000000000E+00 0. -1.
          5    1    1    2  502    0  0.36758791088E+02  0.42725993558E+02 -0.27256032751E+03  0.27836655938E+03  0.47000000000E+01 0.  1.
         -5    1    1    2    0  502 -0.64883856996E+02 -0.28335076686E+02 -0.25131018977E+03  0.26113539199E+03  0.47000000000E+01 0.  1.
        -11    1    1    2    0    0  0.19623576206E+02 -0.51265435043E+02 -0.21070388597E+03  0.21773689889E+03  0.00000000000E+00 0. -1.
         11    1    1    2    0    0  0.85014897017E+01  0.36874518172E+02 -0.80604410592E+02  0.89045361611E+02  0.00000000000E+00 0.  1.
<mgrwt>
<rscale>  0 0.11982644E+03</rscale>
<asrwt>0</asrwt>
<pdfrwt beam="2">  1        2 0.12780489E+00 0.12892648E+03</pdfrwt>
<pdfrwt beam="1">  1       -2 0.23927221E-02 0.12892648E+03</pdfrwt>
<totfact> 0.18966589E+04</totfact>
</mgrwt>
</event>
<event>
 6    1  0.1045058E-005  0.1311534E+03  0.7546771E-02  0.1238258E+00
          2   -1    0    0  501    0  0.00000000000E+00  0.00000000000E+00  0.11076762171E+04  0.11076762171E+04  0.00000000000E+00 0. -1.
         -2   -1    0    0    0  501 -0.00000000000E+00 -0.00000000000E+00 -0.14628862374E+02  0.14628862374E+02  0.00000000000E+00 0.  1.
          5    1    1    2  502    0  0.39203157696E+02  0.10007194356E+02  0.95007413088E+02  0.10337083754E+03  0.47000000000E+01 0. -1.
         -5    1    1    2    0  502 -0.44014335008E+02  0.29401552593E+02  0.73669380433E+03  0.73860785558E+03  0.47000000000E+01 0. -1.
        -11    1    1    2    0    0  0.23841971620E+02  0.23301121338E+02  0.11968512583E+03  0.12424134260E+03  0.00000000000E+00 0.  1.
         11    1    1    2    0    0 -0.19030794308E+02 -0.62709868287E+02  0.14166101152E+03  0.15608504380E+03  0.00000000000E+00 0. -1.
<mgrwt>
<rscale>  0 0.12298139E+03</rscale>
<asrwt>0</asrwt>
<pdfrwt beam="1">  1        2 0.17041166E+00 0.13115336E+03</pdfrwt>
<pdfrwt beam="2">  1       -2 0.22505951E-02 0.13115336E+03</pdfrwt>
<totfact> 0.14085670E+04</totfact>
</mgrwt>
</event>
<event>
 6    1  0.1045058E-005  0.1463219E+03  0.7546771E-02  0.1214893E+00
          2   -1    0    0  501    0  0.00000000000E+00  0.00000000000E+00  0.93059499841E+03  0.93059499841E+03  0.00000000000E+00 0. -1.
         -2   -1    0    0    0  501 -0.00000000000E+00 -0.00000000000E+00 -0.19648057341E+02  0.19648057341E+02  0.00000000000E+00 0.  1.
          5    1    1    2  502    0 -0.31160035064E+02 -0.44981659932E+02  0.33662697487E+03  0.34107786167E+03  0.47000000000E+01 0.  1.
         -5    1    1    2    0  502  0.83145906895E+02 -0.10563792168E+02  0.25929614569E+03  0.27254617354E+03  0.47000000000E+01 0.  1.
        -11    1    1    2    0    0 -0.41791747407E+01  0.68756765928E+02  0.17488631504E+03  0.18796324521E+03  0.00000000000E+00 0.  1.
         11    1    1    2    0    0 -0.47806697090E+02 -0.13211313828E+02  0.14013750547E+03  0.14865577533E+03  0.00000000000E+00 0. -1.
<mgrwt>
<rscale>  0 0.13884422E+03</rscale>
<asrwt>0</asrwt>
<pdfrwt beam="1">  1        2 0.14316843E+00 0.14632187E+03</pdfrwt>
<pdfrwt beam="2">  1       -2 0.30227788E-02 0.14632187E+03</pdfrwt>
<totfact> 0.11727975E+04</totfact>
</mgrwt>
</event>
<event>
 6    1  0.1045058E-005  0.1707773E+03  0.7546771E-02  0.1183069E+00
         -1   -1    0    0    0  501 -0.00000000000E+00  0.00000000000E+00  0.32952405500E+02  0.32952405500E+02  0.00000000000E+00 0.  1.
          1   -1    0    0  501    0  0.00000000000E+00 -0.00000000000E+00 -0.91445775103E+03  0.91445775103E+03  0.00000000000E+00 0. -1.
          5    1    1    2  502    0 -0.41304997628E+02  0.27380268131E+02 -0.22623869468E+03  0.23165020803E+03  0.47000000000E+01 0.  1.
         -5    1    1    2    0  502 -0.36103613360E+02 -0.11428302119E+03 -0.42350594813E+03  0.44016299019E+03  0.47000000000E+01 0.  1.
        -11    1    1    2    0    0  0.49692565532E+02  0.87619939691E+02 -0.10370001627E+03  0.14456935455E+03  0.00000000000E+00 0.  1.
         11    1    1    2    0    0  0.27716045457E+02 -0.71718662995E+00 -0.12806068644E+03  0.13102760375E+03  0.00000000000E+00 0. -1.
<mgrwt>
<rscale>  0 0.16508818E+03</rscale>
<asrwt>0</asrwt>
<pdfrwt beam="2">  1        1 0.14068579E+00 0.17077726E+03</pdfrwt>
<pdfrwt beam="1">  1       -1 0.50696014E-02 0.17077726E+03</pdfrwt>
<totfact> 0.31695991E+03</totfact>
</mgrwt>
</event>
<event>
 6    1  0.1045058E-005  0.1313020E+03  0.7546771E-02  0.1238288E+00
          2   -1    0    0  501    0  0.00000000000E+00  0.00000000000E+00  0.82498390591E+02  0.82498390591E+02  0.00000000000E+00 0.  1.
         -2   -1    0    0    0  501 -0.00000000000E+00 -0.00000000000E+00 -0.16445766396E+03  0.16445766396E+03  0.00000000000E+00 0. -1.
          5    1    1    2  502    0 -0.57658641242E+02  0.16153175035E+02  0.23742178207E+02  0.64585021481E+02  0.47000000000E+01 0.  1.
         -5    1    1    2    0  502  0.20691930739E+02 -0.31884109353E+02 -0.60780655585E+02  0.71841008625E+02  0.47000000000E+01 0.  1.
        -11    1    1    2    0    0  0.13300775988E+02 -0.37905236253E+02 -0.29709021528E+02  0.49963421995E+02  0.00000000000E+00 0.  1.
         11    1    1    2    0    0  0.23665934515E+02  0.53636170572E+02 -0.15211774465E+02  0.60566602451E+02  0.00000000000E+00 0. -1.
<mgrwt>
<rscale>  0 0.12296265E+03</rscale>
<asrwt>0</asrwt>
<pdfrwt beam="1">  1        2 0.12692060E-01 0.13130199E+03</pdfrwt>
<pdfrwt beam="2">  1       -2 0.25301179E-01 0.13130199E+03</pdfrwt>
<totfact> 0.62751640E+03</totfact>
</mgrwt>
</event>
<event>
 6    1  0.1045058E-005  0.1325312E+03  0.7546771E-02  0.1237614E+00
         -2   -1    0    0    0  501 -0.00000000000E+00  0.00000000000E+00  0.11367293789E+02  0.11367293789E+02  0.00000000000E+00 0.  1.
          2   -1    0    0  501    0  0.00000000000E+00 -0.00000000000E+00 -0.12425386110E+04  0.12425386110E+04  0.00000000000E+00 0. -1.
          5    1    1    2  502    0  0.63741424948E+02 -0.18315792195E+02 -0.78957347770E+03  0.79236784651E+03  0.47000000000E+01 0. -1.
         -5    1    1    2    0  502 -0.19707160847E+02  0.17729350250E+02 -0.43320507855E+02  0.51004494408E+02  0.47000000000E+01 0. -1.
        -11    1    1    2    0    0  0.20646692264E+02  0.23100010252E+02 -0.13248277396E+03  0.13605727387E+03  0.00000000000E+00 0. -1.
         11    1    1    2    0    0 -0.64680956366E+02 -0.22513568308E+02 -0.26579455766E+03  0.27447628997E+03  0.00000000000E+00 0.  1.
<mgrwt>
<rscale>  0 0.12338548E+03</rscale>
<asrwt>0</asrwt>
<pdfrwt beam="2">  1        2 0.19115972E+00 0.13253118E+03</pdfrwt>
<pdfrwt beam="1">  1       -2 0.17488151E-02 0.13253118E+03</pdfrwt>
<totfact> 0.17092735E+04</totfact>
</mgrwt>
</event>
<event>
 6    1  0.1045058E-005  0.1356891E+03  0.7546771E-02  0.1231510E+00
          2   -1    0    0  501    0  0.00000000000E+00  0.00000000000E+00  0.34712963431E+03  0.34712963431E+03  0.00000000000E+00 0. -1.
         -2   -1    0    0    0  501 -0.00000000000E+00 -0.00000000000E+00 -0.72013341177E+02  0.72013341177E+02  0.00000000000E+00 0.  1.
          5    1    1    2  502    0 -0.67283904342E+02 -0.80477936987E+00  0.67289090317E+02  0.95276876151E+02  0.47000000000E+01 0.  1.
         -5    1    1    2    0  502  0.22372945367E+02 -0.26919692668E+02  0.21557140991E+03  0.21844528219E+03  0.47000000000E+01 0.  1.
        -11    1    1    2    0    0  0.50315054092E+02 -0.13777416316E+01 -0.38020183447E+02  0.63079609936E+02  0.00000000000E+00 0.  1.
         11    1    1    2    0    0 -0.54040951168E+01  0.29102213669E+02  0.30275976352E+02  0.42341207216E+02  0.00000000000E+00 0. -1.
<mgrwt>
<rscale>  0 0.12730532E+03</rscale>
<asrwt>0</asrwt>
<pdfrwt beam="1">  1        2 0.53404558E-01 0.13568909E+03</pdfrwt>
<pdfrwt beam="2">  1       -2 0.11078976E-01 0.13568909E+03</pdfrwt>
<totfact> 0.50380127E+03</totfact>
</mgrwt>
</event>
<event>
 6    1  0.1045058E-005  0.1492582E+03  0.7546771E-02  0.1210414E+00
          1   -1    0    0  501    0  0.00000000000E+00  0.00000000000E+00  0.46638976310E+03  0.46638976310E+03  0.00000000000E+00 0.  1.
         -1   -1    0    0    0  501 -0.00000000000E+00 -0.00000000000E+00 -0.40058198442E+02  0.40058198442E+02  0.00000000000E+00 0. -1.
          5    1    1    2  502    0  0.70247838346E+01 -0.36088825487E+02  0.87954935669E+01  0.38094640306E+02  0.47000000000E+01 0.  1.
         -5    1    1    2    0  502 -0.73309729322E+02 -0.11442901115E+02  0.24824691504E+03  0.25914065144E+03  0.47000000000E+01 0.  1.
        -11    1    1    2    0    0  0.72179622456E+02  0.14721816246E+02  0.15746179286E+03  0.17384143920E+03  0.00000000000E+00 0.  1.
         11    1    1    2    0    0 -0.58946769684E+01  0.32809910355E+02  0.11827363183E+02  0.35371230597E+02  0.00000000000E+00 0. -1.
<mgrwt>
<rscale>  0 0.14218894E+03</rscale>
<asrwt>0</asrwt>
<pdfrwt beam="1">  1        1 0.71752267E-01 0.14925823E+03</pdfrwt>
<pdfrwt beam="2">  1       -1 0.61628001E-02 0.14925823E+03</pdfrwt>
<totfact> 0.61337368E+03</totfact>
</mgrwt>
</event>
<event>
 6    1  0.1045058E-005  0.1379308E+03  0.7546771E-02  0.1226118E+00
         -1   -1    0    0    0  501 -0.00000000000E+00  0.00000000000E+00  0.25560056312E+02  0.25560056312E+02  0.00000000000E+00 0.  1.
          1   -1    0    0  501    0  0.00000000000E+00 -0.00000000000E+00 -0.66073457836E+03  0.66073457836E+03  0.00000000000E+00 0. -1.
          5    1    1    2  502    0  0.40359731815E+02 -0.60516307425E+02 -0.25750963663E+03  0.26762741708E+03  0.47000000000E+01 0.  1.
         -5    1    1    2    0  502 -0.63805264249E+02  0.70797365279E+01 -0.18478038399E+03  0.19567093480E+03  0.47000000000E+01 0.  1.
        -11    1    1    2    0    0 -0.57772711948E+01 -0.12730868198E+02  0.28992438144E+01  0.14277866865E+02  0.00000000000E+00 0.  1.
         11    1    1    2    0    0  0.29222803629E+02  0.66167439095E+02 -0.19578374524E+03  0.20871841593E+03  0.00000000000E+00 0. -1.
<mgrwt>
<rscale>  0 0.13090585E+03</rscale>
<asrwt>0</asrwt>
<pdfrwt beam="2">  1        1 0.10165147E+00 0.13793078E+03</pdfrwt>
<pdfrwt beam="1">  1       -1 0.39323164E-02 0.13793078E+03</pdfrwt>
<totfact> 0.74470655E+03</totfact>
</mgrwt>
</event>
<event>
 6    1  0.1045058E-005  0.3283246E+03  0.7546771E-02  0.1071881E+00
         -1   -1    0    0    0  501 -0.00000000000E+00  0.00000000000E+00  0.53218532150E+03  0.53218532150E+03  0.00000000000E+00 0.  1.
          1   -1    0    0  501    0  0.00000000000E+00 -0.00000000000E+00 -0.50638865644E+02  0.50638865644E+02  0.00000000000E+00 0. -1.
          5    1    1    2  502    0 -0.68035899800E+01 -0.26173230178E+02  0.61522503078E+01  0.28129468506E+02  0.47000000000E+01 0. -1.
         -5    1    1    2    0  502 -0.11179363916E+02  0.12895112090E+03  0.13912860255E+03  0.19008479110E+03  0.47000000000E+01 0. -1.
        -11    1    1    2    0    0  0.48231144226E+02 -0.34245426917E+02  0.94331334497E+02  0.11134358179E+03  0.00000000000E+00 0. -1.
         11    1    1    2    0    0 -0.30248190330E+02 -0.68532463807E+02  0.24193426851E+03  0.25326634575E+03  0.00000000000E+00 0.  1.
<mgrwt>
<rscale>  0 0.32832460E+03</rscale>
<asrwt>0</asrwt>
<pdfrwt beam="2">  1        1 0.77905951E-02 0.32832460E+03</pdfrwt>
<pdfrwt beam="1">  1       -1 0.81874661E-01 0.32832460E+03</pdfrwt>
<totfact> 0.14048697E+03</totfact>
</mgrwt>
</event>
<event>
 6    1  0.1045058E-005  0.4133322E+03  0.7546771E-02  0.1039993E+00
         -2   -1    0    0    0  501 -0.00000000000E+00  0.00000000000E+00  0.12256413914E+03  0.12256413914E+03  0.00000000000E+00 0.  1.
          2   -1    0    0  501    0  0.00000000000E+00 -0.00000000000E+00 -0.14025853821E+04  0.14025853821E+04  0.00000000000E+00 0. -1.
          5    1    1    2  502    0  0.53185371389E+02 -0.55898337350E+02 -0.62402473402E+02  0.99345188786E+02  0.47000000000E+01 0.  1.
         -5    1    1    2    0  502  0.25073079894E+02 -0.33022490817E+03 -0.45876027685E+03  0.56582703269E+03  0.47000000000E+01 0.  1.
        -11    1    1    2    0    0 -0.30569008878E+02  0.26630135181E+02 -0.56723412728E+02  0.69722119554E+02  0.00000000000E+00 0.  1.
         11    1    1    2    0    0 -0.47689442406E+02  0.35949311034E+03 -0.70213507994E+03  0.79025518016E+03  0.00000000000E+00 0. -1.
<mgrwt>
<rscale>  0 0.41112959E+03</rscale>
<asrwt>0</asrwt>
<pdfrwt beam="2">  1        2 0.21578237E+00 0.41333216E+03</pdfrwt>
<pdfrwt beam="1">  1       -2 0.18856021E-01 0.41333216E+03</pdfrwt>
<totfact> 0.35422108E+02</totfact>
</mgrwt>
</event>
<event>
 6    1  0.1045058E-005  0.1437334E+03  0.7546771E-02  0.1216624E+00
         -1   -1    0    0    0  501 -0.00000000000E+00  0.00000000000E+00  0.27623484666E+03  0.27623484666E+03  0.00000000000E+00 0.  1.
          1   -1    0    0  501    0  0.00000000000E+00 -0.00000000000E+00 -0.63407785158E+02  0.63407785158E+02  0.00000000000E+00 0. -1.
          5    1    1    2  502    0 -0.31562257753E+02 -0.52130053942E+02  0.44273305039E+02  0.75471412982E+02  0.47000000000E+01 0. -1.
         -5    1    1    2    0  502  0.81831190458E+02  0.22016031128E+01  0.79544418892E+02  0.11423920240E+03  0.47000000000E+01 0. -1.
        -11    1    1    2    0    0 -0.74885156852E+02  0.12600850822E+02  0.56255809800E+02  0.94505472299E+02  0.00000000000E+00 0. -1.
         11    1    1    2    0    0  0.24616224147E+02  0.37327600007E+02  0.32753527770E+02  0.55426544136E+02  0.00000000000E+00 0.  1.
<mgrwt>
<rscale>  0 0.13757897E+03</rscale>
<asrwt>0</asrwt>
<pdfrwt beam="2">  1        1 0.97550440E-02 0.14373339E+03</pdfrwt>
<pdfrwt beam="1">  1       -1 0.42497668E-01 0.14373339E+03</pdfrwt>
<totfact> 0.35414884E+03</totfact>
</mgrwt>
</event>
<event>
 6    1  0.1045058E-005  0.1366456E+03  0.7546771E-02  0.1229930E+00
         -2   -1    0    0    0  501 -0.00000000000E+00  0.00000000000E+00  0.12933504737E+02  0.12933504737E+02  0.00000000000E+00 0.  1.
          2   -1    0    0  501    0  0.00000000000E+00 -0.00000000000E+00 -0.12865522629E+04  0.12865522629E+04  0.00000000000E+00 0. -1.
          5    1    1    2  502    0 -0.10367831801E+01 -0.21810495325E+02 -0.33718165674E+02  0.40444744060E+02  0.47000000000E+01 0. -1.
         -5    1    1    2    0  502 -0.94754529537E+01  0.76260755976E+02 -0.89025847100E+03  0.89358140216E+03  0.47000000000E+01 0. -1.
        -11    1    1    2    0    0 -0.12124978301E+02  0.20930754347E+02 -0.48437449523E+02  0.54141463709E+02  0.00000000000E+00 0.  1.
         11    1    1    2    0    0  0.22637214434E+02 -0.75381014998E+02 -0.30120467193E+03  0.31131815766E+03  0.00000000000E+00 0. -1.
<mgrwt>
<rscale>  0 0.12834676E+03</rscale>
<asrwt>0</asrwt>
<pdfrwt beam="2">  1        2 0.19793110E+00 0.13664559E+03</pdfrwt>
<pdfrwt beam="1">  1       -2 0.19897702E-02 0.13664559E+03</pdfrwt>
<totfact> 0.13441514E+04</totfact>
</mgrwt>
</event>
<event>
 6    1  0.1045058E-005  0.1332168E+03  0.7546771E-02  0.1238896E+00
         -1   -1    0    0    0  501 -0.00000000000E+00  0.00000000000E+00  0.27429815463E+02  0.27429815463E+02  0.00000000000E+00 0.  1.
          1   -1    0    0  501    0  0.00000000000E+00 -0.00000000000E+00 -0.47800167670E+03  0.47800167670E+03  0.00000000000E+00 0. -1.
          5    1    1    2  502    0  0.76484638029E+02 -0.25891718814E+02 -0.97735431533E+02  0.12686443763E+03  0.47000000000E+01 0.  1.
         -5    1    1    2    0  502 -0.35034587954E+02  0.58428517000E+01 -0.15216665098E+03  0.15632767171E+03  0.47000000000E+01 0.  1.
        -11    1    1    2    0    0 -0.36080858728E+02  0.46238262507E+02 -0.17723827858E+03  0.18669015154E+03  0.00000000000E+00 0.  1.
         11    1    1    2    0    0 -0.53691913469E+01 -0.26189395393E+02 -0.23431500137E+02  0.35549231292E+02  0.00000000000E+00 0. -1.
<mgrwt>
<rscale>  0 0.12258306E+03</rscale>
<asrwt>0</asrwt>
<pdfrwt beam="2">  1        1 0.73538722E-01 0.13321682E+03</pdfrwt>
<pdfrwt beam="1">  1       -1 0.42199714E-02 0.13321682E+03</pdfrwt>
<totfact> 0.10340421E+04</totfact>
</mgrwt>
</event>
<event>
 6    1  0.1045058E-005  0.2703091E+03  0.7546771E-02  0.1138005E+00
          2   -1    0    0  501    0  0.00000000000E+00  0.00000000000E+00  0.31225644491E+03  0.31225644491E+03  0.00000000000E+00 0. -1.
         -2   -1    0    0    0  501 -0.00000000000E+00 -0.00000000000E+00 -0.12852319183E+03  0.12852319183E+03  0.00000000000E+00 0.  1.
          5    1    1    2  502    0  0.10116075163E+03 -0.71626318370E+02  0.19655120073E+03  0.23241835483E+03  0.47000000000E+01 0. -1.
         -5    1    1    2    0  502 -0.99180702912E+02  0.15577614649E+02 -0.21612542893E+01  0.10052977135E+03  0.47000000000E+01 0.  1.
        -11    1    1    2    0    0 -0.39539202544E+02  0.16785862741E+02  0.17799045644E+02  0.46496448807E+02  0.00000000000E+00 0.  1.
         11    1    1    2    0    0  0.37559153831E+02  0.39262840979E+02 -0.28455739007E+02  0.61335061756E+02  0.00000000000E+00 0. -1.
<mgrwt>
<rscale>  0 0.21456016E+03</rscale>
<asrwt>0</asrwt>
<pdfrwt beam="1">  1        2 0.48039453E-01 0.27030909E+03</pdfrwt>
<pdfrwt beam="2">  1       -2 0.19772799E-01 0.27030909E+03</pdfrwt>
<totfact> 0.22371044E+03</totfact>
</mgrwt>
</event>
<event>
 6    1  0.1045058E-005  0.2346105E+03  0.7546771E-02  0.1156942E+00
          2   -1    0    0  501    0  0.00000000000E+00  0.00000000000E+00  0.22477430361E+04  0.22477430361E+04  0.00000000000E+00 0. -1.
         -2   -1    0    0    0  501 -0.00000000000E+00 -0.00000000000E+00 -0.20828679675E+02  0.20828679675E+02  0.00000000000E+00 0.  1.
          5    1    1    2  502    0  0.29056594763E+02  0.13730569427E+03  0.12719336271E+04  0.12796618229E+04  0.47000000000E+01 0. -1.
         -5    1    1    2    0  502 -0.70817388288E+02 -0.61553524327E+02  0.77565927986E+03  0.78132793837E+03  0.47000000000E+01 0.  1.
        -11    1    1    2    0    0  0.35253724469E+02 -0.97358645109E+01  0.82185279651E+02  0.89955724320E+02  0.00000000000E+00 0. -1.
         11    1    1    2    0    0  0.65070690554E+01 -0.66016305434E+02  0.97136169858E+02  0.11762623018E+03  0.00000000000E+00 0.  1.
<mgrwt>
<rscale>  0 0.19169394E+03</rscale>
<asrwt>0</asrwt>
<pdfrwt beam="1">  1        2 0.34580643E+00 0.23461049E+03</pdfrwt>
<pdfrwt beam="2">  1       -2 0.32044140E-02 0.23461049E+03</pdfrwt>
<totfact> 0.21119050E+03</totfact>
</mgrwt>
</event>
<event>
 6    1  0.1045058E-005  0.1558696E+03  0.7546771E-02  0.1201424E+00
         -2   -1    0    0    0  501 -0.00000000000E+00  0.00000000000E+00  0.79071351535E+02  0.79071351535E+02  0.00000000000E+00 0.  1.
          2   -1    0    0  501    0  0.00000000000E+00 -0.00000000000E+00 -0.31501306532E+03  0.31501306532E+03  0.00000000000E+00 0. -1.
          5    1    1    2  502    0 -0.65801203409E+02  0.21778445990E+02 -0.30095899965E+02  0.75709657736E+02  0.47000000000E+01 0.  1.
         -5    1    1    2    0  502 -0.25554640997E+02 -0.39781464113E+02 -0.17833917897E+03  0.18456044354E+03  0.47000000000E+01 0.  1.
        -11    1    1    2    0    0  0.93823695456E+02 -0.26087317184E+01 -0.47323448900E+02  0.10511517553E+03  0.00000000000E+00 0. -1.
         11    1    1    2    0    0 -0.24678510498E+01  0.20611749841E+02  0.19816814054E+02  0.28699140049E+02  0.00000000000E+00 0.  1.
<mgrwt>
<rscale>  0 0.14922894E+03</rscale>
<asrwt>0</asrwt>
<pdfrwt beam="2">  1        2 0.48463549E-01 0.15586964E+03</pdfrwt>
<pdfrwt beam="1">  1       -2 0.12164823E-01 0.15586964E+03</pdfrwt>
<totfact> 0.48488008E+03</totfact>
</mgrwt>
</event>
<event>
 6    1  0.1045058E-005  0.1470247E+03  0.7546771E-02  0.1213708E+00
         -1   -1    0    0    0  501 -0.00000000000E+00  0.00000000000E+00  0.27383836295E+03  0.27383836295E+03  0.00000000000E+00 0.  1.
          1   -1    0    0  501    0  0.00000000000E+00 -0.00000000000E+00 -0.72402806457E+02  0.72402806457E+02  0.00000000000E+00 0. -1.
          5    1    1    2  502    0  0.28909349056E+02  0.20254840248E+02  0.30202477572E+02  0.46693561309E+02  0.47000000000E+01 0. -1.
         -5    1    1    2    0  502 -0.51135976415E+02 -0.94393451763E+02  0.24795500127E+02  0.11028108925E+03  0.47000000000E+01 0. -1.
        -11    1    1    2    0    0  0.44964899602E+02  0.55591274437E+02  0.46937603505E+02  0.85529939861E+02  0.00000000000E+00 0. -1.
         11    1    1    2    0    0 -0.22738272242E+02  0.18547337078E+02  0.99499975284E+02  0.10373657898E+03  0.00000000000E+00 0.  1.
<mgrwt>
<rscale>  0 0.13971868E+03</rscale>
<asrwt>0</asrwt>
<pdfrwt beam="2">  1        1 0.11138893E-01 0.14702470E+03</pdfrwt>
<pdfrwt beam="1">  1       -1 0.42128978E-01 0.14702470E+03</pdfrwt>
<totfact> 0.30203861E+03</totfact>
</mgrwt>
</event>
<event>
 6    1  0.1045058E-005  0.2216876E+03  0.7546771E-02  0.1136019E+00
          2   -1    0    0  501    0  0.00000000000E+00  0.00000000000E+00  0.82545463991E+03  0.82545463991E+03  0.00000000000E+00 0. -1.
         -2   -1    0    0    0  501 -0.00000000000E+00 -0.00000000000E+00 -0.61477534744E+02  0.61477534744E+02  0.00000000000E+00 0.  1.
          5    1    1    2  502    0  0.69566510803E+01  0.76985234801E+02  0.40364227088E+03  0.41100400754E+03  0.47000000000E+01 0.  1.
         -5    1    1    2    0  502  0.22393240951E+02  0.10372746913E+03  0.13722802865E+03  0.17353520374E+03  0.47000000000E+01 0.  1.
        -11    1    1    2    0    0  0.24785543002E+02 -0.15051060127E+02  0.42102858034E+02  0.51122482407E+02  0.00000000000E+00 0. -1.
         11    1    1    2    0    0 -0.54135435033E+02 -0.16566164381E+03  0.18100394761E+03  0.25127048096E+03  0.00000000000E+00 0.  1.
<mgrwt>
<rscale>  0 0.21715876E+03</rscale>
<asrwt>0</asrwt>
<pdfrwt beam="1">  1        2 0.12699301E+00 0.22168764E+03</pdfrwt>
<pdfrwt beam="2">  1       -2 0.94580829E-02 0.22168764E+03</pdfrwt>
<totfact> 0.24592777E+03</totfact>
</mgrwt>
</event>
<event>
 6    1  0.1045058E-005  0.1451833E+03  0.7546771E-02  0.1216950E+00
          2   -1    0    0  501    0  0.00000000000E+00  0.00000000000E+00  0.74668476114E+03  0.74668476114E+03  0.00000000000E+00 0.  1.
         -2   -1    0    0    0  501 -0.00000000000E+00 -0.00000000000E+00 -0.27313762511E+02  0.27313762511E+02  0.00000000000E+00 0. -1.
          5    1    1    2  502    0 -0.14545464518E+02 -0.40834599476E+02  0.16952113850E+03  0.17503868558E+03  0.47000000000E+01 0. -1.
         -5    1    1    2    0  502  0.87559048540E+02  0.51233960452E+02  0.37849054409E+03  0.39187840927E+03  0.47000000000E+01 0. -1.
        -11    1    1    2    0    0  0.13119031123E+02  0.16848910313E+02  0.59996999074E+02  0.63683864944E+02  0.00000000000E+00 0.  1.
         11    1    1    2    0    0 -0.86132615145E+02 -0.27248271290E+02  0.11136231697E+03  0.14339756386E+03  0.00000000000E+00 0. -1.
<mgrwt>
<rscale>  0 0.13734231E+03</rscale>
<asrwt>0</asrwt>
<pdfrwt beam="1">  1        2 0.11487456E+00 0.14518329E+03</pdfrwt>
<pdfrwt beam="2">  1       -2 0.42021179E-02 0.14518329E+03</pdfrwt>
<totfact> 0.95159030E+03</totfact>
</mgrwt>
</event>
<event>
 6    1  0.1045058E-005  0.1276746E+03  0.7546771E-02  0.1246157E+00
         -2   -1    0    0    0  501 -0.00000000000E+00  0.00000000000E+00  0.17080362853E+03  0.17080362853E+03  0.00000000000E+00 0.  1.
          2   -1    0    0  501    0  0.00000000000E+00 -0.00000000000E+00 -0.75042653605E+02  0.75042653605E+02  0.00000000000E+00 0. -1.
          5    1    1    2  502    0  0.36614696408E+02  0.39597189192E+02 -0.11363898084E+02  0.55315473103E+02  0.47000000000E+01 0. -1.
         -5    1    1    2    0  502 -0.58373266282E+02 -0.25367838728E+02  0.40675624352E+02  0.75680657202E+02  0.47000000000E+01 0. -1.
        -11    1    1    2    0    0 -0.32918743665E+01 -0.20741789657E+02  0.82005445126E+02  0.84651942124E+02  0.00000000000E+00 0.  1.
         11    1    1    2    0    0  0.25050444240E+02  0.65124391927E+01 -0.15556196469E+02  0.30198209706E+02  0.00000000000E+00 0. -1.
<mgrwt>
<rscale>  0 0.11816386E+03</rscale>
<asrwt>0</asrwt>
<pdfrwt beam="2">  1        2 0.11545024E-01 0.12767462E+03</pdfrwt>
<pdfrwt beam="1">  1       -2 0.26277481E-01 0.12767462E+03</pdfrwt>
<totfact> 0.65646181E+03</totfact>
</mgrwt>
</event>
<event>
 6    1  0.1045058E-005  0.1337872E+03  0.7546771E-02  0.1234135E+00
         -3   -1    0    0    0  501 -0.00000000000E+00  0.00000000000E+00  0.45345210194E+03  0.45345210194E+03  0.00000000000E+00 0.  1.
          3   -1    0    0  501    0  0.00000000000E+00 -0.00000000000E+00 -0.31880460439E+02  0.31880460439E+02  0.00000000000E+00 0. -1.
          5    1    1    2  502    0 -0.23920320091E+02  0.31361015595E+02  0.26421660063E+02  0.47706279805E+02  0.47000000000E+01 0.  1.
         -5    1    1    2    0  502  0.29287070923E+02 -0.78735643360E+02  0.17387885393E+03  0.19316567993E+03  0.47000000000E+01 0.  1.
        -11    1    1    2    0    0  0.29525100909E+02  0.79181695029E+01  0.16329390845E+03  0.16613045937E+03  0.00000000000E+00 0.  1.
         11    1    1    2    0    0 -0.34891851741E+02  0.39456458262E+02  0.57977219056E+02  0.78330143278E+02  0.00000000000E+00 0. -1.
<mgrwt>
<rscale>  0 0.12559987E+03</rscale>
<asrwt>0</asrwt>
<pdfrwt beam="2">  1        3 0.49046865E-02 0.13378716E+03</pdfrwt>
<pdfrwt beam="1">  1       -3 0.69761857E-01 0.13378716E+03</pdfrwt>
<totfact> 0.10837719E+03</totfact>
</mgrwt>
</event>
<event>
 6    1  0.1045058E-005  0.1305020E+03  0.7546771E-02  0.1236338E+00
         -3   -1    0    0    0  501 -0.00000000000E+00  0.00000000000E+00  0.13659402942E+03  0.13659402942E+03  0.00000000000E+00 0.  1.
          3   -1    0    0  501    0  0.00000000000E+00 -0.00000000000E+00 -0.10702563342E+03  0.10702563342E+03  0.00000000000E+00 0. -1.
          5    1    1    2  502    0  0.91748134839E+01  0.23502917747E+02 -0.62904338149E+02  0.67938281573E+02  0.47000000000E+01 0. -1.
         -5    1    1    2    0  502 -0.24990569211E+02  0.10442648590E+02  0.56382230287E+02  0.62726576116E+02  0.47000000000E+01 0. -1.
        -11    1    1    2    0    0  0.21086436722E+02 -0.61770583914E+02 -0.22260736461E+01  0.65308485318E+02  0.00000000000E+00 0. -1.
         11    1    1    2    0    0 -0.52706809956E+01  0.27825017577E+02  0.38316577506E+02  0.47646319828E+02  0.00000000000E+00 0.  1.
<mgrwt>
<rscale>  0 0.12419188E+03</rscale>
<asrwt>0</asrwt>
<pdfrwt beam="2">  1        3 0.16465482E-01 0.13050198E+03</pdfrwt>
<pdfrwt beam="1">  1       -3 0.21014466E-01 0.13050198E+03</pdfrwt>
<totfact> 0.14817645E+03</totfact>
</mgrwt>
</event>
<event>
 6    1  0.1045058E-005  0.1455798E+03  0.7546771E-02  0.1214941E+00
         -1   -1    0    0    0  501 -0.00000000000E+00  0.00000000000E+00  0.56315150017E+02  0.56315150017E+02  0.00000000000E+00 0.  1.
          1   -1    0    0  501    0  0.00000000000E+00 -0.00000000000E+00 -0.47215300733E+03  0.47215300733E+03  0.00000000000E+00 0. -1.
          5    1    1    2  502    0 -0.75695149441E+01 -0.44362711119E+02 -0.72949104027E+02  0.85842934903E+02  0.47000000000E+01 0.  1.
         -5    1    1    2    0  502 -0.62227804518E+02  0.70816910382E+02 -0.30061995393E+03  0.31509011592E+03  0.47000000000E+01 0.  1.
        -11    1    1    2    0    0  0.61542591512E+02 -0.36321168456E+02  0.11383276607E+02  0.72362261120E+02  0.00000000000E+00 0.  1.
         11    1    1    2    0    0  0.82547279494E+01  0.98669691938E+01 -0.53652075967E+02  0.55172845406E+02  0.00000000000E+00 0. -1.
<mgrwt>
<rscale>  0 0.13880861E+03</rscale>
<asrwt>0</asrwt>
<pdfrwt beam="2">  1        1 0.72638923E-01 0.14557977E+03</pdfrwt>
<pdfrwt beam="1">  1       -1 0.86638694E-02 0.14557977E+03</pdfrwt>
<totfact> 0.36104938E+03</totfact>
</mgrwt>
</event>
<event>
 6    1  0.1045058E-005  0.3309091E+03  0.7546771E-02  0.1070735E+00
          1   -1    0    0  501    0  0.00000000000E+00  0.00000000000E+00  0.65694696139E+02  0.65694696139E+02  0.00000000000E+00 0. -1.
         -1   -1    0    0    0  501 -0.00000000000E+00 -0.00000000000E+00 -0.41670350459E+03  0.41670350459E+03  0.00000000000E+00 0.  1.
          5    1    1    2  502    0  0.88910594040E+02 -0.57754140331E+01  0.19426251437E+00  0.89222064971E+02  0.47000000000E+01 0.  1.
         -5    1    1    2    0  502  0.22190093702E+02 -0.64558591876E+01 -0.10718656575E+03  0.10975029956E+03  0.47000000000E+01 0.  1.
        -11    1    1    2    0    0 -0.79634382502E+02 -0.11484307288E+02 -0.22638659385E+03  0.24025905615E+03  0.00000000000E+00 0.  1.
         11    1    1    2    0    0 -0.31466305240E+02  0.23715580508E+02 -0.17629911367E+02  0.43166780041E+02  0.00000000000E+00 0. -1.
<mgrwt>
<rscale>  0 0.33090911E+03</rscale>
<asrwt>0</asrwt>
<pdfrwt beam="1">  1        1 0.10106877E-01 0.33090911E+03</pdfrwt>
<pdfrwt beam="2">  1       -1 0.64108230E-01 0.33090911E+03</pdfrwt>
<totfact> 0.16192612E+03</totfact>
</mgrwt>
</event>
<event>
 6    1  0.1045058E-005  0.2274735E+03  0.7546771E-02  0.1156601E+00
         -4   -1    0    0    0  501 -0.00000000000E+00  0.00000000000E+00  0.37626290670E+03  0.37626290670E+03  0.00000000000E+00 0.  1.
          4   -1    0    0  501    0  0.00000000000E+00 -0.00000000000E+00 -0.10034965855E+03  0.10034965855E+03  0.00000000000E+00 0. -1.
          5    1    1    2  502    0 -0.28954295910E+01  0.95055220532E+02 -0.37656093835E+02  0.10239116107E+03  0.47000000000E+01 0. -1.
         -5    1    1    2    0  502  0.62463343176E+02 -0.58600871369E+02  0.10349024775E+03  0.13441745699E+03  0.47000000000E+01 0.  1.
        -11    1    1    2    0    0 -0.76538157665E+02 -0.39077650536E+02  0.20437807424E+03  0.22171050850E+03  0.00000000000E+00 0.  1.
         11    1    1    2    0    0  0.16970244080E+02  0.26233013728E+01  0.57010200049E+01  0.18093438681E+02  0.00000000000E+00 0. -1.
<mgrwt>
<rscale>  0 0.19207706E+03</rscale>
<asrwt>0</asrwt>
<pdfrwt beam="2">  1        4 0.15438409E-01 0.22747348E+03</pdfrwt>
<pdfrwt beam="1">  1       -4 0.57886600E-01 0.22747348E+03</pdfrwt>
<totfact> 0.18567935E+02</totfact>
</mgrwt>
</event>
<event>
 6    1  0.1045058E-005  0.2497303E+03  0.7546771E-02  0.1115737E+00
          1   -1    0    0  501    0  0.00000000000E+00  0.00000000000E+00  0.19382846921E+03  0.19382846921E+03  0.00000000000E+00 0. -1.
         -1   -1    0    0    0  501 -0.00000000000E+00 -0.00000000000E+00 -0.30486840941E+03  0.30486840941E+03  0.00000000000E+00 0.  1.
          5    1    1    2  502    0 -0.15153140678E+03 -0.12418064304E+03 -0.22916742810E+02  0.19730652915E+03  0.47000000000E+01 0.  1.
         -5    1    1    2    0  502  0.20285510046E+02 -0.47617959364E+02 -0.21975017708E+02  0.56426619384E+02  0.47000000000E+01 0.  1.
        -11    1    1    2    0    0 -0.12095599042E+02  0.77300284434E+01 -0.15818209451E+02  0.21360538527E+02  0.00000000000E+00 0.  1.
         11    1    1    2    0    0  0.14334149577E+03  0.16406857396E+03 -0.50329970231E+02  0.22360319156E+03  0.00000000000E+00 0. -1.
<mgrwt>
<rscale>  0 0.24618904E+03</rscale>
<asrwt>0</asrwt>
<pdfrwt beam="1">  1        1 0.29819765E-01 0.24973034E+03</pdfrwt>
<pdfrwt beam="2">  1       -1 0.46902832E-01 0.24973034E+03</pdfrwt>
<totfact> 0.70743662E+02</totfact>
</mgrwt>
</event>
<event>
 6    1  0.1045058E-005  0.2029650E+03  0.7546771E-02  0.1152196E+00
          1   -1    0    0  501    0  0.00000000000E+00  0.00000000000E+00  0.80667559519E+03  0.80667559519E+03  0.00000000000E+00 0. -1.
         -1   -1    0    0    0  501 -0.00000000000E+00 -0.00000000000E+00 -0.52605318666E+02  0.52605318666E+02  0.00000000000E+00 0.  1.
          5    1    1    2  502    0 -0.86386343648E+02 -0.11134871950E+03  0.41623028838E+03  0.43946658652E+03  0.47000000000E+01 0.  1.
         -5    1    1    2    0  502 -0.51870390929E+02  0.31008918996E+02  0.13661689770E+03  0.14946021962E+03  0.47000000000E+01 0.  1.
        -11    1    1    2    0    0  0.13506392365E+03  0.65639001155E+02  0.13333981725E+03  0.20082392489E+03  0.00000000000E+00 0.  1.
         11    1    1    2    0    0  0.31928109249E+01  0.14700799352E+02  0.67883273200E+02  0.69530182824E+02  0.00000000000E+00 0. -1.
<mgrwt>
<rscale>  0 0.19711470E+03</rscale>
<asrwt>0</asrwt>
<pdfrwt beam="1">  1        1 0.12410393E+00 0.20296495E+03</pdfrwt>
<pdfrwt beam="2">  1       -1 0.80931266E-02 0.20296495E+03</pdfrwt>
<totfact> 0.19160096E+03</totfact>
</mgrwt>
</event>
<event>
 6    1  0.1045058E-005  0.1262250E+03  0.7546771E-02  0.1245645E+00
          2   -1    0    0  501    0  0.00000000000E+00  0.00000000000E+00  0.13580770000E+03  0.13580770000E+03  0.00000000000E+00 0. -1.
         -2   -1    0    0    0  501 -0.00000000000E+00 -0.00000000000E+00 -0.11236816801E+03  0.11236816801E+03  0.00000000000E+00 0.  1.
          5    1    1    2  502    0 -0.64226102909E+02  0.22874074511E+02  0.79984137059E+02  0.10520345888E+03  0.47000000000E+01 0. -1.
         -5    1    1    2    0  502  0.32473926684E+02 -0.60135165929E+01 -0.15219861675E+02  0.36666776317E+02  0.47000000000E+01 0.  1.
        -11    1    1    2    0    0  0.56333333627E+02 -0.34078979704E+02 -0.17885700253E+02  0.68225505559E+02  0.00000000000E+00 0.  1.
         11    1    1    2    0    0 -0.24581157402E+02  0.17218421786E+02 -0.23439043146E+02  0.38080127253E+02  0.00000000000E+00 0. -1.
<mgrwt>
<rscale>  0 0.11846886E+03</rscale>
<asrwt>0</asrwt>
<pdfrwt beam="1">  1        2 0.20893492E-01 0.12622501E+03</pdfrwt>
<pdfrwt beam="2">  1       -2 0.17287411E-01 0.12622501E+03</pdfrwt>
<totfact> 0.67170195E+03</totfact>
</mgrwt>
</event>
<event>
 6    1  0.1045058E-005  0.1293044E+03  0.7546771E-02  0.1245316E+00
         -1   -1    0    0    0  501 -0.00000000000E+00  0.00000000000E+00  0.29675478187E+03  0.29675478187E+03  0.00000000000E+00 0.  1.
          1   -1    0    0  501    0  0.00000000000E+00 -0.00000000000E+00 -0.41261681236E+02  0.41261681236E+02  0.00000000000E+00 0. -1.
          5    1    1    2  502    0 -0.43378881059E+02  0.36144465647E+02  0.25237167032E+02  0.62025432837E+02  0.47000000000E+01 0. -1.
         -5    1    1    2    0  502  0.57093476472E+02 -0.60226660018E+01  0.11566955696E+03  0.12921870596E+03  0.47000000000E+01 0. -1.
        -11    1    1    2    0    0 -0.16564788441E+02  0.13581925049E+01 -0.92118851599E+01  0.19002519074E+02  0.00000000000E+00 0. -1.
         11    1    1    2    0    0  0.28501930274E+01 -0.31479992150E+02  0.12379826180E+03  0.12776980524E+03  0.00000000000E+00 0.  1.
<mgrwt>
<rscale>  0 0.11866503E+03</rscale>
<asrwt>0</asrwt>
<pdfrwt beam="2">  1        1 0.63479512E-02 0.12930435E+03</pdfrwt>
<pdfrwt beam="1">  1       -1 0.45654580E-01 0.12930435E+03</pdfrwt>
<totfact> 0.55106109E+03</totfact>
</mgrwt>
</event>
<event>
 6    1  0.1045058E-005  0.1404351E+03  0.7546771E-02  0.1223891E+00
         -2   -1    0    0    0  501 -0.00000000000E+00  0.00000000000E+00  0.37803399773E+02  0.37803399773E+02  0.00000000000E+00 0.  1.
          2   -1    0    0  501    0  0.00000000000E+00 -0.00000000000E+00 -0.50283971546E+03  0.50283971546E+03  0.00000000000E+00 0. -1.
          5    1    1    2  502    0 -0.27264867911E+02  0.10519461184E+02 -0.23741426439E+03  0.23925228321E+03  0.47000000000E+01 0.  1.
         -5    1    1    2    0  502  0.35885440618E+02 -0.73990598730E+02 -0.12792562190E+03  0.15214936177E+03  0.47000000000E+01 0.  1.
        -11    1    1    2    0    0  0.26909034939E+02  0.13706834674E+02  0.23369340840E+01  0.30289185182E+02  0.00000000000E+00 0.  1.
         11    1    1    2    0    0 -0.35529607645E+02  0.49764302872E+02 -0.10203336348E+03  0.11895228507E+03  0.00000000000E+00 0. -1.
<mgrwt>
<rscale>  0 0.13243206E+03</rscale>
<asrwt>0</asrwt>
<pdfrwt beam="2">  1        2 0.77359949E-01 0.14043509E+03</pdfrwt>
<pdfrwt beam="1">  1       -2 0.58159082E-02 0.14043509E+03</pdfrwt>
<totfact> 0.91814647E+03</totfact>
</mgrwt>
</event>
<event>
 6    1  0.1045058E-005  0.1597079E+03  0.7546771E-02  0.1197242E+00
         -1   -1    0    0    0  501 -0.00000000000E+00  0.00000000000E+00  0.80099244569E+02  0.80099244569E+02  0.00000000000E+00 0.  1.
          1   -1    0    0  501    0  0.00000000000E+00 -0.00000000000E+00 -0.29965915196E+03  0.29965915196E+03  0.00000000000E+00 0. -1.
          5    1    1    2  502    0  0.33492682566E+02 -0.73432836784E+02 -0.27037332424E+02  0.85248159208E+02  0.47000000000E+01 0.  1.
         -5    1    1    2    0  502 -0.12378485029E+02 -0.23785525009E+02 -0.15306263235E+03  0.15546458605E+03  0.47000000000E+01 0.  1.
        -11    1    1    2    0    0 -0.25979275020E+02 -0.62320832520E-01 -0.32199577580E+02  0.41373172597E+02  0.00000000000E+00 0. -1.
         11    1    1    2    0    0  0.48650774823E+01  0.97280682625E+02 -0.72603650356E+01  0.97672478680E+02  0.00000000000E+00 0.  1.
<mgrwt>
<rscale>  0 0.15266026E+03</rscale>
<asrwt>0</asrwt>
<pdfrwt beam="2">  1        1 0.46101409E-01 0.15970795E+03</pdfrwt>
<pdfrwt beam="1">  1       -1 0.12322960E-01 0.15970795E+03</pdfrwt>
<totfact> 0.37489696E+03</totfact>
</mgrwt>
</event>
<event>
 6    1  0.1045058E-005  0.1331853E+03  0.7546771E-02  0.1236181E+00
          1   -1    0    0  501    0  0.00000000000E+00  0.00000000000E+00  0.16210172069E+03  0.16210172069E+03  0.00000000000E+00 0. -1.
         -1   -1    0    0    0  501 -0.00000000000E+00 -0.00000000000E+00 -0.85939001271E+02  0.85939001271E+02  0.00000000000E+00 0.  1.
          5    1    1    2  502    0 -0.10043600166E+02 -0.52421374011E+02  0.45289757198E+02  0.70157868158E+02  0.47000000000E+01 0. -1.
         -5    1    1    2    0  502  0.54968900523E+02  0.49568098279E+02  0.13320377548E+02  0.75353160848E+02  0.47000000000E+01 0. -1.
        -11    1    1    2    0    0 -0.20213574357E+02 -0.19569610350E+02 -0.32113787308E+02  0.42694889305E+02  0.00000000000E+00 0.  1.
         11    1    1    2    0    0 -0.24711726000E+02  0.22422886081E+02  0.49666371980E+02  0.59834803649E+02  0.00000000000E+00 0. -1.
<mgrwt>
<rscale>  0 0.12429101E+03</rscale>
<asrwt>0</asrwt>
<pdfrwt beam="1">  1        1 0.24938726E-01 0.13318525E+03</pdfrwt>
<pdfrwt beam="2">  1       -1 0.13221385E-01 0.13318525E+03</pdfrwt>
<totfact> 0.71423696E+03</totfact>
</mgrwt>
</event>
<event>
 6    1  0.1045058E-005  0.1492564E+03  0.7546771E-02  0.1210703E+00
         -2   -1    0    0    0  501 -0.00000000000E+00  0.00000000000E+00  0.84004582243E+02  0.84004582243E+02  0.00000000000E+00 0.  1.
          2   -1    0    0  501    0  0.00000000000E+00 -0.00000000000E+00 -0.22226296058E+03  0.22226296058E+03  0.00000000000E+00 0. -1.
          5    1    1    2  502    0 -0.56656318535E+02 -0.59203085159E+02  0.11808918751E+02  0.82924569848E+02  0.47000000000E+01 0.  1.
         -5    1    1    2    0  502  0.27540048590E+02 -0.16985005563E+02 -0.70027166620E+02  0.77284142973E+02  0.47000000000E+01 0.  1.
        -11    1    1    2    0    0  0.16450812039E+02 -0.19569292439E+02 -0.17789971245E+02  0.31145938743E+02  0.00000000000E+00 0.  1.
         11    1    1    2    0    0  0.12665457906E+02  0.95757383161E+02 -0.62250159220E+02  0.11491289126E+03  0.00000000000E+00 0. -1.
<mgrwt>
<rscale>  0 0.14196960E+03</rscale>
<asrwt>0</asrwt>
<pdfrwt beam="2">  1        2 0.34194301E-01 0.14925638E+03</pdfrwt>
<pdfrwt beam="1">  1       -2 0.12923782E-01 0.14925638E+03</pdfrwt>
<totfact> 0.63672736E+03</totfact>
</mgrwt>
</event>
<event>
 6    1  0.1045058E-005  0.1363215E+03  0.7546771E-02  0.1229463E+00
         -1   -1    0    0    0  501 -0.00000000000E+00  0.00000000000E+00  0.53973810386E+02  0.53973810386E+02  0.00000000000E+00 0.  1.
          1   -1    0    0  501    0  0.00000000000E+00 -0.00000000000E+00 -0.28428124627E+03  0.28428124627E+03  0.00000000000E+00 0. -1.
          5    1    1    2  502    0 -0.34156855604E+02  0.27621035837E+02 -0.10721439591E+03  0.11595960114E+03  0.47000000000E+01 0. -1.
         -5    1    1    2    0  502  0.95813439726E+01 -0.76133514585E+02 -0.48056021389E+02  0.90661929094E+02  0.47000000000E+01 0. -1.
        -11    1    1    2    0    0  0.21593004442E+02 -0.24997654873E+02 -0.33946707865E+02  0.47365805861E+02  0.00000000000E+00 0.  1.
         11    1    1    2    0    0  0.29825071889E+01  0.73510133621E+02 -0.41090310718E+02  0.84267720563E+02  0.00000000000E+00 0. -1.
<mgrwt>
<rscale>  0 0.12865653E+03</rscale>
<asrwt>0</asrwt>
<pdfrwt beam="2">  1        1 0.43735577E-01 0.13632151E+03</pdfrwt>
<pdfrwt beam="1">  1       -1 0.83036630E-02 0.13632151E+03</pdfrwt>
<totfact> 0.72579394E+03</totfact>
</mgrwt>
</event>
<event>
 6    1  0.1045058E-005  0.1374302E+03  0.7546771E-02  0.1228789E+00
         -2   -1    0    0    0  501 -0.00000000000E+00  0.00000000000E+00  0.44648435311E+02  0.44648435311E+02  0.00000000000E+00 0. -1.
          2   -1    0    0  501    0  0.00000000000E+00 -0.00000000000E+00 -0.39564324201E+03  0.39564324201E+03  0.00000000000E+00 0.  1.
          5    1    1    2  502    0 -0.21491185891E+02 -0.20625761694E+02 -0.16468854931E+03  0.16742670453E+03  0.47000000000E+01 0.  1.
         -5    1    1    2    0  502  0.61209154541E+02  0.61683085000E+02 -0.11514215099E+03  0.14433006794E+03  0.47000000000E+01 0.  1.
        -11    1    1    2    0    0 -0.41151534211E+02 -0.67875248059E+02 -0.59764657060E+02  0.99359510368E+02  0.00000000000E+00 0. -1.
         11    1    1    2    0    0  0.14335655610E+01  0.26817924753E+02 -0.11399449336E+02  0.29175394486E+02  0.00000000000E+00 0.  1.
<mgrwt>
<rscale>  0 0.12910558E+03</rscale>
<asrwt>0</asrwt>
<pdfrwt beam="2">  1        2 0.60868190E-01 0.13743022E+03</pdfrwt>
<pdfrwt beam="1">  1       -2 0.68689902E-02 0.13743022E+03</pdfrwt>
<totfact> 0.92257804E+03</totfact>
</mgrwt>
</event>
<event>
 6    1  0.1045058E-005  0.3555931E+03  0.7546771E-02  0.1060343E+00
         -2   -1    0    0    0  501 -0.00000000000E+00  0.00000000000E+00  0.48233969234E+03  0.48233969234E+03  0.00000000000E+00 0. -1.
          2   -1    0    0  501    0  0.00000000000E+00 -0.00000000000E+00 -0.65538078970E+02  0.65538078970E+02  0.00000000000E+00 0.  1.
          5    1    1    2  502    0 -0.53325192956E+01  0.17378309909E+02  0.78565518188E+02  0.80777918180E+02  0.47000000000E+01 0. -1.
         -5    1    1    2    0  502  0.11016265676E+03  0.34208619708E+02  0.21482071836E+02  0.11742917021E+03  0.47000000000E+01 0. -1.
        -11    1    1    2    0    0 -0.51428229604E+02 -0.44118821430E+02  0.26977522766E+03  0.27815464524E+03  0.00000000000E+00 0. -1.
         11    1    1    2    0    0 -0.53401907856E+02 -0.74681081864E+01  0.46978795680E+02  0.71516037685E+02  0.00000000000E+00 0.  1.
<mgrwt>
<rscale>  0 0.35559312E+03</rscale>
<asrwt>0</asrwt>
<pdfrwt beam="2">  1        2 0.10082782E-01 0.35559312E+03</pdfrwt>
<pdfrwt beam="1">  1       -2 0.74206104E-01 0.35559312E+03</pdfrwt>
<totfact> 0.10719144E+03</totfact>
</mgrwt>
</event>
<event>
 6    1  0.1045058E-005  0.3332099E+03  0.7546771E-02  0.1070991E+00
          1   -1    0    0  501    0  0.00000000000E+00  0.00000000000E+00  0.21192532354E+04  0.21192532354E+04  0.00000000000E+00 0. -1.
         -1   -1    0    0    0  501 -0.00000000000E+00 -0.00000000000E+00 -0.57607698391E+02  0.57607698391E+02  0.00000000000E+00 0.  1.
          5    1    1    2  502    0  0.19723585485E+03  0.87629178408E+02  0.84590526480E+03  0.87301698859E+03  0.47000000000E+01 0.  1.
         -5    1    1    2    0  502  0.42792218348E+02  0.10671866471E+03  0.57973386173E+03  0.59104440424E+03  0.47000000000E+01 0.  1.
        -11    1    1    2    0    0 -0.11915277193E+03 -0.78766158971E+02  0.19957525391E+03  0.24542162258E+03  0.00000000000E+00 0.  1.
         11    1    1    2    0    0 -0.12087530126E+03 -0.11558168414E+03  0.43643115659E+03  0.46737791840E+03  0.00000000000E+00 0. -1.
<mgrwt>
<rscale>  0 0.33032954E+03</rscale>
<asrwt>0</asrwt>
<pdfrwt beam="1">  1        1 0.32603890E+00 0.33320991E+03</pdfrwt>
<pdfrwt beam="2">  1       -1 0.88627245E-02 0.33320991E+03</pdfrwt>
<totfact> 0.20513027E+02</totfact>
</mgrwt>
</event>
<event>
 6    1  0.1045058E-005  0.1310218E+03  0.7546771E-02  0.1238903E+00
          2   -1    0    0  501    0  0.00000000000E+00  0.00000000000E+00  0.13756912360E+03  0.13756912360E+03  0.00000000000E+00 0.  1.
         -2   -1    0    0    0  501 -0.00000000000E+00 -0.00000000000E+00 -0.15001123410E+03  0.15001123410E+03  0.00000000000E+00 0. -1.
          5    1    1    2  502    0  0.46648240781E+02  0.18192221821E+02 -0.17678520441E+02  0.53306991922E+02  0.47000000000E+01 0.  1.
         -5    1    1    2    0  502 -0.22376599813E+02  0.12625988626E+02  0.95668027739E+02  0.99169498030E+02  0.47000000000E+01 0.  1.
        -11    1    1    2    0    0  0.80219334505E+01  0.22249993277E+02 -0.62814659772E+02  0.67120005210E+02  0.00000000000E+00 0. -1.
         11    1    1    2    0    0 -0.32293574418E+02 -0.53068203724E+02 -0.27616958026E+02  0.67983862540E+02  0.00000000000E+00 0.  1.
<mgrwt>
<rscale>  0 0.12257850E+03</rscale>
<asrwt>0</asrwt>
<pdfrwt beam="1">  1        2 0.21164480E-01 0.13102182E+03</pdfrwt>
<pdfrwt beam="2">  1       -2 0.23078651E-01 0.13102182E+03</pdfrwt>
<totfact> 0.40729108E+03</totfact>
</mgrwt>
</event>
<event>
 6    1  0.1045058E-005  0.1948747E+03  0.7546771E-02  0.1158895E+00
         -3   -1    0    0    0  501 -0.00000000000E+00  0.00000000000E+00  0.49793709107E+03  0.49793709107E+03  0.00000000000E+00 0.  1.
          3   -1    0    0  501    0  0.00000000000E+00 -0.00000000000E+00 -0.68510861106E+02  0.68510861106E+02  0.00000000000E+00 0. -1.
          5    1    1    2  502    0 -0.55459493195E+02 -0.70536988333E+02  0.96232534563E+02  0.13165869822E+03  0.47000000000E+01 0. -1.
         -5    1    1    2    0  502  0.68671684281E+02 -0.78372465052E+02  0.13980543427E+03  0.17442962178E+03  0.47000000000E+01 0. -1.
        -11    1    1    2    0    0 -0.14301610977E+02  0.16094326881E+03  0.18512947155E+03  0.24572381465E+03  0.00000000000E+00 0.  1.
         11    1    1    2    0    0  0.10894198912E+01 -0.12033815427E+02  0.82587895844E+01  0.14635817532E+02  0.00000000000E+00 0. -1.
<mgrwt>
<rscale>  0 0.18951977E+03</rscale>
<asrwt>0</asrwt>
<pdfrwt beam="2">  1        3 0.10540133E-01 0.19487467E+03</pdfrwt>
<pdfrwt beam="1">  1       -3 0.76605704E-01 0.19487467E+03</pdfrwt>
<totfact> 0.26966370E+02</totfact>
</mgrwt>
</event>
<event>
 6    1  0.1045058E-005  0.1798000E+03  0.7546771E-02  0.1173326E+00
          2   -1    0    0  501    0  0.00000000000E+00  0.00000000000E+00  0.11038023483E+04  0.11038023483E+04  0.00000000000E+00 0. -1.
         -2   -1    0    0    0  501 -0.00000000000E+00 -0.00000000000E+00 -0.26290153515E+02  0.26290153515E+02  0.00000000000E+00 0.  1.
          5    1    1    2  502    0 -0.51061853722E+02 -0.18439782450E+02  0.14243429611E+03  0.15250231864E+03  0.47000000000E+01 0.  1.
         -5    1    1    2    0  502 -0.26017479208E+02  0.12219411593E+03  0.37229887813E+03  0.39273000375E+03  0.47000000000E+01 0.  1.
        -11    1    1    2    0    0  0.25586593798E+02  0.14718847484E+02  0.12367054755E+03  0.12714449491E+03  0.00000000000E+00 0.  1.
         11    1    1    2    0    0  0.51492739133E+02 -0.11847318097E+03  0.43910847295E+03  0.45771568447E+03  0.00000000000E+00 0. -1.
<mgrwt>
<rscale>  0 0.17440972E+03</rscale>
<asrwt>0</asrwt>
<pdfrwt beam="1">  1        2 0.16981571E+00 0.17980001E+03</pdfrwt>
<pdfrwt beam="2">  1       -2 0.40446399E-02 0.17980001E+03</pdfrwt>
<totfact> 0.60535157E+03</totfact>
</mgrwt>
</event>
<event>
 6    1  0.1045058E-005  0.1518912E+03  0.7546771E-02  0.1207124E+00
          1   -1    0    0  501    0  0.00000000000E+00  0.00000000000E+00  0.39190738944E+02  0.39190738944E+02  0.00000000000E+00 0. -1.
         -1   -1    0    0    0  501 -0.00000000000E+00 -0.00000000000E+00 -0.49064861874E+03  0.49064861874E+03  0.00000000000E+00 0.  1.
          5    1    1    2  502    0  0.48663571023E+02 -0.56839213481E+02 -0.56496999925E+02  0.93876729461E+02  0.47000000000E+01 0.  1.
         -5    1    1    2    0  502 -0.42635001045E+02 -0.29231744848E+02 -0.17883986840E+03  0.18622037147E+03  0.47000000000E+01 0.  1.
        -11    1    1    2    0    0  0.27532058825E+02  0.59541087717E+02 -0.63723369696E+02  0.91453940512E+02  0.00000000000E+00 0. -1.
         11    1    1    2    0    0 -0.33560628803E+02  0.26529870611E+02 -0.15239764177E+03  0.15828831624E+03  0.00000000000E+00 0.  1.
<mgrwt>
<rscale>  0 0.14471333E+03</rscale>
<asrwt>0</asrwt>
<pdfrwt beam="1">  1        1 0.60293444E-02 0.15189123E+03</pdfrwt>
<pdfrwt beam="2">  1       -1 0.75484403E-01 0.15189123E+03</pdfrwt>
<totfact> 0.22998290E+03</totfact>
</mgrwt>
</event>
<event>
 6    1  0.1045058E-005  0.1383319E+03  0.7546771E-02  0.1228622E+00
         -2   -1    0    0    0  501 -0.00000000000E+00  0.00000000000E+00  0.10058437232E+03  0.10058437232E+03  0.00000000000E+00 0.  1.
          2   -1    0    0  501    0  0.00000000000E+00 -0.00000000000E+00 -0.22413039651E+03  0.22413039651E+03  0.00000000000E+00 0. -1.
          5    1    1    2  502    0  0.53413545217E+01  0.84973754588E+02 -0.52042043433E+02  0.99897614194E+02  0.47000000000E+01 0.  1.
         -5    1    1    2    0  502  0.30414292233E+01 -0.26353458518E+02 -0.10956529184E+03  0.11282906649E+03  0.47000000000E+01 0.  1.
        -11    1    1    2    0    0 -0.37786039670E+02 -0.62621812704E+01  0.34961932491E+02  0.51858812479E+02  0.00000000000E+00 0.  1.
         11    1    1    2    0    0  0.29403255924E+02 -0.52358114800E+02  0.30993785977E+01  0.60129275666E+02  0.00000000000E+00 0. -1.
<mgrwt>
<rscale>  0 0.12921747E+03</rscale>
<asrwt>0</asrwt>
<pdfrwt beam="2">  1        2 0.34481599E-01 0.13833188E+03</pdfrwt>
<pdfrwt beam="1">  1       -2 0.15474519E-01 0.13833188E+03</pdfrwt>
<totfact> 0.46865407E+03</totfact>
</mgrwt>
</event>
<event>
 6    1  0.1045058E-005  0.1269673E+03  0.7546771E-02  0.1247138E+00
         -2   -1    0    0    0  501 -0.00000000000E+00  0.00000000000E+00  0.34024740093E+02  0.34024740093E+02  0.00000000000E+00 0.  1.
          2   -1    0    0  501    0  0.00000000000E+00 -0.00000000000E+00 -0.36209833778E+03  0.36209833778E+03  0.00000000000E+00 0. -1.
          5    1    1    2  502    0  0.25473521807E+02 -0.32826349813E+02 -0.11222694348E+02  0.43295593583E+02  0.47000000000E+01 0. -1.
         -5    1    1    2    0  502 -0.22684556547E+02  0.54866723662E+02 -0.15372849843E+03  0.16486202625E+03  0.47000000000E+01 0. -1.
        -11    1    1    2    0    0 -0.32982320915E+02 -0.33797736325E+01 -0.14375918254E+03  0.14753290795E+03  0.00000000000E+00 0. -1.
         11    1    1    2    0    0  0.30193355655E+02 -0.18660600216E+02 -0.19363222368E+02  0.40432550088E+02  0.00000000000E+00 0.  1.
<mgrwt>
<rscale>  0 0.11758354E+03</rscale>
<asrwt>0</asrwt>
<pdfrwt beam="2">  1        2 0.55707441E-01 0.12696731E+03</pdfrwt>
<pdfrwt beam="1">  1       -2 0.52345750E-02 0.12696731E+03</pdfrwt>
<totfact> 0.15209618E+04</totfact>
</mgrwt>
</event>
<event>
 6    1  0.1045058E-005  0.1272909E+03  0.7546771E-02  0.1246524E+00
         -1   -1    0    0    0  501 -0.00000000000E+00  0.00000000000E+00  0.15369369825E+02  0.15369369825E+02  0.00000000000E+00 0.  1.
          1   -1    0    0  501    0  0.00000000000E+00 -0.00000000000E+00 -0.86776145213E+03  0.86776145213E+03  0.00000000000E+00 0. -1.
          5    1    1    2  502    0  0.23529427589E+02 -0.19440601172E+02 -0.37860341794E+02  0.48857613709E+02  0.47000000000E+01 0.  1.
         -5    1    1    2    0  502 -0.22706311354E+02  0.43447558625E+02 -0.57367778405E+03  0.57578777065E+03  0.47000000000E+01 0.  1.
        -11    1    1    2    0    0  0.25202662176E+02 -0.41651877421E+02 -0.20542858253E+03  0.21111834500E+03  0.00000000000E+00 0. -1.
         11    1    1    2    0    0 -0.26025778411E+02  0.17644919968E+02 -0.35425373933E+02  0.47367092595E+02  0.00000000000E+00 0.  1.
<mgrwt>
<rscale>  0 0.11794611E+03</rscale>
<asrwt>0</asrwt>
<pdfrwt beam="2">  1        1 0.13350174E+00 0.12729091E+03</pdfrwt>
<pdfrwt beam="1">  1       -1 0.23645188E-02 0.12729091E+03</pdfrwt>
<totfact> 0.10399408E+04</totfact>
</mgrwt>
</event>
<event>
 6    1  0.1045058E-005  0.3104068E+03  0.7546771E-02  0.1080151E+00
          2   -1    0    0  501    0  0.00000000000E+00  0.00000000000E+00  0.69164486246E+02  0.69164486246E+02  0.00000000000E+00 0. -1.
         -2   -1    0    0    0  501 -0.00000000000E+00 -0.00000000000E+00 -0.34827254128E+03  0.34827254128E+03  0.00000000000E+00 0.  1.
          5    1    1    2  502    0  0.23818386427E+02  0.21241160427E+02 -0.19284233598E+02  0.37582896292E+02  0.47000000000E+01 0. -1.
         -5    1    1    2    0  502 -0.33110972136E+02 -0.12832607078E+03 -0.90025917018E+02  0.16028310158E+03  0.47000000000E+01 0. -1.
        -11    1    1    2    0    0  0.47123876219E+02  0.42548278935E+02 -0.65520572914E+02  0.91235745326E+02  0.00000000000E+00 0.  1.
         11    1    1    2    0    0 -0.37831290509E+02  0.64536631420E+02 -0.10427733150E+03  0.12833528432E+03  0.00000000000E+00 0. -1.
<mgrwt>
<rscale>  0 0.31040677E+03</rscale>
<asrwt>0</asrwt>
<pdfrwt beam="1">  1        2 0.10640690E-01 0.31040677E+03</pdfrwt>
<pdfrwt beam="2">  1       -2 0.53580390E-01 0.31040677E+03</pdfrwt>
<totfact> 0.19835897E+03</totfact>
</mgrwt>
</event>
<event>
 6    1  0.1045058E-005  0.2827751E+03  0.7546771E-02  0.1095958E+00
         -1   -1    0    0    0  501 -0.00000000000E+00  0.00000000000E+00  0.41848973565E+03  0.41848973565E+03  0.00000000000E+00 0.  1.
          1   -1    0    0  501    0  0.00000000000E+00 -0.00000000000E+00 -0.19301457564E+03  0.19301457564E+03  0.00000000000E+00 0. -1.
          5    1    1    2  502    0 -0.91822251433E+02  0.21712979384E+02  0.71473267552E+02  0.11846221890E+03  0.47000000000E+01 0. -1.
         -5    1    1    2    0  502 -0.16144310151E+03 -0.35644867832E+02 -0.27634959765E+02  0.16769082453E+03  0.47000000000E+01 0. -1.
        -11    1    1    2    0    0  0.16589623493E+03  0.42422130865E+02  0.82164852122E+02  0.18992698828E+03  0.00000000000E+00 0. -1.
         11    1    1    2    0    0  0.87369118013E+02 -0.28490242417E+02  0.99472000100E+02  0.13542427958E+03  0.00000000000E+00 0.  1.
<mgrwt>
<rscale>  0 0.27950730E+03</rscale>
<asrwt>0</asrwt>
<pdfrwt beam="2">  1        1 0.29694550E-01 0.28277512E+03</pdfrwt>
<pdfrwt beam="1">  1       -1 0.64383036E-01 0.28277512E+03</pdfrwt>
<totfact> 0.39023909E+02</totfact>
</mgrwt>
</event>
<event>
 6    1  0.1045058E-005  0.2456987E+03  0.7546771E-02  0.1116054E+00
          3   -1    0    0  501    0  0.00000000000E+00  0.00000000000E+00  0.17037579382E+02  0.17037579382E+02  0.00000000000E+00 0. -1.
         -3   -1    0    0    0  501 -0.00000000000E+00 -0.00000000000E+00 -0.88580446656E+03  0.88580446656E+03  0.00000000000E+00 0.  1.
          5    1    1    2  502    0  0.63873400563E+02  0.68757896436E+02 -0.29527967054E+03  0.30987034943E+03  0.47000000000E+01 0.  1.
         -5    1    1    2    0  502 -0.39167011991E+02 -0.17698837313E+02 -0.12899498294E+03  0.13604815065E+03  0.47000000000E+01 0.  1.
        -11    1    1    2    0    0  0.23855375392E+02 -0.48316730466E+02 -0.28972286218E+03  0.29469123205E+03  0.00000000000E+00 0.  1.
         11    1    1    2    0    0 -0.48561763964E+02 -0.27423286571E+01 -0.15476937152E+03  0.16223231382E+03  0.00000000000E+00 0. -1.
<mgrwt>
<rscale>  0 0.24569871E+03</rscale>
<asrwt>0</asrwt>
<pdfrwt beam="1">  1        3 0.26211667E-02 0.24569871E+03</pdfrwt>
<pdfrwt beam="2">  1       -3 0.13627758E+00 0.24569871E+03</pdfrwt>
<totfact> 0.68495092E+02</totfact>
</mgrwt>
</event>
<event>
 6    1  0.1045058E-005  0.3100028E+03  0.7546771E-02  0.1080345E+00
         -1   -1    0    0    0  501 -0.00000000000E+00  0.00000000000E+00  0.26931471384E+02  0.26931471384E+02  0.00000000000E+00 0.  1.
          1   -1    0    0  501    0  0.00000000000E+00 -0.00000000000E+00 -0.89209524119E+03  0.89209524119E+03  0.00000000000E+00 0. -1.
          5    1    1    2  502    0  0.70091884090E+02 -0.91718591907E+02 -0.36989000755E+03  0.38751242561E+03  0.47000000000E+01 0.  1.
         -5    1    1    2    0  502 -0.26265177887E+02  0.73194439909E+01 -0.26821565683E+03  0.26963894822E+03  0.47000000000E+01 0.  1.
        -11    1    1    2    0    0  0.69141593931E+01  0.43863405734E+02 -0.28012018098E+02  0.52502163009E+02  0.00000000000E+00 0.  1.
         11    1    1    2    0    0 -0.50740865596E+02  0.40535742182E+02 -0.19904608733E+03  0.20937317573E+03  0.00000000000E+00 0. -1.
<mgrwt>
<rscale>  0 0.31000282E+03</rscale>
<asrwt>0</asrwt>
<pdfrwt beam="2">  1        1 0.13724540E+00 0.31000282E+03</pdfrwt>
<pdfrwt beam="1">  1       -1 0.41433038E-02 0.31000282E+03</pdfrwt>
<totfact> 0.45285974E+03</totfact>
</mgrwt>
</event>
<event>
 6    1  0.1045058E-005  0.1416620E+03  0.7546771E-02  0.1222071E+00
          2   -1    0    0  501    0  0.00000000000E+00  0.00000000000E+00  0.83129180917E+02  0.83129180917E+02  0.00000000000E+00 0.  1.
         -2   -1    0    0    0  501 -0.00000000000E+00 -0.00000000000E+00 -0.20225292558E+03  0.20225292558E+03  0.00000000000E+00 0. -1.
          5    1    1    2  502    0 -0.24264199348E+02 -0.45020423045E+02 -0.47907562147E+02  0.70233997266E+02  0.47000000000E+01 0.  1.
         -5    1    1    2    0  502  0.86105227881E+02  0.20147432722E+02 -0.46702445164E+02  0.10011612107E+03  0.47000000000E+01 0.  1.
        -11    1    1    2    0    0 -0.31710778543E+02  0.62255429693E+01 -0.57925235190E+02  0.66329961049E+02  0.00000000000E+00 0. -1.
         11    1    1    2    0    0 -0.30130249991E+02  0.18647447354E+02  0.33411497835E+02  0.48702027113E+02  0.00000000000E+00 0.  1.
<mgrwt>
<rscale>  0 0.13369695E+03</rscale>
<asrwt>0</asrwt>
<pdfrwt beam="1">  1        2 0.12789105E-01 0.14166195E+03</pdfrwt>
<pdfrwt beam="2">  1       -2 0.31115835E-01 0.14166195E+03</pdfrwt>
<totfact> 0.43261369E+03</totfact>
</mgrwt>
</event>
<event>
 6    1  0.1045058E-005  0.1750784E+03  0.7546771E-02  0.1178486E+00
         -1   -1    0    0    0  501 -0.00000000000E+00  0.00000000000E+00  0.79270653837E+02  0.79270653837E+02  0.00000000000E+00 0.  1.
          1   -1    0    0  501    0  0.00000000000E+00 -0.00000000000E+00 -0.36810793053E+03  0.36810793053E+03  0.00000000000E+00 0. -1.
          5    1    1    2  502    0 -0.36216802033E+02 -0.41332959996E+02 -0.59425949710E+01  0.55474992263E+02  0.47000000000E+01 0.  1.
         -5    1    1    2    0  502 -0.72559811202E+02 -0.15187204594E+02 -0.20864460463E+03  0.22147288418E+03  0.47000000000E+01 0.  1.
        -11    1    1    2    0    0  0.73404175538E+02  0.49826702463E+02 -0.94094138590E+02  0.12932354844E+03  0.00000000000E+00 0.  1.
         11    1    1    2    0    0  0.35372437696E+02  0.66934621281E+01  0.19844061500E+02  0.41107159482E+02  0.00000000000E+00 0. -1.
<mgrwt>
<rscale>  0 0.16938909E+03</rscale>
<asrwt>0</asrwt>
<pdfrwt beam="2">  1        1 0.56631989E-01 0.17507844E+03</pdfrwt>
<pdfrwt beam="1">  1       -1 0.12195485E-01 0.17507844E+03</pdfrwt>
<totfact> 0.29558416E+03</totfact>
</mgrwt>
</event>
<event>
 6    1  0.1045058E-005  0.1145954E+03  0.7546771E-02  0.1342807E+00
          2   -1    0    0  501    0  0.00000000000E+00  0.00000000000E+00  0.13986227146E+02  0.13986227146E+02  0.00000000000E+00 0.  1.
         -2   -1    0    0    0  501 -0.00000000000E+00 -0.00000000000E+00 -0.33750273228E+03  0.33750273228E+03  0.00000000000E+00 0. -1.
          5    1    1    2  502    0 -0.56819857167E+02 -0.25632873215E+02 -0.16209816802E+03  0.17373383791E+03  0.47000000000E+01 0. -1.
         -5    1    1    2    0  502  0.49879860951E+02  0.60313108532E+01 -0.89841304087E+02  0.10304332661E+03  0.47000000000E+01 0.  1.
        -11    1    1    2    0    0  0.56731320047E+01  0.93029087335E+01 -0.32358945374E+02  0.34144251102E+02  0.00000000000E+00 0.  1.
         11    1    1    2    0    0  0.12668642117E+01  0.10298653628E+02 -0.39218087652E+02  0.40567543807E+02  0.00000000000E+00 0. -1.
<mgrwt>
<rscale>  0 0.75344629E+02</rscale>
<asrwt>0</asrwt>
<pdfrwt beam="1">  1        2 0.21517275E-02 0.11459538E+03</pdfrwt>
<pdfrwt beam="2">  1       -2 0.51923492E-01 0.11459538E+03</pdfrwt>
<totfact> 0.16047246E+04</totfact>
</mgrwt>
</event>
<event>
 6    1  0.1045058E-005  0.2994339E+03  0.7546771E-02  0.1085524E+00
         -2   -1    0    0    0  501 -0.00000000000E+00  0.00000000000E+00  0.27196718613E+03  0.27196718613E+03  0.00000000000E+00 0.  1.
          2   -1    0    0  501    0  0.00000000000E+00 -0.00000000000E+00 -0.82418650099E+02  0.82418650099E+02  0.00000000000E+00 0. -1.
          5    1    1    2  502    0 -0.55590204177E+01  0.49862436177E+01 -0.37754828128E+02  0.38772185654E+02  0.47000000000E+01 0. -1.
         -5    1    1    2    0  502 -0.64667013682E+02 -0.35607125278E+02  0.90854817866E+02  0.11715962597E+03  0.47000000000E+01 0. -1.
        -11    1    1    2    0    0 -0.20356212138E+02 -0.54878475914E+01  0.86227419327E+02  0.88767447229E+02  0.00000000000E+00 0.  1.
         11    1    1    2    0    0  0.90582246238E+02  0.36108729251E+02  0.50221126968E+02  0.10968657737E+03  0.00000000000E+00 0. -1.
<mgrwt>
<rscale>  0 0.29943392E+03</rscale>
<asrwt>0</asrwt>
<pdfrwt beam="2">  1        2 0.12679792E-01 0.29943392E+03</pdfrwt>
<pdfrwt beam="1">  1       -2 0.41841105E-01 0.29943392E+03</pdfrwt>
<totfact> 0.26076117E+03</totfact>
</mgrwt>
</event>
<event>
 6    1  0.1045058E-005  0.1288521E+03  0.7546771E-02  0.1242069E+00
         -2   -1    0    0    0  501 -0.00000000000E+00  0.00000000000E+00  0.78900932463E+02  0.78900932463E+02  0.00000000000E+00 0.  1.
          2   -1    0    0  501    0  0.00000000000E+00 -0.00000000000E+00 -0.16445025075E+03  0.16445025075E+03  0.00000000000E+00 0. -1.
          5    1    1    2  502    0  0.40487190023E+02 -0.30619117870E+01  0.30780105169E+02  0.51167301414E+02  0.47000000000E+01 0. -1.
         -5    1    1    2    0  502 -0.20327014780E+02  0.27231216085E+02 -0.79503975877E+02  0.86589253603E+02  0.47000000000E+01 0. -1.
        -11    1    1    2    0    0 -0.26299572329E+02  0.14110003062E+02  0.20630856087E+02  0.36282115621E+02  0.00000000000E+00 0.  1.
         11    1    1    2    0    0  0.61393970859E+01 -0.38279307359E+02 -0.57456303668E+02  0.69312512577E+02  0.00000000000E+00 0. -1.
<mgrwt>
<rscale>  0 0.12062551E+03</rscale>
<asrwt>0</asrwt>
<pdfrwt beam="2">  1        2 0.25300038E-01 0.12885206E+03</pdfrwt>
<pdfrwt beam="1">  1       -2 0.12138605E-01 0.12885206E+03</pdfrwt>
<totfact> 0.96651173E+03</totfact>
</mgrwt>
</event>
<event>
 6    1  0.1045058E-005  0.1474161E+03  0.7546771E-02  0.1212703E+00
         -2   -1    0    0    0  501 -0.00000000000E+00  0.00000000000E+00  0.13457011298E+02  0.13457011298E+02  0.00000000000E+00 0.  1.
          2   -1    0    0  501    0  0.00000000000E+00 -0.00000000000E+00 -0.13598683525E+04  0.13598683525E+04  0.00000000000E+00 0. -1.
          5    1    1    2  502    0 -0.18787142679E+02 -0.49894867113E+02 -0.63536770739E+03  0.63761796405E+03  0.47000000000E+01 0. -1.
         -5    1    1    2    0  502  0.61182970650E+02 -0.15740268337E+02 -0.17649257242E+03  0.18751754602E+03  0.47000000000E+01 0. -1.
        -11    1    1    2    0    0  0.29243446275E+02  0.27295798116E+02 -0.15974654623E+03  0.16467907814E+03  0.00000000000E+00 0. -1.
         11    1    1    2    0    0 -0.71639274246E+02  0.38339337334E+02 -0.37480451515E+03  0.38351077557E+03  0.00000000000E+00 0.  1.
<mgrwt>
<rscale>  0 0.14046598E+03</rscale>
<asrwt>0</asrwt>
<pdfrwt beam="2">  1        2 0.20921053E+00 0.14741606E+03</pdfrwt>
<pdfrwt beam="1">  1       -2 0.20703093E-02 0.14741606E+03</pdfrwt>
<totfact> 0.11632603E+04</totfact>
</mgrwt>
</event>
<event>
 6    1  0.1045058E-005  0.1589724E+03  0.7546771E-02  0.1197827E+00
         -1   -1    0    0    0  501 -0.00000000000E+00  0.00000000000E+00  0.20686598648E+02  0.20686598648E+02  0.00000000000E+00 0.  1.
          1   -1    0    0  501    0  0.00000000000E+00 -0.00000000000E+00 -0.12099018557E+04  0.12099018557E+04  0.00000000000E+00 0. -1.
          5    1    1    2  502    0 -0.57163163230E+02  0.90373600660E+02 -0.61044856549E+03  0.61976169294E+03  0.47000000000E+01 0.  1.
         -5    1    1    2    0  502 -0.28730957296E+02 -0.42732764300E+02 -0.26256843139E+03  0.26761133798E+03  0.47000000000E+01 0.  1.
        -11    1    1    2    0    0  0.89961886062E+02 -0.14852722882E+02 -0.16567029849E+03  0.18910418325E+03  0.00000000000E+00 0.  1.
         11    1    1    2    0    0 -0.40677655357E+01 -0.32788113478E+02 -0.15052796166E+03  0.15411124016E+03  0.00000000000E+00 0. -1.
<mgrwt>
<rscale>  0 0.15217418E+03</rscale>
<asrwt>0</asrwt>
<pdfrwt beam="2">  1        1 0.18613877E+00 0.15897238E+03</pdfrwt>
<pdfrwt beam="1">  1       -1 0.31825532E-02 0.15897238E+03</pdfrwt>
<totfact> 0.38487358E+03</totfact>
</mgrwt>
</event>
<event>
 6    1  0.1045058E-005  0.1396502E+03  0.7546771E-02  0.1220805E+00
         -1   -1    0    0    0  501 -0.00000000000E+00  0.00000000000E+00  0.71534385711E+02  0.71534385711E+02  0.00000000000E+00 0.  1.
          1   -1    0    0  501    0  0.00000000000E+00 -0.00000000000E+00 -0.33901685997E+03  0.33901685997E+03  0.00000000000E+00 0. -1.
          5    1    1    2  502    0  0.18462677212E+02 -0.79933365491E+02 -0.14915989643E+03  0.17029673536E+03  0.47000000000E+01 0.  1.
         -5    1    1    2    0  502 -0.50717058648E+02  0.26634245194E+02 -0.10414646637E+03  0.11895452707E+03  0.47000000000E+01 0.  1.
        -11    1    1    2    0    0  0.38207347088E+02 -0.21257026844E+02  0.52184306636E+01  0.44032880673E+02  0.00000000000E+00 0. -1.
         11    1    1    2    0    0 -0.59529656517E+01  0.74556147142E+02 -0.19394542123E+02  0.77267102578E+02  0.00000000000E+00 0.  1.
<mgrwt>
<rscale>  0 0.13458597E+03</rscale>
<asrwt>0</asrwt>
<pdfrwt beam="2">  1        1 0.52156439E-01 0.13965020E+03</pdfrwt>
<pdfrwt beam="1">  1       -1 0.11005290E-01 0.13965020E+03</pdfrwt>
<totfact> 0.38037957E+03</totfact>
</mgrwt>
</event>
<event>
 6    1  0.1045058E-005  0.2256559E+03  0.7546771E-02  0.1132944E+00
          1   -1    0    0  501    0  0.00000000000E+00  0.00000000000E+00  0.93009164734E+03  0.93009164734E+03  0.00000000000E+00 0. -1.
         -1   -1    0    0    0  501 -0.00000000000E+00 -0.00000000000E+00 -0.52436859459E+02  0.52436859459E+02  0.00000000000E+00 0.  1.
          5    1    1    2  502    0  0.58473839320E+02  0.75777376252E+02  0.30134144127E+03  0.31621219911E+03  0.47000000000E+01 0.  1.
         -5    1    1    2    0  502  0.12214440769E+03 -0.24090542244E+02  0.24382585421E+03  0.27381151863E+03  0.47000000000E+01 0.  1.
        -11    1    1    2    0    0 -0.69454365273E+02 -0.51627156033E+02  0.85497325478E+02  0.12165140673E+03  0.00000000000E+00 0.  1.
         11    1    1    2    0    0 -0.11116388173E+03 -0.59677974637E-01  0.24699016692E+03  0.27085338232E+03  0.00000000000E+00 0. -1.
<mgrwt>
<rscale>  0 0.22126428E+03</rscale>
<asrwt>0</asrwt>
<pdfrwt beam="1">  1        1 0.14309101E+00 0.22565595E+03</pdfrwt>
<pdfrwt beam="2">  1       -1 0.80672098E-02 0.22565595E+03</pdfrwt>
<totfact> 0.15367003E+03</totfact>
</mgrwt>
</event>
<event>
 6    1  0.1045058E-005  0.3494092E+03  0.7546771E-02  0.1063914E+00
         -4   -1    0    0    0  501 -0.00000000000E+00  0.00000000000E+00  0.17554019859E+04  0.17554019859E+04  0.00000000000E+00 0.  1.
          4   -1    0    0  501    0  0.00000000000E+00 -0.00000000000E+00 -0.11017024031E+03  0.11017024031E+03  0.00000000000E+00 0. -1.
          5    1    1    2  502    0  0.21905107164E+03 -0.27424631157E+02  0.18439563447E+03  0.28767920049E+03  0.47000000000E+01 0.  1.
         -5    1    1    2    0  502  0.10442924577E+03  0.70117513590E+02  0.65496625091E+02  0.14189373130E+03  0.47000000000E+01 0.  1.
        -11    1    1    2    0    0 -0.12989130292E+03 -0.48104517527E+02  0.73100121830E+03  0.74400845179E+03  0.00000000000E+00 0. -1.
         11    1    1    2    0    0 -0.19358901449E+03  0.54116350943E+01  0.66433826773E+03  0.69199084264E+03  0.00000000000E+00 0.  1.
<mgrwt>
<rscale>  0 0.34685293E+03</rscale>
<asrwt>0</asrwt>
<pdfrwt beam="2">  1        4 0.16949269E-01 0.34940916E+03</pdfrwt>
<pdfrwt beam="1">  1       -4 0.27006182E+00 0.34940916E+03</pdfrwt>
<totfact> 0.30133082E+00</totfact>
</mgrwt>
</event>
<event>
 6    1  0.1045058E-005  0.1257313E+03  0.7546771E-02  0.1249137E+00
          2   -1    0    0  501    0  0.00000000000E+00  0.00000000000E+00  0.19389742019E+03  0.19389742019E+03  0.00000000000E+00 0. -1.
         -2   -1    0    0    0  501 -0.00000000000E+00 -0.00000000000E+00 -0.61612721834E+02  0.61612721834E+02  0.00000000000E+00 0.  1.
          5    1    1    2  502    0 -0.51020079612E+01  0.65934288922E+02  0.16126774858E+02  0.68231398991E+02  0.47000000000E+01 0. -1.
         -5    1    1    2    0  502 -0.19438145686E+01 -0.53551640027E+02  0.51786444516E+02  0.74669152937E+02  0.47000000000E+01 0. -1.
        -11    1    1    2    0    0 -0.30844339015E+02  0.11885422401E+02  0.58553404579E+02  0.67239405877E+02  0.00000000000E+00 0. -1.
         11    1    1    2    0    0  0.37890161545E+02 -0.24268071296E+02  0.58180744030E+01  0.45370184219E+02  0.00000000000E+00 0.  1.
<mgrwt>
<rscale>  0 0.11641186E+03</rscale>
<asrwt>0</asrwt>
<pdfrwt beam="1">  1        2 0.29830372E-01 0.12573131E+03</pdfrwt>
<pdfrwt beam="2">  1       -2 0.94788804E-02 0.12573131E+03</pdfrwt>
<totfact> 0.11908844E+04</totfact>
</mgrwt>
</event>
<event>
 6    1  0.1045058E-005  0.1451482E+03  0.7546771E-02  0.1216112E+00
         -3   -1    0    0    0  501 -0.00000000000E+00  0.00000000000E+00  0.47112982093E+03  0.47112982093E+03  0.00000000000E+00 0.  1.
          3   -1    0    0  501    0  0.00000000000E+00 -0.00000000000E+00 -0.52385340907E+02  0.52385340907E+02  0.00000000000E+00 0. -1.
          5    1    1    2  502    0 -0.36183938542E+02 -0.43840508248E+02  0.18985011992E+02  0.60114792291E+02  0.47000000000E+01 0.  1.
         -5    1    1    2    0  502 -0.27369674255E+02  0.81319577419E+02  0.63365168065E+02  0.10676707013E+03  0.47000000000E+01 0.  1.
        -11    1    1    2    0    0  0.55766430543E+02  0.18849549699E+02  0.13310862236E+03  0.14554417077E+03  0.00000000000E+00 0.  1.
         11    1    1    2    0    0  0.77871822539E+01 -0.56328618870E+02  0.20328567761E+03  0.21108912864E+03  0.00000000000E+00 0. -1.
<mgrwt>
<rscale>  0 0.13795143E+03</rscale>
<asrwt>0</asrwt>
<pdfrwt beam="2">  1        3 0.80592835E-02 0.14514821E+03</pdfrwt>
<pdfrwt beam="1">  1       -3 0.72481508E-01 0.14514821E+03</pdfrwt>
<totfact> 0.45603664E+02</totfact>
</mgrwt>
</event>
<event>
 6    1  0.1045058E-005  0.1258925E+03  0.7546771E-02  0.1249943E+00
         -2   -1    0    0    0  501 -0.00000000000E+00  0.00000000000E+00  0.11282090891E+02  0.11282090891E+02  0.00000000000E+00 0.  1.
          2   -1    0    0  501    0  0.00000000000E+00 -0.00000000000E+00 -0.11631720557E+04  0.11631720557E+04  0.00000000000E+00 0. -1.
          5    1    1    2  502    0 -0.12494261374E+02 -0.14143180993E+02 -0.16484384294E+02  0.25494333908E+02  0.47000000000E+01 0. -1.
         -5    1    1    2    0  502  0.20347642395E+02  0.15168493856E+01 -0.83346041062E+03  0.83372337945E+03  0.47000000000E+01 0. -1.
        -11    1    1    2    0    0 -0.88806072884E+01 -0.36383806895E+02 -0.86068138658E+02  0.93863576973E+02  0.00000000000E+00 0.  1.
         11    1    1    2    0    0  0.10272262672E+01  0.49010138502E+02 -0.21587703128E+03  0.22137285629E+03  0.00000000000E+00 0. -1.
<mgrwt>
<rscale>  0 0.11594375E+03</rscale>
<asrwt>0</asrwt>
<pdfrwt beam="2">  1        2 0.17894942E+00 0.12589251E+03</pdfrwt>
<pdfrwt beam="1">  1       -2 0.17357075E-02 0.12589251E+03</pdfrwt>
<totfact> 0.19047705E+04</totfact>
</mgrwt>
</event>
<event>
 6    1  0.1045058E-005  0.1288050E+03  0.7546771E-02  0.1242328E+00
         -1   -1    0    0    0  501 -0.00000000000E+00  0.00000000000E+00  0.61852119508E+02  0.61852119508E+02  0.00000000000E+00 0.  1.
          1   -1    0    0  501    0  0.00000000000E+00 -0.00000000000E+00 -0.35192719556E+03  0.35192719556E+03  0.00000000000E+00 0. -1.
          5    1    1    2  502    0 -0.31856328058E+02  0.61616275839E+02 -0.21312501107E+03  0.22417794590E+03  0.47000000000E+01 0. -1.
         -5    1    1    2    0  502  0.41047996586E+02 -0.31926508184E+02 -0.74550178879E+02  0.91016806796E+02  0.47000000000E+01 0. -1.
        -11    1    1    2    0    0  0.41757434604E+02 -0.19772020809E+02 -0.58176500590E+01  0.46566739243E+02  0.00000000000E+00 0.  1.
         11    1    1    2    0    0 -0.50949103131E+02 -0.99177468465E+01  0.34177639555E+01  0.52017823127E+02  0.00000000000E+00 0. -1.
<mgrwt>
<rscale>  0 0.12046739E+03</rscale>
<asrwt>0</asrwt>
<pdfrwt beam="2">  1        1 0.54142645E-01 0.12880496E+03</pdfrwt>
<pdfrwt beam="1">  1       -1 0.95157108E-02 0.12880496E+03</pdfrwt>
<totfact> 0.45153021E+03</totfact>
</mgrwt>
</event>
<event>
 6    1  0.1045058E-005  0.1480631E+03  0.7546771E-02  0.1213019E+00
          1   -1    0    0  501    0  0.00000000000E+00  0.00000000000E+00  0.62098278651E+03  0.62098278651E+03  0.00000000000E+00 0. -1.
         -1   -1    0    0    0  501 -0.00000000000E+00 -0.00000000000E+00 -0.29336518211E+02  0.29336518211E+02  0.00000000000E+00 0.  1.
          5    1    1    2  502    0  0.50621576363E+02 -0.66772738836E+02  0.32557973234E+03  0.33622224013E+03  0.47000000000E+01 0. -1.
         -5    1    1    2    0  502 -0.42707708643E+02 -0.12166906364E+02  0.47650509746E+02  0.65304234679E+02  0.47000000000E+01 0. -1.
        -11    1    1    2    0    0 -0.35058887304E+02  0.77960851717E+02  0.19506503220E+03  0.21297273714E+03  0.00000000000E+00 0.  1.
         11    1    1    2    0    0  0.27145019584E+02  0.97879348360E+00  0.23350994017E+02  0.35820092776E+02  0.00000000000E+00 0. -1.
<mgrwt>
<rscale>  0 0.14023031E+03</rscale>
<asrwt>0</asrwt>
<pdfrwt beam="1">  1        1 0.95535803E-01 0.14806315E+03</pdfrwt>
<pdfrwt beam="2">  1       -1 0.45133110E-02 0.14806315E+03</pdfrwt>
<totfact> 0.66533147E+03</totfact>
</mgrwt>
</event>
<event>
 6    1  0.1045058E-005  0.2325383E+03  0.7546771E-02  0.1128245E+00
          2   -1    0    0  501    0  0.00000000000E+00  0.00000000000E+00  0.42262025367E+03  0.42262025367E+03  0.00000000000E+00 0. -1.
         -2   -1    0    0    0  501 -0.00000000000E+00 -0.00000000000E+00 -0.14935315892E+03  0.14935315892E+03  0.00000000000E+00 0.  1.
          5    1    1    2  502    0 -0.11855528914E+02 -0.25405095284E+00  0.58429129394E+02  0.59805277940E+02  0.47000000000E+01 0. -1.
         -5    1    1    2    0  502  0.20688283189E+03 -0.20096605366E+02  0.21384558274E+03  0.29825560001E+03  0.47000000000E+01 0. -1.
        -11    1    1    2    0    0 -0.10179438750E+03 -0.12525213998E+02  0.36509482757E+02  0.10886652673E+03  0.00000000000E+00 0. -1.
         11    1    1    2    0    0 -0.93232915479E+02  0.32875870318E+02 -0.35517100138E+02  0.10504600792E+03  0.00000000000E+00 0.  1.
<mgrwt>
<rscale>  0 0.22773448E+03</rscale>
<asrwt>0</asrwt>
<pdfrwt beam="1">  1        2 0.65018500E-01 0.23253833E+03</pdfrwt>
<pdfrwt beam="2">  1       -2 0.22977409E-01 0.23253833E+03</pdfrwt>
<totfact> 0.12382248E+03</totfact>
</mgrwt>
</event>
<event>
 6    1  0.1045058E-005  0.1686787E+03  0.7546771E-02  0.1185650E+00
         -2   -1    0    0    0  501 -0.00000000000E+00  0.00000000000E+00  0.21192013291E+02  0.21192013291E+02  0.00000000000E+00 0.  1.
          2   -1    0    0  501    0  0.00000000000E+00 -0.00000000000E+00 -0.11759472942E+04  0.11759472942E+04  0.00000000000E+00 0. -1.
          5    1    1    2  502    0  0.10883484491E+02  0.43096311862E+02 -0.53350635600E+03  0.53537544231E+03  0.47000000000E+01 0. -1.
         -5    1    1    2    0  502 -0.23662796585E+02  0.69414785126E+02 -0.13099119548E+03  0.15019694947E+03  0.47000000000E+01 0. -1.
        -11    1    1    2    0    0 -0.28463960458E+02 -0.61494512777E+02 -0.35290384148E+03  0.35935065532E+03  0.00000000000E+00 0. -1.
         11    1    1    2    0    0  0.41243272552E+02 -0.51016584211E+02 -0.13735388795E+03  0.15221626040E+03  0.00000000000E+00 0.  1.
<mgrwt>
<rscale>  0 0.16272903E+03</rscale>
<asrwt>0</asrwt>
<pdfrwt beam="2">  1        2 0.18091506E+00 0.16867871E+03</pdfrwt>
<pdfrwt beam="1">  1       -2 0.32603082E-02 0.16867871E+03</pdfrwt>
<totfact> 0.75731180E+03</totfact>
</mgrwt>
</event>
<event>
 6    1  0.1045058E-005  0.3555223E+03  0.7546771E-02  0.1060371E+00
         -1   -1    0    0    0  501 -0.00000000000E+00  0.00000000000E+00  0.17642887274E+03  0.17642887274E+03  0.00000000000E+00 0.  1.
          1   -1    0    0  501    0  0.00000000000E+00 -0.00000000000E+00 -0.17910351823E+03  0.17910351823E+03  0.00000000000E+00 0. -1.
          5    1    1    2  502    0  0.10575601746E+03  0.63238184984E+02 -0.10795924385E+03  0.16389231709E+03  0.47000000000E+01 0.  1.
         -5    1    1    2    0  502 -0.18354446997E+02 -0.14353232479E+02  0.77971504827E+01  0.25015726310E+02  0.47000000000E+01 0.  1.
        -11    1    1    2    0    0 -0.49258853510E+02 -0.74322626441E+02  0.61061650419E+02  0.10806855510E+03  0.00000000000E+00 0. -1.
         11    1    1    2    0    0 -0.38142716953E+02  0.25437673936E+02  0.36425797454E+02  0.58555792472E+02  0.00000000000E+00 0.  1.
<mgrwt>
<rscale>  0 0.35552233E+03</rscale>
<asrwt>0</asrwt>
<pdfrwt beam="2">  1        1 0.27554388E-01 0.35552233E+03</pdfrwt>
<pdfrwt beam="1">  1       -1 0.27142903E-01 0.35552233E+03</pdfrwt>
<totfact> 0.20542421E+03</totfact>
</mgrwt>
</event>
<event>
 6    1  0.1045058E-005  0.1315625E+03  0.7546771E-02  0.1237674E+00
         -2   -1    0    0    0  501 -0.00000000000E+00  0.00000000000E+00  0.26654825714E+02  0.26654825714E+02  0.00000000000E+00 0.  1.
          2   -1    0    0  501    0  0.00000000000E+00 -0.00000000000E+00 -0.56540823593E+03  0.56540823593E+03  0.00000000000E+00 0. -1.
          5    1    1    2  502    0  0.52782314865E+02 -0.67143502904E+01 -0.81680567111E+02  0.97595390803E+02  0.47000000000E+01 0.  1.
         -5    1    1    2    0  502 -0.37907380000E+02  0.44969368527E+02 -0.31073276699E+03  0.31628492858E+03  0.47000000000E+01 0.  1.
        -11    1    1    2    0    0  0.22226535914E+01 -0.51898746823E+02 -0.30380404635E+02  0.60177978502E+02  0.00000000000E+00 0.  1.
         11    1    1    2    0    0 -0.17097588456E+02  0.13643728587E+02 -0.11595967148E+03  0.11800476376E+03  0.00000000000E+00 0. -1.
<mgrwt>
<rscale>  0 0.12334767E+03</rscale>
<asrwt>0</asrwt>
<pdfrwt beam="2">  1        2 0.86985869E-01 0.13156251E+03</pdfrwt>
<pdfrwt beam="1">  1       -2 0.41007430E-02 0.13156251E+03</pdfrwt>
<totfact> 0.13552399E+04</totfact>
</mgrwt>
</event>
<event>
 6    1  0.1045058E-005  0.1269037E+03  0.7546771E-02  0.1245938E+00
         -1   -1    0    0    0  501 -0.00000000000E+00  0.00000000000E+00  0.18520540389E+03  0.18520540389E+03  0.00000000000E+00 0.  1.
          1   -1    0    0  501    0  0.00000000000E+00 -0.00000000000E+00 -0.69508299054E+02  0.69508299054E+02  0.00000000000E+00 0. -1.
          5    1    1    2  502    0  0.65410885300E+01 -0.10683422660E+02  0.84618599034E+02  0.85669823517E+02  0.47000000000E+01 0.  1.
         -5    1    1    2    0  502  0.15238602804E+02  0.13081636832E+02 -0.43159154534E+02  0.47834578055E+02  0.47000000000E+01 0.  1.
        -11    1    1    2    0    0 -0.54339551954E+02 -0.64777040544E+01  0.68860109512E+02  0.87957161382E+02  0.00000000000E+00 0.  1.
         11    1    1    2    0    0  0.32559860620E+02  0.40794898816E+01  0.53775508257E+01  0.33252139994E+02  0.00000000000E+00 0. -1.
<mgrwt>
<rscale>  0 0.11829427E+03</rscale>
<asrwt>0</asrwt>
<pdfrwt beam="2">  1        1 0.10693585E-01 0.12690366E+03</pdfrwt>
<pdfrwt beam="1">  1       -1 0.28493139E-01 0.12690366E+03</pdfrwt>
<totfact> 0.61782778E+03</totfact>
</mgrwt>
</event>
<event>
 6    1  0.1045058E-005  0.2194243E+03  0.7546771E-02  0.1137706E+00
         -1   -1    0    0    0  501 -0.00000000000E+00  0.00000000000E+00  0.42482328383E+03  0.42482328383E+03  0.00000000000E+00 0.  1.
          1   -1    0    0  501    0  0.00000000000E+00 -0.00000000000E+00 -0.10953407994E+03  0.10953407994E+03  0.00000000000E+00 0. -1.
          5    1    1    2  502    0 -0.91001262989E+02  0.98411204025E+02  0.99429854676E+02  0.16695622463E+03  0.47000000000E+01 0. -1.
         -5    1    1    2    0  502  0.28966793886E+02  0.70917337979E+02  0.74375796433E+01  0.77108699672E+02  0.47000000000E+01 0. -1.
        -11    1    1    2    0    0  0.21796785339E+02 -0.14990104457E+03  0.18724894133E+03  0.24084764696E+03  0.00000000000E+00 0.  1.
         11    1    1    2    0    0  0.40237683764E+02 -0.19427497431E+02  0.21172828242E+02  0.49444792515E+02  0.00000000000E+00 0. -1.
<mgrwt>
<rscale>  0 0.21494933E+03</rscale>
<asrwt>0</asrwt>
<pdfrwt beam="2">  1        1 0.16851397E-01 0.21942433E+03</pdfrwt>
<pdfrwt beam="1">  1       -1 0.65357427E-01 0.21942433E+03</pdfrwt>
<totfact> 0.78477388E+02</totfact>
</mgrwt>
</event>
<event>
 6    1  0.1045058E-005  0.2665248E+03  0.7546771E-02  0.1103285E+00
         -2   -1    0    0    0  501 -0.00000000000E+00  0.00000000000E+00  0.10439579808E+02  0.10439579808E+02  0.00000000000E+00 0.  1.
          2   -1    0    0  501    0  0.00000000000E+00 -0.00000000000E+00 -0.17011095882E+04  0.17011095882E+04  0.00000000000E+00 0. -1.
          5    1    1    2  502    0 -0.57523909603E+02  0.26309812071E+02 -0.11616756233E+04  0.11634060126E+04  0.47000000000E+01 0.  1.
         -5    1    1    2    0  502 -0.15831939325E+02 -0.15551919251E+02 -0.32807880580E+02  0.39886833960E+02  0.47000000000E+01 0.  1.
        -11    1    1    2    0    0  0.37961611630E+02 -0.46326315411E+02 -0.26360920913E+03  0.27032762825E+03  0.00000000000E+00 0. -1.
         11    1    1    2    0    0  0.35394237298E+02  0.35568422592E+02 -0.23257729544E+03  0.23792869325E+03  0.00000000000E+00 0.  1.
<mgrwt>
<rscale>  0 0.26652482E+03</rscale>
<asrwt>0</asrwt>
<pdfrwt beam="2">  1        2 0.26170940E+00 0.26652482E+03</pdfrwt>
<pdfrwt beam="1">  1       -2 0.16060878E-02 0.26652482E+03</pdfrwt>
<totfact> 0.11378950E+04</totfact>
</mgrwt>
</event>
<event>
 6    1  0.1045058E-005  0.1252170E+03  0.7546771E-02  0.1252758E+00
         -2   -1    0    0    0  501 -0.00000000000E+00  0.00000000000E+00  0.66600039547E+02  0.66600039547E+02  0.00000000000E+00 0.  1.
          2   -1    0    0  501    0  0.00000000000E+00 -0.00000000000E+00 -0.52313957008E+03  0.52313957008E+03  0.00000000000E+00 0. -1.
          5    1    1    2  502    0 -0.59622839227E+02 -0.68871399649E+01 -0.21806979044E+03  0.22622740585E+03  0.47000000000E+01 0.  1.
         -5    1    1    2    0  502  0.64614205895E+02  0.14777835334E+01 -0.26478455713E+03  0.27259884656E+03  0.47000000000E+01 0.  1.
        -11    1    1    2    0    0 -0.26768839803E+02 -0.31861698542E+02  0.23175469259E+02  0.47632352385E+02  0.00000000000E+00 0.  1.
         11    1    1    2    0    0  0.21777473135E+02  0.37271054974E+02  0.31393477833E+01  0.43281004835E+02  0.00000000000E+00 0. -1.
<mgrwt>
<rscale>  0 0.11432848E+03</rscale>
<asrwt>0</asrwt>
<pdfrwt beam="2">  1        2 0.80483012E-01 0.12521705E+03</pdfrwt>
<pdfrwt beam="1">  1       -2 0.10246160E-01 0.12521705E+03</pdfrwt>
<totfact> 0.36498716E+03</totfact>
</mgrwt>
</event>
<event>
 6    1  0.1045058E-005  0.1553667E+03  0.7546771E-02  0.1202399E+00
         -2   -1    0    0    0  501 -0.00000000000E+00  0.00000000000E+00  0.68719828287E+02  0.68719828287E+02  0.00000000000E+00 0.  1.
          2   -1    0    0  501    0  0.00000000000E+00 -0.00000000000E+00 -0.32351602172E+03  0.32351602172E+03  0.00000000000E+00 0. -1.
          5    1    1    2  502    0  0.73428412741E+02  0.12658452044E+02 -0.21237929270E+03  0.22512001726E+03  0.47000000000E+01 0. -1.
         -5    1    1    2    0  502  0.17901013427E+02  0.55167492437E+00  0.16564816745E+02  0.24844190080E+02  0.47000000000E+01 0. -1.
        -11    1    1    2    0    0 -0.95103343684E+02  0.53379119748E+01 -0.71910638896E+02  0.11934939996E+03  0.00000000000E+00 0.  1.
         11    1    1    2    0    0  0.37739175151E+01 -0.18548038943E+02  0.12928921410E+02  0.22922242710E+02  0.00000000000E+00 0. -1.
<mgrwt>
<rscale>  0 0.14844320E+03</rscale>
<asrwt>0</asrwt>
<pdfrwt beam="2">  1        2 0.49771696E-01 0.15536665E+03</pdfrwt>
<pdfrwt beam="1">  1       -2 0.10572281E-01 0.15536665E+03</pdfrwt>
<totfact> 0.58932332E+03</totfact>
</mgrwt>
</event>
<event>
 6    1  0.1045058E-005  0.2964473E+03  0.7546771E-02  0.1088679E+00
         -2   -1    0    0    0  501 -0.00000000000E+00  0.00000000000E+00  0.20270079988E+03  0.20270079988E+03  0.00000000000E+00 0.  1.
          2   -1    0    0  501    0  0.00000000000E+00 -0.00000000000E+00 -0.41965960761E+03  0.41965960761E+03  0.00000000000E+00 0. -1.
          5    1    1    2  502    0  0.88115126024E+02  0.25222855861E+03 -0.99201011770E+02  0.28503763252E+03  0.47000000000E+01 0. -1.
         -5    1    1    2    0  502 -0.13096563555E+01  0.21745021756E+01 -0.43752617527E+02  0.44077490853E+02  0.47000000000E+01 0. -1.
        -11    1    1    2    0    0  0.31950449348E+01 -0.61594295626E+02  0.13562942146E+02  0.63150763775E+02  0.00000000000E+00 0.  1.
         11    1    1    2    0    0 -0.90000514604E+02 -0.19280876516E+03 -0.87568120581E+02  0.23009452035E+03  0.00000000000E+00 0. -1.
<mgrwt>
<rscale>  0 0.29322160E+03</rscale>
<asrwt>0</asrwt>
<pdfrwt beam="2">  1        2 0.64563017E-01 0.29644734E+03</pdfrwt>
<pdfrwt beam="1">  1       -2 0.31184738E-01 0.29644734E+03</pdfrwt>
<totfact> 0.72344747E+02</totfact>
</mgrwt>
</event>
<event>
 6    1  0.1045058E-005  0.2745308E+03  0.7546771E-02  0.1100743E+00
         -1   -1    0    0    0  501 -0.00000000000E+00  0.00000000000E+00  0.26223883998E+03  0.26223883998E+03  0.00000000000E+00 0.  1.
          1   -1    0    0  501    0  0.00000000000E+00 -0.00000000000E+00 -0.33976184499E+03  0.33976184499E+03  0.00000000000E+00 0. -1.
          5    1    1    2  502    0 -0.11515810798E+03 -0.18665717981E+02 -0.20160691782E+02  0.11848351090E+03  0.47000000000E+01 0.  1.
         -5    1    1    2    0  502 -0.12325692422E+03 -0.35154701908E+02  0.11412703009E+03  0.17168340464E+03  0.47000000000E+01 0.  1.
        -11    1    1    2    0    0  0.66549806677E+02  0.29580376629E+02 -0.77799832948E+01  0.73242088926E+02  0.00000000000E+00 0.  1.
         11    1    1    2    0    0  0.17186522552E+03  0.24240043259E+02 -0.16370936002E+03  0.23859168049E+03  0.00000000000E+00 0. -1.
<mgrwt>
<rscale>  0 0.27093955E+03</rscale>
<asrwt>0</asrwt>
<pdfrwt beam="2">  1        1 0.52271053E-01 0.27453081E+03</pdfrwt>
<pdfrwt beam="1">  1       -1 0.40344437E-01 0.27453081E+03</pdfrwt>
<totfact> 0.45691026E+02</totfact>
</mgrwt>
</event>
<event>
 6    1  0.1045058E-005  0.1469879E+03  0.7546771E-02  0.1213292E+00
         -1   -1    0    0    0  501 -0.00000000000E+00  0.00000000000E+00  0.26686592636E+02  0.26686592636E+02  0.00000000000E+00 0.  1.
          1   -1    0    0  501    0  0.00000000000E+00 -0.00000000000E+00 -0.72797731447E+03  0.72797731447E+03  0.00000000000E+00 0. -1.
          5    1    1    2  502    0 -0.18476487137E+02 -0.28614704413E+02 -0.86190260292E+02  0.92795651055E+02  0.47000000000E+01 0. -1.
         -5    1    1    2    0  502  0.47372903097E+02  0.10035132398E+03 -0.39896495692E+03  0.41413730455E+03  0.47000000000E+01 0. -1.
        -11    1    1    2    0    0  0.31995568534E+02 -0.81408045493E+01 -0.59203509071E+02  0.67786758226E+02  0.00000000000E+00 0. -1.
         11    1    1    2    0    0 -0.60891984494E+02 -0.63595815021E+02 -0.15693199555E+03  0.17994419327E+03  0.00000000000E+00 0.  1.
<mgrwt>
<rscale>  0 0.14002750E+03</rscale>
<asrwt>0</asrwt>
<pdfrwt beam="2">  1        1 0.11199650E+00 0.14698788E+03</pdfrwt>
<pdfrwt beam="1">  1       -1 0.41056299E-02 0.14698788E+03</pdfrwt>
<totfact> 0.61070743E+03</totfact>
</mgrwt>
</event>
<event>
 6    1  0.1045058E-005  0.4157342E+03  0.7546771E-02  0.1038464E+00
          2   -1    0    0  501    0  0.00000000000E+00  0.00000000000E+00  0.21923673690E+04  0.21923673690E+04  0.00000000000E+00 0. -1.
         -2   -1    0    0    0  501 -0.00000000000E+00 -0.00000000000E+00 -0.19708713768E+02  0.19708713768E+02  0.00000000000E+00 0.  1.
          5    1    1    2  502    0  0.12587303664E+03  0.88554427179E+02  0.10486100319E+04  0.10598542338E+04  0.47000000000E+01 0. -1.
         -5    1    1    2    0  502 -0.24372556567E+02  0.32810224792E+02  0.50746734265E+03  0.50913232682E+03  0.47000000000E+01 0.  1.
        -11    1    1    2    0    0 -0.49216321715E+02 -0.64633531570E+02  0.47458690292E+03  0.48148984221E+03  0.00000000000E+00 0. -1.
         11    1    1    2    0    0 -0.52284158362E+02 -0.56731120401E+02  0.14199437784E+03  0.16159968000E+03  0.00000000000E+00 0.  1.
<mgrwt>
<rscale>  0 0.41573425E+03</rscale>
<asrwt>0</asrwt>
<pdfrwt beam="1">  1        2 0.33728709E+00 0.41573425E+03</pdfrwt>
<pdfrwt beam="2">  1       -2 0.30321115E-02 0.41573425E+03</pdfrwt>
<totfact> 0.24286628E+03</totfact>
</mgrwt>
</event>
<event>
 6    1  0.1045058E-005  0.1453490E+03  0.7546771E-02  0.1215961E+00
         -1   -1    0    0    0  501 -0.00000000000E+00  0.00000000000E+00  0.34794242646E+03  0.34794242646E+03  0.00000000000E+00 0.  1.
          1   -1    0    0  501    0  0.00000000000E+00 -0.00000000000E+00 -0.62116031022E+02  0.62116031022E+02  0.00000000000E+00 0. -1.
          5    1    1    2  502    0 -0.38639294059E+02  0.78424484426E+01  0.66068516565E+01  0.40252199092E+02  0.47000000000E+01 0.  1.
         -5    1    1    2    0  502  0.72893312821E+02 -0.73627716909E+02  0.57740180935E+02  0.11870338768E+03  0.47000000000E+01 0.  1.
        -11    1    1    2    0    0 -0.54405177961E+02  0.67274256654E+02  0.21161187107E+03  0.22861612580E+03  0.00000000000E+00 0.  1.
         11    1    1    2    0    0  0.20151159198E+02 -0.14889881880E+01  0.98674917746E+01  0.22486744913E+02  0.00000000000E+00 0. -1.
<mgrwt>
<rscale>  0 0.13806173E+03</rscale>
<asrwt>0</asrwt>
<pdfrwt beam="2">  1        1 0.95563127E-02 0.14534902E+03</pdfrwt>
<pdfrwt beam="1">  1       -1 0.53529603E-01 0.14534902E+03</pdfrwt>
<totfact> 0.23970580E+03</totfact>
</mgrwt>
</event>
<event>
 6    1  0.1045058E-005  0.1310994E+03  0.7546771E-02  0.1238305E+00
          1   -1    0    0  501    0  0.00000000000E+00  0.00000000000E+00  0.11843461399E+03  0.11843461399E+03  0.00000000000E+00 0. -1.
         -1   -1    0    0    0  501 -0.00000000000E+00 -0.00000000000E+00 -0.13292186236E+03  0.13292186236E+03  0.00000000000E+00 0.  1.
          5    1    1    2  502    0 -0.43507872716E+02  0.41902755566E+02  0.46618494804E+01  0.60766756972E+02  0.47000000000E+01 0. -1.
         -5    1    1    2    0  502  0.66916916384E+02 -0.10070271998E+02  0.34224530439E+02  0.75978237412E+02  0.47000000000E+01 0. -1.
        -11    1    1    2    0    0 -0.46153500170E+02 -0.12773607871E+02 -0.66676641267E+02  0.82091930947E+02  0.00000000000E+00 0.  1.
         11    1    1    2    0    0  0.22744456501E+02 -0.19058875697E+02  0.13303012981E+02  0.32519551023E+02  0.00000000000E+00 0. -1.
<mgrwt>
<rscale>  0 0.12295233E+03</rscale>
<asrwt>0</asrwt>
<pdfrwt beam="1">  1        1 0.18220710E-01 0.13109936E+03</pdfrwt>
<pdfrwt beam="2">  1       -1 0.20449517E-01 0.13109936E+03</pdfrwt>
<totfact> 0.53329395E+03</totfact>
</mgrwt>
</event>
<event>
 6    1  0.1045058E-005  0.1575639E+03  0.7546771E-02  0.1199425E+00
          2   -1    0    0  501    0  0.00000000000E+00  0.00000000000E+00  0.21987288795E+03  0.21987288795E+03  0.00000000000E+00 0. -1.
         -2   -1    0    0    0  501 -0.00000000000E+00 -0.00000000000E+00 -0.10149450243E+03  0.10149450243E+03  0.00000000000E+00 0.  1.
          5    1    1    2  502    0 -0.39585197306E+02 -0.24625723053E+02 -0.73138393985E+01  0.47423584095E+02  0.47000000000E+01 0. -1.
         -5    1    1    2    0  502 -0.40317476156E+02  0.77708056910E+02  0.10993478534E+03  0.14061219015E+03  0.47000000000E+01 0. -1.
        -11    1    1    2    0    0  0.78775604140E+02 -0.68444054332E+02  0.33720544663E+02  0.10966886301E+03  0.00000000000E+00 0. -1.
         11    1    1    2    0    0  0.11270693220E+01  0.15361720474E+02 -0.17963105086E+02  0.23662753126E+02  0.00000000000E+00 0.  1.
<mgrwt>
<rscale>  0 0.15085591E+03</rscale>
<asrwt>0</asrwt>
<pdfrwt beam="1">  1        2 0.33826598E-01 0.15756394E+03</pdfrwt>
<pdfrwt beam="2">  1       -2 0.15614539E-01 0.15756394E+03</pdfrwt>
<totfact> 0.47491113E+03</totfact>
</mgrwt>
</event>
<event>
 6    1  0.1045058E-005  0.2763598E+03  0.7546771E-02  0.1097694E+00
          2   -1    0    0  501    0  0.00000000000E+00  0.00000000000E+00  0.10085535069E+03  0.10085535069E+03  0.00000000000E+00 0. -1.
         -2   -1    0    0    0  501 -0.00000000000E+00 -0.00000000000E+00 -0.18931753691E+03  0.18931753691E+03  0.00000000000E+00 0.  1.
          5    1    1    2  502    0 -0.38270136288E+02 -0.77691267192E+02 -0.65503966122E+02  0.10868944708E+03  0.47000000000E+01 0. -1.
         -5    1    1    2    0  502  0.90708294838E+01  0.13203606080E+01  0.41351253690E+02  0.42615014741E+02  0.47000000000E+01 0. -1.
        -11    1    1    2    0    0  0.55136331367E+02  0.69163197322E+02 -0.26274636009E+02  0.92270902227E+02  0.00000000000E+00 0.  1.
         11    1    1    2    0    0 -0.25937024563E+02  0.72077092618E+01 -0.38034837775E+02  0.46597523545E+02  0.00000000000E+00 0. -1.
<mgrwt>
<rscale>  0 0.27635981E+03</rscale>
<asrwt>0</asrwt>
<pdfrwt beam="1">  1        2 0.15516208E-01 0.27635981E+03</pdfrwt>
<pdfrwt beam="2">  1       -2 0.29125775E-01 0.27635981E+03</pdfrwt>
<totfact> 0.40181896E+03</totfact>
</mgrwt>
</event>
<event>
 6    1  0.1045058E-005  0.1698780E+03  0.7546771E-02  0.1184350E+00
         -1   -1    0    0    0  501 -0.00000000000E+00  0.00000000000E+00  0.42192672005E+03  0.42192672005E+03  0.00000000000E+00 0.  1.
          1   -1    0    0  501    0  0.00000000000E+00 -0.00000000000E+00 -0.60006945175E+02  0.60006945175E+02  0.00000000000E+00 0. -1.
          5    1    1    2  502    0  0.19973324620E+02  0.13092660010E+02  0.81706157064E+01  0.25674898316E+02  0.47000000000E+01 0.  1.
         -5    1    1    2    0  502 -0.85393764683E+02 -0.10773089420E+03  0.20572751770E+03  0.24747513441E+03  0.47000000000E+01 0.  1.
        -11    1    1    2    0    0 -0.47524520426E+01  0.97965951375E+01 -0.10927343683E+02  0.15426143934E+02  0.00000000000E+00 0. -1.
         11    1    1    2    0    0  0.70172892105E+02  0.84841639056E+02  0.15894898515E+03  0.19335748857E+03  0.00000000000E+00 0.  1.
<mgrwt>
<rscale>  0 0.16391199E+03</rscale>
<asrwt>0</asrwt>
<pdfrwt beam="2">  1        1 0.92318380E-02 0.16987798E+03</pdfrwt>
<pdfrwt beam="1">  1       -1 0.64911801E-01 0.16987798E+03</pdfrwt>
<totfact> 0.17517834E+03</totfact>
</mgrwt>
</event>
<event>
 6    1  0.1045058E-005  0.1372759E+03  0.7546771E-02  0.1228623E+00
          3   -1    0    0  501    0  0.00000000000E+00  0.00000000000E+00  0.38668570804E+03  0.38668570804E+03  0.00000000000E+00 0. -1.
         -3   -1    0    0    0  501 -0.00000000000E+00 -0.00000000000E+00 -0.44530979153E+02  0.44530979153E+02  0.00000000000E+00 0.  1.
          5    1    1    2  502    0 -0.97045621680E+01  0.39650983814E+02  0.39015408440E+02  0.56662784436E+02  0.47000000000E+01 0. -1.
         -5    1    1    2    0  502  0.63518714229E+02 -0.57584841189E+02  0.22673962741E+03  0.24245327309E+03  0.47000000000E+01 0. -1.
        -11    1    1    2    0    0 -0.30259042265E+02  0.55223823647E+02  0.52189368795E+02  0.81786371433E+02  0.00000000000E+00 0.  1.
         11    1    1    2    0    0 -0.23555109796E+02 -0.37289966272E+02  0.24210324237E+02  0.50314258235E+02  0.00000000000E+00 0. -1.
<mgrwt>
<rscale>  0 0.12921618E+03</rscale>
<asrwt>0</asrwt>
<pdfrwt beam="1">  1        3 0.59490107E-01 0.13727591E+03</pdfrwt>
<pdfrwt beam="2">  1       -3 0.68509201E-02 0.13727591E+03</pdfrwt>
<totfact> 0.89085570E+02</totfact>
</mgrwt>
</event>
<event>
 6    1  0.1045058E-005  0.1269450E+03  0.7546771E-02  0.1248532E+00
         -4   -1    0    0    0  501 -0.00000000000E+00  0.00000000000E+00  0.48457649580E+02  0.48457649580E+02  0.00000000000E+00 0.  1.
          4   -1    0    0  501    0  0.00000000000E+00 -0.00000000000E+00 -0.24498345234E+03  0.24498345234E+03  0.00000000000E+00 0. -1.
          5    1    1    2  502    0  0.48445133850E+02  0.27435716856E+02 -0.12472746324E+03  0.13666996612E+03  0.47000000000E+01 0.  1.
         -5    1    1    2    0  502 -0.35215313864E+02 -0.97295159170E+01  0.57892084038E+01  0.37287890052E+02  0.47000000000E+01 0.  1.
        -11    1    1    2    0    0 -0.70416814336E+01 -0.35640768683E+02  0.32258973461E+01  0.36472675847E+02  0.00000000000E+00 0.  1.
         11    1    1    2    0    0 -0.61881385522E+01  0.17934567744E+02 -0.80813445265E+02  0.83010569896E+02  0.00000000000E+00 0. -1.
<mgrwt>
<rscale>  0 0.11676444E+03</rscale>
<asrwt>0</asrwt>
<pdfrwt beam="2">  1        4 0.37689762E-01 0.12694498E+03</pdfrwt>
<pdfrwt beam="1">  1       -4 0.74550231E-02 0.12694498E+03</pdfrwt>
<totfact> 0.13790994E+03</totfact>
</mgrwt>
</event>
<event>
 6    1  0.1045058E-005  0.1201874E+03  0.7546771E-02  0.1255311E+00
         -1   -1    0    0    0  501 -0.00000000000E+00  0.00000000000E+00  0.89464948125E+02  0.89464948125E+02  0.00000000000E+00 0.  1.
          1   -1    0    0  501    0  0.00000000000E+00 -0.00000000000E+00 -0.12944550746E+03  0.12944550746E+03  0.00000000000E+00 0. -1.
          5    1    1    2  502    0 -0.64444631669E+01 -0.41245260736E+02 -0.49713352389E+02  0.65086173988E+02  0.47000000000E+01 0. -1.
         -5    1    1    2    0  502  0.25167869489E+02  0.28652031765E+02  0.40034039873E+02  0.55490313816E+02  0.47000000000E+01 0.  1.
        -11    1    1    2    0    0 -0.12268477787E+02  0.52090622225E+02 -0.16566564007E+02  0.56021420136E+02  0.00000000000E+00 0.  1.
         11    1    1    2    0    0 -0.64549285350E+01 -0.39497393254E+02 -0.13734682812E+02  0.42312547645E+02  0.00000000000E+00 0. -1.
<mgrwt>
<rscale>  0 0.11288956E+03</rscale>
<asrwt>0</asrwt>
<pdfrwt beam="2">  1        1 0.19914693E-01 0.12018736E+03</pdfrwt>
<pdfrwt beam="1">  1       -1 0.13763838E-01 0.12018736E+03</pdfrwt>
<totfact> 0.88402220E+03</totfact>
</mgrwt>
</event>
<event>
 6    1  0.1045058E-005  0.1863664E+03  0.7546771E-02  0.1166822E+00
         -2   -1    0    0    0  501 -0.00000000000E+00  0.00000000000E+00  0.43706325417E+03  0.43706325417E+03  0.00000000000E+00 0. -1.
          2   -1    0    0  501    0  0.00000000000E+00 -0.00000000000E+00 -0.85702626711E+02  0.85702626711E+02  0.00000000000E+00 0.  1.
          5    1    1    2  502    0  0.32330575426E+02  0.10652097370E+03  0.10482683786E+03  0.15297954073E+03  0.47000000000E+01 0.  1.
         -5    1    1    2    0  502  0.35810143028E+02  0.13746688479E+02 -0.28904061665E+02  0.48258393763E+02  0.47000000000E+01 0.  1.
        -11    1    1    2    0    0 -0.46383157948E+02 -0.16776972978E+02  0.14756793953E+03  0.15559293345E+03  0.00000000000E+00 0.  1.
         11    1    1    2    0    0 -0.21757560505E+02 -0.10349068921E+03  0.12786991173E+03  0.16593501293E+03  0.00000000000E+00 0. -1.
<mgrwt>
<rscale>  0 0.18101742E+03</rscale>
<asrwt>0</asrwt>
<pdfrwt beam="2">  1        2 0.13185020E-01 0.18636641E+03</pdfrwt>
<pdfrwt beam="1">  1       -2 0.67240500E-01 0.18636641E+03</pdfrwt>
<totfact> 0.93724365E+02</totfact>
</mgrwt>
</event>
<event>
 6    1  0.1045058E-005  0.3823048E+03  0.7546771E-02  0.1050085E+00
          1   -1    0    0  501    0  0.00000000000E+00  0.00000000000E+00  0.51095276720E+03  0.51095276720E+03  0.00000000000E+00 0. -1.
         -1   -1    0    0    0  501 -0.00000000000E+00 -0.00000000000E+00 -0.71511963423E+02  0.71511963423E+02  0.00000000000E+00 0.  1.
          5    1    1    2  502    0 -0.31555738797E+02  0.14777951364E+03  0.12992670838E+03  0.19934289266E+03  0.47000000000E+01 0. -1.
         -5    1    1    2    0  502  0.41542817702E+02  0.85900952972E+01  0.81472703825E+02  0.91975469058E+02  0.47000000000E+01 0. -1.
        -11    1    1    2    0    0  0.38796614413E+02 -0.59477558046E+02  0.10899844678E+03  0.13009004036E+03  0.00000000000E+00 0. -1.
         11    1    1    2    0    0 -0.48783693318E+02 -0.96892050890E+02  0.11904294479E+03  0.16105632854E+03  0.00000000000E+00 0.  1.
<mgrwt>
<rscale>  0 0.38230478E+03</rscale>
<asrwt>0</asrwt>
<pdfrwt beam="1">  1        1 0.78608116E-01 0.38230478E+03</pdfrwt>
<pdfrwt beam="2">  1       -1 0.11001841E-01 0.38230478E+03</pdfrwt>
<totfact> 0.23119234E+03</totfact>
</mgrwt>
</event>
<event>
 6    1  0.1045058E-005  0.1966013E+03  0.7546771E-02  0.1174471E+00
         -3   -1    0    0    0  501 -0.00000000000E+00  0.00000000000E+00  0.12276840433E+03  0.12276840433E+03  0.00000000000E+00 0.  1.
          3   -1    0    0  501    0  0.00000000000E+00 -0.00000000000E+00 -0.25077334369E+03  0.25077334369E+03  0.00000000000E+00 0. -1.
          5    1    1    2  502    0  0.20991351064E+02 -0.54282218508E+02 -0.17761484333E+03  0.18696608954E+03  0.47000000000E+01 0. -1.
         -5    1    1    2    0  502 -0.59964449194E+02 -0.10402088123E+02  0.20829274508E+02  0.64497188163E+02  0.47000000000E+01 0.  1.
        -11    1    1    2    0    0 -0.10888641508E+02  0.29143642032E+02  0.48612129392E+02  0.57715279682E+02  0.00000000000E+00 0.  1.
         11    1    1    2    0    0  0.49861739638E+02  0.35540664599E+02 -0.19831499925E+02  0.64363190639E+02  0.00000000000E+00 0. -1.
<mgrwt>
<rscale>  0 0.17327869E+03</rscale>
<asrwt>0</asrwt>
<pdfrwt beam="2">  1        3 0.38580514E-01 0.19660129E+03</pdfrwt>
<pdfrwt beam="1">  1       -3 0.18887447E-01 0.19660129E+03</pdfrwt>
<totfact> 0.40320729E+02</totfact>
</mgrwt>
</event>
<event>
 6    1  0.1045058E-005  0.1281648E+03  0.7546771E-02  0.1243550E+00
          2   -1    0    0  501    0  0.00000000000E+00  0.00000000000E+00  0.53369156410E+03  0.53369156410E+03  0.00000000000E+00 0. -1.
         -2   -1    0    0    0  501 -0.00000000000E+00 -0.00000000000E+00 -0.24475139975E+02  0.24475139975E+02  0.00000000000E+00 0.  1.
          5    1    1    2  502    0 -0.23739530611E+02  0.39256643322E+02  0.20753439710E+03  0.21259648477E+03  0.47000000000E+01 0. -1.
         -5    1    1    2    0  502  0.21355848699E+02 -0.67463709075E+02  0.12398759436E+03  0.14283710257E+03  0.47000000000E+01 0. -1.
        -11    1    1    2    0    0 -0.34260743309E+02  0.30264338836E+02  0.14983979117E+03  0.15665788124E+03  0.00000000000E+00 0. -1.
         11    1    1    2    0    0  0.36644425221E+02 -0.20572730834E+01  0.27854641491E+02  0.46075235484E+02  0.00000000000E+00 0.  1.
<mgrwt>
<rscale>  0 0.11972556E+03</rscale>
<asrwt>0</asrwt>
<pdfrwt beam="1">  1        2 0.82106386E-01 0.12816475E+03</pdfrwt>
<pdfrwt beam="2">  1       -2 0.37654066E-02 0.12816475E+03</pdfrwt>
<totfact> 0.16367993E+04</totfact>
</mgrwt>
</event>
<event>
 6    1  0.1045058E-005  0.1813313E+03  0.7546771E-02  0.1171778E+00
          2   -1    0    0  501    0  0.00000000000E+00  0.00000000000E+00  0.12517009206E+04  0.12517009206E+04  0.00000000000E+00 0. -1.
         -2   -1    0    0    0  501 -0.00000000000E+00 -0.00000000000E+00 -0.25626215600E+02  0.25626215600E+02  0.00000000000E+00 0.  1.
          5    1    1    2  502    0 -0.50815385576E+02  0.10915956074E+03  0.81549914760E+03  0.82435366370E+03  0.47000000000E+01 0. -1.
         -5    1    1    2    0  502  0.14917995211E+02  0.17201038817E+02  0.20220481222E+02  0.30812013539E+02  0.47000000000E+01 0. -1.
        -11    1    1    2    0    0 -0.91366740357E+01 -0.31500636923E+02  0.22913594883E+02  0.40010020863E+02  0.00000000000E+00 0.  1.
         11    1    1    2    0    0  0.45034064401E+02 -0.94859962634E+02  0.36744148133E+03  0.38215143813E+03  0.00000000000E+00 0. -1.
<mgrwt>
<rscale>  0 0.17595349E+03</rscale>
<asrwt>0</asrwt>
<pdfrwt beam="1">  1        2 0.19256932E+00 0.18133129E+03</pdfrwt>
<pdfrwt beam="2">  1       -2 0.39424957E-02 0.18133129E+03</pdfrwt>
<totfact> 0.51906785E+03</totfact>
</mgrwt>
</event>
<event>
 6    1  0.1045058E-005  0.1327767E+03  0.7546771E-02  0.1236290E+00
          2   -1    0    0  501    0  0.00000000000E+00  0.00000000000E+00  0.33145753474E+03  0.33145753474E+03  0.00000000000E+00 0. -1.
         -2   -1    0    0    0  501 -0.00000000000E+00 -0.00000000000E+00 -0.56585006469E+02  0.56585006469E+02  0.00000000000E+00 0.  1.
          5    1    1    2  502    0  0.21245974992E+02 -0.40233692570E+02  0.23340665224E+03  0.23784637223E+03  0.47000000000E+01 0. -1.
         -5    1    1    2    0  502 -0.42017641873E+02  0.56857484839E+00  0.16977096897E+02  0.45564430480E+02  0.47000000000E+01 0. -1.
        -11    1    1    2    0    0  0.18019405104E+02  0.51882614497E+02 -0.19971615292E+02  0.58441167551E+02  0.00000000000E+00 0.  1.
         11    1    1    2    0    0  0.27522617772E+01 -0.12217496776E+02  0.44460394423E+02  0.46190570949E+02  0.00000000000E+00 0. -1.
<mgrwt>
<rscale>  0 0.12422216E+03</rscale>
<asrwt>0</asrwt>
<pdfrwt beam="1">  1        2 0.50993466E-01 0.13277673E+03</pdfrwt>
<pdfrwt beam="2">  1       -2 0.87053858E-02 0.13277673E+03</pdfrwt>
<totfact> 0.77132004E+03</totfact>
</mgrwt>
</event>
<event>
 6    1  0.1045058E-005  0.1428283E+03  0.7546771E-02  0.1219855E+00
          1   -1    0    0  501    0  0.00000000000E+00  0.00000000000E+00  0.55687528899E+02  0.55687528899E+02  0.00000000000E+00 0. -1.
         -1   -1    0    0    0  501 -0.00000000000E+00 -0.00000000000E+00 -0.29994273765E+03  0.29994273765E+03  0.00000000000E+00 0.  1.
          5    1    1    2  502    0 -0.13047229344E+02 -0.15102036482E+02 -0.94956894137E+02  0.97145269796E+02  0.47000000000E+01 0.  1.
         -5    1    1    2    0  502  0.20764400766E+02  0.83749134298E+02 -0.26619263449E+02  0.90419870722E+02  0.47000000000E+01 0.  1.
        -11    1    1    2    0    0 -0.31290264042E+02 -0.63693181060E+02 -0.38972137643E+02  0.80961283648E+02  0.00000000000E+00 0. -1.
         11    1    1    2    0    0  0.23573092620E+02 -0.49539167555E+01 -0.83706913524E+02  0.87103842387E+02  0.00000000000E+00 0.  1.
<mgrwt>
<rscale>  0 0.13525860E+03</rscale>
<asrwt>0</asrwt>
<pdfrwt beam="1">  1        1 0.85673120E-02 0.14282829E+03</pdfrwt>
<pdfrwt beam="2">  1       -1 0.46145038E-01 0.14282829E+03</pdfrwt>
<totfact> 0.36338413E+03</totfact>
</mgrwt>
</event>
<event>
 6    1  0.1045058E-005  0.2760954E+03  0.7546771E-02  0.1097841E+00
         -1   -1    0    0    0  501 -0.00000000000E+00  0.00000000000E+00  0.27805424236E+03  0.27805424236E+03  0.00000000000E+00 0.  1.
          1   -1    0    0  501    0  0.00000000000E+00 -0.00000000000E+00 -0.68537591233E+02  0.68537591233E+02  0.00000000000E+00 0. -1.
          5    1    1    2  502    0  0.10714921293E+02  0.70019802241E+01  0.11919962606E+03  0.11997698995E+03  0.47000000000E+01 0.  1.
         -5    1    1    2    0  502  0.62715019301E+02 -0.51051141487E+02  0.14905604156E+02  0.82362975470E+02  0.47000000000E+01 0.  1.
        -11    1    1    2    0    0 -0.34221032252E+02  0.55038875975E+02  0.80353706323E+02  0.10323311018E+03  0.00000000000E+00 0.  1.
         11    1    1    2    0    0 -0.39208908342E+02 -0.10989714711E+02 -0.49422854056E+01  0.41018757999E+02  0.00000000000E+00 0. -1.
<mgrwt>
<rscale>  0 0.27609540E+03</rscale>
<asrwt>0</asrwt>
<pdfrwt beam="2">  1        1 0.10544245E-01 0.27609540E+03</pdfrwt>
<pdfrwt beam="1">  1       -1 0.42777575E-01 0.27609540E+03</pdfrwt>
<totfact> 0.32538267E+03</totfact>
</mgrwt>
</event>
<event>
 6    1  0.1045058E-005  0.1490605E+03  0.7546771E-02  0.1210205E+00
          2   -1    0    0  501    0  0.00000000000E+00  0.00000000000E+00  0.17351041664E+03  0.17351041664E+03  0.00000000000E+00 0. -1.
         -2   -1    0    0    0  501 -0.00000000000E+00 -0.00000000000E+00 -0.12090023824E+03  0.12090023824E+03  0.00000000000E+00 0.  1.
          5    1    1    2  502    0 -0.54262836456E+01 -0.16982975231E+02  0.67662835013E+02  0.70129988193E+02  0.47000000000E+01 0.  1.
         -5    1    1    2    0  502 -0.12374296517E+02  0.96454739119E+02  0.97834818365E+01  0.97849100301E+02  0.47000000000E+01 0.  1.
        -11    1    1    2    0    0 -0.28471392283E+02  0.26505414350E+01 -0.13066333063E+02  0.31438425663E+02  0.00000000000E+00 0. -1.
         11    1    1    2    0    0  0.46271972446E+02 -0.82122305323E+02 -0.11769805392E+02  0.94993140724E+02  0.00000000000E+00 0.  1.
<mgrwt>
<rscale>  0 0.14234740E+03</rscale>
<asrwt>0</asrwt>
<pdfrwt beam="1">  1        2 0.26693910E-01 0.14906053E+03</pdfrwt>
<pdfrwt beam="2">  1       -2 0.18600037E-01 0.14906053E+03</pdfrwt>
<totfact> 0.45784124E+03</totfact>
</mgrwt>
</event>
<event>
 6    1  0.1045058E-005  0.1285294E+03  0.7546771E-02  0.1245076E+00
          2   -1    0    0  501    0  0.00000000000E+00  0.00000000000E+00  0.21754020679E+04  0.21754020679E+04  0.00000000000E+00 0. -1.
         -2   -1    0    0    0  501 -0.00000000000E+00 -0.00000000000E+00 -0.10282709189E+02  0.10282709189E+02  0.00000000000E+00 0.  1.
          5    1    1    2  502    0  0.46711269576E+02 -0.25295545017E+02  0.11462042395E+04  0.11474441407E+04  0.47000000000E+01 0.  1.
         -5    1    1    2    0  502 -0.41062033053E+02  0.54625463133E+02  0.75570983540E+03  0.75880793162E+03  0.47000000000E+01 0.  1.
        -11    1    1    2    0    0  0.23881338948E+02 -0.54185323413E-01  0.15979830440E+02  0.28734583116E+02  0.00000000000E+00 0.  1.
         11    1    1    2    0    0 -0.29530575470E+02 -0.29275732792E+02  0.24722545340E+03  0.25069812171E+03  0.00000000000E+00 0. -1.
<mgrwt>
<rscale>  0 0.11880833E+03</rscale>
<asrwt>0</asrwt>
<pdfrwt beam="1">  1        2 0.33467688E+00 0.12852943E+03</pdfrwt>
<pdfrwt beam="2">  1       -2 0.15819570E-02 0.12852943E+03</pdfrwt>
<totfact> 0.64914639E+03</totfact>
</mgrwt>
</event>
<event>
 6    1  0.1045058E-005  0.1390321E+03  0.7546771E-02  0.1225843E+00
          1   -1    0    0  501    0  0.00000000000E+00  0.00000000000E+00  0.14150553424E+04  0.14150553424E+04  0.00000000000E+00 0.  1.
         -1   -1    0    0    0  501 -0.00000000000E+00 -0.00000000000E+00 -0.15156631691E+02  0.15156631691E+02  0.00000000000E+00 0. -1.
          5    1    1    2  502    0 -0.31262965596E+02  0.72908541622E+02  0.10465050821E+04  0.10495179872E+04  0.47000000000E+01 0. -1.
         -5    1    1    2    0  502 -0.10853852404E+02 -0.29152309872E+02  0.87611218013E+02  0.93088553564E+02  0.47000000000E+01 0. -1.
        -11    1    1    2    0    0 -0.18236069323E+02 -0.26368263902E+02  0.17047735919E+03  0.17346575905E+03  0.00000000000E+00 0.  1.
         11    1    1    2    0    0  0.60352887322E+02 -0.17387967848E+02  0.95305051351E+02  0.11413967429E+03  0.00000000000E+00 0. -1.
<mgrwt>
<rscale>  0 0.13109296E+03</rscale>
<asrwt>0</asrwt>
<pdfrwt beam="1">  1        1 0.21770072E+00 0.13903210E+03</pdfrwt>
<pdfrwt beam="2">  1       -1 0.23317906E-02 0.13903210E+03</pdfrwt>
<totfact> 0.43961799E+03</totfact>
</mgrwt>
</event>
<event>
 6    1  0.1045058E-005  0.1301947E+03  0.7546771E-02  0.1241024E+00
          2   -1    0    0  501    0  0.00000000000E+00  0.00000000000E+00  0.69755888338E+03  0.69755888338E+03  0.00000000000E+00 0.  1.
         -2   -1    0    0    0  501 -0.00000000000E+00 -0.00000000000E+00 -0.19109540534E+02  0.19109540534E+02  0.00000000000E+00 0. -1.
          5    1    1    2  502    0  0.21004532908E+02 -0.23803156567E+02  0.32227261204E+02  0.45480402702E+02  0.47000000000E+01 0. -1.
         -5    1    1    2    0  502 -0.51102459353E+02  0.44275475634E+02  0.40814823178E+03  0.41373765625E+03  0.47000000000E+01 0. -1.
        -11    1    1    2    0    0  0.32225104630E+02 -0.41805177515E+02  0.22750531702E+03  0.23354828089E+03  0.00000000000E+00 0.  1.
         11    1    1    2    0    0 -0.21271781853E+01  0.21332858448E+02  0.10568532849E+02  0.23902084076E+02  0.00000000000E+00 0. -1.
<mgrwt>
<rscale>  0 0.12126556E+03</rscale>
<asrwt>0</asrwt>
<pdfrwt beam="1">  1        2 0.10731673E+00 0.13019467E+03</pdfrwt>
<pdfrwt beam="2">  1       -2 0.29399299E-02 0.13019467E+03</pdfrwt>
<totfact> 0.17382072E+04</totfact>
</mgrwt>
</event>
<event>
 6    1  0.1045058E-005  0.1387339E+03  0.7546771E-02  0.1226417E+00
         -2   -1    0    0    0  501 -0.00000000000E+00  0.00000000000E+00  0.96309578408E+01  0.96309578408E+01  0.00000000000E+00 0.  1.
          2   -1    0    0  501    0  0.00000000000E+00 -0.00000000000E+00 -0.19839353447E+04  0.19839353447E+04  0.00000000000E+00 0. -1.
          5    1    1    2  502    0  0.35459852852E+02  0.15372043152E+02 -0.19529320095E+03  0.19913619765E+03  0.47000000000E+01 0.  1.
         -5    1    1    2    0  502 -0.29746408304E+02 -0.75242029670E+02 -0.13239652296E+04  0.13264434518E+04  0.47000000000E+01 0.  1.
        -11    1    1    2    0    0 -0.26056320240E+00 -0.23596580530E+02 -0.67179253154E+02  0.71203360597E+02  0.00000000000E+00 0.  1.
         11    1    1    2    0    0 -0.54528813458E+01  0.83466567048E+02 -0.38786670314E+03  0.39678329241E+03  0.00000000000E+00 0. -1.
<mgrwt>
<rscale>  0 0.13070245E+03</rscale>
<asrwt>0</asrwt>
<pdfrwt beam="2">  1        2 0.30522092E+00 0.13873388E+03</pdfrwt>
<pdfrwt beam="1">  1       -2 0.14816854E-02 0.13873388E+03</pdfrwt>
<totfact> 0.89626996E+03</totfact>
</mgrwt>
</event>
<event>
 6    1  0.1045058E-005  0.1469962E+03  0.7546771E-02  0.1209641E+00
          1   -1    0    0  501    0  0.00000000000E+00  0.00000000000E+00  0.21736130532E+04  0.21736130532E+04  0.00000000000E+00 0. -1.
         -1   -1    0    0    0  501 -0.00000000000E+00 -0.00000000000E+00 -0.12775801387E+02  0.12775801387E+02  0.00000000000E+00 0.  1.
          5    1    1    2  502    0  0.54218951048E+02 -0.23553958461E+02  0.15830686491E+04  0.15841789424E+04  0.47000000000E+01 0. -1.
         -5    1    1    2    0  502  0.37096425056E+02  0.10409475554E+02  0.14417622122E+03  0.14930966043E+03  0.47000000000E+01 0.  1.
        -11    1    1    2    0    0 -0.12946110316E+02  0.12388669499E+02  0.71120472049E+01  0.19278540394E+02  0.00000000000E+00 0. -1.
         11    1    1    2    0    0 -0.78369265788E+02  0.75581340780E+00  0.42648033424E+03  0.43362171137E+03  0.00000000000E+00 0.  1.
<mgrwt>
<rscale>  0 0.14277621E+03</rscale>
<asrwt>0</asrwt>
<pdfrwt beam="1">  1        1 0.33440172E+00 0.14699624E+03</pdfrwt>
<pdfrwt beam="2">  1       -1 0.19655096E-02 0.14699624E+03</pdfrwt>
<totfact> 0.18389337E+03</totfact>
</mgrwt>
</event>
<event>
 6    1  0.1045058E-005  0.3353489E+03  0.7546771E-02  0.1068794E+00
         -1   -1    0    0    0  501 -0.00000000000E+00  0.00000000000E+00  0.38851075756E+02  0.38851075756E+02  0.00000000000E+00 0.  1.
          1   -1    0    0  501    0  0.00000000000E+00 -0.00000000000E+00 -0.72365351691E+03  0.72365351691E+03  0.00000000000E+00 0. -1.
          5    1    1    2  502    0 -0.11546622726E+03  0.69919259815E+01 -0.23692128247E+03  0.26369512842E+03  0.47000000000E+01 0.  1.
         -5    1    1    2    0  502  0.75239346080E+01  0.38700124877E+00 -0.25708574205E+03  0.25723904861E+03  0.47000000000E+01 0.  1.
        -11    1    1    2    0    0  0.67031321247E+02  0.42502337050E+02 -0.75998012762E+02  0.10988787297E+03  0.00000000000E+00 0.  1.
         11    1    1    2    0    0  0.40910971400E+02 -0.49881264280E+02 -0.11479740387E+03  0.13168254266E+03  0.00000000000E+00 0. -1.
<mgrwt>
<rscale>  0 0.33534888E+03</rscale>
<asrwt>0</asrwt>
<pdfrwt beam="2">  1        1 0.11133130E+00 0.33534888E+03</pdfrwt>
<pdfrwt beam="1">  1       -1 0.59770891E-02 0.33534888E+03</pdfrwt>
<totfact> 0.36155486E+03</totfact>
</mgrwt>
</event>
<event>
 6    1  0.1045058E-005  0.1848933E+03  0.7546771E-02  0.1168397E+00
         -1   -1    0    0    0  501 -0.00000000000E+00  0.00000000000E+00  0.84279472359E+02  0.84279472359E+02  0.00000000000E+00 0.  1.
          1   -1    0    0  501    0  0.00000000000E+00 -0.00000000000E+00 -0.49332794337E+03  0.49332794337E+03  0.00000000000E+00 0. -1.
          5    1    1    2  502    0 -0.41392380500E+01  0.60362117375E+02 -0.33755829665E+02  0.69442526898E+02  0.47000000000E+01 0.  1.
         -5    1    1    2    0  502 -0.13912632600E+02  0.74677749287E+02 -0.32932138624E+03  0.33800146896E+03  0.47000000000E+01 0.  1.
        -11    1    1    2    0    0 -0.37300954757E+02 -0.55214238685E+02 -0.21033678136E+02  0.69874093878E+02  0.00000000000E+00 0. -1.
         11    1    1    2    0    0  0.55352825407E+02 -0.79825627977E+02 -0.24937576967E+02  0.10028932599E+03  0.00000000000E+00 0.  1.
<mgrwt>
<rscale>  0 0.17938795E+03</rscale>
<asrwt>0</asrwt>
<pdfrwt beam="2">  1        1 0.75896607E-01 0.18489333E+03</pdfrwt>
<pdfrwt beam="1">  1       -1 0.12966073E-01 0.18489333E+03</pdfrwt>
<totfact> 0.18475079E+03</totfact>
</mgrwt>
</event>
<event>
 6    1  0.1045058E-005  0.4688218E+03  0.7546771E-02  0.1022253E+00
         -2   -1    0    0    0  501 -0.00000000000E+00  0.00000000000E+00  0.13833158750E+03  0.13833158750E+03  0.00000000000E+00 0.  1.
          2   -1    0    0  501    0  0.00000000000E+00 -0.00000000000E+00 -0.39722284441E+03  0.39722284441E+03  0.00000000000E+00 0. -1.
          5    1    1    2  502    0  0.45126401992E+02  0.46397853865E+01 -0.80727328581E+02  0.92719530548E+02  0.47000000000E+01 0. -1.
         -5    1    1    2    0  502  0.21763411265E+02 -0.16321155943E+03 -0.18653973111E+03  0.24885903738E+03  0.47000000000E+01 0. -1.
        -11    1    1    2    0    0 -0.20106964683E+02  0.63812200080E+02  0.46668252093E+02  0.81573357546E+02  0.00000000000E+00 0.  1.
         11    1    1    2    0    0 -0.46782848574E+02  0.94759573966E+02 -0.38292449309E+02  0.11240250644E+03  0.00000000000E+00 0. -1.
<mgrwt>
<rscale>  0 0.46882179E+03</rscale>
<asrwt>0</asrwt>
<pdfrwt beam="2">  1        2 0.61111207E-01 0.46882179E+03</pdfrwt>
<pdfrwt beam="1">  1       -2 0.21281783E-01 0.46882179E+03</pdfrwt>
<totfact> 0.15279761E+03</totfact>
</mgrwt>
</event>
<event>
 6    1  0.1045058E-005  0.1314438E+03  0.7546771E-02  0.1239171E+00
         -2   -1    0    0    0  501 -0.00000000000E+00  0.00000000000E+00  0.71133913904E+02  0.71133913904E+02  0.00000000000E+00 0.  1.
          2   -1    0    0  501    0  0.00000000000E+00 -0.00000000000E+00 -0.19884841078E+03  0.19884841078E+03  0.00000000000E+00 0. -1.
          5    1    1    2  502    0 -0.31456016274E+02  0.19112887917E+02  0.18282438788E+02  0.41365698500E+02  0.47000000000E+01 0. -1.
         -5    1    1    2    0  502  0.20252761389E+02  0.19968563461E+02 -0.12402802308E+03  0.12733404251E+03  0.47000000000E+01 0. -1.
        -11    1    1    2    0    0 -0.21224794311E+02 -0.10569920041E+02  0.27041107120E+02  0.35964379287E+02  0.00000000000E+00 0.  1.
         11    1    1    2    0    0  0.32428049196E+02 -0.28511531338E+02 -0.49010019696E+02  0.65318204388E+02  0.00000000000E+00 0. -1.
<mgrwt>
<rscale>  0 0.12241161E+03</rscale>
<asrwt>0</asrwt>
<pdfrwt beam="2">  1        2 0.30592063E-01 0.13144381E+03</pdfrwt>
<pdfrwt beam="1">  1       -2 0.10943679E-01 0.13144381E+03</pdfrwt>
<totfact> 0.92798019E+03</totfact>
</mgrwt>
</event>
<event>
 6    1  0.1045058E-005  0.3066877E+03  0.7546771E-02  0.1081944E+00
         -2   -1    0    0    0  501 -0.00000000000E+00  0.00000000000E+00  0.36697563011E+02  0.36697563011E+02  0.00000000000E+00 0.  1.
          2   -1    0    0  501    0  0.00000000000E+00 -0.00000000000E+00 -0.64076019170E+03  0.64076019170E+03  0.00000000000E+00 0. -1.
          5    1    1    2  502    0 -0.35367925560E+02  0.45328535249E+02 -0.14207492513E+03  0.15333929900E+03  0.47000000000E+01 0. -1.
         -5    1    1    2    0  502  0.30932407138E+02 -0.38499752128E+02 -0.69415751767E+02  0.85321048509E+02  0.47000000000E+01 0.  1.
        -11    1    1    2    0    0  0.72030164901E+02 -0.72206807625E+02 -0.20241631259E+03  0.22665950526E+03  0.00000000000E+00 0.  1.
         11    1    1    2    0    0 -0.67594646479E+02  0.65378024504E+02 -0.19015563920E+03  0.21213790194E+03  0.00000000000E+00 0. -1.
<mgrwt>
<rscale>  0 0.30668771E+03</rscale>
<asrwt>0</asrwt>
<pdfrwt beam="2">  1        2 0.98578491E-01 0.30668771E+03</pdfrwt>
<pdfrwt beam="1">  1       -2 0.56457789E-02 0.30668771E+03</pdfrwt>
<totfact> 0.75898088E+03</totfact>
</mgrwt>
</event>
<event>
 6    1  0.1045058E-005  0.1382795E+03  0.7546771E-02  0.1234175E+00
         -2   -1    0    0    0  501 -0.00000000000E+00  0.00000000000E+00  0.71173724643E+02  0.71173724643E+02  0.00000000000E+00 0.  1.
          2   -1    0    0  501    0  0.00000000000E+00 -0.00000000000E+00 -0.33006893320E+03  0.33006893320E+03  0.00000000000E+00 0. -1.
          5    1    1    2  502    0  0.74425102211E+02 -0.19178690299E+02 -0.87570990169E+02  0.11660911765E+03  0.47000000000E+01 0.  1.
         -5    1    1    2    0  502 -0.17258168043E+02  0.34204350175E+02 -0.18554816035E+03  0.18952042567E+03  0.47000000000E+01 0.  1.
        -11    1    1    2    0    0  0.11198550399E+02  0.13205687824E+02  0.12088622361E+02  0.21117114209E+02  0.00000000000E+00 0.  1.
         11    1    1    2    0    0 -0.68365484568E+02 -0.28231347700E+02  0.21353195978E+01  0.73996000317E+02  0.00000000000E+00 0. -1.
<mgrwt>
<rscale>  0 0.12557426E+03</rscale>
<asrwt>0</asrwt>
<pdfrwt beam="2">  1        2 0.50779836E-01 0.13827952E+03</pdfrwt>
<pdfrwt beam="1">  1       -2 0.10949804E-01 0.13827952E+03</pdfrwt>
<totfact> 0.54203263E+03</totfact>
</mgrwt>
</event>
<event>
 6    1  0.1045058E-005  0.1240987E+03  0.7546771E-02  0.1247627E+00
         -2   -1    0    0    0  501 -0.00000000000E+00  0.00000000000E+00  0.13864751917E+02  0.13864751917E+02  0.00000000000E+00 0.  1.
          2   -1    0    0  501    0  0.00000000000E+00 -0.00000000000E+00 -0.11638616282E+04  0.11638616282E+04  0.00000000000E+00 0. -1.
          5    1    1    2  502    0 -0.10169008553E+00 -0.23591278634E+02 -0.84444534819E+03  0.84478789933E+03  0.47000000000E+01 0. -1.
         -5    1    1    2    0  502 -0.30919597119E+02 -0.84686269877E+01 -0.60528704173E+02  0.68655321410E+02  0.47000000000E+01 0.  1.
        -11    1    1    2    0    0  0.42600041773E+02 -0.16598115129E+02 -0.15119955671E+03  0.15796064995E+03  0.00000000000E+00 0.  1.
         11    1    1    2    0    0 -0.11578754568E+02  0.48658020751E+02 -0.93823267210E+02  0.10632250943E+03  0.00000000000E+00 0. -1.
<mgrwt>
<rscale>  0 0.11729532E+03</rscale>
<asrwt>0</asrwt>
<pdfrwt beam="2">  1        2 0.17905571E+00 0.12409868E+03</pdfrwt>
<pdfrwt beam="1">  1       -2 0.21330379E-02 0.12409868E+03</pdfrwt>
<totfact> 0.14108489E+04</totfact>
</mgrwt>
</event>
<event>
 6    1  0.1045058E-005  0.1198049E+03  0.7546771E-02  0.1248416E+00
          1   -1    0    0  501    0  0.00000000000E+00  0.00000000000E+00  0.82671276367E+03  0.82671276367E+03  0.00000000000E+00 0. -1.
         -1   -1    0    0    0  501 -0.00000000000E+00 -0.00000000000E+00 -0.34608235674E+02  0.34608235674E+02  0.00000000000E+00 0.  1.
          5    1    1    2  502    0 -0.18628782851E+02 -0.44264844304E+02  0.56585212310E+03  0.56790591052E+03  0.47000000000E+01 0. -1.
         -5    1    1    2    0  502  0.47861054025E+02  0.14143150717E+02  0.15703658108E+03  0.16484321946E+03  0.47000000000E+01 0.  1.
        -11    1    1    2    0    0  0.36063743284E+02  0.43970678863E+01  0.12775102525E+02  0.38511440251E+02  0.00000000000E+00 0. -1.
         11    1    1    2    0    0 -0.65296014458E+02  0.25724625700E+02  0.56440721292E+02  0.90060429110E+02  0.00000000000E+00 0.  1.
<mgrwt>
<rscale>  0 0.11683256E+03</rscale>
<asrwt>0</asrwt>
<pdfrwt beam="1">  1        1 0.12718656E+00 0.11980488E+03</pdfrwt>
<pdfrwt beam="2">  1       -1 0.53243446E-02 0.11980488E+03</pdfrwt>
<totfact> 0.34151044E+03</totfact>
</mgrwt>
</event>
<event>
 6    1  0.1045058E-005  0.1851756E+03  0.7546771E-02  0.1167983E+00
          1   -1    0    0  501    0  0.00000000000E+00  0.00000000000E+00  0.32478436896E+03  0.32478436896E+03  0.00000000000E+00 0. -1.
         -1   -1    0    0    0  501 -0.00000000000E+00 -0.00000000000E+00 -0.96442110611E+02  0.96442110611E+02  0.00000000000E+00 0.  1.
          5    1    1    2  502    0  0.24741912562E+02  0.13434413450E+02  0.33791540547E+02  0.44233515738E+02  0.47000000000E+01 0.  1.
         -5    1    1    2    0  502 -0.14982973547E+03  0.41490080443E+02  0.11901692308E+03  0.19585069412E+03  0.47000000000E+01 0.  1.
        -11    1    1    2    0    0  0.12923350707E+03 -0.64766154962E+02  0.84288240257E+02  0.16733338466E+03  0.00000000000E+00 0. -1.
         11    1    1    2    0    0 -0.41456841626E+01  0.98416610694E+01 -0.87544455380E+01  0.13808885055E+02  0.00000000000E+00 0.  1.
<mgrwt>
<rscale>  0 0.17981393E+03</rscale>
<asrwt>0</asrwt>
<pdfrwt beam="1">  1        1 0.49966826E-01 0.18517560E+03</pdfrwt>
<pdfrwt beam="2">  1       -1 0.14837248E-01 0.18517560E+03</pdfrwt>
<totfact> 0.25504908E+03</totfact>
</mgrwt>
</event>
<event>
 6    1  0.1045058E-005  0.3865286E+03  0.7546771E-02  0.1048547E+00
          2   -1    0    0  501    0  0.00000000000E+00  0.00000000000E+00  0.14446775977E+04  0.14446775977E+04  0.00000000000E+00 0. -1.
         -2   -1    0    0    0  501 -0.00000000000E+00 -0.00000000000E+00 -0.25854273967E+02  0.25854273967E+02  0.00000000000E+00 0.  1.
          5    1    1    2  502    0 -0.10786865491E+02  0.23368344751E+02  0.29712494895E+03  0.29827464071E+03  0.47000000000E+01 0.  1.
         -5    1    1    2    0  502  0.15178239157E+03 -0.24056625040E+02  0.73460386586E+03  0.75052084937E+03  0.47000000000E+01 0.  1.
        -11    1    1    2    0    0 -0.30953574308E+02  0.39716048607E+02  0.10573248294E+03  0.11711040188E+03  0.00000000000E+00 0. -1.
         11    1    1    2    0    0 -0.11004195177E+03 -0.39027768318E+02  0.28136202599E+03  0.30462597972E+03  0.00000000000E+00 0.  1.
<mgrwt>
<rscale>  0 0.38652860E+03</rscale>
<asrwt>0</asrwt>
<pdfrwt beam="1">  1        2 0.22225803E+00 0.38652860E+03</pdfrwt>
<pdfrwt beam="2">  1       -2 0.39775817E-02 0.38652860E+03</pdfrwt>
<totfact> 0.40596827E+03</totfact>
</mgrwt>
</event>
<event>
 6    1  0.1045058E-005  0.5400616E+03  0.7546771E-02  0.1003821E+00
          2   -1    0    0  501    0  0.00000000000E+00  0.00000000000E+00  0.14027145037E+04  0.14027145037E+04  0.00000000000E+00 0. -1.
         -2   -1    0    0    0  501 -0.00000000000E+00 -0.00000000000E+00 -0.51982526919E+02  0.51982526919E+02  0.00000000000E+00 0.  1.
          5    1    1    2  502    0 -0.55758435778E+02  0.24525956119E+03  0.61047184081E+03  0.66027207569E+03  0.47000000000E+01 0.  1.
         -5    1    1    2    0  502  0.18108581444E+02 -0.12834120815E+01  0.10851558024E+03  0.11012397115E+03  0.47000000000E+01 0.  1.
        -11    1    1    2    0    0  0.26992573870E+02 -0.16242359828E+02  0.46004145622E+02  0.55756566531E+02  0.00000000000E+00 0.  1.
         11    1    1    2    0    0  0.10657280464E+02 -0.22773378928E+03  0.58574041013E+03  0.62854441725E+03  0.00000000000E+00 0. -1.
<mgrwt>
<rscale>  0 0.54006164E+03</rscale>
<asrwt>0</asrwt>
<pdfrwt beam="1">  1        2 0.21580220E+00 0.54006164E+03</pdfrwt>
<pdfrwt beam="2">  1       -2 0.79973129E-02 0.54006164E+03</pdfrwt>
<totfact> 0.14435564E+03</totfact>
</mgrwt>
</event>
<event>
 6    1  0.1045058E-005  0.3910030E+03  0.7546771E-02  0.1046940E+00
          2   -1    0    0  501    0  0.00000000000E+00  0.00000000000E+00  0.13222064777E+03  0.13222064777E+03  0.00000000000E+00 0. -1.
         -2   -1    0    0    0  501 -0.00000000000E+00 -0.00000000000E+00 -0.28906863503E+03  0.28906863503E+03  0.00000000000E+00 0.  1.
          5    1    1    2  502    0  0.16629588424E+03 -0.89795097281E+01 -0.60393850278E+02  0.17721303525E+03  0.47000000000E+01 0. -1.
         -5    1    1    2    0  502 -0.11233987377E+02 -0.35283366386E+02 -0.10382824626E+02  0.38742889194E+02  0.47000000000E+01 0. -1.
        -11    1    1    2    0    0 -0.12135156336E+03 -0.12855267942E+01 -0.85872018998E+02  0.14866693699E+03  0.00000000000E+00 0.  1.
         11    1    1    2    0    0 -0.33710333511E+02  0.45548402908E+02 -0.19929335571E+00  0.56666421369E+02  0.00000000000E+00 0. -1.
<mgrwt>
<rscale>  0 0.39100303E+03</rscale>
<asrwt>0</asrwt>
<pdfrwt beam="1">  1        2 0.20341638E-01 0.39100303E+03</pdfrwt>
<pdfrwt beam="2">  1       -2 0.44472097E-01 0.39100303E+03</pdfrwt>
<totfact> 0.13292226E+03</totfact>
</mgrwt>
</event>
<event>
 6    1  0.1045058E-005  0.2456627E+03  0.7546771E-02  0.1116077E+00
         -4   -1    0    0    0  501 -0.00000000000E+00  0.00000000000E+00  0.18641425280E+03  0.18641425280E+03  0.00000000000E+00 0.  1.
          4   -1    0    0  501    0  0.00000000000E+00 -0.00000000000E+00 -0.80935529443E+02  0.80935529443E+02  0.00000000000E+00 0. -1.
          5    1    1    2  502    0  0.16712896141E+02  0.66195609383E+02  0.58521868050E+02  0.90044870143E+02  0.47000000000E+01 0. -1.
         -5    1    1    2    0  502 -0.15397239570E+02 -0.18610736758E+02 -0.38008776739E+02  0.45279041711E+02  0.47000000000E+01 0. -1.
        -11    1    1    2    0    0  0.40376470682E+02 -0.15902540807E+02  0.17907997576E+02  0.46945144222E+02  0.00000000000E+00 0. -1.
         11    1    1    2    0    0 -0.41692127253E+02 -0.31682331818E+02  0.67057634469E+02  0.85080726166E+02  0.00000000000E+00 0.  1.
<mgrwt>
<rscale>  0 0.24566267E+03</rscale>
<asrwt>0</asrwt>
<pdfrwt beam="2">  1        4 0.12451620E-01 0.24566267E+03</pdfrwt>
<pdfrwt beam="1">  1       -4 0.28679116E-01 0.24566267E+03</pdfrwt>
<totfact> 0.11145334E+03</totfact>
</mgrwt>
</event>
<event>
 6    1  0.1045058E-005  0.1279968E+03  0.7546771E-02  0.1242317E+00
          2   -1    0    0  501    0  0.00000000000E+00  0.00000000000E+00  0.17199306227E+03  0.17199306227E+03  0.00000000000E+00 0. -1.
         -2   -1    0    0    0  501 -0.00000000000E+00 -0.00000000000E+00 -0.10505794388E+03  0.10505794388E+03  0.00000000000E+00 0.  1.
          5    1    1    2  502    0 -0.54320296208E+02  0.50527312768E+02  0.67847667072E+02  0.10064342921E+03  0.47000000000E+01 0. -1.
         -5    1    1    2    0  502  0.47651087717E+02 -0.23809951866E+02  0.41174956807E+02  0.67490792235E+02  0.47000000000E+01 0. -1.
        -11    1    1    2    0    0 -0.18528506786E+02 -0.29741029646E+02 -0.65566998373E+02  0.74342892625E+02  0.00000000000E+00 0.  1.
         11    1    1    2    0    0  0.25197715278E+02  0.30236687446E+01  0.23479492877E+02  0.34573892081E+02  0.00000000000E+00 0. -1.
<mgrwt>
<rscale>  0 0.12047415E+03</rscale>
<asrwt>0</asrwt>
<pdfrwt beam="1">  1        2 0.26460471E-01 0.12799681E+03</pdfrwt>
<pdfrwt beam="2">  1       -2 0.16162761E-01 0.12799681E+03</pdfrwt>
<totfact> 0.57830916E+03</totfact>
</mgrwt>
</event>
<event>
 6    1  0.1045058E-005  0.2288141E+03  0.7546771E-02  0.1130794E+00
         -2   -1    0    0    0  501 -0.00000000000E+00  0.00000000000E+00  0.37254146432E+02  0.37254146432E+02  0.00000000000E+00 0.  1.
          2   -1    0    0  501    0  0.00000000000E+00 -0.00000000000E+00 -0.13095351805E+04  0.13095351805E+04  0.00000000000E+00 0. -1.
          5    1    1    2  502    0  0.41147272983E+02  0.19913010543E+02 -0.47616140400E+02  0.66174110417E+02  0.47000000000E+01 0. -1.
         -5    1    1    2    0  502  0.15041903104E+03 -0.14076680772E+02 -0.67890267903E+03  0.69552496391E+03  0.47000000000E+01 0. -1.
        -11    1    1    2    0    0 -0.99135230981E+02 -0.43753233883E+02 -0.32963669733E+03  0.34699062196E+03  0.00000000000E+00 0.  1.
         11    1    1    2    0    0 -0.92431073040E+02  0.37916904113E+02 -0.21612551730E+03  0.23809963064E+03  0.00000000000E+00 0. -1.
<mgrwt>
<rscale>  0 0.22419483E+03</rscale>
<asrwt>0</asrwt>
<pdfrwt beam="2">  1        2 0.20146693E+00 0.22881408E+03</pdfrwt>
<pdfrwt beam="1">  1       -2 0.57314077E-02 0.22881408E+03</pdfrwt>
<totfact> 0.27490362E+03</totfact>
</mgrwt>
</event>
<event>
 6    1  0.1045058E-005  0.1428272E+03  0.7546771E-02  0.1217137E+00
         -1   -1    0    0    0  501 -0.00000000000E+00  0.00000000000E+00  0.47625703905E+02  0.47625703905E+02  0.00000000000E+00 0.  1.
          1   -1    0    0  501    0  0.00000000000E+00 -0.00000000000E+00 -0.38607332059E+03  0.38607332059E+03  0.00000000000E+00 0. -1.
          5    1    1    2  502    0 -0.58753387840E+02  0.70651535854E+02 -0.15273888337E+03  0.17831112302E+03  0.47000000000E+01 0. -1.
         -5    1    1    2    0  502  0.50470691145E+02 -0.20473899377E+01 -0.77238344962E+02  0.92408519102E+02  0.47000000000E+01 0. -1.
        -11    1    1    2    0    0  0.50668148720E+02 -0.16152593998E+02 -0.58409018260E+02  0.78992284444E+02  0.00000000000E+00 0. -1.
         11    1    1    2    0    0 -0.42385452025E+02 -0.52451551919E+02 -0.50061370091E+02  0.83987097922E+02  0.00000000000E+00 0.  1.
<mgrwt>
<rscale>  0 0.13720749E+03</rscale>
<asrwt>0</asrwt>
<pdfrwt beam="2">  1        1 0.59395895E-01 0.14282717E+03</pdfrwt>
<pdfrwt beam="1">  1       -1 0.73270314E-02 0.14282717E+03</pdfrwt>
<totfact> 0.60045226E+03</totfact>
</mgrwt>
</event>
<event>
 6    1  0.1045058E-005  0.1273885E+03  0.7546771E-02  0.1245743E+00
         -2   -1    0    0    0  501 -0.00000000000E+00  0.00000000000E+00  0.37406677983E+03  0.37406677983E+03  0.00000000000E+00 0.  1.
          2   -1    0    0  501    0  0.00000000000E+00 -0.00000000000E+00 -0.36036847741E+02  0.36036847741E+02  0.00000000000E+00 0. -1.
          5    1    1    2  502    0 -0.23701694686E+02 -0.46597255830E+02  0.92938998033E+02  0.10673716287E+03  0.47000000000E+01 0.  1.
         -5    1    1    2    0  502  0.48229440206E+02  0.45325994693E+02  0.40453336512E+02  0.77711563699E+02  0.47000000000E+01 0.  1.
        -11    1    1    2    0    0 -0.13655161145E+02 -0.39698541500E+02  0.15399036972E+03  0.15961037432E+03  0.00000000000E+00 0.  1.
         11    1    1    2    0    0 -0.10872584376E+02  0.40969802636E+02  0.50647227825E+02  0.66044526688E+02  0.00000000000E+00 0. -1.
<mgrwt>
<rscale>  0 0.11841048E+03</rscale>
<asrwt>0</asrwt>
<pdfrwt beam="2">  1        2 0.55441307E-02 0.12738845E+03</pdfrwt>
<pdfrwt beam="1">  1       -2 0.57548733E-01 0.12738845E+03</pdfrwt>
<totfact> 0.37498106E+03</totfact>
</mgrwt>
</event>
<event>
 6    1  0.1045058E-005  0.3439804E+03  0.7546771E-02  0.1065113E+00
          1   -1    0    0  501    0  0.00000000000E+00  0.00000000000E+00  0.11225673271E+03  0.11225673271E+03  0.00000000000E+00 0. -1.
         -1   -1    0    0    0  501 -0.00000000000E+00 -0.00000000000E+00 -0.26350871950E+03  0.26350871950E+03  0.00000000000E+00 0.  1.
          5    1    1    2  502    0 -0.11310771449E+03 -0.82826089574E+02  0.97260048967E+01  0.14060654808E+03  0.47000000000E+01 0.  1.
         -5    1    1    2    0  502  0.18882267879E+02  0.65780213601E+01 -0.27490434946E+02  0.34316532733E+02  0.47000000000E+01 0.  1.
        -11    1    1    2    0    0  0.28050741185E+02  0.74568865991E+02 -0.49083069531E+02  0.93576212633E+02  0.00000000000E+00 0. -1.
         11    1    1    2    0    0  0.66174705422E+02  0.16792022227E+01 -0.84404487209E+02  0.10726615878E+03  0.00000000000E+00 0.  1.
<mgrwt>
<rscale>  0 0.34398039E+03</rscale>
<asrwt>0</asrwt>
<pdfrwt beam="1">  1        1 0.17270267E-01 0.34398039E+03</pdfrwt>
<pdfrwt beam="2">  1       -1 0.40539803E-01 0.34398039E+03</pdfrwt>
<totfact> 0.18708892E+03</totfact>
</mgrwt>
</event>
<event>
 6    1  0.1045058E-005  0.2185734E+03  0.7546771E-02  0.1138268E+00
          1   -1    0    0  501    0  0.00000000000E+00  0.00000000000E+00  0.49150335915E+03  0.49150335915E+03  0.00000000000E+00 0. -1.
         -1   -1    0    0    0  501 -0.00000000000E+00 -0.00000000000E+00 -0.12836125517E+03  0.12836125517E+03  0.00000000000E+00 0.  1.
          5    1    1    2  502    0 -0.56940675835E+01  0.56717523978E+02  0.40124109129E+02  0.69866544678E+02  0.47000000000E+01 0.  1.
         -5    1    1    2    0  502 -0.13512174126E+03  0.54276141364E+02  0.31627457556E+03  0.34821757800E+03  0.47000000000E+01 0.  1.
        -11    1    1    2    0    0  0.93103279137E+02 -0.98671874500E+02 -0.31656951574E+02  0.13930729337E+03  0.00000000000E+00 0.  1.
         11    1    1    2    0    0  0.47712529705E+02 -0.12321790842E+02  0.38400370860E+02  0.62473198274E+02  0.00000000000E+00 0. -1.
<mgrwt>
<rscale>  0 0.21421853E+03</rscale>
<asrwt>0</asrwt>
<pdfrwt beam="1">  1        1 0.75615901E-01 0.21857335E+03</pdfrwt>
<pdfrwt beam="2">  1       -1 0.19747886E-01 0.21857335E+03</pdfrwt>
<totfact> 0.95265067E+02</totfact>
</mgrwt>
</event>
<event>
 6    1  0.1045058E-005  0.1328091E+03  0.7546771E-02  0.1236622E+00
         -1   -1    0    0    0  501 -0.00000000000E+00  0.00000000000E+00  0.61632902835E+02  0.61632902835E+02  0.00000000000E+00 0.  1.
          1   -1    0    0  501    0  0.00000000000E+00 -0.00000000000E+00 -0.25757722163E+03  0.25757722163E+03  0.00000000000E+00 0. -1.
          5    1    1    2  502    0 -0.42415081862E+02  0.93287568964E+01 -0.45302908358E+02  0.62932570107E+02  0.47000000000E+01 0. -1.
         -5    1    1    2    0  502  0.86819995441E+02 -0.15783282480E+02 -0.12326424303E+03  0.15166735715E+03  0.47000000000E+01 0. -1.
        -11    1    1    2    0    0 -0.23176959306E+02  0.13104606064E+02  0.31750340729E+02  0.41436533146E+02  0.00000000000E+00 0.  1.
         11    1    1    2    0    0 -0.21227954273E+02 -0.66500804804E+01 -0.59127508130E+02  0.63173664060E+02  0.00000000000E+00 0. -1.
<mgrwt>
<rscale>  0 0.12401171E+03</rscale>
<asrwt>0</asrwt>
<pdfrwt beam="2">  1        1 0.39627264E-01 0.13280905E+03</pdfrwt>
<pdfrwt beam="1">  1       -1 0.94819852E-02 0.13280905E+03</pdfrwt>
<totfact> 0.66928904E+03</totfact>
</mgrwt>
</event>
<event>
 6    1  0.1045058E-005  0.1374851E+03  0.7546771E-02  0.1229612E+00
          2   -1    0    0  501    0  0.00000000000E+00  0.00000000000E+00  0.47336078164E+03  0.47336078164E+03  0.00000000000E+00 0. -1.
         -2   -1    0    0    0  501 -0.00000000000E+00 -0.00000000000E+00 -0.34746126711E+02  0.34746126711E+02  0.00000000000E+00 0.  1.
          5    1    1    2  502    0  0.26672482574E+02  0.70327090064E+02  0.13720431648E+03  0.15653892610E+03  0.47000000000E+01 0. -1.
         -5    1    1    2    0  502 -0.53314067335E+02 -0.19662846338E+02  0.19014437413E+03  0.19850942122E+03  0.47000000000E+01 0. -1.
        -11    1    1    2    0    0  0.27545227632E+02 -0.60732124278E+02  0.12154791598E+03  0.13863991620E+03  0.00000000000E+00 0. -1.
         11    1    1    2    0    0 -0.90364287073E+00  0.10067880552E+02 -0.10281951649E+02  0.14418644838E+02  0.00000000000E+00 0.  1.
<mgrwt>
<rscale>  0 0.12855721E+03</rscale>
<asrwt>0</asrwt>
<pdfrwt beam="1">  1        2 0.72824731E-01 0.13748514E+03</pdfrwt>
<pdfrwt beam="2">  1       -2 0.53455583E-02 0.13748514E+03</pdfrwt>
<totfact> 0.11126163E+04</totfact>
</mgrwt>
</event>
<event>
 6    1  0.1045058E-005  0.3565783E+03  0.7546771E-02  0.1059947E+00
         -1   -1    0    0    0  501 -0.00000000000E+00  0.00000000000E+00  0.49896875133E+03  0.49896875133E+03  0.00000000000E+00 0.  1.
          1   -1    0    0  501    0  0.00000000000E+00 -0.00000000000E+00 -0.63705416730E+02  0.63705416730E+02  0.00000000000E+00 0. -1.
          5    1    1    2  502    0 -0.22767911439E+01 -0.59019496864E+02  0.17778033329E+03  0.18739376108E+03  0.47000000000E+01 0.  1.
         -5    1    1    2    0  502  0.67394307032E+02 -0.60851124402E+02  0.42735840764E+02  0.10046538731E+03  0.47000000000E+01 0.  1.
        -11    1    1    2    0    0 -0.70188798630E+02  0.36772877966E+02  0.61088746295E+02  0.10005272076E+03  0.00000000000E+00 0. -1.
         11    1    1    2    0    0  0.50712827416E+01  0.83097743300E+02  0.15365841425E+03  0.17476229891E+03  0.00000000000E+00 0.  1.
<mgrwt>
<rscale>  0 0.35657825E+03</rscale>
<asrwt>0</asrwt>
<pdfrwt beam="2">  1        1 0.98008337E-02 0.35657825E+03</pdfrwt>
<pdfrwt beam="1">  1       -1 0.76764421E-01 0.35657825E+03</pdfrwt>
<totfact> 0.11755313E+03</totfact>
</mgrwt>
</event>
<event>
 6    1  0.1045058E-005  0.3641498E+03  0.7546771E-02  0.1056953E+00
         -1   -1    0    0    0  501 -0.00000000000E+00  0.00000000000E+00  0.48780802133E+02  0.48780802133E+02  0.00000000000E+00 0.  1.
          1   -1    0    0  501    0  0.00000000000E+00 -0.00000000000E+00 -0.67959656264E+03  0.67959656264E+03  0.00000000000E+00 0. -1.
          5    1    1    2  502    0  0.51122164106E+02  0.30139633607E+02 -0.53755808312E+02  0.80210037427E+02  0.47000000000E+01 0.  1.
         -5    1    1    2    0  502 -0.49570746877E+02  0.10959052024E+03 -0.23579335913E+03  0.26474126856E+03  0.47000000000E+01 0.  1.
        -11    1    1    2    0    0  0.27097162035E+02 -0.65122890950E+02 -0.65303830565E+02  0.96124072960E+02  0.00000000000E+00 0.  1.
         11    1    1    2    0    0 -0.28648579264E+02 -0.74607262892E+02 -0.27596276250E+03  0.28730198582E+03  0.00000000000E+00 0. -1.
<mgrwt>
<rscale>  0 0.36414978E+03</rscale>
<asrwt>0</asrwt>
<pdfrwt beam="2">  1        1 0.10455331E+00 0.36414978E+03</pdfrwt>
<pdfrwt beam="1">  1       -1 0.75047395E-02 0.36414978E+03</pdfrwt>
<totfact> 0.28050849E+03</totfact>
</mgrwt>
</event>
<event>
 6    1  0.1045058E-005  0.3193371E+03  0.7546771E-02  0.1075955E+00
          2   -1    0    0  501    0  0.00000000000E+00  0.00000000000E+00  0.13037770091E+04  0.13037770091E+04  0.00000000000E+00 0.  1.
         -2   -1    0    0    0  501 -0.00000000000E+00 -0.00000000000E+00 -0.19553998115E+02  0.19553998115E+02  0.00000000000E+00 0. -1.
          5    1    1    2  502    0 -0.65644622977E+02 -0.10168322619E+03  0.74192777742E+03  0.75174970031E+03  0.47000000000E+01 0.  1.
         -5    1    1    2    0  502  0.37041879271E+02  0.60220752299E+01  0.20555889723E+03  0.20900936927E+03  0.47000000000E+01 0.  1.
        -11    1    1    2    0    0 -0.14841227810E+02  0.65956817782E+02  0.26568988536E+03  0.27415630403E+03  0.00000000000E+00 0.  1.
         11    1    1    2    0    0  0.43443971516E+02  0.29704333177E+02  0.71046450971E+02  0.88415633607E+02  0.00000000000E+00 0. -1.
<mgrwt>
<rscale>  0 0.31933715E+03</rscale>
<asrwt>0</asrwt>
<pdfrwt beam="1">  1        2 0.20058101E+00 0.31933715E+03</pdfrwt>
<pdfrwt beam="2">  1       -2 0.30083084E-02 0.31933715E+03</pdfrwt>
<totfact> 0.73854901E+03</totfact>
</mgrwt>
</event>
<event>
 6    1  0.1045058E-005  0.1453989E+03  0.7546771E-02  0.1215841E+00
          2   -1    0    0  501    0  0.00000000000E+00  0.00000000000E+00  0.69842468233E+02  0.69842468233E+02  0.00000000000E+00 0. -1.
         -2   -1    0    0    0  501 -0.00000000000E+00 -0.00000000000E+00 -0.28175461469E+03  0.28175461469E+03  0.00000000000E+00 0.  1.
          5    1    1    2  502    0  0.18266062727E+02  0.43995028733E+02 -0.14405442246E+02  0.49988182274E+02  0.47000000000E+01 0.  1.
         -5    1    1    2    0  502 -0.91614255723E+02 -0.32437377593E+02 -0.41700773680E+02  0.10586028454E+03  0.47000000000E+01 0.  1.
        -11    1    1    2    0    0  0.49779401521E+01 -0.37420958791E+02 -0.89186103501E+02  0.96846626698E+02  0.00000000000E+00 0.  1.
         11    1    1    2    0    0  0.68370252844E+02  0.25863307651E+02 -0.66619827034E+02  0.98901989417E+02  0.00000000000E+00 0. -1.
<mgrwt>
<rscale>  0 0.13814958E+03</rscale>
<asrwt>0</asrwt>
<pdfrwt beam="1">  1        2 0.10744995E-01 0.14539889E+03</pdfrwt>
<pdfrwt beam="2">  1       -2 0.43346864E-01 0.14539889E+03</pdfrwt>
<totfact> 0.28806028E+03</totfact>
</mgrwt>
</event>
<event>
 6    1  0.1045058E-005  0.1412625E+03  0.7546771E-02  0.1222652E+00
         -4   -1    0    0    0  501 -0.00000000000E+00  0.00000000000E+00  0.52391360013E+02  0.52391360013E+02  0.00000000000E+00 0.  1.
          4   -1    0    0  501    0  0.00000000000E+00 -0.00000000000E+00 -0.31113233340E+03  0.31113233340E+03  0.00000000000E+00 0. -1.
          5    1    1    2  502    0 -0.41377129723E+02 -0.49722639279E+02 -0.87827887377E+02  0.10917983111E+03  0.47000000000E+01 0.  1.
         -5    1    1    2    0  502  0.75293916345E+02 -0.66706884943E+01 -0.79408616660E+02  0.10973372464E+03  0.47000000000E+01 0.  1.
        -11    1    1    2    0    0 -0.44270738916E+02  0.40011607035E+02 -0.95947912261E+01  0.60439118461E+02  0.00000000000E+00 0.  1.
         11    1    1    2    0    0  0.10353952295E+02  0.16381720739E+02 -0.81909678120E+02  0.84171019194E+02  0.00000000000E+00 0. -1.
<mgrwt>
<rscale>  0 0.13329171E+03</rscale>
<asrwt>0</asrwt>
<pdfrwt beam="2">  1        4 0.47866514E-01 0.14126251E+03</pdfrwt>
<pdfrwt beam="1">  1       -4 0.80602091E-02 0.14126251E+03</pdfrwt>
<totfact> 0.77137899E+02</totfact>
</mgrwt>
</event>
<event>
 6    1  0.1045058E-005  0.2270101E+03  0.7546771E-02  0.1131948E+00
         -2   -1    0    0    0  501 -0.00000000000E+00  0.00000000000E+00  0.14620223499E+03  0.14620223499E+03  0.00000000000E+00 0.  1.
          2   -1    0    0  501    0  0.00000000000E+00 -0.00000000000E+00 -0.35484988635E+03  0.35484988635E+03  0.00000000000E+00 0. -1.
          5    1    1    2  502    0 -0.13947437262E+03  0.68390772616E+01 -0.98981950929E+02  0.17122905771E+03  0.47000000000E+01 0. -1.
         -5    1    1    2    0  502 -0.28027877766E+02  0.81749860219E+02 -0.79893879236E+02  0.11778677140E+03  0.47000000000E+01 0. -1.
        -11    1    1    2    0    0  0.28414190943E+02 -0.21918315553E+02  0.29844753687E+02  0.46674276923E+02  0.00000000000E+00 0.  1.
         11    1    1    2    0    0  0.13908805944E+03 -0.66670621928E+02 -0.59616574876E+02  0.16536201531E+03  0.00000000000E+00 0. -1.
<mgrwt>
<rscale>  0 0.22261555E+03</rscale>
<asrwt>0</asrwt>
<pdfrwt beam="2">  1        2 0.54592289E-01 0.22701010E+03</pdfrwt>
<pdfrwt beam="1">  1       -2 0.22492652E-01 0.22701010E+03</pdfrwt>
<totfact> 0.15531088E+03</totfact>
</mgrwt>
</event>
<event>
 6    1  0.1045058E-005  0.1488287E+03  0.7546771E-02  0.1211970E+00
          2   -1    0    0  501    0  0.00000000000E+00  0.00000000000E+00  0.77486397289E+03  0.77486397289E+03  0.00000000000E+00 0. -1.
         -2   -1    0    0    0  501 -0.00000000000E+00 -0.00000000000E+00 -0.24339198017E+02  0.24339198017E+02  0.00000000000E+00 0.  1.
          5    1    1    2  502    0  0.85328068206E+02  0.82280133353E+01  0.37324967732E+03  0.38299607184E+03  0.47000000000E+01 0. -1.
         -5    1    1    2    0  502 -0.27608839154E+02  0.48257786129E+02  0.12243084012E+03  0.13454539210E+03  0.47000000000E+01 0. -1.
        -11    1    1    2    0    0 -0.32558732308E+02 -0.36035795948E+02  0.24193801534E+03  0.24676436717E+03  0.00000000000E+00 0.  1.
         11    1    1    2    0    0 -0.25160496744E+02 -0.20450003516E+02  0.12906242097E+02  0.34897339802E+02  0.00000000000E+00 0. -1.
<mgrwt>
<rscale>  0 0.14101460E+03</rscale>
<asrwt>0</asrwt>
<pdfrwt beam="1">  1        2 0.11920982E+00 0.14882873E+03</pdfrwt>
<pdfrwt beam="2">  1       -2 0.37444926E-02 0.14882873E+03</pdfrwt>
<totfact> 0.10812564E+04</totfact>
</mgrwt>
</event>
<event>
 6    1  0.1045058E-005  0.1358943E+03  0.7546771E-02  0.1231378E+00
          2   -1    0    0  501    0  0.00000000000E+00  0.00000000000E+00  0.52178580410E+03  0.52178580410E+03  0.00000000000E+00 0. -1.
         -2   -1    0    0    0  501 -0.00000000000E+00 -0.00000000000E+00 -0.31841042567E+02  0.31841042567E+02  0.00000000000E+00 0.  1.
          5    1    1    2  502    0 -0.94171848257E+02  0.41728688545E+01  0.25245483973E+03  0.26952047407E+03  0.47000000000E+01 0.  1.
         -5    1    1    2    0  502  0.40880226720E+02 -0.50967998916E+01  0.11800696090E+03  0.12507958717E+03  0.47000000000E+01 0.  1.
        -11    1    1    2    0    0  0.14419530067E+02 -0.40140320541E+02  0.77991287377E+02  0.88892120501E+02  0.00000000000E+00 0. -1.
         11    1    1    2    0    0  0.38872091469E+02  0.41064251578E+02  0.41491673534E+02  0.70134664935E+02  0.00000000000E+00 0.  1.
<mgrwt>
<rscale>  0 0.12739161E+03</rscale>
<asrwt>0</asrwt>
<pdfrwt beam="1">  1        2 0.80274733E-01 0.13589431E+03</pdfrwt>
<pdfrwt beam="2">  1       -2 0.48986223E-02 0.13589431E+03</pdfrwt>
<totfact> 0.11391371E+04</totfact>
</mgrwt>
</event>
<event>
 6    1  0.1045058E-005  0.1307095E+03  0.7546771E-02  0.1239522E+00
          2   -1    0    0  501    0  0.00000000000E+00  0.00000000000E+00  0.66765783887E+03  0.66765783887E+03  0.00000000000E+00 0. -1.
         -2   -1    0    0    0  501 -0.00000000000E+00 -0.00000000000E+00 -0.24884926949E+02  0.24884926949E+02  0.00000000000E+00 0.  1.
          5    1    1    2  502    0 -0.26950625544E+01 -0.31858236571E+02  0.48324238073E+03  0.48432168972E+03  0.47000000000E+01 0.  1.
         -5    1    1    2    0  502  0.31394427091E+02  0.66484794653E+01  0.26411610642E+02  0.41826731982E+02  0.47000000000E+01 0.  1.
        -11    1    1    2    0    0  0.84365061725E+01  0.51443761145E+02  0.53441484164E+02  0.74656730619E+02  0.00000000000E+00 0.  1.
         11    1    1    2    0    0 -0.37135870709E+02 -0.26234004040E+02  0.79677436383E+02  0.91737613496E+02  0.00000000000E+00 0. -1.
<mgrwt>
<rscale>  0 0.12219341E+03</rscale>
<asrwt>0</asrwt>
<pdfrwt beam="1">  1        2 0.10271658E+00 0.13070949E+03</pdfrwt>
<pdfrwt beam="2">  1       -2 0.38284508E-02 0.13070949E+03</pdfrwt>
<totfact> 0.12403072E+04</totfact>
</mgrwt>
</event>
<event>
 6    1  0.1045058E-005  0.1691912E+03  0.7546771E-02  0.1184597E+00
          2   -1    0    0  501    0  0.00000000000E+00  0.00000000000E+00  0.78834418798E+03  0.78834418798E+03  0.00000000000E+00 0. -1.
         -2   -1    0    0    0  501 -0.00000000000E+00 -0.00000000000E+00 -0.33307810437E+02  0.33307810437E+02  0.00000000000E+00 0.  1.
          5    1    1    2  502    0  0.32673174945E+02  0.37121378874E+02  0.63999927268E+02  0.81016133089E+02  0.47000000000E+01 0. -1.
         -5    1    1    2    0  502  0.78808561905E+02 -0.61074649688E+02  0.42020241424E+03  0.43189473393E+03  0.47000000000E+01 0. -1.
        -11    1    1    2    0    0 -0.56986216322E+02  0.54827219660E+02  0.19475097141E+03  0.21019370526E+03  0.00000000000E+00 0. -1.
         11    1    1    2    0    0 -0.54495520528E+02 -0.30873948845E+02  0.76083064622E+02  0.98547426132E+02  0.00000000000E+00 0.  1.
<mgrwt>
<rscale>  0 0.16368619E+03</rscale>
<asrwt>0</asrwt>
<pdfrwt beam="1">  1        2 0.12128371E+00 0.16919116E+03</pdfrwt>
<pdfrwt beam="2">  1       -2 0.51242791E-02 0.16919116E+03</pdfrwt>
<totfact> 0.66605313E+03</totfact>
</mgrwt>
</event>
<event>
 6    1  0.1045058E-005  0.2661332E+03  0.7546771E-02  0.1103513E+00
         -2   -1    0    0    0  501 -0.00000000000E+00  0.00000000000E+00  0.38862843610E+02  0.38862843610E+02  0.00000000000E+00 0.  1.
          2   -1    0    0  501    0  0.00000000000E+00 -0.00000000000E+00 -0.45562074774E+03  0.45562074774E+03  0.00000000000E+00 0. -1.
          5    1    1    2  502    0  0.41303431528E+02 -0.45911045013E+02 -0.21893545235E+02  0.65690294817E+02  0.47000000000E+01 0.  1.
         -5    1    1    2    0  502  0.70621887553E+01 -0.16508092529E+02 -0.20049768816E+03  0.20135492193E+03  0.47000000000E+01 0.  1.
        -11    1    1    2    0    0 -0.19254938562E+01  0.42181704526E+02 -0.21662812701E+02  0.47458204532E+02  0.00000000000E+00 0.  1.
         11    1    1    2    0    0 -0.46440126427E+02  0.20237433016E+02 -0.17270385804E+03  0.17998017007E+03  0.00000000000E+00 0. -1.
<mgrwt>
<rscale>  0 0.26613318E+03</rscale>
<asrwt>0</asrwt>
<pdfrwt beam="2">  1        2 0.70095500E-01 0.26613318E+03</pdfrwt>
<pdfrwt beam="1">  1       -2 0.59788990E-02 0.26613318E+03</pdfrwt>
<totfact> 0.10200750E+04</totfact>
</mgrwt>
</event>
<event>
 6    1  0.1045058E-005  0.1866294E+03  0.7546771E-02  0.1166421E+00
         -1   -1    0    0    0  501 -0.00000000000E+00  0.00000000000E+00  0.55689278083E+02  0.55689278083E+02  0.00000000000E+00 0.  1.
          1   -1    0    0  501    0  0.00000000000E+00 -0.00000000000E+00 -0.66213761115E+03  0.66213761115E+03  0.00000000000E+00 0. -1.
          5    1    1    2  502    0 -0.51557139695E+02 -0.34822345481E+02 -0.58476070572E+02  0.85511842617E+02  0.47000000000E+01 0.  1.
         -5    1    1    2    0  502 -0.16105049762E+02 -0.86122064967E+02 -0.39968443442E+03  0.40920180818E+03  0.47000000000E+01 0.  1.
        -11    1    1    2    0    0  0.61954595102E+02  0.44443583276E+02 -0.11830879703E+03  0.14075004584E+03  0.00000000000E+00 0.  1.
         11    1    1    2    0    0  0.57075943550E+01  0.76500827171E+02 -0.29979031034E+02  0.82363192586E+02  0.00000000000E+00 0. -1.
<mgrwt>
<rscale>  0 0.18143524E+03</rscale>
<asrwt>0</asrwt>
<pdfrwt beam="2">  1        1 0.10186732E+00 0.18662944E+03</pdfrwt>
<pdfrwt beam="1">  1       -1 0.85675818E-02 0.18662944E+03</pdfrwt>
<totfact> 0.23461295E+03</totfact>
</mgrwt>
</event>
<event>
 6    1  0.1045058E-005  0.2072385E+03  0.7546771E-02  0.1148559E+00
         -2   -1    0    0    0  501 -0.00000000000E+00  0.00000000000E+00  0.31970253108E+02  0.31970253108E+02  0.00000000000E+00 0. -1.
          2   -1    0    0  501    0  0.00000000000E+00 -0.00000000000E+00 -0.14127471686E+04  0.14127471686E+04  0.00000000000E+00 0.  1.
          5    1    1    2  502    0 -0.64621898229E+02  0.22856502728E+02 -0.42627878603E+03  0.43178015571E+03  0.47000000000E+01 0.  1.
         -5    1    1    2    0  502  0.14258552410E+02  0.13456282239E+03 -0.57604185954E+03  0.59174046121E+03  0.47000000000E+01 0.  1.
        -11    1    1    2    0    0  0.41614198207E+00 -0.12104429700E+03 -0.27875068048E+03  0.30389774083E+03  0.00000000000E+00 0.  1.
         11    1    1    2    0    0  0.49947203837E+02 -0.36375028118E+02 -0.99705589486E+02  0.11729906401E+03  0.00000000000E+00 0. -1.
<mgrwt>
<rscale>  0 0.20140510E+03</rscale>
<asrwt>0</asrwt>
<pdfrwt beam="2">  1        2 0.21734573E+00 0.20723845E+03</pdfrwt>
<pdfrwt beam="1">  1       -2 0.49185001E-02 0.20723845E+03</pdfrwt>
<totfact> 0.30476181E+03</totfact>
</mgrwt>
</event>
<event>
 6    1  0.1045058E-005  0.1338752E+03  0.7546771E-02  0.1233831E+00
          1   -1    0    0  501    0  0.00000000000E+00  0.00000000000E+00  0.29169274333E+03  0.29169274333E+03  0.00000000000E+00 0. -1.
         -1   -1    0    0    0  501 -0.00000000000E+00 -0.00000000000E+00 -0.50269297745E+02  0.50269297745E+02  0.00000000000E+00 0.  1.
          5    1    1    2  502    0  0.56910324189E+01 -0.58456867439E+02  0.16968989897E+03  0.17962835247E+03  0.47000000000E+01 0. -1.
         -5    1    1    2    0  502  0.24816463773E+02  0.21441367463E+02 -0.40173196201E+01  0.33373911515E+02  0.47000000000E+01 0. -1.
        -11    1    1    2    0    0  0.67323443258E+01  0.53493474599E+02  0.69183415730E+02  0.87711010123E+02  0.00000000000E+00 0. -1.
         11    1    1    2    0    0 -0.37239840518E+02 -0.16477974622E+02  0.65674505018E+01  0.41248766958E+02  0.00000000000E+00 0.  1.
<mgrwt>
<rscale>  0 0.12579565E+03</rscale>
<asrwt>0</asrwt>
<pdfrwt beam="1">  1        1 0.44875806E-01 0.13387517E+03</pdfrwt>
<pdfrwt beam="2">  1       -1 0.77337383E-02 0.13387517E+03</pdfrwt>
<totfact> 0.78171555E+03</totfact>
</mgrwt>
</event>
<event>
 6    1  0.1045058E-005  0.1311717E+03  0.7546771E-02  0.1238031E+00
          2   -1    0    0  501    0  0.00000000000E+00  0.00000000000E+00  0.92194915151E+03  0.92194915151E+03  0.00000000000E+00 0. -1.
         -2   -1    0    0    0  501 -0.00000000000E+00 -0.00000000000E+00 -0.26933175423E+02  0.26933175423E+02  0.00000000000E+00 0.  1.
          5    1    1    2  502    0  0.31761310985E+02 -0.75662185175E+02  0.53675821278E+03  0.54301474761E+03  0.47000000000E+01 0. -1.
         -5    1    1    2    0  502 -0.35933336608E+02  0.32090095359E+02  0.25964920700E+03  0.26412266013E+03  0.47000000000E+01 0.  1.
        -11    1    1    2    0    0  0.15273270972E+02  0.70071569337E+02  0.80362629283E+02  0.10771002656E+03  0.00000000000E+00 0.  1.
         11    1    1    2    0    0 -0.11101245350E+02 -0.26499479521E+02  0.18245927023E+02  0.34034892627E+02  0.00000000000E+00 0. -1.
<mgrwt>
<rscale>  0 0.12312376E+03</rscale>
<asrwt>0</asrwt>
<pdfrwt beam="1">  1        2 0.14183831E+00 0.13117171E+03</pdfrwt>
<pdfrwt beam="2">  1       -2 0.41435661E-02 0.13117171E+03</pdfrwt>
<totfact> 0.74020727E+03</totfact>
</mgrwt>
</event>
<event>
 6    1  0.1045058E-005  0.1285562E+03  0.7546771E-02  0.1245042E+00
          2   -1    0    0  501    0  0.00000000000E+00  0.00000000000E+00  0.21496800790E+03  0.21496800790E+03  0.00000000000E+00 0. -1.
         -2   -1    0    0    0  501 -0.00000000000E+00 -0.00000000000E+00 -0.62330519352E+02  0.62330519352E+02  0.00000000000E+00 0.  1.
          5    1    1    2  502    0 -0.26672508249E+02 -0.42614013127E+02  0.12898286539E+03  0.13851370465E+03  0.47000000000E+01 0. -1.
         -5    1    1    2    0  502 -0.32220464983E+01  0.40508096268E+02 -0.35966189541E+01  0.41064742966E+02  0.47000000000E+01 0. -1.
        -11    1    1    2    0    0  0.32889639799E+02 -0.22391043548E+02 -0.19910177634E+02  0.44491599328E+02  0.00000000000E+00 0.  1.
         11    1    1    2    0    0 -0.29950850519E+01  0.24496960407E+02  0.47161419746E+02  0.53228480310E+02  0.00000000000E+00 0. -1.
<mgrwt>
<rscale>  0 0.11882856E+03</rscale>
<asrwt>0</asrwt>
<pdfrwt beam="1">  1        2 0.33072001E-01 0.12855624E+03</pdfrwt>
<pdfrwt beam="2">  1       -2 0.95893108E-02 0.12855624E+03</pdfrwt>
<totfact> 0.10484872E+04</totfact>
</mgrwt>
</event>
<event>
 6    1  0.1045058E-005  0.1505521E+03  0.7546771E-02  0.1211852E+00
         -2   -1    0    0    0  501 -0.00000000000E+00  0.00000000000E+00  0.25006263854E+02  0.25006263854E+02  0.00000000000E+00 0. -1.
          2   -1    0    0  501    0  0.00000000000E+00 -0.00000000000E+00 -0.93889618180E+03  0.93889618180E+03  0.00000000000E+00 0.  1.
          5    1    1    2  502    0 -0.68367827790E+02  0.34799926905E+02 -0.25001460421E+03  0.26156182272E+03  0.47000000000E+01 0. -1.
         -5    1    1    2    0  502  0.40262734523E+02  0.44074090370E+02 -0.48738197959E+03  0.49104673633E+03  0.47000000000E+01 0. -1.
        -11    1    1    2    0    0  0.30231560047E+02 -0.92548824245E+02 -0.12773537583E+03  0.16060995714E+03  0.00000000000E+00 0.  1.
         11    1    1    2    0    0 -0.21264667797E+01  0.13674806969E+02 -0.48757958312E+02  0.50683929458E+02  0.00000000000E+00 0. -1.
<mgrwt>
<rscale>  0 0.14110340E+03</rscale>
<asrwt>0</asrwt>
<pdfrwt beam="2">  1        2 0.14444557E+00 0.15055206E+03</pdfrwt>
<pdfrwt beam="1">  1       -2 0.38471173E-02 0.15055206E+03</pdfrwt>
<totfact> 0.81235562E+03</totfact>
</mgrwt>
</event>
<event>
 6    1  0.1045058E-005  0.1341722E+03  0.7546771E-02  0.1233986E+00
          2   -1    0    0  501    0  0.00000000000E+00  0.00000000000E+00  0.58175765418E+03  0.58175765418E+03  0.00000000000E+00 0. -1.
         -2   -1    0    0    0  501 -0.00000000000E+00 -0.00000000000E+00 -0.34601981129E+02  0.34601981129E+02  0.00000000000E+00 0.  1.
          5    1    1    2  502    0  0.14975904154E+02 -0.53653931748E+02  0.19342635520E+03  0.20134266061E+03  0.47000000000E+01 0. -1.
         -5    1    1    2    0  502 -0.63137256932E+02  0.46017492583E+02  0.27264786529E+03  0.28365978087E+03  0.47000000000E+01 0. -1.
        -11    1    1    2    0    0  0.64244692294E+02 -0.14714472891E+02  0.80199699619E+02  0.10380697481E+03  0.00000000000E+00 0. -1.
         11    1    1    2    0    0 -0.16083339515E+02  0.22350912056E+02  0.88175294785E+00  0.27550219018E+02  0.00000000000E+00 0.  1.
<mgrwt>
<rscale>  0 0.12569587E+03</rscale>
<asrwt>0</asrwt>
<pdfrwt beam="1">  1        2 0.89501171E-01 0.13417224E+03</pdfrwt>
<pdfrwt beam="2">  1       -2 0.53233821E-02 0.13417224E+03</pdfrwt>
<totfact> 0.88952640E+03</totfact>
</mgrwt>
</event>
<event>
 6    1  0.1045058E-005  0.1573915E+03  0.7546771E-02  0.1200203E+00
         -4   -1    0    0    0  501 -0.00000000000E+00  0.00000000000E+00  0.22875998424E+03  0.22875998424E+03  0.00000000000E+00 0.  1.
          4   -1    0    0  501    0  0.00000000000E+00 -0.00000000000E+00 -0.14104559139E+03  0.14104559139E+03  0.00000000000E+00 0. -1.
          5    1    1    2  502    0  0.41623947574E+02 -0.87512128284E+02 -0.26035755452E+01  0.97055624330E+02  0.47000000000E+01 0. -1.
         -5    1    1    2    0  502 -0.38311010049E+02 -0.80723196423E+01 -0.61140974973E+02  0.72754413309E+02  0.47000000000E+01 0. -1.
        -11    1    1    2    0    0  0.22133786160E+02  0.97125434703E+02  0.14053687975E+03  0.17226104935E+03  0.00000000000E+00 0. -1.
         11    1    1    2    0    0 -0.25446723685E+02 -0.15409867759E+01  0.10922063622E+02  0.27734488644E+02  0.00000000000E+00 0.  1.
<mgrwt>
<rscale>  0 0.15022016E+03</rscale>
<asrwt>0</asrwt>
<pdfrwt beam="2">  1        4 0.21699322E-01 0.15739149E+03</pdfrwt>
<pdfrwt beam="1">  1       -4 0.35193844E-01 0.15739149E+03</pdfrwt>
<totfact> 0.26019031E+02</totfact>
</mgrwt>
</event>
<event>
 6    1  0.1045058E-005  0.1259622E+03  0.7546771E-02  0.1247262E+00
          1   -1    0    0  501    0  0.00000000000E+00  0.00000000000E+00  0.15106455204E+03  0.15106455204E+03  0.00000000000E+00 0.  1.
         -1   -1    0    0    0  501 -0.00000000000E+00 -0.00000000000E+00 -0.18098366219E+03  0.18098366219E+03  0.00000000000E+00 0. -1.
          5    1    1    2  502    0  0.44620922594E+02  0.25825694327E+02  0.10842249596E+03  0.12014791239E+03  0.47000000000E+01 0.  1.
         -5    1    1    2    0  502 -0.43602764096E+02 -0.10324318758E+02 -0.14951241021E+01  0.45079019408E+02  0.47000000000E+01 0.  1.
        -11    1    1    2    0    0  0.27154193025E+02 -0.10548147655E+02 -0.22487618628E+01  0.29217641036E+02  0.00000000000E+00 0.  1.
         11    1    1    2    0    0 -0.28172351522E+02 -0.49532279136E+01 -0.13459772015E+03  0.13760364140E+03  0.00000000000E+00 0. -1.
<mgrwt>
<rscale>  0 0.11750993E+03</rscale>
<asrwt>0</asrwt>
<pdfrwt beam="1">  1        1 0.23240700E-01 0.12596220E+03</pdfrwt>
<pdfrwt beam="2">  1       -1 0.27843641E-01 0.12596220E+03</pdfrwt>
<totfact> 0.23618194E+03</totfact>
</mgrwt>
</event>
<event>
 6    1  0.1045058E-005  0.1525728E+03  0.7546771E-02  0.1206406E+00
         -1   -1    0    0    0  501 -0.00000000000E+00  0.00000000000E+00  0.14931907347E+03  0.14931907347E+03  0.00000000000E+00 0.  1.
          1   -1    0    0  501    0  0.00000000000E+00 -0.00000000000E+00 -0.40991703813E+03  0.40991703813E+03  0.00000000000E+00 0. -1.
          5    1    1    2  502    0  0.37962894547E+02  0.67438639264E+01 -0.74903711908E+02  0.84376045894E+02  0.47000000000E+01 0. -1.
         -5    1    1    2    0  502 -0.96233976304E+02  0.58505606295E+02 -0.29039026510E+03  0.31150036955E+03  0.47000000000E+01 0. -1.
        -11    1    1    2    0    0  0.31353225363E+02  0.18773487800E+02  0.38309068566E+02  0.52943869516E+02  0.00000000000E+00 0.  1.
         11    1    1    2    0    0  0.26917856394E+02 -0.84022958021E+02  0.66386943788E+02  0.11041582664E+03  0.00000000000E+00 0. -1.
<mgrwt>
<rscale>  0 0.14527204E+03</rscale>
<asrwt>0</asrwt>
<pdfrwt beam="2">  1        1 0.63064158E-01 0.15257276E+03</pdfrwt>
<pdfrwt beam="1">  1       -1 0.22972166E-01 0.15257276E+03</pdfrwt>
<totfact> 0.93964008E+02</totfact>
</mgrwt>
</event>
<event>
 6    1  0.1045058E-005  0.1293461E+03  0.7546771E-02  0.1243329E+00
          2   -1    0    0  501    0  0.00000000000E+00  0.00000000000E+00  0.25495010971E+03  0.25495010971E+03  0.00000000000E+00 0. -1.
         -2   -1    0    0    0  501 -0.00000000000E+00 -0.00000000000E+00 -0.51272943732E+02  0.51272943732E+02  0.00000000000E+00 0.  1.
          5    1    1    2  502    0 -0.70035409443E+01 -0.64428258309E+02  0.61630590389E+02  0.89557075244E+02  0.47000000000E+01 0. -1.
         -5    1    1    2    0  502  0.37423994847E+02  0.51014501315E+02  0.83085758208E+02  0.10453883466E+03  0.47000000000E+01 0. -1.
        -11    1    1    2    0    0 -0.11214955492E+02  0.22750306888E+01 -0.23817087175E+02  0.26423562077E+02  0.00000000000E+00 0.  1.
         11    1    1    2    0    0 -0.19205498411E+02  0.11138726306E+02  0.82777904551E+02  0.85703581458E+02  0.00000000000E+00 0. -1.
<mgrwt>
<rscale>  0 0.11985934E+03</rscale>
<asrwt>0</asrwt>
<pdfrwt beam="1">  1        2 0.39223093E-01 0.12934605E+03</pdfrwt>
<pdfrwt beam="2">  1       -2 0.78881453E-02 0.12934605E+03</pdfrwt>
<totfact> 0.11838624E+04</totfact>
</mgrwt>
</event>
<event>
 6    1  0.1045058E-005  0.1370262E+03  0.7546771E-02  0.1231070E+00
          1   -1    0    0  501    0  0.00000000000E+00  0.00000000000E+00  0.40533262985E+03  0.40533262985E+03  0.00000000000E+00 0. -1.
         -1   -1    0    0    0  501 -0.00000000000E+00 -0.00000000000E+00 -0.35911378264E+02  0.35911378264E+02  0.00000000000E+00 0.  1.
          5    1    1    2  502    0  0.94030422724E+02 -0.40573193123E+01  0.16835074679E+03  0.19293067714E+03  0.47000000000E+01 0. -1.
         -5    1    1    2    0  502 -0.39147597148E+02  0.15877997552E+02  0.64494429565E+02  0.77241611930E+02  0.47000000000E+01 0. -1.
        -11    1    1    2    0    0 -0.25012784683E+02  0.37285409694E+02  0.69462682609E+02  0.82709766346E+02  0.00000000000E+00 0.  1.
         11    1    1    2    0    0 -0.29870040893E+02 -0.49106087934E+02  0.67113392626E+02  0.88361952700E+02  0.00000000000E+00 0. -1.
<mgrwt>
<rscale>  0 0.12759394E+03</rscale>
<asrwt>0</asrwt>
<pdfrwt beam="1">  1        1 0.62358863E-01 0.13702624E+03</pdfrwt>
<pdfrwt beam="2">  1       -1 0.55248277E-02 0.13702624E+03</pdfrwt>
<totfact> 0.85887870E+03</totfact>
</mgrwt>
</event>
<event>
 6    1  0.1045058E-005  0.1283059E+03  0.7546771E-02  0.1245989E+00
          1   -1    0    0  501    0  0.00000000000E+00  0.00000000000E+00  0.50819770997E+02  0.50819770997E+02  0.00000000000E+00 0. -1.
         -1   -1    0    0    0  501 -0.00000000000E+00 -0.00000000000E+00 -0.26243683700E+03  0.26243683700E+03  0.00000000000E+00 0.  1.
          5    1    1    2  502    0  0.51891880595E+02  0.12713105150E+01 -0.98378179474E+01  0.53040137293E+02  0.47000000000E+01 0. -1.
         -5    1    1    2    0  502 -0.63695582859E+02 -0.27672293023E+02 -0.66451808349E+02  0.96233133118E+02  0.47000000000E+01 0. -1.
        -11    1    1    2    0    0  0.83475309165E+01 -0.17174661588E+02 -0.11355368797E+03  0.11514812341E+03  0.00000000000E+00 0.  1.
         11    1    1    2    0    0  0.34561713473E+01  0.43575644096E+02 -0.21773751734E+02  0.48835214173E+02  0.00000000000E+00 0. -1.
<mgrwt>
<rscale>  0 0.11826385E+03</rscale>
<asrwt>0</asrwt>
<pdfrwt beam="1">  1        1 0.78184262E-02 0.12830589E+03</pdfrwt>
<pdfrwt beam="2">  1       -1 0.40374899E-01 0.12830589E+03</pdfrwt>
<totfact> 0.51723230E+03</totfact>
</mgrwt>
</event>
<event>
 6    1  0.1045058E-005  0.2562330E+03  0.7546771E-02  0.1112900E+00
          2   -1    0    0  501    0  0.00000000000E+00  0.00000000000E+00  0.26194969291E+03  0.26194969291E+03  0.00000000000E+00 0. -1.
         -2   -1    0    0    0  501 -0.00000000000E+00 -0.00000000000E+00 -0.25829971770E+03  0.25829971770E+03  0.00000000000E+00 0.  1.
          5    1    1    2  502    0 -0.14711578184E+03  0.49430674312E+02 -0.47289535879E+01  0.15534123030E+03  0.47000000000E+01 0. -1.
         -5    1    1    2    0  502 -0.62244055325E+02  0.29301303439E+02  0.92779175901E+02  0.11559824517E+03  0.47000000000E+01 0. -1.
        -11    1    1    2    0    0  0.87099276008E+02  0.36275267784E+01 -0.31684916606E+02  0.92754389502E+02  0.00000000000E+00 0.  1.
         11    1    1    2    0    0  0.12226056116E+03 -0.82359504529E+02 -0.52715330501E+02  0.15655554564E+03  0.00000000000E+00 0. -1.
<mgrwt>
<rscale>  0 0.25064167E+03</rscale>
<asrwt>0</asrwt>
<pdfrwt beam="1">  1        2 0.40299952E-01 0.25623301E+03</pdfrwt>
<pdfrwt beam="2">  1       -2 0.39738418E-01 0.25623301E+03</pdfrwt>
<totfact> 0.76610804E+02</totfact>
</mgrwt>
</event>
<event>
 6    1  0.1045058E-005  0.1535842E+03  0.7546771E-02  0.1204916E+00
          2   -1    0    0  501    0  0.00000000000E+00  0.00000000000E+00  0.20740579966E+03  0.20740579966E+03  0.00000000000E+00 0. -1.
         -2   -1    0    0    0  501 -0.00000000000E+00 -0.00000000000E+00 -0.95680399248E+02  0.95680399248E+02  0.00000000000E+00 0.  1.
          5    1    1    2  502    0 -0.74265931701E+02  0.85767288068E+02  0.86870170215E+02  0.14296843283E+03  0.47000000000E+01 0.  1.
         -5    1    1    2    0  502  0.20000246914E+02 -0.14956614867E+02 -0.11756012550E+02  0.28000072071E+02  0.47000000000E+01 0.  1.
        -11    1    1    2    0    0  0.27784970672E+02 -0.71350839307E+02  0.59611672548E+02  0.97038643690E+02  0.00000000000E+00 0. -1.
         11    1    1    2    0    0  0.26480714116E+02  0.54016610692E+00 -0.23000429804E+02  0.35079050310E+02  0.00000000000E+00 0.  1.
<mgrwt>
<rscale>  0 0.14644097E+03</rscale>
<asrwt>0</asrwt>
<pdfrwt beam="1">  1        2 0.31908584E-01 0.15358416E+03</pdfrwt>
<pdfrwt beam="2">  1       -2 0.14720061E-01 0.15358416E+03</pdfrwt>
<totfact> 0.55638633E+03</totfact>
</mgrwt>
</event>
<event>
 6    1  0.1096197E-005  0.1285035E+03  0.7546771E-02  0.1244067E+00
         -1   -1    0    0    0  501 -0.00000000000E+00  0.00000000000E+00  0.34341947974E+03  0.34341947974E+03  0.00000000000E+00 0.  1.
          1   -1    0    0  501    0  0.00000000000E+00 -0.00000000000E+00 -0.37803841878E+02  0.37803841878E+02  0.00000000000E+00 0. -1.
          5    1    1    2  502    0 -0.33418061541E+02  0.40673090863E+02  0.56767008059E+02  0.77560623782E+02  0.47000000000E+01 0.  1.
         -5    1    1    2    0  502  0.28226263752E+02 -0.70019279292E+02  0.84422914632E+02  0.11335228252E+03  0.47000000000E+01 0.  1.
        -11    1    1    2    0    0  0.73973134358E+01  0.39770747293E+02  0.17234854533E+03  0.17703235203E+03  0.00000000000E+00 0.  1.
         11    1    1    2    0    0 -0.22055156466E+01 -0.10424558864E+02 -0.79228301641E+01  0.13278063284E+02  0.00000000000E+00 0. -1.
<mgrwt>
<rscale>  0 0.11941386E+03</rscale>
<asrwt>0</asrwt>
<pdfrwt beam="2">  1        1 0.58159759E-02 0.12850348E+03</pdfrwt>
<pdfrwt beam="1">  1       -1 0.52833764E-01 0.12850348E+03</pdfrwt>
<totfact> 0.47563722E+03</totfact>
</mgrwt>
</event>
<event>
 6    1  0.1045058E-005  0.1364565E+03  0.7546771E-02  0.1231235E+00
          1   -1    0    0  501    0  0.00000000000E+00  0.00000000000E+00  0.58483019470E+03  0.58483019470E+03  0.00000000000E+00 0. -1.
         -1   -1    0    0    0  501 -0.00000000000E+00 -0.00000000000E+00 -0.25832278125E+02  0.25832278125E+02  0.00000000000E+00 0.  1.
          5    1    1    2  502    0  0.39959399635E+02  0.79997817644E+02  0.20156442306E+03  0.22055999431E+03  0.47000000000E+01 0.  1.
         -5    1    1    2    0  502 -0.11588701436E+01 -0.41391973600E+02  0.17721955095E+03  0.18205355722E+03  0.47000000000E+01 0.  1.
        -11    1    1    2    0    0  0.23807112109E+02 -0.23645298090E+02  0.31593025086E+02  0.46086852168E+02  0.00000000000E+00 0. -1.
         11    1    1    2    0    0 -0.62607641600E+02 -0.14960545954E+02  0.14862091749E+03  0.16196206913E+03  0.00000000000E+00 0.  1.
<mgrwt>
<rscale>  0 0.12748534E+03</rscale>
<asrwt>0</asrwt>
<pdfrwt beam="1">  1        1 0.89973866E-01 0.13645649E+03</pdfrwt>
<pdfrwt beam="2">  1       -1 0.39741971E-02 0.13645649E+03</pdfrwt>
<totfact> 0.86672686E+03</totfact>
</mgrwt>
</event>
<event>
 6    1  0.1045058E-005  0.1688765E+03  0.7546771E-02  0.1185763E+00
         -2   -1    0    0    0  501 -0.00000000000E+00  0.00000000000E+00  0.32640452719E+03  0.32640452719E+03  0.00000000000E+00 0.  1.
          2   -1    0    0  501    0  0.00000000000E+00 -0.00000000000E+00 -0.11184394684E+03  0.11184394684E+03  0.00000000000E+00 0. -1.
          5    1    1    2  502    0  0.54010714048E+02 -0.73250103306E+02  0.39103995406E+02  0.99166261012E+02  0.47000000000E+01 0.  1.
         -5    1    1    2    0  502 -0.29740510751E+02 -0.37652777876E+02 -0.50920893891E+02  0.70123156633E+02  0.47000000000E+01 0.  1.
        -11    1    1    2    0    0  0.24700179674E+02  0.56547434273E+02  0.15463147122E+03  0.16648904796E+03  0.00000000000E+00 0.  1.
         11    1    1    2    0    0 -0.48970382971E+02  0.54355446908E+02  0.71746007617E+02  0.10247000842E+03  0.00000000000E+00 0. -1.
<mgrwt>
<rscale>  0 0.16262681E+03</rscale>
<asrwt>0</asrwt>
<pdfrwt beam="2">  1        2 0.17206761E-01 0.16887649E+03</pdfrwt>
<pdfrwt beam="1">  1       -2 0.50216081E-01 0.16887649E+03</pdfrwt>
<totfact> 0.12423258E+03</totfact>
</mgrwt>
</event>
<event>
 6    1  0.1045058E-005  0.1495747E+03  0.7546771E-02  0.1210179E+00
          1   -1    0    0  501    0  0.00000000000E+00  0.00000000000E+00  0.97946348804E+02  0.97946348804E+02  0.00000000000E+00 0. -1.
         -1   -1    0    0    0  501 -0.00000000000E+00 -0.00000000000E+00 -0.26877672834E+03  0.26877672834E+03  0.00000000000E+00 0.  1.
          5    1    1    2  502    0 -0.73934266628E+02 -0.15567139859E+02  0.26556399120E+02  0.80224335207E+02  0.47000000000E+01 0.  1.
         -5    1    1    2    0  502  0.35200052973E+02 -0.56875891475E+02 -0.18530058625E+02  0.69565536245E+02  0.47000000000E+01 0.  1.
        -11    1    1    2    0    0  0.62155144687E+02  0.49909312825E+02 -0.80263940927E+02  0.11312162362E+03  0.00000000000E+00 0. -1.
         11    1    1    2    0    0 -0.23420931033E+02  0.22533718509E+02 -0.98592779100E+02  0.10381158207E+03  0.00000000000E+00 0.  1.
<mgrwt>
<rscale>  0 0.14236681E+03</rscale>
<asrwt>0</asrwt>
<pdfrwt beam="1">  1        1 0.15068669E-01 0.14957468E+03</pdfrwt>
<pdfrwt beam="2">  1       -1 0.41350265E-01 0.14957468E+03</pdfrwt>
<totfact> 0.21033595E+03</totfact>
</mgrwt>
</event>
<event>
 6    1  0.1045058E-005  0.1274388E+03  0.7546771E-02  0.1247353E+00
         -1   -1    0    0    0  501 -0.00000000000E+00  0.00000000000E+00  0.35118728323E+02  0.35118728323E+02  0.00000000000E+00 0.  1.
          1   -1    0    0  501    0  0.00000000000E+00 -0.00000000000E+00 -0.43630269773E+03  0.43630269773E+03  0.00000000000E+00 0. -1.
          5    1    1    2  502    0  0.79155893998E+01 -0.54299076616E+02 -0.16363450540E+03  0.17265395342E+03  0.47000000000E+01 0. -1.
         -5    1    1    2    0  502 -0.30398129631E+02  0.64754733349E+02 -0.17049908774E+03  0.18495742942E+03  0.47000000000E+01 0. -1.
        -11    1    1    2    0    0  0.31528575686E+02 -0.29868759816E+02 -0.78359574974E+02  0.89590272284E+02  0.00000000000E+00 0. -1.
         11    1    1    2    0    0 -0.90460354547E+01  0.19413103083E+02  0.11309198700E+02  0.24219770932E+02  0.00000000000E+00 0.  1.
<mgrwt>
<rscale>  0 0.11745678E+03</rscale>
<asrwt>0</asrwt>
<pdfrwt beam="2">  1        1 0.67123484E-01 0.12743878E+03</pdfrwt>
<pdfrwt beam="1">  1       -1 0.54028819E-02 0.12743878E+03</pdfrwt>
<totfact> 0.80471874E+03</totfact>
</mgrwt>
</event>
<event>
 6    1  0.1045058E-005  0.1252429E+03  0.7546771E-02  0.1251122E+00
          2   -1    0    0  501    0  0.00000000000E+00  0.00000000000E+00  0.82842575941E+03  0.82842575941E+03  0.00000000000E+00 0. -1.
         -2   -1    0    0    0  501 -0.00000000000E+00 -0.00000000000E+00 -0.31940696444E+02  0.31940696444E+02  0.00000000000E+00 0.  1.
          5    1    1    2  502    0 -0.35959027930E+02 -0.83815444299E+01  0.70522130528E+03  0.70620286137E+03  0.47000000000E+01 0.  1.
         -5    1    1    2    0  502  0.28183399398E+02  0.86388831050E+01  0.42502010557E+02  0.51936934876E+02  0.47000000000E+01 0.  1.
        -11    1    1    2    0    0 -0.13861736270E+02  0.81169615242E+01 -0.22294373319E+02  0.27478571260E+02  0.00000000000E+00 0.  1.
         11    1    1    2    0    0  0.21637364801E+02 -0.83743001993E+01  0.71056120446E+02  0.74748088351E+02  0.00000000000E+00 0. -1.
<mgrwt>
<rscale>  0 0.11526342E+03</rscale>
<asrwt>0</asrwt>
<pdfrwt beam="1">  1        2 0.12745010E+00 0.12524294E+03</pdfrwt>
<pdfrwt beam="2">  1       -2 0.49139539E-02 0.12524294E+03</pdfrwt>
<totfact> 0.65707126E+03</totfact>
</mgrwt>
</event>
<event>
 6    1  0.1045058E-005  0.1498428E+03  0.7546771E-02  0.1210203E+00
         -1   -1    0    0    0  501 -0.00000000000E+00  0.00000000000E+00  0.56642174568E+03  0.56642174568E+03  0.00000000000E+00 0.  1.
          1   -1    0    0  501    0  0.00000000000E+00 -0.00000000000E+00 -0.37652892821E+02  0.37652892821E+02  0.00000000000E+00 0. -1.
          5    1    1    2  502    0 -0.91368834377E+02 -0.71452554086E+02  0.13515104947E+03  0.17816180161E+03  0.47000000000E+01 0. -1.
         -5    1    1    2    0  502  0.25874764927E+02  0.21070829693E+02  0.42802882355E+02  0.54476233918E+02  0.47000000000E+01 0. -1.
        -11    1    1    2    0    0  0.67558357479E+02  0.64679484039E+02  0.34189868871E+03  0.35446054881E+03  0.00000000000E+00 0.  1.
         11    1    1    2    0    0 -0.20642880282E+01 -0.14297759646E+02  0.89162323184E+01  0.16976054156E+02  0.00000000000E+00 0. -1.
<mgrwt>
<rscale>  0 0.14234867E+03</rscale>
<asrwt>0</asrwt>
<pdfrwt beam="2">  1        1 0.57927532E-02 0.14984276E+03</pdfrwt>
<pdfrwt beam="1">  1       -1 0.87141801E-01 0.14984276E+03</pdfrwt>
<totfact> 0.18055151E+03</totfact>
</mgrwt>
</event>
<event>
 6    1  0.1045058E-005  0.1673260E+03  0.7546771E-02  0.1192413E+00
         -2   -1    0    0    0  501 -0.00000000000E+00  0.00000000000E+00  0.33756235254E+02  0.33756235254E+02  0.00000000000E+00 0.  1.
          2   -1    0    0  501    0  0.00000000000E+00 -0.00000000000E+00 -0.17643888796E+04  0.17643888796E+04  0.00000000000E+00 0. -1.
          5    1    1    2  502    0 -0.53460683344E+02  0.52818883469E+02 -0.64548956835E+03  0.64986671862E+03  0.47000000000E+01 0. -1.
         -5    1    1    2    0  502 -0.31256186562E+02 -0.85364206102E+02 -0.97357127466E+03  0.97781752579E+03  0.47000000000E+01 0.  1.
        -11    1    1    2    0    0  0.25382543854E+02  0.39408918574E+02 -0.98835247939E+02  0.10938803696E+03  0.00000000000E+00 0. -1.
         11    1    1    2    0    0  0.59334326051E+02 -0.68635959401E+01 -0.12736553383E+02  0.61072833480E+02  0.00000000000E+00 0.  1.
<mgrwt>
<rscale>  0 0.15675244E+03</rscale>
<asrwt>0</asrwt>
<pdfrwt beam="2">  1        2 0.27144451E+00 0.16732599E+03</pdfrwt>
<pdfrwt beam="1">  1       -2 0.51932656E-02 0.16732599E+03</pdfrwt>
<totfact> 0.18361032E+03</totfact>
</mgrwt>
</event>
<event>
 6    1  0.1045058E-005  0.1325581E+03  0.7546771E-02  0.1231457E+00
         -3   -1    0    0    0  501 -0.00000000000E+00  0.00000000000E+00  0.79553822617E+02  0.79553822617E+02  0.00000000000E+00 0.  1.
          3   -1    0    0  501    0  0.00000000000E+00 -0.00000000000E+00 -0.21178590948E+03  0.21178590948E+03  0.00000000000E+00 0. -1.
          5    1    1    2  502    0  0.48798725283E+02 -0.13579231208E+02 -0.56409713587E+02  0.75959574093E+02  0.47000000000E+01 0. -1.
         -5    1    1    2    0  502 -0.40293043699E+02  0.69766671413E+02 -0.61758126150E+02  0.10162221192E+03  0.47000000000E+01 0.  1.
        -11    1    1    2    0    0 -0.19129104592E+02 -0.79739943690E+02  0.42111638924E+01  0.82110384017E+02  0.00000000000E+00 0.  1.
         11    1    1    2    0    0  0.10623423008E+02  0.23552503485E+02 -0.18275411020E+02  0.31647562067E+02  0.00000000000E+00 0. -1.
<mgrwt>
<rscale>  0 0.12733974E+03</rscale>
<asrwt>0</asrwt>
<pdfrwt beam="2">  1        3 0.32582447E-01 0.13255811E+03</pdfrwt>
<pdfrwt beam="1">  1       -3 0.12239050E-01 0.13255811E+03</pdfrwt>
<totfact> 0.11093403E+03</totfact>
</mgrwt>
</event>
<event>
 6    1  0.1045058E-005  0.1357890E+03  0.7546771E-02  0.1231214E+00
          2   -1    0    0  501    0  0.00000000000E+00  0.00000000000E+00  0.24592692375E+03  0.24592692375E+03  0.00000000000E+00 0. -1.
         -2   -1    0    0    0  501 -0.00000000000E+00 -0.00000000000E+00 -0.60246248985E+02  0.60246248985E+02  0.00000000000E+00 0.  1.
          5    1    1    2  502    0 -0.80721751988E+02 -0.14241179866E+02  0.11029585786E+03  0.13749937712E+03  0.47000000000E+01 0.  1.
         -5    1    1    2    0  502  0.30665720835E+02  0.31775651027E+02  0.13935198872E+02  0.46544153233E+02  0.47000000000E+01 0.  1.
        -11    1    1    2    0    0 -0.98334093625E+01 -0.32413110951E+02 -0.15954633158E+01  0.33909455973E+02  0.00000000000E+00 0.  1.
         11    1    1    2    0    0  0.59889440515E+02  0.14878639790E+02  0.63045081349E+02  0.88220186406E+02  0.00000000000E+00 0. -1.
<mgrwt>
<rscale>  0 0.12749913E+03</rscale>
<asrwt>0</asrwt>
<pdfrwt beam="1">  1        2 0.37834911E-01 0.13578905E+03</pdfrwt>
<pdfrwt beam="2">  1       -2 0.92686538E-02 0.13578905E+03</pdfrwt>
<totfact> 0.96158961E+03</totfact>
</mgrwt>
</event>
<event>
 6    1  0.1045058E-005  0.1380627E+03  0.7546771E-02  0.1227431E+00
          2   -1    0    0  501    0  0.00000000000E+00  0.00000000000E+00  0.11427120986E+04  0.11427120986E+04  0.00000000000E+00 0. -1.
         -2   -1    0    0    0  501 -0.00000000000E+00 -0.00000000000E+00 -0.18560910321E+02  0.18560910321E+02  0.00000000000E+00 0.  1.
          5    1    1    2  502    0 -0.17427758600E+02  0.27271091991E+02  0.98289866743E+02  0.10358777502E+03  0.47000000000E+01 0. -1.
         -5    1    1    2    0  502  0.42495231532E+02 -0.80256610707E+02  0.81922360353E+03  0.82425503993E+03  0.47000000000E+01 0. -1.
        -11    1    1    2    0    0 -0.73443109844E+01 -0.17712582305E+02  0.62005306463E+01  0.20152445411E+02  0.00000000000E+00 0.  1.
         11    1    1    2    0    0 -0.17723161948E+02  0.70698101022E+02  0.20043718737E+03  0.21327774858E+03  0.00000000000E+00 0. -1.
<mgrwt>
<rscale>  0 0.13001664E+03</rscale>
<asrwt>0</asrwt>
<pdfrwt beam="1">  1        2 0.17580181E+00 0.13806274E+03</pdfrwt>
<pdfrwt beam="2">  1       -2 0.28555256E-02 0.13806274E+03</pdfrwt>
<totfact> 0.95294521E+03</totfact>
</mgrwt>
</event>
<event>
 6    1  0.1045058E-005  0.1775958E+03  0.7546771E-02  0.1175791E+00
         -1   -1    0    0    0  501 -0.00000000000E+00  0.00000000000E+00  0.56162653820E+02  0.56162653820E+02  0.00000000000E+00 0.  1.
          1   -1    0    0  501    0  0.00000000000E+00 -0.00000000000E+00 -0.52011214859E+03  0.52011214859E+03  0.00000000000E+00 0. -1.
          5    1    1    2  502    0 -0.57912326045E+02  0.91324142145E+02 -0.21753383322E+03  0.24297529719E+03  0.47000000000E+01 0. -1.
         -5    1    1    2    0  502 -0.55822641895E+02 -0.36719766614E+02 -0.90559803046E+02  0.11263958690E+03  0.47000000000E+01 0. -1.
        -11    1    1    2    0    0  0.56878658212E+02 -0.14171472728E+01 -0.12420495132E+03  0.13661647045E+03  0.00000000000E+00 0. -1.
         11    1    1    2    0    0  0.56856309728E+02 -0.53187228257E+02 -0.31650907183E+02  0.84043447877E+02  0.00000000000E+00 0.  1.
<mgrwt>
<rscale>  0 0.17198780E+03</rscale>
<asrwt>0</asrwt>
<pdfrwt beam="2">  1        1 0.80017256E-01 0.17759577E+03</pdfrwt>
<pdfrwt beam="1">  1       -1 0.86404080E-02 0.17759577E+03</pdfrwt>
<totfact> 0.32187874E+03</totfact>
</mgrwt>
</event>
<event>
 6    1  0.1045058E-005  0.1122899E+03  0.7546771E-02  0.1266841E+00
          1   -1    0    0  501    0  0.00000000000E+00  0.00000000000E+00  0.60187290631E+02  0.60187290631E+02  0.00000000000E+00 0. -1.
         -1   -1    0    0    0  501 -0.00000000000E+00 -0.00000000000E+00 -0.19588743812E+03  0.19588743812E+03  0.00000000000E+00 0.  1.
          5    1    1    2  502    0 -0.29444813481E+02  0.38157109140E+01  0.30493131200E+02  0.42819128215E+02  0.47000000000E+01 0. -1.
         -5    1    1    2    0  502  0.39982273597E+02  0.10859473542E+02 -0.60383457981E+02  0.73380940068E+02  0.47000000000E+01 0.  1.
        -11    1    1    2    0    0  0.33504018580E+02  0.13746261521E+02 -0.60883674003E+02  0.70839965605E+02  0.00000000000E+00 0.  1.
         11    1    1    2    0    0 -0.44041478696E+02 -0.28421445977E+02 -0.44926146707E+02  0.69034694865E+02  0.00000000000E+00 0. -1.
<mgrwt>
<rscale>  0 0.10668198E+03</rscale>
<asrwt>0</asrwt>
<pdfrwt beam="1">  1        1 0.92595831E-02 0.11228991E+03</pdfrwt>
<pdfrwt beam="2">  1       -1 0.30136529E-01 0.11228991E+03</pdfrwt>
<totfact> 0.67423522E+03</totfact>
</mgrwt>
</event>
<event>
 6    1  0.1045058E-005  0.2531199E+03  0.7546771E-02  0.1111349E+00
         -1   -1    0    0    0  501 -0.00000000000E+00  0.00000000000E+00  0.38043308467E+02  0.38043308467E+02  0.00000000000E+00 0.  1.
          1   -1    0    0  501    0  0.00000000000E+00 -0.00000000000E+00 -0.42103112099E+03  0.42103112099E+03  0.00000000000E+00 0. -1.
          5    1    1    2  502    0 -0.88475250126E+02  0.37256905456E+02 -0.11253812544E+03  0.14799617078E+03  0.47000000000E+01 0. -1.
         -5    1    1    2    0  502  0.31857987112E+02 -0.89782933803E+01 -0.11013694599E+03  0.11509899204E+03  0.47000000000E+01 0. -1.
        -11    1    1    2    0    0  0.22559935446E+02 -0.33894890206E+02 -0.15596157900E+03  0.16118879736E+03  0.00000000000E+00 0. -1.
         11    1    1    2    0    0  0.34057327569E+02  0.56162781296E+01 -0.43511620898E+01  0.34790469280E+02  0.00000000000E+00 0.  1.
<mgrwt>
<rscale>  0 0.25311987E+03</rscale>
<asrwt>0</asrwt>
<pdfrwt beam="2">  1        1 0.64774021E-01 0.25311987E+03</pdfrwt>
<pdfrwt beam="1">  1       -1 0.58528165E-02 0.25311987E+03</pdfrwt>
<totfact> 0.77840318E+03</totfact>
</mgrwt>
</event>
<event>
 6    1  0.1045058E-005  0.1415847E+03  0.7546771E-02  0.1221836E+00
          2   -1    0    0  501    0  0.00000000000E+00  0.00000000000E+00  0.98412328367E+03  0.98412328367E+03  0.00000000000E+00 0. -1.
         -2   -1    0    0    0  501 -0.00000000000E+00 -0.00000000000E+00 -0.26123564026E+02  0.26123564026E+02  0.00000000000E+00 0.  1.
          5    1    1    2  502    0  0.23202521734E+02 -0.26562476658E+02  0.38194635557E+03  0.38360009217E+03  0.47000000000E+01 0. -1.
         -5    1    1    2    0  502 -0.24483729021E+02  0.93044589350E+02  0.43648170213E+03  0.44698446828E+03  0.47000000000E+01 0. -1.
        -11    1    1    2    0    0  0.16782070785E+00 -0.79661797800E+02  0.14493872010E+03  0.16538821837E+03  0.00000000000E+00 0. -1.
         11    1    1    2    0    0  0.11133865798E+01  0.13179685107E+02 -0.53670581436E+01  0.14274068878E+02  0.00000000000E+00 0.  1.
<mgrwt>
<rscale>  0 0.13386167E+03</rscale>
<asrwt>0</asrwt>
<pdfrwt beam="1">  1        2 0.15140355E+00 0.14158470E+03</pdfrwt>
<pdfrwt beam="2">  1       -2 0.40190106E-02 0.14158470E+03</pdfrwt>
<totfact> 0.71220037E+03</totfact>
</mgrwt>
</event>
<event>
 6    1  0.1045058E-005  0.4228164E+03  0.7546771E-02  0.1036154E+00
         -1   -1    0    0    0  501 -0.00000000000E+00  0.00000000000E+00  0.63968990016E+02  0.63968990016E+02  0.00000000000E+00 0.  1.
          1   -1    0    0  501    0  0.00000000000E+00 -0.00000000000E+00 -0.69867345768E+03  0.69867345768E+03  0.00000000000E+00 0. -1.
          5    1    1    2  502    0 -0.15944408310E+02  0.24041175948E+02 -0.16153724733E+03  0.16416021007E+03  0.47000000000E+01 0.  1.
         -5    1    1    2    0  502 -0.15157555390E+03 -0.67722968063E+02 -0.26301055658E+03  0.31105978817E+03  0.47000000000E+01 0.  1.
        -11    1    1    2    0    0  0.56309940711E+02 -0.82028561051E+01 -0.18485031912E+02  0.59831368662E+02  0.00000000000E+00 0.  1.
         11    1    1    2    0    0  0.11121002150E+03  0.51884648220E+02 -0.19167163184E+03  0.22759108079E+03  0.00000000000E+00 0. -1.
<mgrwt>
<rscale>  0 0.42281644E+03</rscale>
<asrwt>0</asrwt>
<pdfrwt beam="2">  1        1 0.10748822E+00 0.42281644E+03</pdfrwt>
<pdfrwt beam="1">  1       -1 0.98413837E-02 0.42281644E+03</pdfrwt>
<totfact> 0.17710818E+03</totfact>
</mgrwt>
</event>
<event>
 6    1  0.1045058E-005  0.2086292E+03  0.7546771E-02  0.1146750E+00
          2   -1    0    0  501    0  0.00000000000E+00  0.00000000000E+00  0.31734909563E+03  0.31734909563E+03  0.00000000000E+00 0. -1.
         -2   -1    0    0    0  501 -0.00000000000E+00 -0.00000000000E+00 -0.15150916365E+03  0.15150916365E+03  0.00000000000E+00 0.  1.
          5    1    1    2  502    0 -0.86859190993E+02 -0.10503175180E+03  0.58301035066E+02  0.14831482945E+03  0.47000000000E+01 0.  1.
         -5    1    1    2    0  502 -0.24108958424E+02 -0.19818005637E+02  0.12654711483E+03  0.13042337787E+03  0.47000000000E+01 0.  1.
        -11    1    1    2    0    0  0.97405303695E+02  0.48258317774E+02 -0.26765671647E+02  0.11195114828E+03  0.00000000000E+00 0. -1.
         11    1    1    2    0    0  0.13562845722E+02  0.76591439664E+02  0.77574537278E+01  0.78168903678E+02  0.00000000000E+00 0.  1.
<mgrwt>
<rscale>  0 0.20358367E+03</rscale>
<asrwt>0</asrwt>
<pdfrwt beam="1">  1        2 0.48822938E-01 0.20862922E+03</pdfrwt>
<pdfrwt beam="2">  1       -2 0.23309102E-01 0.20862922E+03</pdfrwt>
<totfact> 0.16431469E+03</totfact>
</mgrwt>
</event>
<event>
 6    1  0.1045058E-005  0.1542789E+03  0.7546771E-02  0.1203582E+00
         -2   -1    0    0    0  501 -0.00000000000E+00  0.00000000000E+00  0.20191301547E+02  0.20191301547E+02  0.00000000000E+00 0.  1.
          2   -1    0    0  501    0  0.00000000000E+00 -0.00000000000E+00 -0.10376389070E+04  0.10376389070E+04  0.00000000000E+00 0. -1.
          5    1    1    2  502    0 -0.25760767723E+02  0.38658362604E+02 -0.64699820590E+02  0.79788739414E+02  0.47000000000E+01 0. -1.
         -5    1    1    2    0  502 -0.56166294658E+02 -0.38867644354E+00 -0.59717271970E+03  0.59982676739E+03  0.47000000000E+01 0. -1.
        -11    1    1    2    0    0  0.33572782433E+02 -0.49846458333E+02 -0.91310267973E+02  0.10931315642E+03  0.00000000000E+00 0. -1.
         11    1    1    2    0    0  0.48354279948E+02  0.11576772173E+02 -0.26426479715E+03  0.26890154529E+03  0.00000000000E+00 0.  1.
<mgrwt>
<rscale>  0 0.14749763E+03</rscale>
<asrwt>0</asrwt>
<pdfrwt beam="2">  1        2 0.15963675E+00 0.15427890E+03</pdfrwt>
<pdfrwt beam="1">  1       -2 0.31063541E-02 0.15427890E+03</pdfrwt>
<totfact> 0.97331137E+03</totfact>
</mgrwt>
</event>
<event>
 6    1  0.1045058E-005  0.1504907E+03  0.7546771E-02  0.1208339E+00
         -1   -1    0    0    0  501 -0.00000000000E+00  0.00000000000E+00  0.14919536414E+03  0.14919536414E+03  0.00000000000E+00 0.  1.
          1   -1    0    0  501    0  0.00000000000E+00 -0.00000000000E+00 -0.13547862396E+03  0.13547862396E+03  0.00000000000E+00 0. -1.
          5    1    1    2  502    0 -0.72293378634E+02  0.35123844265E+02 -0.14354579286E+02  0.81781177399E+02  0.47000000000E+01 0.  1.
         -5    1    1    2    0  502 -0.40404505700E+01 -0.69704151738E+02 -0.12573572221E+02  0.71099780089E+02  0.47000000000E+01 0.  1.
        -11    1    1    2    0    0 -0.16441945667E+02  0.26840573805E+02  0.39453881138E+01  0.31722548240E+02  0.00000000000E+00 0. -1.
         11    1    1    2    0    0  0.92775774871E+02  0.77397336685E+01  0.36699503568E+02  0.10007048237E+03  0.00000000000E+00 0.  1.
<mgrwt>
<rscale>  0 0.14377385E+03</rscale>
<asrwt>0</asrwt>
<pdfrwt beam="2">  1        1 0.20842865E-01 0.15049074E+03</pdfrwt>
<pdfrwt beam="1">  1       -1 0.22953133E-01 0.15049074E+03</pdfrwt>
<totfact> 0.37568828E+03</totfact>
</mgrwt>
</event>
<event>
 6    1  0.1045058E-005  0.1405700E+03  0.7546771E-02  0.1223398E+00
         -1   -1    0    0    0  501 -0.00000000000E+00  0.00000000000E+00  0.19371994887E+03  0.19371994887E+03  0.00000000000E+00 0.  1.
          1   -1    0    0  501    0  0.00000000000E+00 -0.00000000000E+00 -0.86080550504E+02  0.86080550504E+02  0.00000000000E+00 0. -1.
          5    1    1    2  502    0 -0.84383365447E+00 -0.77078244871E+02  0.21330460801E+02  0.80117703697E+02  0.47000000000E+01 0.  1.
         -5    1    1    2    0  502 -0.50154895525E+02  0.37913478268E+02  0.89962586981E+01  0.63686482475E+02  0.47000000000E+01 0.  1.
        -11    1    1    2    0    0  0.43190941330E+02  0.61859769122E+01 -0.78552315272E+01  0.44333152219E+02  0.00000000000E+00 0. -1.
         11    1    1    2    0    0  0.78077878496E+01  0.32978789691E+02  0.85167910398E+02  0.91663160987E+02  0.00000000000E+00 0.  1.
<mgrwt>
<rscale>  0 0.13277317E+03</rscale>
<asrwt>0</asrwt>
<pdfrwt beam="2">  1        1 0.13243162E-01 0.14057003E+03</pdfrwt>
<pdfrwt beam="1">  1       -1 0.29803069E-01 0.14057003E+03</pdfrwt>
<totfact> 0.43581293E+03</totfact>
</mgrwt>
</event>
<event>
 6    1  0.1045058E-005  0.1466956E+03  0.7546771E-02  0.1214848E+00
         -2   -1    0    0    0  501 -0.00000000000E+00  0.00000000000E+00  0.21148397809E+02  0.21148397809E+02  0.00000000000E+00 0. -1.
          2   -1    0    0  501    0  0.00000000000E+00 -0.00000000000E+00 -0.17507713060E+04  0.17507713060E+04  0.00000000000E+00 0.  1.
          5    1    1    2  502    0 -0.35540326272E+02 -0.57912919228E+01 -0.29769723869E+03  0.29990396759E+03  0.47000000000E+01 0.  1.
         -5    1    1    2    0  502  0.92197298793E+02  0.57608538386E+02 -0.12533599289E+04  0.12580748337E+04  0.47000000000E+01 0.  1.
        -11    1    1    2    0    0 -0.46537293289E+02 -0.77194019384E+02 -0.12948585377E+03  0.15776952374E+03  0.00000000000E+00 0. -1.
         11    1    1    2    0    0 -0.10119679232E+02  0.25376772920E+02 -0.49079886819E+02  0.56171378849E+02  0.00000000000E+00 0.  1.
<mgrwt>
<rscale>  0 0.13887724E+03</rscale>
<asrwt>0</asrwt>
<pdfrwt beam="2">  1        2 0.26934962E+00 0.14669563E+03</pdfrwt>
<pdfrwt beam="1">  1       -2 0.32535974E-02 0.14669563E+03</pdfrwt>
<totfact> 0.37513721E+03</totfact>
</mgrwt>
</event>
<event>
 6    1  0.1045058E-005  0.1327933E+03  0.7546771E-02  0.1236538E+00
          2   -1    0    0  501    0  0.00000000000E+00  0.00000000000E+00  0.91671158842E+03  0.91671158842E+03  0.00000000000E+00 0. -1.
         -2   -1    0    0    0  501 -0.00000000000E+00 -0.00000000000E+00 -0.16606855869E+02  0.16606855869E+02  0.00000000000E+00 0.  1.
          5    1    1    2  502    0 -0.67309504925E+02 -0.28561637140E+02  0.60667325501E+03  0.61108171705E+03  0.47000000000E+01 0.  1.
         -5    1    1    2    0  502  0.29001526524E+02  0.53944925235E+01  0.45192142743E+02  0.54172030200E+02  0.47000000000E+01 0.  1.
        -11    1    1    2    0    0  0.88881394612E+01 -0.33296964653E+02  0.58140177469E+02  0.67586737710E+02  0.00000000000E+00 0. -1.
         11    1    1    2    0    0  0.29419838940E+02  0.56464109270E+02  0.19009915733E+03  0.20047795933E+03  0.00000000000E+00 0.  1.
<mgrwt>
<rscale>  0 0.12406460E+03</rscale>
<asrwt>0</asrwt>
<pdfrwt beam="1">  1        2 0.14103251E+00 0.13279327E+03</pdfrwt>
<pdfrwt beam="2">  1       -2 0.25549016E-02 0.13279327E+03</pdfrwt>
<totfact> 0.15216785E+04</totfact>
</mgrwt>
</event>
<event>
 6    1  0.1045058E-005  0.1263737E+03  0.7546771E-02  0.1249234E+00
         -2   -1    0    0    0  501 -0.00000000000E+00  0.00000000000E+00  0.33126251796E+02  0.33126251796E+02  0.00000000000E+00 0. -1.
          2   -1    0    0  501    0  0.00000000000E+00 -0.00000000000E+00 -0.42803789680E+03  0.42803789680E+03  0.00000000000E+00 0.  1.
          5    1    1    2  502    0  0.49029275853E+02 -0.26741838961E+02 -0.26965549768E+03  0.27541817890E+03  0.47000000000E+01 0.  1.
         -5    1    1    2    0  502 -0.31609377818E+02  0.33114527019E+02 -0.48215744074E+02  0.66652626673E+02  0.47000000000E+01 0.  1.
        -11    1    1    2    0    0 -0.41059560090E+02 -0.49627751880E+01 -0.84654853928E+02  0.94217625241E+02  0.00000000000E+00 0.  1.
         11    1    1    2    0    0  0.23639662056E+02 -0.14099128698E+01  0.76144506711E+01  0.24875717787E+02  0.00000000000E+00 0. -1.
<mgrwt>
<rscale>  0 0.11635528E+03</rscale>
<asrwt>0</asrwt>
<pdfrwt beam="2">  1        2 0.65851983E-01 0.12637369E+03</pdfrwt>
<pdfrwt beam="1">  1       -2 0.50963465E-02 0.12637369E+03</pdfrwt>
<totfact> 0.13242750E+04</totfact>
</mgrwt>
</event>
<event>
 6    1  0.1045058E-005  0.2402668E+03  0.7546771E-02  0.1119615E+00
         -1   -1    0    0    0  501 -0.00000000000E+00  0.00000000000E+00  0.83351647609E+02  0.83351647609E+02  0.00000000000E+00 0.  1.
          1   -1    0    0  501    0  0.00000000000E+00 -0.00000000000E+00 -0.17314636692E+03  0.17314636692E+03  0.00000000000E+00 0. -1.
          5    1    1    2  502    0 -0.37820015370E+02  0.18833003637E+02 -0.11753084050E+02  0.44105108245E+02  0.47000000000E+01 0.  1.
         -5    1    1    2    0  502  0.83123532519E+02 -0.35862558902E+02 -0.49272533488E+02  0.10317711639E+03  0.47000000000E+01 0.  1.
        -11    1    1    2    0    0 -0.88733281349E+01  0.43543221487E+02  0.14503039074E+02  0.46744905947E+02  0.00000000000E+00 0.  1.
         11    1    1    2    0    0 -0.36430189014E+02 -0.26513666222E+02 -0.43272140842E+02  0.62470883947E+02  0.00000000000E+00 0. -1.
<mgrwt>
<rscale>  0 0.24026681E+03</rscale>
<asrwt>0</asrwt>
<pdfrwt beam="2">  1        1 0.26637902E-01 0.24026681E+03</pdfrwt>
<pdfrwt beam="1">  1       -1 0.12823331E-01 0.24026681E+03</pdfrwt>
<totfact> 0.71572153E+03</totfact>
</mgrwt>
</event>
<event>
 6    1  0.1045058E-005  0.2490851E+03  0.7546771E-02  0.1116194E+00
         -1   -1    0    0    0  501 -0.00000000000E+00  0.00000000000E+00  0.14049472509E+03  0.14049472509E+03  0.00000000000E+00 0.  1.
          1   -1    0    0  501    0  0.00000000000E+00 -0.00000000000E+00 -0.55920336457E+03  0.55920336457E+03  0.00000000000E+00 0. -1.
          5    1    1    2  502    0  0.22296551312E+02  0.43853980804E+02 -0.34464526266E+02  0.60251152715E+02  0.47000000000E+01 0.  1.
         -5    1    1    2    0  502 -0.11105509450E+03  0.15244620826E+03 -0.35583421692E+03  0.40275694948E+03  0.47000000000E+01 0.  1.
        -11    1    1    2    0    0  0.79652817706E+02 -0.80007070380E+02  0.11314521216E+02  0.11346242140E+03  0.00000000000E+00 0.  1.
         11    1    1    2    0    0  0.91057254794E+01 -0.11629311869E+03 -0.39724417516E+02  0.12322756606E+03  0.00000000000E+00 0. -1.
<mgrwt>
<rscale>  0 0.24548106E+03</rscale>
<asrwt>0</asrwt>
<pdfrwt beam="2">  1        1 0.86031286E-01 0.24908511E+03</pdfrwt>
<pdfrwt beam="1">  1       -1 0.21614573E-01 0.24908511E+03</pdfrwt>
<totfact> 0.69121524E+02</totfact>
</mgrwt>
</event>
<event>
 6    1  0.1045058E-005  0.1396477E+03  0.7546771E-02  0.1224412E+00
         -1   -1    0    0    0  501 -0.00000000000E+00  0.00000000000E+00  0.52461197586E+02  0.52461197586E+02  0.00000000000E+00 0.  1.
          1   -1    0    0  501    0  0.00000000000E+00 -0.00000000000E+00 -0.35713077990E+03  0.35713077990E+03  0.00000000000E+00 0. -1.
          5    1    1    2  502    0 -0.10871386136E+02  0.82511065136E+02 -0.17602413365E+03  0.19476357086E+03  0.47000000000E+01 0. -1.
         -5    1    1    2    0  502 -0.35016529137E+02 -0.40438669624E+02 -0.71258068955E+02  0.89225812997E+02  0.47000000000E+01 0. -1.
        -11    1    1    2    0    0  0.49775706414E+02 -0.68687575118E+02 -0.43295962628E+02  0.95237305214E+02  0.00000000000E+00 0.  1.
         11    1    1    2    0    0 -0.38877911403E+01  0.26615179605E+02 -0.14091417085E+02  0.30365288420E+02  0.00000000000E+00 0. -1.
<mgrwt>
<rscale>  0 0.13207296E+03</rscale>
<asrwt>0</asrwt>
<pdfrwt beam="2">  1        1 0.54943196E-01 0.13964771E+03</pdfrwt>
<pdfrwt beam="1">  1       -1 0.80709536E-02 0.13964771E+03</pdfrwt>
<totfact> 0.57155084E+03</totfact>
</mgrwt>
</event>
<event>
 6    1  0.1045058E-005  0.1768054E+03  0.7546771E-02  0.1177645E+00
          2   -1    0    0  501    0  0.00000000000E+00  0.00000000000E+00  0.16592751646E+04  0.16592751646E+04  0.00000000000E+00 0. -1.
         -2   -1    0    0    0  501 -0.00000000000E+00 -0.00000000000E+00 -0.18004229584E+02  0.18004229584E+02  0.00000000000E+00 0.  1.
          5    1    1    2  502    0 -0.32149819367E+02 -0.12894660447E+03  0.71617227991E+03  0.72841311232E+03  0.47000000000E+01 0.  1.
         -5    1    1    2    0  502 -0.28304596720E+02  0.19489578699E+02  0.42045350276E+03  0.42188177474E+03  0.47000000000E+01 0.  1.
        -11    1    1    2    0    0  0.33182901778E+02  0.10131852222E+03  0.47100509134E+03  0.48292063943E+03  0.00000000000E+00 0. -1.
         11    1    1    2    0    0  0.27271514310E+02  0.81385035598E+01  0.33640061043E+02  0.44063867737E+02  0.00000000000E+00 0.  1.
<mgrwt>
<rscale>  0 0.17019468E+03</rscale>
<asrwt>0</asrwt>
<pdfrwt beam="1">  1        2 0.25527298E+00 0.17680542E+03</pdfrwt>
<pdfrwt beam="2">  1       -2 0.27698828E-02 0.17680542E+03</pdfrwt>
<totfact> 0.53181095E+03</totfact>
</mgrwt>
</event>
<event>
 6    1  0.1045058E-005  0.2295246E+03  0.7546771E-02  0.1129527E+00
         -1   -1    0    0    0  501 -0.00000000000E+00  0.00000000000E+00  0.26122674912E+02  0.26122674912E+02  0.00000000000E+00 0.  1.
          1   -1    0    0  501    0  0.00000000000E+00 -0.00000000000E+00 -0.28024706471E+04  0.28024706471E+04  0.00000000000E+00 0. -1.
          5    1    1    2  502    0 -0.56207833033E+02  0.39374582966E+02 -0.13820667566E+04  0.13837775428E+04  0.47000000000E+01 0. -1.
         -5    1    1    2    0  502 -0.25502438292E+02  0.11604627104E+03 -0.78082572905E+03  0.78982784233E+03  0.47000000000E+01 0. -1.
        -11    1    1    2    0    0 -0.26895457126E+02  0.71369927929E+01 -0.37084014408E+02  0.46362985287E+02  0.00000000000E+00 0.  1.
         11    1    1    2    0    0  0.10860572845E+03 -0.16255784679E+03 -0.57637147219E+03  0.60862495164E+03  0.00000000000E+00 0. -1.
<mgrwt>
<rscale>  0 0.22594502E+03</rscale>
<asrwt>0</asrwt>
<pdfrwt beam="2">  1        1 0.43114909E+00 0.22952465E+03</pdfrwt>
<pdfrwt beam="1">  1       -1 0.40188753E-02 0.22952465E+03</pdfrwt>
<totfact> 0.24455479E+02</totfact>
</mgrwt>
</event>
<event>
 6    1  0.1045058E-005  0.1318757E+03  0.7546771E-02  0.1238098E+00
          2   -1    0    0  501    0  0.00000000000E+00  0.00000000000E+00  0.12509563438E+04  0.12509563438E+04  0.00000000000E+00 0. -1.
         -2   -1    0    0    0  501 -0.00000000000E+00 -0.00000000000E+00 -0.11884456704E+02  0.11884456704E+02  0.00000000000E+00 0.  1.
          5    1    1    2  502    0 -0.29064090549E+02 -0.36402650729E+02  0.28088819530E+03  0.28476330978E+03  0.47000000000E+01 0. -1.
         -5    1    1    2    0  502  0.69459843744E+02  0.48009088513E+02  0.60885021724E+03  0.61469522490E+03  0.47000000000E+01 0. -1.
        -11    1    1    2    0    0 -0.69034217591E+02 -0.70749446742E+00  0.25611304426E+03  0.26525481181E+03  0.00000000000E+00 0. -1.
         11    1    1    2    0    0  0.28638464396E+02 -0.10898943317E+02  0.93220430321E+02  0.98127454047E+02  0.00000000000E+00 0.  1.
<mgrwt>
<rscale>  0 0.12308159E+03</rscale>
<asrwt>0</asrwt>
<pdfrwt beam="1">  1        2 0.19245472E+00 0.13187575E+03</pdfrwt>
<pdfrwt beam="2">  1       -2 0.18283789E-02 0.13187575E+03</pdfrwt>
<totfact> 0.15853710E+04</totfact>
</mgrwt>
</event>
<event>
 6    1  0.1045058E-005  0.2199513E+03  0.7546771E-02  0.1137662E+00
          1   -1    0    0  501    0  0.00000000000E+00  0.00000000000E+00  0.51338080645E+03  0.51338080645E+03  0.00000000000E+00 0. -1.
         -1   -1    0    0    0  501 -0.00000000000E+00 -0.00000000000E+00 -0.87526665066E+02  0.87526665066E+02  0.00000000000E+00 0.  1.
          5    1    1    2  502    0 -0.37028471803E+01 -0.16318955984E+03  0.15614418321E+03  0.22593724675E+03  0.47000000000E+01 0.  1.
         -5    1    1    2    0  502 -0.47423754177E+02 -0.10419062130E+02  0.10298783630E+03  0.11395680647E+03  0.47000000000E+01 0.  1.
        -11    1    1    2    0    0 -0.17839072988E+02  0.49714285365E+02  0.18691713401E+02  0.56027875600E+02  0.00000000000E+00 0.  1.
         11    1    1    2    0    0  0.68965674346E+02  0.12389433661E+03  0.14803040847E+03  0.20498554269E+03  0.00000000000E+00 0. -1.
<mgrwt>
<rscale>  0 0.21500608E+03</rscale>
<asrwt>0</asrwt>
<pdfrwt beam="1">  1        1 0.78981661E-01 0.21995128E+03</pdfrwt>
<pdfrwt beam="2">  1       -1 0.13465641E-01 0.21995128E+03</pdfrwt>
<totfact> 0.16570926E+03</totfact>
</mgrwt>
</event>
<event>
 6    1  0.1045058E-005  0.1352624E+03  0.7546771E-02  0.1232122E+00
         -2   -1    0    0    0  501 -0.00000000000E+00  0.00000000000E+00  0.22448975951E+02  0.22448975951E+02  0.00000000000E+00 0.  1.
          2   -1    0    0  501    0  0.00000000000E+00 -0.00000000000E+00 -0.18768446825E+04  0.18768446825E+04  0.00000000000E+00 0. -1.
          5    1    1    2  502    0  0.25182824861E+02 -0.89401812313E+02 -0.11746515619E+04  0.11783273062E+04  0.47000000000E+01 0.  1.
         -5    1    1    2    0  502 -0.55485177407E+01  0.41594917310E+02 -0.56099947992E+03  0.56258637529E+03  0.47000000000E+01 0.  1.
        -11    1    1    2    0    0  0.13010591373E+02 -0.60506923744E+01 -0.86395377712E+02  0.87578808259E+02  0.00000000000E+00 0. -1.
         11    1    1    2    0    0 -0.32644898494E+02  0.53857587377E+02 -0.32349287021E+02  0.70801168680E+02  0.00000000000E+00 0.  1.
<mgrwt>
<rscale>  0 0.12690461E+03</rscale>
<asrwt>0</asrwt>
<pdfrwt beam="2">  1        2 0.28874524E+00 0.13526237E+03</pdfrwt>
<pdfrwt beam="1">  1       -2 0.34536897E-02 0.13526237E+03</pdfrwt>
<totfact> 0.29591785E+03</totfact>
</mgrwt>
</event>
<event>
 6    1  0.1045058E-005  0.3282404E+03  0.7546771E-02  0.1071918E+00
         -2   -1    0    0    0  501 -0.00000000000E+00  0.00000000000E+00  0.42814284705E+02  0.42814284705E+02  0.00000000000E+00 0.  1.
          2   -1    0    0  501    0  0.00000000000E+00 -0.00000000000E+00 -0.62912288536E+03  0.62912288536E+03  0.00000000000E+00 0. -1.
          5    1    1    2  502    0 -0.27270834573E+02 -0.47393653523E+00 -0.11555757922E+03  0.11882578487E+03  0.47000000000E+01 0. -1.
         -5    1    1    2    0  502  0.10824547380E+03 -0.85941627263E+02 -0.26661508316E+03  0.30034769595E+03  0.47000000000E+01 0. -1.
        -11    1    1    2    0    0 -0.44715809670E+02  0.11624382083E+02 -0.19246086452E+02  0.50050391976E+02  0.00000000000E+00 0.  1.
         11    1    1    2    0    0 -0.36258829556E+02  0.74791181715E+02 -0.18488985182E+03  0.20271329727E+03  0.00000000000E+00 0. -1.
<mgrwt>
<rscale>  0 0.32824044E+03</rscale>
<asrwt>0</asrwt>
<pdfrwt beam="2">  1        2 0.96788141E-01 0.32824044E+03</pdfrwt>
<pdfrwt beam="1">  1       -2 0.65868127E-02 0.32824044E+03</pdfrwt>
<totfact> 0.61267910E+03</totfact>
</mgrwt>
</event>
<event>
 6    1  0.1045058E-005  0.1557620E+03  0.7546771E-02  0.1201350E+00
          1   -1    0    0  501    0  0.00000000000E+00  0.00000000000E+00  0.12238915091E+03  0.12238915091E+03  0.00000000000E+00 0. -1.
         -1   -1    0    0    0  501 -0.00000000000E+00 -0.00000000000E+00 -0.16848777542E+03  0.16848777542E+03  0.00000000000E+00 0.  1.
          5    1    1    2  502    0  0.25269709716E+02  0.61048235460E+02  0.35023513055E+02  0.74927843614E+02  0.47000000000E+01 0. -1.
         -5    1    1    2    0  502 -0.49317945392E+02  0.28722640663E+02 -0.59791383249E+02  0.82790997911E+02  0.47000000000E+01 0. -1.
        -11    1    1    2    0    0  0.58295487177E+02 -0.43573162383E+02 -0.20624833621E+02  0.75646335451E+02  0.00000000000E+00 0. -1.
         11    1    1    2    0    0 -0.34247251501E+02 -0.46197713740E+02 -0.70592069231E+00  0.57511749358E+02  0.00000000000E+00 0.  1.
<mgrwt>
<rscale>  0 0.14928861E+03</rscale>
<asrwt>0</asrwt>
<pdfrwt beam="1">  1        1 0.18829100E-01 0.15576195E+03</pdfrwt>
<pdfrwt beam="2">  1       -1 0.25921196E-01 0.15576195E+03</pdfrwt>
<totfact> 0.35086882E+03</totfact>
</mgrwt>
</event>
<event>
 6    1  0.1045058E-005  0.3291895E+03  0.7546771E-02  0.1072756E+00
          2   -1    0    0  501    0  0.00000000000E+00  0.00000000000E+00  0.26535058865E+04  0.26535058865E+04  0.00000000000E+00 0.  1.
         -2   -1    0    0    0  501 -0.00000000000E+00 -0.00000000000E+00 -0.39540751771E+02  0.39540751771E+02  0.00000000000E+00 0. -1.
          5    1    1    2  502    0 -0.10068152784E+02 -0.12359565418E+03  0.33087809536E+03  0.35338315950E+03  0.47000000000E+01 0.  1.
         -5    1    1    2    0  502 -0.11408788961E+03 -0.15448276731E+03  0.94072824205E+03  0.96014201416E+03  0.47000000000E+01 0.  1.
        -11    1    1    2    0    0  0.93326831050E+02  0.17007414442E+03  0.10165583746E+04  0.10349038801E+04  0.00000000000E+00 0.  1.
         11    1    1    2    0    0  0.30829211346E+02  0.10800427707E+03  0.32580042274E+03  0.34461758457E+03  0.00000000000E+00 0. -1.
<mgrwt>
<rscale>  0 0.32636715E+03</rscale>
<asrwt>0</asrwt>
<pdfrwt beam="1">  1        2 0.40823153E+00 0.32918947E+03</pdfrwt>
<pdfrwt beam="2">  1       -2 0.60831947E-02 0.32918947E+03</pdfrwt>
<totfact> 0.47235013E+02</totfact>
</mgrwt>
</event>
<event>
 6    1  0.1045058E-005  0.1553498E+03  0.7546771E-02  0.1202756E+00
         -2   -1    0    0    0  501 -0.00000000000E+00  0.00000000000E+00  0.17910758210E+02  0.17910758210E+02  0.00000000000E+00 0.  1.
          2   -1    0    0  501    0  0.00000000000E+00 -0.00000000000E+00 -0.12778785247E+04  0.12778785247E+04  0.00000000000E+00 0. -1.
          5    1    1    2  502    0 -0.28690093562E+02 -0.26609929942E+02 -0.37912940165E+03  0.38117240592E+03  0.47000000000E+01 0. -1.
         -5    1    1    2    0  502  0.10659684306E+03 -0.22775825627E+02 -0.52668110479E+03  0.53786308790E+03  0.47000000000E+01 0. -1.
        -11    1    1    2    0    0 -0.53676382751E+02  0.28394728376E+02 -0.33265555678E+03  0.33815253085E+03  0.00000000000E+00 0. -1.
         11    1    1    2    0    0 -0.24230366750E+02  0.20991027193E+02 -0.21501703314E+02  0.38601258281E+02  0.00000000000E+00 0.  1.
<mgrwt>
<rscale>  0 0.14815671E+03</rscale>
<asrwt>0</asrwt>
<pdfrwt beam="2">  1        2 0.19659671E+00 0.15534982E+03</pdfrwt>
<pdfrwt beam="1">  1       -2 0.27555010E-02 0.15534982E+03</pdfrwt>
<totfact> 0.84969173E+03</totfact>
</mgrwt>
</event>
<event>
 6    1  0.1045058E-005  0.1319761E+03  0.7546771E-02  0.1238603E+00
         -2   -1    0    0    0  501 -0.00000000000E+00  0.00000000000E+00  0.26746808960E+02  0.26746808960E+02  0.00000000000E+00 0.  1.
          2   -1    0    0  501    0  0.00000000000E+00 -0.00000000000E+00 -0.57174775040E+03  0.57174775040E+03  0.00000000000E+00 0. -1.
          5    1    1    2  502    0  0.80730938667E+01 -0.47530634917E+02 -0.59895774290E+02  0.77032005543E+02  0.47000000000E+01 0.  1.
         -5    1    1    2    0  502  0.32822910579E+02  0.36536284482E+02 -0.35330825367E+03  0.35673667551E+03  0.47000000000E+01 0.  1.
        -11    1    1    2    0    0 -0.50430249716E+02  0.34948683439E+02 -0.50586477209E+02  0.79521143333E+02  0.00000000000E+00 0.  1.
         11    1    1    2    0    0  0.95342452695E+01 -0.23954333005E+02 -0.81210436269E+02  0.85204734972E+02  0.00000000000E+00 0. -1.
<mgrwt>
<rscale>  0 0.12276542E+03</rscale>
<asrwt>0</asrwt>
<pdfrwt beam="2">  1        2 0.87961193E-01 0.13197613E+03</pdfrwt>
<pdfrwt beam="1">  1       -2 0.41148936E-02 0.13197613E+03</pdfrwt>
<totfact> 0.13318652E+04</totfact>
</mgrwt>
</event>
<event>
 6    1  0.1045058E-005  0.1398221E+03  0.7546771E-02  0.1224709E+00
          2   -1    0    0  501    0  0.00000000000E+00  0.00000000000E+00  0.20525799717E+03  0.20525799717E+03  0.00000000000E+00 0. -1.
         -2   -1    0    0    0  501 -0.00000000000E+00 -0.00000000000E+00 -0.80081849248E+02  0.80081849248E+02  0.00000000000E+00 0.  1.
          5    1    1    2  502    0  0.87574921786E+01  0.37616152981E+02  0.29331403045E+02  0.48724632773E+02  0.47000000000E+01 0.  1.
         -5    1    1    2    0  502 -0.10190112575E+02 -0.10026249758E+03  0.70633231604E+02  0.12315660852E+03  0.47000000000E+01 0.  1.
        -11    1    1    2    0    0  0.34042526483E+02  0.43370372461E+02 -0.16071294552E+02  0.57429690277E+02  0.00000000000E+00 0. -1.
         11    1    1    2    0    0 -0.32609906086E+02  0.19275972141E+02  0.41282807830E+02  0.56028914850E+02  0.00000000000E+00 0.  1.
<mgrwt>
<rscale>  0 0.13186890E+03</rscale>
<asrwt>0</asrwt>
<pdfrwt beam="1">  1        2 0.31578153E-01 0.13982215E+03</pdfrwt>
<pdfrwt beam="2">  1       -2 0.12320285E-01 0.13982215E+03</pdfrwt>
<totfact> 0.74591375E+03</totfact>
</mgrwt>
</event>
<event>
 6    1  0.1045058E-005  0.1506179E+03  0.7546771E-02  0.1208830E+00
         -2   -1    0    0    0  501 -0.00000000000E+00  0.00000000000E+00  0.39733497978E+02  0.39733497978E+02  0.00000000000E+00 0.  1.
          2   -1    0    0  501    0  0.00000000000E+00 -0.00000000000E+00 -0.47925229486E+03  0.47925229486E+03  0.00000000000E+00 0. -1.
          5    1    1    2  502    0 -0.79052434100E+02 -0.48212950081E+01 -0.70504850036E+02  0.10613932401E+03  0.47000000000E+01 0.  1.
         -5    1    1    2    0  502  0.64404671619E+01 -0.37459757862E+02 -0.19850436656E+03  0.20216524583E+03  0.47000000000E+01 0.  1.
        -11    1    1    2    0    0  0.37727864119E+02  0.36731471694E+02 -0.16709344439E+03  0.17519364116E+03  0.00000000000E+00 0.  1.
         11    1    1    2    0    0  0.34884102819E+02  0.55495811767E+01 -0.34161358947E+01  0.35487581844E+02  0.00000000000E+00 0. -1.
<mgrwt>
<rscale>  0 0.14339704E+03</rscale>
<asrwt>0</asrwt>
<pdfrwt beam="2">  1        2 0.73731124E-01 0.15061789E+03</pdfrwt>
<pdfrwt beam="1">  1       -2 0.61128457E-02 0.15061789E+03</pdfrwt>
<totfact> 0.90149055E+03</totfact>
</mgrwt>
</event>
<event>
 6    1  0.1045058E-005  0.2510443E+03  0.7546771E-02  0.1112647E+00
          2   -1    0    0  501    0  0.00000000000E+00  0.00000000000E+00  0.10440710839E+03  0.10440710839E+03  0.00000000000E+00 0. -1.
         -2   -1    0    0    0  501 -0.00000000000E+00 -0.00000000000E+00 -0.15090746534E+03  0.15090746534E+03  0.00000000000E+00 0.  1.
          5    1    1    2  502    0  0.75256687363E+02 -0.57938141411E+01 -0.29094074944E+02  0.81028960700E+02  0.47000000000E+01 0.  1.
         -5    1    1    2    0  502 -0.27405358006E+02  0.60777025175E+01  0.45677571051E+02  0.53819351654E+02  0.47000000000E+01 0.  1.
        -11    1    1    2    0    0 -0.35280124777E+02 -0.44120716534E+02 -0.40964994212E+02  0.69781484525E+02  0.00000000000E+00 0.  1.
         11    1    1    2    0    0 -0.12571204580E+02  0.43836828157E+02 -0.22118858843E+02  0.50684776847E+02  0.00000000000E+00 0. -1.
<mgrwt>
<rscale>  0 0.25104432E+03</rscale>
<asrwt>0</asrwt>
<pdfrwt beam="1">  1        2 0.16062632E-01 0.25104432E+03</pdfrwt>
<pdfrwt beam="2">  1       -2 0.23216533E-01 0.25104432E+03</pdfrwt>
<totfact> 0.57483509E+03</totfact>
</mgrwt>
</event>
<event>
 6    1  0.1045058E-005  0.4848195E+03  0.7546771E-02  0.1017819E+00
          1   -1    0    0  501    0  0.00000000000E+00  0.00000000000E+00  0.21564096381E+03  0.21564096381E+03  0.00000000000E+00 0. -1.
         -1   -1    0    0    0  501 -0.00000000000E+00 -0.00000000000E+00 -0.27250149687E+03  0.27250149687E+03  0.00000000000E+00 0.  1.
          5    1    1    2  502    0 -0.50662280778E+02  0.65644500033E+02  0.12733567815E+03  0.15202740545E+03  0.47000000000E+01 0. -1.
         -5    1    1    2    0  502  0.31191242617E+02 -0.24499751551E+02  0.60356631670E+02  0.72375026277E+02  0.47000000000E+01 0.  1.
        -11    1    1    2    0    0 -0.23028944223E+02 -0.33528647263E+02 -0.18928436206E+03  0.19360545493E+03  0.00000000000E+00 0. -1.
         11    1    1    2    0    0  0.42499982384E+02 -0.76161012183E+01 -0.55268480816E+02  0.70134574014E+02  0.00000000000E+00 0.  1.
<mgrwt>
<rscale>  0 0.48481949E+03</rscale>
<asrwt>0</asrwt>
<pdfrwt beam="1">  1        1 0.33175533E-01 0.48481949E+03</pdfrwt>
<pdfrwt beam="2">  1       -1 0.41923307E-01 0.48481949E+03</pdfrwt>
<totfact> 0.75790365E+02</totfact>
</mgrwt>
</event>
<event>
 6    1  0.1045058E-005  0.1286927E+03  0.7546771E-02  0.1243814E+00
         -2   -1    0    0    0  501 -0.00000000000E+00  0.00000000000E+00  0.20406299951E+02  0.20406299951E+02  0.00000000000E+00 0.  1.
          2   -1    0    0  501    0  0.00000000000E+00 -0.00000000000E+00 -0.62950800186E+03  0.62950800186E+03  0.00000000000E+00 0. -1.
          5    1    1    2  502    0  0.38862106376E+02 -0.83543026571E+01 -0.31874466188E+03  0.32124804616E+03  0.47000000000E+01 0.  1.
         -5    1    1    2    0  502 -0.50516913056E+02 -0.19942420567E+02 -0.73099492602E+02  0.91188181589E+02  0.47000000000E+01 0.  1.
        -11    1    1    2    0    0 -0.26483313355E+02 -0.52139297421E+01 -0.19476328295E+02  0.33284806046E+02  0.00000000000E+00 0.  1.
         11    1    1    2    0    0  0.38138120036E+02  0.33510652966E+02 -0.19778121913E+03  0.20419326801E+03  0.00000000000E+00 0. -1.
<mgrwt>
<rscale>  0 0.11956643E+03</rscale>
<asrwt>0</asrwt>
<pdfrwt beam="2">  1        2 0.96847371E-01 0.12869266E+03</pdfrwt>
<pdfrwt beam="1">  1       -2 0.31394312E-02 0.12869266E+03</pdfrwt>
<totfact> 0.17774349E+04</totfact>
</mgrwt>
</event>
<event>
 6    1  0.1045058E-005  0.1374768E+03  0.7546771E-02  0.1228766E+00
          1   -1    0    0  501    0  0.00000000000E+00  0.00000000000E+00  0.33639124092E+03  0.33639124092E+03  0.00000000000E+00 0. -1.
         -1   -1    0    0    0  501 -0.00000000000E+00 -0.00000000000E+00 -0.44501767552E+02  0.44501767552E+02  0.00000000000E+00 0.  1.
          5    1    1    2  502    0  0.18232562056E+02  0.87742042014E+02  0.11863922648E+03  0.14875633874E+03  0.47000000000E+01 0.  1.
         -5    1    1    2    0  502 -0.32230317049E+02 -0.32240762780E+02  0.36964484898E+02  0.58878886416E+02  0.47000000000E+01 0.  1.
        -11    1    1    2    0    0 -0.35950420335E+02 -0.11790499177E+02  0.31556833322E+02  0.49267457032E+02  0.00000000000E+00 0.  1.
         11    1    1    2    0    0  0.49948175329E+02 -0.43710780057E+02  0.10472892867E+03  0.12399032628E+03  0.00000000000E+00 0. -1.
<mgrwt>
<rscale>  0 0.12912087E+03</rscale>
<asrwt>0</asrwt>
<pdfrwt beam="1">  1        1 0.51752497E-01 0.13747680E+03</pdfrwt>
<pdfrwt beam="2">  1       -1 0.68464260E-02 0.13747680E+03</pdfrwt>
<totfact> 0.78801383E+03</totfact>
</mgrwt>
</event>
<event>
 6    1  0.1045058E-005  0.1343003E+03  0.7546771E-02  0.1235609E+00
          1   -1    0    0  501    0  0.00000000000E+00  0.00000000000E+00  0.14988306728E+03  0.14988306728E+03  0.00000000000E+00 0. -1.
         -1   -1    0    0    0  501 -0.00000000000E+00 -0.00000000000E+00 -0.92061630062E+02  0.92061630062E+02  0.00000000000E+00 0.  1.
          5    1    1    2  502    0  0.13948379312E+02 -0.45463945219E+02 -0.35665810560E+02  0.59629419276E+02  0.47000000000E+01 0.  1.
         -5    1    1    2    0  502  0.16375624822E+02  0.68313570182E+01  0.79578141987E+02  0.81667614200E+02  0.47000000000E+01 0.  1.
        -11    1    1    2    0    0 -0.26026309820E+02 -0.22396092531E+02  0.19024941905E+02  0.39254326870E+02  0.00000000000E+00 0.  1.
         11    1    1    2    0    0 -0.42976943139E+01  0.61028680732E+02 -0.51158361140E+01  0.61393336996E+02  0.00000000000E+00 0. -1.
<mgrwt>
<rscale>  0 0.12465559E+03</rscale>
<asrwt>0</asrwt>
<pdfrwt beam="1">  1        1 0.23058933E-01 0.13430026E+03</pdfrwt>
<pdfrwt beam="2">  1       -1 0.14163328E-01 0.13430026E+03</pdfrwt>
<totfact> 0.70856289E+03</totfact>
</mgrwt>
</event>
<event>
 6    1  0.1045058E-005  0.2314619E+03  0.7546771E-02  0.1128638E+00
         -2   -1    0    0    0  501 -0.00000000000E+00  0.00000000000E+00  0.28065520592E+02  0.28065520592E+02  0.00000000000E+00 0.  1.
          2   -1    0    0  501    0  0.00000000000E+00 -0.00000000000E+00 -0.20260941186E+04  0.20260941186E+04  0.00000000000E+00 0. -1.
          5    1    1    2  502    0 -0.12052576017E+02 -0.60403034670E+01 -0.43394975551E+03  0.43418455772E+03  0.47000000000E+01 0. -1.
         -5    1    1    2    0  502  0.41850834595E+02 -0.18647463035E+03 -0.95967796515E+03  0.97853368206E+03  0.47000000000E+01 0. -1.
        -11    1    1    2    0    0  0.23139091521E+02  0.10801796757E+02 -0.74291563138E+02  0.78557830438E+02  0.00000000000E+00 0. -1.
         11    1    1    2    0    0 -0.52937350100E+02  0.18171313706E+03 -0.53010931424E+03  0.56288356901E+03  0.00000000000E+00 0.  1.
<mgrwt>
<rscale>  0 0.22718368E+03</rscale>
<asrwt>0</asrwt>
<pdfrwt beam="2">  1        2 0.31170678E+00 0.23146188E+03</pdfrwt>
<pdfrwt beam="1">  1       -2 0.43177725E-02 0.23146188E+03</pdfrwt>
<totfact> 0.17668849E+03</totfact>
</mgrwt>
</event>
<event>
 6    1  0.1045058E-005  0.1121654E+03  0.7546771E-02  0.1262587E+00
         -2   -1    0    0    0  501 -0.00000000000E+00  0.00000000000E+00  0.86964144334E+01  0.86964144334E+01  0.00000000000E+00 0.  1.
          2   -1    0    0  501    0  0.00000000000E+00 -0.00000000000E+00 -0.13330051532E+04  0.13330051532E+04  0.00000000000E+00 0. -1.
          5    1    1    2  502    0  0.13661264970E+02 -0.64232317038E+01 -0.79698938282E+03  0.79714619386E+03  0.47000000000E+01 0. -1.
         -5    1    1    2    0  502 -0.38789414810E+01  0.18691837906E+02 -0.22066359658E+02  0.29554106650E+02  0.47000000000E+01 0.  1.
        -11    1    1    2    0    0 -0.53619415247E+02 -0.76061833817E+01 -0.32184370049E+03  0.32636829390E+03  0.00000000000E+00 0.  1.
         11    1    1    2    0    0  0.43837091758E+02 -0.46624228209E+01 -0.18340929581E+03  0.18863297323E+03  0.00000000000E+00 0. -1.
<mgrwt>
<rscale>  0 0.10891776E+03</rscale>
<asrwt>0</asrwt>
<pdfrwt beam="2">  1        2 0.20507769E+00 0.11216540E+03</pdfrwt>
<pdfrwt beam="1">  1       -2 0.13379101E-02 0.11216540E+03</pdfrwt>
<totfact> 0.22210058E+04</totfact>
</mgrwt>
</event>
<event>
 6    1  0.1045058E-005  0.1446578E+03  0.7546771E-02  0.1217027E+00
          2   -1    0    0  501    0  0.00000000000E+00  0.00000000000E+00  0.37056533419E+02  0.37056533419E+02  0.00000000000E+00 0.  1.
         -2   -1    0    0    0  501 -0.00000000000E+00 -0.00000000000E+00 -0.49041252098E+03  0.49041252098E+03  0.00000000000E+00 0. -1.
          5    1    1    2  502    0  0.13051986376E+02  0.70643884841E+02 -0.14457286733E+03  0.16150639858E+03  0.47000000000E+01 0.  1.
         -5    1    1    2    0  502  0.50533267140E+02 -0.35216745913E+02 -0.42539820905E+02  0.75003710863E+02  0.47000000000E+01 0.  1.
        -11    1    1    2    0    0 -0.11778448886E+02 -0.32102629056E+02 -0.20666768111E+02  0.39955299455E+02  0.00000000000E+00 0.  1.
         11    1    1    2    0    0 -0.51806804631E+02 -0.33245098722E+01 -0.24557653122E+03  0.25100364550E+03  0.00000000000E+00 0. -1.
<mgrwt>
<rscale>  0 0.13728701E+03</rscale>
<asrwt>0</asrwt>
<pdfrwt beam="1">  1        2 0.57010050E-02 0.14465778E+03</pdfrwt>
<pdfrwt beam="2">  1       -2 0.75448082E-01 0.14465778E+03</pdfrwt>
<totfact> 0.20672652E+03</totfact>
</mgrwt>
</event>
<event>
 6    1  0.1045058E-005  0.1577890E+03  0.7546771E-02  0.1198834E+00
          2   -1    0    0  501    0  0.00000000000E+00  0.00000000000E+00  0.81126177336E+03  0.81126177336E+03  0.00000000000E+00 0.  1.
         -2   -1    0    0    0  501 -0.00000000000E+00 -0.00000000000E+00 -0.27152131923E+02  0.27152131923E+02  0.00000000000E+00 0. -1.
          5    1    1    2  502    0 -0.21677437041E+02 -0.11788468779E+03  0.46306740193E+03  0.47835156488E+03  0.47000000000E+01 0.  1.
         -5    1    1    2    0  502 -0.85795024514E+01  0.26468361285E+02  0.40522736469E+02  0.49379795285E+02  0.47000000000E+01 0.  1.
        -11    1    1    2    0    0  0.49130037044E+02  0.10097991333E+03  0.23192642655E+03  0.25768308204E+03  0.00000000000E+00 0. -1.
         11    1    1    2    0    0 -0.18873097552E+02 -0.95635868306E+01  0.48593076485E+02  0.52999463078E+02  0.00000000000E+00 0.  1.
<mgrwt>
<rscale>  0 0.15134179E+03</rscale>
<asrwt>0</asrwt>
<pdfrwt beam="1">  1        2 0.12480948E+00 0.15778898E+03</pdfrwt>
<pdfrwt beam="2">  1       -2 0.41772517E-02 0.15778898E+03</pdfrwt>
<totfact> 0.87054572E+03</totfact>
</mgrwt>
</event>
<event>
 6    1  0.1045058E-005  0.1811498E+03  0.7546771E-02  0.1172198E+00
         -2   -1    0    0    0  501 -0.00000000000E+00  0.00000000000E+00  0.19577584754E+03  0.19577584754E+03  0.00000000000E+00 0.  1.
          2   -1    0    0  501    0  0.00000000000E+00 -0.00000000000E+00 -0.14838428008E+03  0.14838428008E+03  0.00000000000E+00 0. -1.
          5    1    1    2  502    0 -0.52148874926E+02 -0.91125549232E+01  0.63821285103E+02  0.83052936405E+02  0.47000000000E+01 0. -1.
         -5    1    1    2    0  502 -0.66189163330E+02  0.65556453224E+02 -0.36462446379E+02  0.10015115525E+03  0.47000000000E+01 0. -1.
        -11    1    1    2    0    0  0.88597132153E+02 -0.81580284995E+02  0.19552034273E+02  0.12201260906E+03  0.00000000000E+00 0.  1.
         11    1    1    2    0    0  0.29740906103E+02  0.25136386694E+02  0.48069446723E+00  0.38943426904E+02  0.00000000000E+00 0. -1.
<mgrwt>
<rscale>  0 0.17553253E+03</rscale>
<asrwt>0</asrwt>
<pdfrwt beam="2">  1        2 0.22828351E-01 0.18114975E+03</pdfrwt>
<pdfrwt beam="1">  1       -2 0.30119361E-01 0.18114975E+03</pdfrwt>
<totfact> 0.23759905E+03</totfact>
</mgrwt>
</event>
<event>
 6    1  0.1045058E-005  0.1332530E+03  0.7546771E-02  0.1237254E+00
         -1   -1    0    0    0  501 -0.00000000000E+00  0.00000000000E+00  0.10058787652E+02  0.10058787652E+02  0.00000000000E+00 0.  1.
          1   -1    0    0  501    0  0.00000000000E+00 -0.00000000000E+00 -0.14811504497E+04  0.14811504497E+04  0.00000000000E+00 0. -1.
          5    1    1    2  502    0 -0.76665424580E+02 -0.13090216856E+02 -0.42339321129E+03  0.43050301099E+03  0.47000000000E+01 0. -1.
         -5    1    1    2    0  502  0.37303278698E+02 -0.11019879786E+02 -0.64143532665E+03  0.64263079652E+03  0.47000000000E+01 0. -1.
        -11    1    1    2    0    0  0.24881373498E+02 -0.28014324827E+02 -0.94563571457E+02  0.10171604686E+03  0.00000000000E+00 0.  1.
         11    1    1    2    0    0  0.14480772385E+02  0.52124421469E+02 -0.31169955262E+03  0.31635938296E+03  0.00000000000E+00 0. -1.
<mgrwt>
<rscale>  0 0.12361259E+03</rscale>
<asrwt>0</asrwt>
<pdfrwt beam="2">  1        1 0.22786916E+00 0.13325297E+03</pdfrwt>
<pdfrwt beam="1">  1       -1 0.15475067E-02 0.13325297E+03</pdfrwt>
<totfact> 0.71770443E+03</totfact>
</mgrwt>
</event>
<event>
 6    1  0.1045058E-005  0.1308710E+03  0.7546771E-02  0.1240057E+00
         -4   -1    0    0    0  501 -0.00000000000E+00  0.00000000000E+00  0.26973245752E+03  0.26973245752E+03  0.00000000000E+00 0. -1.
          4   -1    0    0  501    0  0.00000000000E+00 -0.00000000000E+00 -0.64908596085E+02  0.64908596085E+02  0.00000000000E+00 0.  1.
          5    1    1    2  502    0 -0.19177141093E+02  0.62559552913E+02 -0.16824839442E+02  0.67724630847E+02  0.47000000000E+01 0. -1.
         -5    1    1    2    0  502  0.37271336074E+02 -0.28299884384E+02  0.47183602039E+02  0.66621454879E+02  0.47000000000E+01 0. -1.
        -11    1    1    2    0    0 -0.35475418473E+02 -0.13936528679E+02  0.16868230530E+03  0.17293482087E+03  0.00000000000E+00 0. -1.
         11    1    1    2    0    0  0.17381223492E+02 -0.20323139850E+02  0.57827935421E+01  0.27360147014E+02  0.00000000000E+00 0.  1.
<mgrwt>
<rscale>  0 0.12186163E+03</rscale>
<asrwt>0</asrwt>
<pdfrwt beam="2">  1        4 0.99859380E-02 0.13087099E+03</pdfrwt>
<pdfrwt beam="1">  1       -4 0.41497301E-01 0.13087099E+03</pdfrwt>
<totfact> 0.70662703E+02</totfact>
</mgrwt>
</event>
<event>
 6    1  0.1045058E-005  0.4480795E+03  0.7546771E-02  0.1028296E+00
         -2   -1    0    0    0  501 -0.00000000000E+00  0.00000000000E+00  0.11234155638E+03  0.11234155638E+03  0.00000000000E+00 0.  1.
          2   -1    0    0  501    0  0.00000000000E+00 -0.00000000000E+00 -0.44679637199E+03  0.44679637199E+03  0.00000000000E+00 0. -1.
          5    1    1    2  502    0  0.14408080116E+02  0.11827602891E+02 -0.19510710656E+02  0.27390560291E+02  0.47000000000E+01 0.  1.
         -5    1    1    2    0  502 -0.86221257816E+02 -0.19286998058E+03 -0.12817114982E+03  0.24714948585E+03  0.47000000000E+01 0.  1.
        -11    1    1    2    0    0  0.32559240622E+02  0.42274405699E+02 -0.65223447484E+01  0.53756585719E+02  0.00000000000E+00 0.  1.
         11    1    1    2    0    0  0.39253937078E+02  0.13876797199E+03 -0.18025061039E+03  0.23084129651E+03  0.00000000000E+00 0. -1.
<mgrwt>
<rscale>  0 0.44807946E+03</rscale>
<asrwt>0</asrwt>
<pdfrwt beam="2">  1        2 0.68737902E-01 0.44807946E+03</pdfrwt>
<pdfrwt beam="1">  1       -2 0.17283317E-01 0.44807946E+03</pdfrwt>
<totfact> 0.19177581E+03</totfact>
</mgrwt>
</event>
<event>
 6    1  0.1045058E-005  0.1650766E+03  0.7546771E-02  0.1210622E+00
         -1   -1    0    0    0  501 -0.00000000000E+00  0.00000000000E+00  0.18539585818E+03  0.18539585818E+03  0.00000000000E+00 0.  1.
          1   -1    0    0  501    0  0.00000000000E+00 -0.00000000000E+00 -0.92423015420E+02  0.92423015420E+02  0.00000000000E+00 0. -1.
          5    1    1    2  502    0  0.42035889078E+02  0.22873256567E+02 -0.50192860830E+02  0.69509820277E+02  0.47000000000E+01 0. -1.
         -5    1    1    2    0  502 -0.20983768792E+02 -0.52002693335E+02  0.80667481856E+02  0.98356145186E+02  0.47000000000E+01 0.  1.
        -11    1    1    2    0    0 -0.11513208146E+02 -0.14253973600E+02  0.62917487737E+02  0.65531213848E+02  0.00000000000E+00 0.  1.
         11    1    1    2    0    0 -0.95389121404E+01  0.43383410368E+02 -0.41926599862E+00  0.44421694294E+02  0.00000000000E+00 0. -1.
<mgrwt>
<rscale>  0 0.14203071E+03</rscale>
<asrwt>0</asrwt>
<pdfrwt beam="2">  1        1 0.14218925E-01 0.16507659E+03</pdfrwt>
<pdfrwt beam="1">  1       -1 0.28522440E-01 0.16507659E+03</pdfrwt>
<totfact> 0.43157853E+03</totfact>
</mgrwt>
</event>
<event>
 6    1  0.1045058E-005  0.2623405E+03  0.7546771E-02  0.1107949E+00
         -2   -1    0    0    0  501 -0.00000000000E+00  0.00000000000E+00  0.24360538106E+02  0.24360538106E+02  0.00000000000E+00 0. -1.
          2   -1    0    0  501    0  0.00000000000E+00 -0.00000000000E+00 -0.26766753038E+04  0.26766753038E+04  0.00000000000E+00 0.  1.
          5    1    1    2  502    0  0.11213935840E+03 -0.46092296908E+02 -0.44367653355E+03  0.45996814233E+03  0.47000000000E+01 0.  1.
         -5    1    1    2    0  502  0.59704719958E+02 -0.10771257953E+03 -0.97524756866E+03  0.98300384717E+03  0.47000000000E+01 0.  1.
        -11    1    1    2    0    0 -0.72926896978E+02  0.12532399186E+03 -0.72376063339E+03  0.73814218799E+03  0.00000000000E+00 0. -1.
         11    1    1    2    0    0 -0.98917181383E+02  0.28480884574E+02 -0.50963003009E+03  0.51992166441E+03  0.00000000000E+00 0.  1.
<mgrwt>
<rscale>  0 0.25866271E+03</rscale>
<asrwt>0</asrwt>
<pdfrwt beam="2">  1        2 0.41179587E+00 0.26234053E+03</pdfrwt>
<pdfrwt beam="1">  1       -2 0.37477781E-02 0.26234053E+03</pdfrwt>
<totfact> 0.97170958E+02</totfact>
</mgrwt>
</event>
<event>
 6    1  0.1045058E-005  0.3116360E+03  0.7546771E-02  0.1079564E+00
          2   -1    0    0  501    0  0.00000000000E+00  0.00000000000E+00  0.81247724763E+02  0.81247724763E+02  0.00000000000E+00 0.  1.
         -2   -1    0    0    0  501 -0.00000000000E+00 -0.00000000000E+00 -0.29882986845E+03  0.29882986845E+03  0.00000000000E+00 0. -1.
          5    1    1    2  502    0  0.10077696188E+03  0.50459182532E+02 -0.67124196820E+01  0.11300120232E+03  0.47000000000E+01 0.  1.
         -5    1    1    2    0  502 -0.33364633169E+01 -0.40300402533E+01 -0.67830631858E+02  0.68194265376E+02  0.47000000000E+01 0.  1.
        -11    1    1    2    0    0  0.47634687298E+01 -0.34001355963E+02 -0.46013739543E+02  0.57411210303E+02  0.00000000000E+00 0.  1.
         11    1    1    2    0    0 -0.10220396729E+03 -0.12427786316E+02 -0.97025352606E+02  0.14147091522E+03  0.00000000000E+00 0. -1.
<mgrwt>
<rscale>  0 0.31163599E+03</rscale>
<asrwt>0</asrwt>
<pdfrwt beam="1">  1        2 0.12499650E-01 0.31163599E+03</pdfrwt>
<pdfrwt beam="2">  1       -2 0.45973825E-01 0.31163599E+03</pdfrwt>
<totfact> 0.22104350E+03</totfact>
</mgrwt>
</event>
<event>
 6    1  0.1045058E-005  0.2159878E+03  0.7546771E-02  0.1140668E+00
          2   -1    0    0  501    0  0.00000000000E+00  0.00000000000E+00  0.12294651032E+04  0.12294651032E+04  0.00000000000E+00 0. -1.
         -2   -1    0    0    0  501 -0.00000000000E+00 -0.00000000000E+00 -0.35309024490E+02  0.35309024490E+02  0.00000000000E+00 0.  1.
          5    1    1    2  502    0  0.66409011155E+02  0.76207014930E+02  0.32567808319E+03  0.34103661058E+03  0.47000000000E+01 0. -1.
         -5    1    1    2    0  502  0.10648458584E+03 -0.42578177287E+02  0.37960316208E+03  0.39657599381E+03  0.47000000000E+01 0. -1.
        -11    1    1    2    0    0 -0.58770056584E+02  0.16251460725E+02  0.85636960777E+02  0.10512715433E+03  0.00000000000E+00 0. -1.
         11    1    1    2    0    0 -0.11412354041E+03 -0.49880298368E+02  0.40323787265E+03  0.42203436895E+03  0.00000000000E+00 0.  1.
<mgrwt>
<rscale>  0 0.21113805E+03</rscale>
<asrwt>0</asrwt>
<pdfrwt beam="1">  1        2 0.18914844E+00 0.21598778E+03</pdfrwt>
<pdfrwt beam="2">  1       -2 0.54321586E-02 0.21598778E+03</pdfrwt>
<totfact> 0.33032316E+03</totfact>
</mgrwt>
</event>
<event>
 6    1  0.1045058E-005  0.2496251E+03  0.7546771E-02  0.1115889E+00
          1   -1    0    0  501    0  0.00000000000E+00  0.00000000000E+00  0.68824587981E+03  0.68824587981E+03  0.00000000000E+00 0. -1.
         -1   -1    0    0    0  501 -0.00000000000E+00 -0.00000000000E+00 -0.95806698720E+02  0.95806698720E+02  0.00000000000E+00 0.  1.
          5    1    1    2  502    0  0.13046507145E+02 -0.81353992000E+01  0.86896836074E+02  0.88371636788E+02  0.47000000000E+01 0.  1.
         -5    1    1    2    0  502  0.22381412648E+02  0.22128643131E+03  0.34627040774E+03  0.41157489913E+03  0.47000000000E+01 0.  1.
        -11    1    1    2    0    0 -0.24858173595E+02 -0.66660866964E+02  0.10642810422E+03  0.12801773841E+03  0.00000000000E+00 0. -1.
         11    1    1    2    0    0 -0.10569746198E+02 -0.14649016515E+03  0.52843833055E+02  0.15608830421E+03  0.00000000000E+00 0.  1.
<mgrwt>
<rscale>  0 0.24595439E+03</rscale>
<asrwt>0</asrwt>
<pdfrwt beam="1">  1        1 0.10588398E+00 0.24962507E+03</pdfrwt>
<pdfrwt beam="2">  1       -1 0.14739493E-01 0.24962507E+03</pdfrwt>
<totfact> 0.95735526E+02</totfact>
</mgrwt>
</event>
<event>
 6    1  0.1045058E-005  0.1316309E+03  0.7546771E-02  0.1238583E+00
         -1   -1    0    0    0  501 -0.00000000000E+00  0.00000000000E+00  0.47533375705E+02  0.47533375705E+02  0.00000000000E+00 0.  1.
          1   -1    0    0  501    0  0.00000000000E+00 -0.00000000000E+00 -0.29742454351E+03  0.29742454351E+03  0.00000000000E+00 0. -1.
          5    1    1    2  502    0 -0.23459577603E+02 -0.73162138326E+02 -0.68159981564E+02  0.10281499576E+03  0.47000000000E+01 0.  1.
         -5    1    1    2    0  502  0.29003333841E+02  0.32235474583E+02 -0.11293217101E+03  0.12106231637E+03  0.47000000000E+01 0.  1.
        -11    1    1    2    0    0  0.20099039222E+02  0.30766385420E+02 -0.82476363408E+02  0.90293368364E+02  0.00000000000E+00 0. -1.
         11    1    1    2    0    0 -0.25642795460E+02  0.10160278323E+02  0.13677348184E+02  0.30787238719E+02  0.00000000000E+00 0.  1.
<mgrwt>
<rscale>  0 0.12277832E+03</rscale>
<asrwt>0</asrwt>
<pdfrwt beam="2">  1        1 0.45757623E-01 0.13163086E+03</pdfrwt>
<pdfrwt beam="1">  1       -1 0.73128269E-02 0.13163086E+03</pdfrwt>
<totfact> 0.82912747E+03</totfact>
</mgrwt>
</event>
<event>
 6    1  0.1045058E-005  0.3868639E+03  0.7546771E-02  0.1048426E+00
          2   -1    0    0  501    0  0.00000000000E+00  0.00000000000E+00  0.24755717522E+03  0.24755717522E+03  0.00000000000E+00 0. -1.
         -2   -1    0    0    0  501 -0.00000000000E+00 -0.00000000000E+00 -0.15114048148E+03  0.15114048148E+03  0.00000000000E+00 0.  1.
          5    1    1    2  502    0 -0.65599159886E+02  0.13449820799E+03  0.82485984075E+02  0.17093579292E+03  0.47000000000E+01 0. -1.
         -5    1    1    2    0  502  0.43705989276E+02  0.15823794600E+02  0.19134380540E+02  0.50485844479E+02  0.47000000000E+01 0. -1.
        -11    1    1    2    0    0  0.52219195635E+02 -0.59277111791E+02  0.11626679900E+02  0.79848607130E+02  0.00000000000E+00 0. -1.
         11    1    1    2    0    0 -0.30326025025E+02 -0.91044890803E+02 -0.16830350779E+02  0.97427412171E+02  0.00000000000E+00 0.  1.
<mgrwt>
<rscale>  0 0.38686386E+03</rscale>
<asrwt>0</asrwt>
<pdfrwt beam="1">  1        2 0.38085719E-01 0.38686386E+03</pdfrwt>
<pdfrwt beam="2">  1       -2 0.23252382E-01 0.38686386E+03</pdfrwt>
<totfact> 0.21923603E+03</totfact>
</mgrwt>
</event>
<event>
 6    1  0.1045058E-005  0.1231012E+03  0.7546771E-02  0.1248706E+00
          2   -1    0    0  501    0  0.00000000000E+00  0.00000000000E+00  0.10683836020E+04  0.10683836020E+04  0.00000000000E+00 0. -1.
         -2   -1    0    0    0  501 -0.00000000000E+00 -0.00000000000E+00 -0.23858035765E+02  0.23858035765E+02  0.00000000000E+00 0.  1.
          5    1    1    2  502    0 -0.41614339074E+02  0.35601310730E+02  0.83697147766E+03  0.83877443389E+03  0.47000000000E+01 0. -1.
         -5    1    1    2    0  502  0.18568544043E+02 -0.30917464570E+02  0.10318638261E+03  0.10940840918E+03  0.47000000000E+01 0.  1.
        -11    1    1    2    0    0  0.48075085417E+02  0.25154975490E+02  0.35188742716E+02  0.64670195946E+02  0.00000000000E+00 0.  1.
         11    1    1    2    0    0 -0.25029290386E+02 -0.29838821649E+02  0.69178963284E+02  0.79388598777E+02  0.00000000000E+00 0. -1.
<mgrwt>
<rscale>  0 0.11666297E+03</rscale>
<asrwt>0</asrwt>
<pdfrwt beam="1">  1        2 0.16436667E+00 0.12310118E+03</pdfrwt>
<pdfrwt beam="2">  1       -2 0.36704679E-02 0.12310118E+03</pdfrwt>
<totfact> 0.72193824E+03</totfact>
</mgrwt>
</event>
<event>
 6    1  0.1045058E-005  0.1257193E+03  0.7546771E-02  0.1249594E+00
          2   -1    0    0  501    0  0.00000000000E+00  0.00000000000E+00  0.14199483881E+02  0.14199483881E+02  0.00000000000E+00 0.  1.
         -2   -1    0    0    0  501 -0.00000000000E+00 -0.00000000000E+00 -0.83138280276E+03  0.83138280276E+03  0.00000000000E+00 0. -1.
          5    1    1    2  502    0  0.17620257458E+02  0.47775743531E+02 -0.11750988869E+03  0.12815482465E+03  0.47000000000E+01 0. -1.
         -5    1    1    2    0  502 -0.23724210958E+02 -0.59874569138E+02 -0.35321307745E+03  0.35906736179E+03  0.47000000000E+01 0. -1.
        -11    1    1    2    0    0  0.47554255768E+02 -0.21532692003E+01 -0.17022819392E+03  0.17675882387E+03  0.00000000000E+00 0.  1.
         11    1    1    2    0    0 -0.41450302268E+02  0.14252094807E+02 -0.17623215882E+03  0.18160127633E+03  0.00000000000E+00 0. -1.
<mgrwt>
<rscale>  0 0.11614581E+03</rscale>
<asrwt>0</asrwt>
<pdfrwt beam="1">  1        2 0.21845352E-02 0.12571932E+03</pdfrwt>
<pdfrwt beam="2">  1       -2 0.12790509E+00 0.12571932E+03</pdfrwt>
<totfact> 0.21868424E+03</totfact>
</mgrwt>
</event>
<event>
 6    1  0.1045058E-005  0.1429808E+03  0.7546771E-02  0.1219600E+00
         -2   -1    0    0    0  501 -0.00000000000E+00  0.00000000000E+00  0.54018144050E+02  0.54018144050E+02  0.00000000000E+00 0. -1.
          2   -1    0    0  501    0  0.00000000000E+00 -0.00000000000E+00 -0.38459493457E+03  0.38459493457E+03  0.00000000000E+00 0.  1.
          5    1    1    2  502    0 -0.34606727886E+02 -0.92308736530E+01 -0.13665958602E+02  0.38622313083E+02  0.47000000000E+01 0. -1.
         -5    1    1    2    0  502  0.52305633685E+01  0.72102249324E+02 -0.26314273183E+03  0.27293273982E+03  0.47000000000E+01 0. -1.
        -11    1    1    2    0    0  0.29586357689E+02  0.17360048708E+02 -0.10345626475E+02  0.35829538646E+02  0.00000000000E+00 0. -1.
         11    1    1    2    0    0 -0.21019317124E+00 -0.80231424379E+02 -0.43422473621E+02  0.91228487077E+02  0.00000000000E+00 0.  1.
<mgrwt>
<rscale>  0 0.13543983E+03</rscale>
<asrwt>0</asrwt>
<pdfrwt beam="2">  1        2 0.59168450E-01 0.14298077E+03</pdfrwt>
<pdfrwt beam="1">  1       -2 0.83104840E-02 0.14298077E+03</pdfrwt>
<totfact> 0.71102793E+03</totfact>
</mgrwt>
</event>
<event>
 6    1  0.1045058E-005  0.1719972E+03  0.7546771E-02  0.1181900E+00
         -1   -1    0    0    0  501 -0.00000000000E+00  0.00000000000E+00  0.42333597410E+02  0.42333597410E+02  0.00000000000E+00 0.  1.
          1   -1    0    0  501    0  0.00000000000E+00 -0.00000000000E+00 -0.87773274767E+03  0.87773274767E+03  0.00000000000E+00 0. -1.
          5    1    1    2  502    0 -0.40284485559E+01 -0.47887209537E+02 -0.83539667557E+02  0.96490306718E+02  0.47000000000E+01 0.  1.
         -5    1    1    2    0  502  0.96223359846E+02 -0.25996148433E+02 -0.60701738174E+03  0.61516414594E+03  0.47000000000E+01 0.  1.
        -11    1    1    2    0    0  0.17635442741E+02  0.22230194018E+02 -0.30613180482E+02  0.41741552271E+02  0.00000000000E+00 0. -1.
         11    1    1    2    0    0 -0.10983035403E+03  0.51653163952E+02 -0.11422892049E+03  0.16667034016E+03  0.00000000000E+00 0.  1.
<mgrwt>
<rscale>  0 0.16617213E+03</rscale>
<asrwt>0</asrwt>
<pdfrwt beam="2">  1        1 0.13503581E+00 0.17199716E+03</pdfrwt>
<pdfrwt beam="1">  1       -1 0.65128610E-02 0.17199716E+03</pdfrwt>
<totfact> 0.23273348E+03</totfact>
</mgrwt>
</event>
<event>
 6    1  0.1045058E-005  0.1809905E+03  0.7546771E-02  0.1172299E+00
         -1   -1    0    0    0  501 -0.00000000000E+00  0.00000000000E+00  0.11659323513E+03  0.11659323513E+03  0.00000000000E+00 0.  1.
          1   -1    0    0  501    0  0.00000000000E+00 -0.00000000000E+00 -0.27751388353E+03  0.27751388353E+03  0.00000000000E+00 0. -1.
          5    1    1    2  502    0  0.81684050771E+02 -0.15087281690E+02 -0.10095376463E+03  0.13081919894E+03  0.47000000000E+01 0. -1.
         -5    1    1    2    0  502  0.27514492079E+02  0.87258574310E+02 -0.47098344837E+02  0.10301189325E+03  0.47000000000E+01 0. -1.
        -11    1    1    2    0    0 -0.71042265493E+02 -0.35519026854E+02  0.36953142252E+02  0.87602165940E+02  0.00000000000E+00 0.  1.
         11    1    1    2    0    0 -0.38156277356E+02 -0.36652265767E+02 -0.49821681185E+02  0.72673860525E+02  0.00000000000E+00 0. -1.
<mgrwt>
<rscale>  0 0.17543161E+03</rscale>
<asrwt>0</asrwt>
<pdfrwt beam="2">  1        1 0.42694443E-01 0.18099048E+03</pdfrwt>
<pdfrwt beam="1">  1       -1 0.17937421E-01 0.18099048E+03</pdfrwt>
<totfact> 0.22946091E+03</totfact>
</mgrwt>
</event>
<event>
 6    1  0.1045058E-005  0.1595768E+03  0.7546771E-02  0.1217482E+00
          2   -1    0    0  501    0  0.00000000000E+00  0.00000000000E+00  0.51326384630E+03  0.51326384630E+03  0.00000000000E+00 0. -1.
         -2   -1    0    0    0  501 -0.00000000000E+00 -0.00000000000E+00 -0.32292919114E+02  0.32292919114E+02  0.00000000000E+00 0.  1.
          5    1    1    2  502    0  0.29718533769E+02  0.18994578516E+02  0.38267540960E+03  0.38432609120E+03  0.47000000000E+01 0. -1.
         -5    1    1    2    0  502 -0.18815852954E+02 -0.22912651866E+02 -0.29085957431E+00  0.30020002286E+02  0.47000000000E+01 0.  1.
        -11    1    1    2    0    0 -0.39395598599E+02  0.28427157085E+02  0.61926858865E+02  0.78708654529E+02  0.00000000000E+00 0.  1.
         11    1    1    2    0    0  0.28492917784E+02 -0.24509083735E+02  0.36659518288E+02  0.52502017395E+02  0.00000000000E+00 0. -1.
<mgrwt>
<rscale>  0 0.13695816E+03</rscale>
<asrwt>0</asrwt>
<pdfrwt beam="1">  1        2 0.78963663E-01 0.15957676E+03</pdfrwt>
<pdfrwt beam="2">  1       -2 0.49681418E-02 0.15957676E+03</pdfrwt>
<totfact> 0.11485993E+04</totfact>
</mgrwt>
</event>
<event>
 6    1  0.1045058E-005  0.1275798E+03  0.7546771E-02  0.1245537E+00
         -2   -1    0    0    0  501 -0.00000000000E+00  0.00000000000E+00  0.64047362891E+02  0.64047362891E+02  0.00000000000E+00 0.  1.
          2   -1    0    0  501    0  0.00000000000E+00 -0.00000000000E+00 -0.19394794224E+03  0.19394794224E+03  0.00000000000E+00 0. -1.
          5    1    1    2  502    0  0.13480495911E+02 -0.21798926400E+02 -0.11341217458E+03  0.11636721318E+03  0.47000000000E+01 0.  1.
         -5    1    1    2    0  502 -0.92551640002E+01 -0.33655470751E+01  0.32785789755E+02  0.34554058773E+02  0.47000000000E+01 0.  1.
        -11    1    1    2    0    0 -0.31958897682E+02  0.32626321469E+02 -0.60872497246E+02  0.76100649896E+02  0.00000000000E+00 0. -1.
         11    1    1    2    0    0  0.27733565771E+02 -0.74618479934E+01  0.11598302717E+02  0.30973383279E+02  0.00000000000E+00 0.  1.
<mgrwt>
<rscale>  0 0.11853292E+03</rscale>
<asrwt>0</asrwt>
<pdfrwt beam="2">  1        2 0.29838144E-01 0.12757984E+03</pdfrwt>
<pdfrwt beam="1">  1       -2 0.98534409E-02 0.12757984E+03</pdfrwt>
<totfact> 0.11219042E+04</totfact>
</mgrwt>
</event>
<event>
 6    1  0.1045058E-005  0.1511385E+03  0.7546771E-02  0.1208458E+00
          1   -1    0    0  501    0  0.00000000000E+00  0.00000000000E+00  0.10891885282E+04  0.10891885282E+04  0.00000000000E+00 0. -1.
         -1   -1    0    0    0  501 -0.00000000000E+00 -0.00000000000E+00 -0.40333001377E+02  0.40333001377E+02  0.00000000000E+00 0.  1.
          5    1    1    2  502    0 -0.41147784424E+02  0.35668865843E+02  0.77305390984E+03  0.77498377123E+03  0.47000000000E+01 0. -1.
         -5    1    1    2    0  502  0.39229062411E+02  0.49264283700E+02  0.19986182659E+03  0.20960135666E+03  0.47000000000E+01 0. -1.
        -11    1    1    2    0    0  0.28029916007E+02  0.58216902230E+00  0.64493804363E+00  0.28043378134E+02  0.00000000000E+00 0.  1.
         11    1    1    2    0    0 -0.26111193994E+02 -0.85515318565E+02  0.75294852309E+02  0.11689302351E+03  0.00000000000E+00 0. -1.
<mgrwt>
<rscale>  0 0.14368234E+03</rscale>
<asrwt>0</asrwt>
<pdfrwt beam="1">  1        1 0.16756744E+00 0.15113849E+03</pdfrwt>
<pdfrwt beam="2">  1       -1 0.62050779E-02 0.15113849E+03</pdfrwt>
<totfact> 0.17390406E+03</totfact>
</mgrwt>
</event>
<event>
 6    1  0.1045058E-005  0.2998588E+03  0.7546771E-02  0.1085311E+00
          2   -1    0    0  501    0  0.00000000000E+00  0.00000000000E+00  0.13645588600E+03  0.13645588600E+03  0.00000000000E+00 0.  1.
         -2   -1    0    0    0  501 -0.00000000000E+00 -0.00000000000E+00 -0.16473326451E+03  0.16473326451E+03  0.00000000000E+00 0. -1.
          5    1    1    2  502    0  0.85361005428E+02  0.35255944835E+02 -0.58384142403E+02  0.10936306953E+03  0.47000000000E+01 0. -1.
         -5    1    1    2    0  502 -0.40238637937E+01  0.28017773416E+02  0.44801834421E+02  0.53202269449E+02  0.47000000000E+01 0. -1.
        -11    1    1    2    0    0 -0.73541106061E+01 -0.59540455276E+02 -0.22638105739E+02  0.64122013293E+02  0.00000000000E+00 0.  1.
         11    1    1    2    0    0 -0.73983031029E+02 -0.37332629749E+01  0.79430352094E+01  0.74501798240E+02  0.00000000000E+00 0. -1.
<mgrwt>
<rscale>  0 0.29985879E+03</rscale>
<asrwt>0</asrwt>
<pdfrwt beam="1">  1        2 0.20993213E-01 0.29985879E+03</pdfrwt>
<pdfrwt beam="2">  1       -2 0.25343579E-01 0.29985879E+03</pdfrwt>
<totfact> 0.36365405E+03</totfact>
</mgrwt>
</event>
<event>
 6    1  0.1045058E-005  0.1905317E+03  0.7546771E-02  0.1162728E+00
          2   -1    0    0  501    0  0.00000000000E+00  0.00000000000E+00  0.16260275963E+04  0.16260275963E+04  0.00000000000E+00 0. -1.
         -2   -1    0    0    0  501 -0.00000000000E+00 -0.00000000000E+00 -0.21721421931E+02  0.21721421931E+02  0.00000000000E+00 0.  1.
          5    1    1    2  502    0 -0.94685114203E+02 -0.29116205577E+02  0.41224878080E+03  0.42400963615E+03  0.47000000000E+01 0. -1.
         -5    1    1    2    0  502 -0.43433459602E+02  0.69117988487E+02  0.65871953212E+03  0.66377501741E+03  0.47000000000E+01 0. -1.
        -11    1    1    2    0    0  0.84420492990E+02 -0.57590286059E+02  0.23402772675E+03  0.25536726018E+03  0.00000000000E+00 0.  1.
         11    1    1    2    0    0  0.53698080815E+02  0.17588503148E+02  0.29931013469E+03  0.30459710447E+03  0.00000000000E+00 0. -1.
<mgrwt>
<rscale>  0 0.18534557E+03</rscale>
<asrwt>0</asrwt>
<pdfrwt beam="1">  1        2 0.25015800E+00 0.19053169E+03</pdfrwt>
<pdfrwt beam="2">  1       -2 0.33417585E-02 0.19053169E+03</pdfrwt>
<totfact> 0.41955934E+03</totfact>
</mgrwt>
</event>
<event>
 6    1  0.1045058E-005  0.1219456E+03  0.7546771E-02  0.1252034E+00
         -2   -1    0    0    0  501 -0.00000000000E+00  0.00000000000E+00  0.14556272243E+02  0.14556272243E+02  0.00000000000E+00 0.  1.
          2   -1    0    0  501    0  0.00000000000E+00 -0.00000000000E+00 -0.14363947303E+04  0.14363947303E+04  0.00000000000E+00 0. -1.
          5    1    1    2  502    0  0.32373781436E+02  0.28265776288E+02 -0.16879826137E+03  0.17424683318E+03  0.47000000000E+01 0. -1.
         -5    1    1    2    0  502 -0.33516606095E+02 -0.60544840142E+01 -0.10669322768E+04  0.10674861090E+04  0.47000000000E+01 0.  1.
        -11    1    1    2    0    0  0.31177406641E+02  0.17813330010E+02 -0.35414484028E+02  0.50433432263E+02  0.00000000000E+00 0.  1.
         11    1    1    2    0    0 -0.30034581982E+02 -0.40024622283E+02 -0.15069343590E+03  0.15878462812E+03  0.00000000000E+00 0. -1.
<mgrwt>
<rscale>  0 0.11474121E+03</rscale>
<asrwt>0</asrwt>
<pdfrwt beam="2">  1        2 0.22098385E+00 0.12194563E+03</pdfrwt>
<pdfrwt beam="1">  1       -2 0.22394261E-02 0.12194563E+03</pdfrwt>
<totfact> 0.93718296E+03</totfact>
</mgrwt>
</event>
<event>
 6    1  0.1045058E-005  0.1361780E+03  0.7546771E-02  0.1231229E+00
         -1   -1    0    0    0  501 -0.00000000000E+00  0.00000000000E+00  0.18790655578E+03  0.18790655578E+03  0.00000000000E+00 0.  1.
          1   -1    0    0  501    0  0.00000000000E+00 -0.00000000000E+00 -0.89005278089E+02  0.89005278089E+02  0.00000000000E+00 0. -1.
          5    1    1    2  502    0 -0.21598082146E+02 -0.77287029244E+01  0.64614984535E+02  0.68726968708E+02  0.47000000000E+01 0. -1.
         -5    1    1    2    0  502 -0.27731336838E+02 -0.14269837492E+02 -0.59722352021E+02  0.67538912013E+02  0.47000000000E+01 0. -1.
        -11    1    1    2    0    0  0.25924331392E+02  0.56922238295E+02  0.54768413290E+02  0.83137183407E+02  0.00000000000E+00 0. -1.
         11    1    1    2    0    0  0.23405087593E+02 -0.34923697878E+02  0.39240231890E+02  0.57508769745E+02  0.00000000000E+00 0.  1.
<mgrwt>
<rscale>  0 0.12748984E+03</rscale>
<asrwt>0</asrwt>
<pdfrwt beam="2">  1        1 0.13693120E-01 0.13617802E+03</pdfrwt>
<pdfrwt beam="1">  1       -1 0.28908701E-01 0.13617802E+03</pdfrwt>
<totfact> 0.43826851E+03</totfact>
</mgrwt>
</event>
<event>
 6    1  0.1045058E-005  0.1601568E+03  0.7546771E-02  0.1201912E+00
          2   -1    0    0  501    0  0.00000000000E+00  0.00000000000E+00  0.12991227899E+04  0.12991227899E+04  0.00000000000E+00 0. -1.
         -2   -1    0    0    0  501 -0.00000000000E+00 -0.00000000000E+00 -0.15045021136E+02  0.15045021136E+02  0.00000000000E+00 0.  1.
          5    1    1    2  502    0  0.72411543329E+02 -0.40478978406E+02  0.45733897598E+03  0.46482578269E+03  0.47000000000E+01 0. -1.
         -5    1    1    2    0  502 -0.64637468459E+02 -0.36037740789E+02  0.27510891664E+03  0.28492758221E+03  0.47000000000E+01 0.  1.
        -11    1    1    2    0    0  0.41441176112E+02  0.42340994984E+02  0.25477336493E+03  0.26157140213E+03  0.00000000000E+00 0. -1.
         11    1    1    2    0    0 -0.49215250982E+02  0.34175724211E+02  0.29685651118E+03  0.30284304397E+03  0.00000000000E+00 0.  1.
<mgrwt>
<rscale>  0 0.14883495E+03</rscale>
<asrwt>0</asrwt>
<pdfrwt beam="1">  1        2 0.19986496E+00 0.16015678E+03</pdfrwt>
<pdfrwt beam="2">  1       -2 0.23146197E-02 0.16015678E+03</pdfrwt>
<totfact> 0.10699386E+04</totfact>
</mgrwt>
</event>
<event>
 6    1  0.1045058E-005  0.1305401E+03  0.7546771E-02  0.1240167E+00
         -2   -1    0    0    0  501 -0.00000000000E+00  0.00000000000E+00  0.17460363840E+02  0.17460363840E+02  0.00000000000E+00 0. -1.
          2   -1    0    0  501    0  0.00000000000E+00 -0.00000000000E+00 -0.76528437902E+03  0.76528437902E+03  0.00000000000E+00 0.  1.
          5    1    1    2  502    0 -0.23067633265E+02  0.79154205008E+02 -0.25629120566E+03  0.26926710897E+03  0.47000000000E+01 0.  1.
         -5    1    1    2    0  502  0.90028967693E+01 -0.44330437546E+02 -0.21577625099E+03  0.22051693889E+03  0.47000000000E+01 0.  1.
        -11    1    1    2    0    0  0.37037541876E+01  0.31527479113E+02 -0.86070511707E+02  0.91737847805E+02  0.00000000000E+00 0.  1.
         11    1    1    2    0    0  0.10360982308E+02 -0.66351246574E+02 -0.18968604682E+03  0.20122284720E+03  0.00000000000E+00 0. -1.
<mgrwt>
<rscale>  0 0.12179353E+03</rscale>
<asrwt>0</asrwt>
<pdfrwt beam="2">  1        2 0.11773600E+00 0.13054015E+03</pdfrwt>
<pdfrwt beam="1">  1       -2 0.26862111E-02 0.13054015E+03</pdfrwt>
<totfact> 0.17751825E+04</totfact>
</mgrwt>
</event>
<event>
 6    1  0.1045058E-005  0.2588040E+03  0.7546771E-02  0.1110257E+00
          2   -1    0    0  501    0  0.00000000000E+00  0.00000000000E+00  0.46590437218E+03  0.46590437218E+03  0.00000000000E+00 0. -1.
         -2   -1    0    0    0  501 -0.00000000000E+00 -0.00000000000E+00 -0.13789197595E+03  0.13789197595E+03  0.00000000000E+00 0.  1.
          5    1    1    2  502    0 -0.66011623515E+02 -0.12029899547E+03  0.84787157718E+02  0.16137017960E+03  0.47000000000E+01 0.  1.
         -5    1    1    2    0  502 -0.11698881502E+03 -0.13364911656E+02  0.12490613181E+03  0.17172255375E+03  0.47000000000E+01 0.  1.
        -11    1    1    2    0    0  0.37659378953E+02  0.61357282856E+02  0.72167673974E+02  0.10193683412E+03  0.00000000000E+00 0. -1.
         11    1    1    2    0    0  0.14534105958E+03  0.72306624266E+02  0.46151432726E+02  0.16876678066E+03  0.00000000000E+00 0.  1.
<mgrwt>
<rscale>  0 0.25488406E+03</rscale>
<asrwt>0</asrwt>
<pdfrwt beam="1">  1        2 0.71677595E-01 0.25880397E+03</pdfrwt>
<pdfrwt beam="2">  1       -2 0.21214150E-01 0.25880397E+03</pdfrwt>
<totfact> 0.12790386E+03</totfact>
</mgrwt>
</event>
<event>
 6    1  0.1045058E-005  0.1296240E+03  0.7546771E-02  0.1241750E+00
         -1   -1    0    0    0  501 -0.00000000000E+00  0.00000000000E+00  0.11754111995E+03  0.11754111995E+03  0.00000000000E+00 0.  1.
          1   -1    0    0  501    0  0.00000000000E+00 -0.00000000000E+00 -0.25644100504E+03  0.25644100504E+03  0.00000000000E+00 0. -1.
          5    1    1    2  502    0 -0.28849304561E+02 -0.40909666173E+02 -0.71585832478E+02  0.87478594934E+02  0.47000000000E+01 0.  1.
         -5    1    1    2    0  502  0.62506209341E+02  0.47584357233E+02 -0.14272045594E+03  0.16298010861E+03  0.47000000000E+01 0.  1.
        -11    1    1    2    0    0 -0.20181401528E+02 -0.30101035974E+02  0.86901019345E+02  0.94154917543E+02  0.00000000000E+00 0.  1.
         11    1    1    2    0    0 -0.13475503252E+02  0.23426344914E+02 -0.11494616016E+02  0.29368503899E+02  0.00000000000E+00 0. -1.
<mgrwt>
<rscale>  0 0.12082000E+03</rscale>
<asrwt>0</asrwt>
<pdfrwt beam="2">  1        1 0.39452462E-01 0.12962398E+03</pdfrwt>
<pdfrwt beam="1">  1       -1 0.18083249E-01 0.12962398E+03</pdfrwt>
<totfact> 0.24675718E+03</totfact>
</mgrwt>
</event>
<event>
 6    1  0.1045058E-005  0.1534172E+03  0.7546771E-02  0.1206561E+00
         -3   -1    0    0    0  501 -0.00000000000E+00  0.00000000000E+00  0.74276751540E+02  0.74276751540E+02  0.00000000000E+00 0.  1.
          3   -1    0    0  501    0  0.00000000000E+00 -0.00000000000E+00 -0.38708809905E+03  0.38708809905E+03  0.00000000000E+00 0. -1.
          5    1    1    2  502    0 -0.70231003345E+02  0.17279635110E+02 -0.86899007264E+02  0.11315700192E+03  0.47000000000E+01 0.  1.
         -5    1    1    2    0  502  0.28947881383E+02  0.61510911904E+02 -0.21413230922E+03  0.22471383574E+03  0.47000000000E+01 0.  1.
        -11    1    1    2    0    0  0.11454592614E+00 -0.32104257822E+02 -0.43156179033E+02  0.53788031009E+02  0.00000000000E+00 0. -1.
         11    1    1    2    0    0  0.41168576036E+02 -0.46686289192E+02  0.31376148010E+02  0.69705981919E+02  0.00000000000E+00 0.  1.
<mgrwt>
<rscale>  0 0.14515128E+03</rscale>
<asrwt>0</asrwt>
<pdfrwt beam="2">  1        3 0.59552015E-01 0.15341724E+03</pdfrwt>
<pdfrwt beam="1">  1       -3 0.11427193E-01 0.15341724E+03</pdfrwt>
<totfact> 0.39007384E+02</totfact>
</mgrwt>
</event>
<event>
 6    1  0.1045058E-005  0.1486882E+03  0.7546771E-02  0.1211115E+00
         -2   -1    0    0    0  501 -0.00000000000E+00  0.00000000000E+00  0.23705527075E+02  0.23705527075E+02  0.00000000000E+00 0. -1.
          2   -1    0    0  501    0  0.00000000000E+00 -0.00000000000E+00 -0.89135900897E+03  0.89135900897E+03  0.00000000000E+00 0.  1.
          5    1    1    2  502    0  0.35018747749E+02  0.86082366658E+02 -0.34546761170E+03  0.35777988663E+03  0.47000000000E+01 0.  1.
         -5    1    1    2    0  502  0.32412490209E+02 -0.42073184589E+02 -0.28902878359E+03  0.29390551224E+03  0.47000000000E+01 0.  1.
        -11    1    1    2    0    0 -0.34699656157E+02 -0.22372340127E+02 -0.18633294063E+02  0.45296659787E+02  0.00000000000E+00 0. -1.
         11    1    1    2    0    0 -0.32731581801E+02 -0.21636841941E+02 -0.21452379255E+03  0.21808247739E+03  0.00000000000E+00 0.  1.
<mgrwt>
<rscale>  0 0.14165821E+03</rscale>
<asrwt>0</asrwt>
<pdfrwt beam="2">  1        2 0.13713216E+00 0.14868821E+03</pdfrwt>
<pdfrwt beam="1">  1       -2 0.36470039E-02 0.14868821E+03</pdfrwt>
<totfact> 0.94137835E+03</totfact>
</mgrwt>
</event>
<event>
 6    1  0.1045058E-005  0.3052751E+03  0.7546771E-02  0.1082633E+00
          3   -1    0    0  501    0  0.00000000000E+00  0.00000000000E+00  0.14032180954E+03  0.14032180954E+03  0.00000000000E+00 0. -1.
         -3   -1    0    0    0  501 -0.00000000000E+00 -0.00000000000E+00 -0.16603418077E+03  0.16603418077E+03  0.00000000000E+00 0.  1.
          5    1    1    2  502    0  0.65506025548E+02  0.13617845940E+02 -0.28802718436E+02  0.72994326495E+02  0.47000000000E+01 0. -1.
         -5    1    1    2    0  502  0.13977696714E+02 -0.62408644023E+01  0.83593144857E+02  0.85113032263E+02  0.47000000000E+01 0. -1.
        -11    1    1    2    0    0 -0.71790999680E+02 -0.40754536890E+02 -0.78532225152E+02  0.11393941504E+03  0.00000000000E+00 0.  1.
         11    1    1    2    0    0 -0.76927225819E+01  0.33377555352E+02 -0.19705725010E+01  0.34309216517E+02  0.00000000000E+00 0. -1.
<mgrwt>
<rscale>  0 0.30527507E+03</rscale>
<asrwt>0</asrwt>
<pdfrwt beam="1">  1        3 0.21587971E-01 0.30527507E+03</pdfrwt>
<pdfrwt beam="2">  1       -3 0.25543720E-01 0.30527507E+03</pdfrwt>
<totfact> 0.72618483E+02</totfact>
</mgrwt>
</event>
<event>
 6    1  0.1045058E-005  0.4610167E+03  0.7546771E-02  0.1024487E+00
          1   -1    0    0  501    0  0.00000000000E+00  0.00000000000E+00  0.66609042497E+02  0.66609042497E+02  0.00000000000E+00 0. -1.
         -1   -1    0    0    0  501 -0.00000000000E+00 -0.00000000000E+00 -0.79770106234E+03  0.79770106234E+03  0.00000000000E+00 0.  1.
          5    1    1    2  502    0  0.33785340139E+02  0.18099757945E+03 -0.19316646584E+03  0.26690250374E+03  0.47000000000E+01 0. -1.
         -5    1    1    2    0  502 -0.41306697607E+02  0.13758452907E+02 -0.79896441118E+02  0.91110205778E+02  0.47000000000E+01 0. -1.
        -11    1    1    2    0    0  0.81780472267E+01 -0.13344924176E+03 -0.19645766045E+03  0.23763668264E+03  0.00000000000E+00 0. -1.
         11    1    1    2    0    0 -0.65668975878E+00 -0.61306790598E+02 -0.26157145243E+03  0.26866071268E+03  0.00000000000E+00 0.  1.
<mgrwt>
<rscale>  0 0.46101672E+03</rscale>
<asrwt>0</asrwt>
<pdfrwt beam="1">  1        1 0.10247545E-01 0.46101672E+03</pdfrwt>
<pdfrwt beam="2">  1       -1 0.12272324E+00 0.46101672E+03</pdfrwt>
<totfact> 0.38759068E+02</totfact>
</mgrwt>
</event>
<event>
 6    1  0.1045058E-005  0.3710042E+03  0.7546771E-02  0.1055270E+00
         -2   -1    0    0    0  501 -0.00000000000E+00  0.00000000000E+00  0.71246662024E+03  0.71246662024E+03  0.00000000000E+00 0.  1.
          2   -1    0    0  501    0  0.00000000000E+00 -0.00000000000E+00 -0.18822545768E+03  0.18822545768E+03  0.00000000000E+00 0. -1.
          5    1    1    2  502    0  0.20421234561E+03 -0.12462307912E+03  0.21457333420E+03  0.32139912834E+03  0.47000000000E+01 0. -1.
         -5    1    1    2    0  502  0.12138782784E+03 -0.18792449546E+01  0.37543152024E+02  0.12716176537E+03  0.47000000000E+01 0. -1.
        -11    1    1    2    0    0 -0.73362947279E+02 -0.96374809053E+01  0.46973237535E+02  0.87644099152E+02  0.00000000000E+00 0.  1.
         11    1    1    2    0    0 -0.25223722617E+03  0.13613980498E+03  0.22515143880E+03  0.36448708504E+03  0.00000000000E+00 0. -1.
<mgrwt>
<rscale>  0 0.36849508E+03</rscale>
<asrwt>0</asrwt>
<pdfrwt beam="2">  1        2 0.28957763E-01 0.37100425E+03</pdfrwt>
<pdfrwt beam="1">  1       -2 0.10961025E+00 0.37100425E+03</pdfrwt>
<totfact> 0.12594904E+02</totfact>
</mgrwt>
</event>
<event>
 6    1  0.1045058E-005  0.1310263E+03  0.7546771E-02  0.1243760E+00
          1   -1    0    0  501    0  0.00000000000E+00  0.00000000000E+00  0.44303126816E+03  0.44303126816E+03  0.00000000000E+00 0. -1.
         -1   -1    0    0    0  501 -0.00000000000E+00 -0.00000000000E+00 -0.28464404862E+02  0.28464404862E+02  0.00000000000E+00 0.  1.
          5    1    1    2  502    0 -0.80145650659E+02 -0.64618039893E+01  0.17285708578E+03  0.19070066160E+03  0.47000000000E+01 0.  1.
         -5    1    1    2    0  502  0.44606178783E+02  0.23157781764E+02  0.10624898622E+03  0.11763048548E+03  0.47000000000E+01 0.  1.
        -11    1    1    2    0    0  0.31260249659E+02 -0.44102847510E+02  0.11950756744E+03  0.13116525090E+03  0.00000000000E+00 0.  1.
         11    1    1    2    0    0  0.42792222163E+01  0.27406869735E+02  0.15953223841E+02  0.31999275029E+02  0.00000000000E+00 0. -1.
<mgrwt>
<rscale>  0 0.11959886E+03</rscale>
<asrwt>0</asrwt>
<pdfrwt beam="1">  1        1 0.68158652E-01 0.13102632E+03</pdfrwt>
<pdfrwt beam="2">  1       -1 0.43791395E-02 0.13102632E+03</pdfrwt>
<totfact> 0.10782473E+04</totfact>
</mgrwt>
</event>
<event>
 6    1  0.1045058E-005  0.3664520E+03  0.7546771E-02  0.1056058E+00
         -2   -1    0    0    0  501 -0.00000000000E+00  0.00000000000E+00  0.37396524558E+02  0.37396524558E+02  0.00000000000E+00 0.  1.
          2   -1    0    0  501    0  0.00000000000E+00 -0.00000000000E+00 -0.89772425159E+03  0.89772425159E+03  0.00000000000E+00 0. -1.
          5    1    1    2  502    0 -0.15670147471E+03  0.78725769836E+01 -0.50706644909E+03  0.53080674773E+03  0.47000000000E+01 0.  1.
         -5    1    1    2    0  502  0.10433100667E+02 -0.11798234498E+02 -0.65736509935E+01  0.17701717831E+02  0.47000000000E+01 0.  1.
        -11    1    1    2    0    0  0.86242890179E+02 -0.11882982699E+02 -0.28916112099E+03  0.30198211085E+03  0.00000000000E+00 0. -1.
         11    1    1    2    0    0  0.60025483864E+02  0.15808640214E+02 -0.57526505958E+02  0.84630199729E+02  0.00000000000E+00 0.  1.
<mgrwt>
<rscale>  0 0.36645200E+03</rscale>
<asrwt>0</asrwt>
<pdfrwt beam="2">  1        2 0.13811143E+00 0.36645200E+03</pdfrwt>
<pdfrwt beam="1">  1       -2 0.57533114E-02 0.36645200E+03</pdfrwt>
<totfact> 0.48354428E+03</totfact>
</mgrwt>
</event>
<event>
 6    1  0.1045058E-005  0.3243068E+03  0.7546771E-02  0.1073684E+00
          2   -1    0    0  501    0  0.00000000000E+00  0.00000000000E+00  0.34693624852E+03  0.34693624852E+03  0.00000000000E+00 0. -1.
         -2   -1    0    0    0  501 -0.00000000000E+00 -0.00000000000E+00 -0.75788337787E+02  0.75788337787E+02  0.00000000000E+00 0.  1.
          5    1    1    2  502    0  0.71992835081E+02  0.36454822769E+01  0.27111461772E+03  0.28057349089E+03  0.47000000000E+01 0. -1.
         -5    1    1    2    0  502  0.72333364892E+01  0.19374043377E+02 -0.28683005181E+01  0.21400744412E+02  0.47000000000E+01 0.  1.
        -11    1    1    2    0    0 -0.30327298967E+02  0.12332246267E+02 -0.36231620160E+02  0.48831953269E+02  0.00000000000E+00 0. -1.
         11    1    1    2    0    0 -0.48898872604E+02 -0.35351771921E+02  0.39133213683E+02  0.71918397737E+02  0.00000000000E+00 0.  1.
<mgrwt>
<rscale>  0 0.32430678E+03</rscale>
<asrwt>0</asrwt>
<pdfrwt beam="1">  1        2 0.53374807E-01 0.32430678E+03</pdfrwt>
<pdfrwt beam="2">  1       -2 0.11659744E-01 0.32430678E+03</pdfrwt>
<totfact> 0.48381107E+03</totfact>
</mgrwt>
</event>
<event>
 6    1  0.1045058E-005  0.2741110E+03  0.7546771E-02  0.1104892E+00
          2   -1    0    0  501    0  0.00000000000E+00  0.00000000000E+00  0.11887768594E+04  0.11887768594E+04  0.00000000000E+00 0. -1.
         -2   -1    0    0    0  501 -0.00000000000E+00 -0.00000000000E+00 -0.13385205819E+03  0.13385205819E+03  0.00000000000E+00 0.  1.
          5    1    1    2  502    0 -0.18907406819E+02  0.53631099212E+01  0.32603183134E+03  0.32665746284E+03  0.47000000000E+01 0. -1.
         -5    1    1    2    0  502  0.16946999241E+03  0.15015849787E+03  0.72640098800E+03  0.76088641608E+03  0.47000000000E+01 0.  1.
        -11    1    1    2    0    0 -0.14425115580E+03 -0.10894198456E+03  0.25832947396E+02  0.18260365035E+03  0.00000000000E+00 0. -1.
         11    1    1    2    0    0 -0.63114297940E+01 -0.46579623233E+02 -0.23340965529E+02  0.52481388305E+02  0.00000000000E+00 0.  1.
<mgrwt>
<rscale>  0 0.26378191E+03</rscale>
<asrwt>0</asrwt>
<pdfrwt beam="1">  1        2 0.18288874E+00 0.27411102E+03</pdfrwt>
<pdfrwt beam="2">  1       -2 0.20592625E-01 0.27411102E+03</pdfrwt>
<totfact> 0.40759180E+02</totfact>
</mgrwt>
</event>
<event>
 6    1  0.1045058E-005  0.1315902E+03  0.7546771E-02  0.1235036E+00
          1   -1    0    0  501    0  0.00000000000E+00  0.00000000000E+00  0.17823266733E+03  0.17823266733E+03  0.00000000000E+00 0. -1.
         -1   -1    0    0    0  501 -0.00000000000E+00 -0.00000000000E+00 -0.80684004603E+02  0.80684004603E+02  0.00000000000E+00 0.  1.
          5    1    1    2  502    0 -0.15953224641E+02 -0.43300207365E+02  0.13573787285E+02  0.48329608270E+02  0.47000000000E+01 0. -1.
         -5    1    1    2    0  502  0.11934832988E+02  0.84214351638E+02  0.28212093233E+02  0.89735775836E+02  0.47000000000E+01 0. -1.
        -11    1    1    2    0    0 -0.14782913401E+02 -0.14311601523E+02  0.78482727043E+02  0.81135041202E+02  0.00000000000E+00 0. -1.
         11    1    1    2    0    0  0.18801305054E+02 -0.26602542751E+02 -0.22719944836E+02  0.39716246624E+02  0.00000000000E+00 0.  1.
<mgrwt>
<rscale>  0 0.12502128E+03</rscale>
<asrwt>0</asrwt>
<pdfrwt beam="1">  1        1 0.27420410E-01 0.13159024E+03</pdfrwt>
<pdfrwt beam="2">  1       -1 0.12412924E-01 0.13159024E+03</pdfrwt>
<totfact> 0.69879402E+03</totfact>
</mgrwt>
</event>
<event>
 6    1  0.1045058E-005  0.1982883E+03  0.7546771E-02  0.1155517E+00
          2   -1    0    0  501    0  0.00000000000E+00  0.00000000000E+00  0.10633883773E+04  0.10633883773E+04  0.00000000000E+00 0. -1.
         -2   -1    0    0    0  501 -0.00000000000E+00 -0.00000000000E+00 -0.44657351147E+02  0.44657351147E+02  0.00000000000E+00 0.  1.
          5    1    1    2  502    0  0.66475752836E+02 -0.48836914634E+02  0.17471731715E+03  0.19326743351E+03  0.47000000000E+01 0.  1.
         -5    1    1    2    0  502  0.14608336214E+02 -0.82001769025E+02  0.63098788092E+03  0.63647897803E+03  0.47000000000E+01 0.  1.
        -11    1    1    2    0    0 -0.83211373023E+02  0.14220935137E+03  0.20880953406E+03  0.26598694278E+03  0.00000000000E+00 0. -1.
         11    1    1    2    0    0  0.21272839728E+01 -0.11370667710E+02  0.42162940388E+01  0.12312374129E+02  0.00000000000E+00 0.  1.
<mgrwt>
<rscale>  0 0.19330185E+03</rscale>
<asrwt>0</asrwt>
<pdfrwt beam="1">  1        2 0.16359819E+00 0.19828828E+03</pdfrwt>
<pdfrwt beam="2">  1       -2 0.68703625E-02 0.19828828E+03</pdfrwt>
<totfact> 0.28661107E+03</totfact>
</mgrwt>
</event>
<event>
 6    1  0.1045058E-005  0.1534660E+03  0.7546771E-02  0.1201377E+00
         -3   -1    0    0    0  501 -0.00000000000E+00  0.00000000000E+00  0.87771765167E+02  0.87771765167E+02  0.00000000000E+00 0.  1.
          3   -1    0    0  501    0  0.00000000000E+00 -0.00000000000E+00 -0.24161316104E+03  0.24161316104E+03  0.00000000000E+00 0. -1.
          5    1    1    2  502    0  0.86224607764E+02  0.17907680403E+02 -0.10167563026E+03  0.13459343146E+03  0.47000000000E+01 0. -1.
         -5    1    1    2    0  502 -0.12160635766E+01  0.41582561579E+02  0.11486086196E+02  0.43412076824E+02  0.47000000000E+01 0.  1.
        -11    1    1    2    0    0 -0.48451991291E+02  0.68630315155E+01  0.49390575028E+01  0.49184255110E+02  0.00000000000E+00 0.  1.
         11    1    1    2    0    0 -0.36556552896E+02 -0.66353273497E+02 -0.68590909308E+02  0.10219516282E+03  0.00000000000E+00 0. -1.
<mgrwt>
<rscale>  0 0.14926700E+03</rscale>
<asrwt>0</asrwt>
<pdfrwt beam="2">  1        3 0.37171255E-01 0.15346598E+03</pdfrwt>
<pdfrwt beam="1">  1       -3 0.13503349E-01 0.15346598E+03</pdfrwt>
<totfact> 0.74913127E+02</totfact>
</mgrwt>
</event>
<event>
 6    1  0.1045058E-005  0.3357560E+03  0.7546771E-02  0.1137336E+00
         -4   -1    0    0    0  501 -0.00000000000E+00  0.00000000000E+00  0.52199350957E+02  0.52199350957E+02  0.00000000000E+00 0.  1.
          4   -1    0    0  501    0  0.00000000000E+00 -0.00000000000E+00 -0.75938655824E+03  0.75938655824E+03  0.00000000000E+00 0. -1.
          5    1    1    2  502    0  0.65362087254E+02  0.79892743313E+02 -0.61546147533E+03  0.62407529233E+03  0.47000000000E+01 0. -1.
         -5    1    1    2    0  502 -0.76088777325E+02 -0.63647352633E+02 -0.30422589840E+02  0.10386583415E+03  0.47000000000E+01 0.  1.
        -11    1    1    2    0    0 -0.18379001855E+02 -0.14828386216E+02 -0.12285613772E+02  0.26619636600E+02  0.00000000000E+00 0. -1.
         11    1    1    2    0    0  0.29105691926E+02 -0.14170044635E+01 -0.49017528342E+02  0.57025146111E+02  0.00000000000E+00 0.  1.
<mgrwt>
<rscale>  0 0.21543124E+03</rscale>
<asrwt>0</asrwt>
<pdfrwt beam="2">  1        4 0.11682870E+00 0.33575595E+03</pdfrwt>
<pdfrwt beam="1">  1       -4 0.80306694E-02 0.33575595E+03</pdfrwt>
<totfact> 0.12283888E+02</totfact>
</mgrwt>
</event>
<event>
 6    1  0.1045058E-005  0.1729654E+03  0.7546771E-02  0.1180202E+00
          2   -1    0    0  501    0  0.00000000000E+00  0.00000000000E+00  0.13746955477E+04  0.13746955477E+04  0.00000000000E+00 0. -1.
         -2   -1    0    0    0  501 -0.00000000000E+00 -0.00000000000E+00 -0.21244360497E+02  0.21244360497E+02  0.00000000000E+00 0.  1.
          5    1    1    2  502    0 -0.77725783490E+02 -0.43873994970E+02  0.27276849681E+03  0.28703826871E+03  0.47000000000E+01 0.  1.
         -5    1    1    2    0  502 -0.40468446122E+02  0.25950190506E+02  0.65058935574E+03  0.65238003289E+03  0.47000000000E+01 0.  1.
        -11    1    1    2    0    0  0.10053903753E+03 -0.25674956290E+02  0.25717704720E+03  0.27732171760E+03  0.00000000000E+00 0.  1.
         11    1    1    2    0    0  0.17655192085E+02  0.43598760754E+02  0.17291628750E+03  0.17919988903E+03  0.00000000000E+00 0. -1.
<mgrwt>
<rscale>  0 0.16776249E+03</rscale>
<asrwt>0</asrwt>
<pdfrwt beam="1">  1        2 0.21149155E+00 0.17296538E+03</pdfrwt>
<pdfrwt beam="2">  1       -2 0.32683642E-02 0.17296538E+03</pdfrwt>
<totfact> 0.58753504E+03</totfact>
</mgrwt>
</event>
<event>
 6    1  0.1045058E-005  0.4898613E+03  0.7546771E-02  0.1016460E+00
          1   -1    0    0  501    0  0.00000000000E+00  0.00000000000E+00  0.33272364197E+03  0.33272364197E+03  0.00000000000E+00 0. -1.
         -1   -1    0    0    0  501 -0.00000000000E+00 -0.00000000000E+00 -0.18030282854E+03  0.18030282854E+03  0.00000000000E+00 0.  1.
          5    1    1    2  502    0 -0.14815466741E+03  0.15706553785E+02  0.20428083652E+03  0.25288189234E+03  0.47000000000E+01 0.  1.
         -5    1    1    2    0  502 -0.20628499437E+02 -0.46787799717E+02  0.17764307907E+02  0.54335014740E+02  0.47000000000E+01 0.  1.
        -11    1    1    2    0    0  0.10214033891E+03  0.75795501541E+01 -0.85459140831E+02  0.13339176573E+03  0.00000000000E+00 0.  1.
         11    1    1    2    0    0  0.66642827941E+02  0.23501695778E+02  0.15834809835E+02  0.72417797695E+02  0.00000000000E+00 0. -1.
<mgrwt>
<rscale>  0 0.48986126E+03</rscale>
<asrwt>0</asrwt>
<pdfrwt beam="1">  1        1 0.51188253E-01 0.48986126E+03</pdfrwt>
<pdfrwt beam="2">  1       -1 0.27738897E-01 0.48986126E+03</pdfrwt>
<totfact> 0.89930112E+02</totfact>
</mgrwt>
</event>
<event>
 6    1  0.1045058E-005  0.1404877E+03  0.7546771E-02  0.1223960E+00
          3   -1    0    0  501    0  0.00000000000E+00  0.00000000000E+00  0.98415168543E+02  0.98415168543E+02  0.00000000000E+00 0. -1.
         -3   -1    0    0    0  501 -0.00000000000E+00 -0.00000000000E+00 -0.17642825692E+03  0.17642825692E+03  0.00000000000E+00 0.  1.
          5    1    1    2  502    0  0.31615920942E+01 -0.65461531159E+02 -0.86338104191E+02  0.10849684770E+03  0.47000000000E+01 0. -1.
         -5    1    1    2    0  502 -0.50492923074E+02  0.22197174150E+02  0.19442678194E+01  0.55390612906E+02  0.47000000000E+01 0. -1.
        -11    1    1    2    0    0  0.48615532373E+02  0.66361009964E+02 -0.96273862953E+01  0.82824755951E+02  0.00000000000E+00 0.  1.
         11    1    1    2    0    0 -0.12842013932E+01 -0.23096652956E+02  0.16008134289E+02  0.28131208904E+02  0.00000000000E+00 0. -1.
<mgrwt>
<rscale>  0 0.13238429E+03</rscale>
<asrwt>0</asrwt>
<pdfrwt beam="1">  1        3 0.15140795E-01 0.14048765E+03</pdfrwt>
<pdfrwt beam="2">  1       -3 0.27142809E-01 0.14048765E+03</pdfrwt>
<totfact> 0.10935792E+03</totfact>
</mgrwt>
</event>
<event>
 6    1  0.1045058E-005  0.1627718E+03  0.7546771E-02  0.1193065E+00
         -1   -1    0    0    0  501 -0.00000000000E+00  0.00000000000E+00  0.19715716317E+02  0.19715716317E+02  0.00000000000E+00 0.  1.
          1   -1    0    0  501    0  0.00000000000E+00 -0.00000000000E+00 -0.13657638598E+04  0.13657638598E+04  0.00000000000E+00 0. -1.
          5    1    1    2  502    0  0.55548262234E+02  0.50470574272E+02 -0.43876895972E+03  0.44516646136E+03  0.47000000000E+01 0.  1.
         -5    1    1    2    0  502 -0.69470945062E+02  0.52855534664E+02 -0.55717431720E+03  0.56399045160E+03  0.47000000000E+01 0.  1.
        -11    1    1    2    0    0  0.43890963198E+02 -0.18894934156E+02 -0.13934523846E+03  0.14731099982E+03  0.00000000000E+00 0. -1.
         11    1    1    2    0    0 -0.29968280370E+02 -0.84431174780E+02 -0.21075962807E+03  0.22901166330E+03  0.00000000000E+00 0.  1.
<mgrwt>
<rscale>  0 0.15619171E+03</rscale>
<asrwt>0</asrwt>
<pdfrwt beam="2">  1        1 0.21011758E+00 0.16277182E+03</pdfrwt>
<pdfrwt beam="1">  1       -1 0.30331863E-02 0.16277182E+03</pdfrwt>
<totfact> 0.32429208E+03</totfact>
</mgrwt>
</event>
<event>
 6    1  0.1045058E-005  0.2608061E+03  0.7546771E-02  0.1106660E+00
          2   -1    0    0  501    0  0.00000000000E+00  0.00000000000E+00  0.93265124495E+03  0.93265124495E+03  0.00000000000E+00 0. -1.
         -2   -1    0    0    0  501 -0.00000000000E+00 -0.00000000000E+00 -0.18232921540E+02  0.18232921540E+02  0.00000000000E+00 0.  1.
          5    1    1    2  502    0 -0.37910456093E+01 -0.12768511792E+02  0.37775047122E+01  0.14620754497E+02  0.47000000000E+01 0.  1.
         -5    1    1    2    0  502 -0.23678976292E+02  0.67740352122E+02  0.64156213287E+03  0.64557997921E+03  0.47000000000E+01 0.  1.
        -11    1    1    2    0    0  0.35091697469E+01 -0.44984892241E+02  0.25889647314E+03  0.26279904605E+03  0.00000000000E+00 0. -1.
         11    1    1    2    0    0  0.23960852155E+02 -0.99869480897E+01  0.10182212688E+02  0.27884386731E+02  0.00000000000E+00 0.  1.
<mgrwt>
<rscale>  0 0.26080611E+03</rscale>
<asrwt>0</asrwt>
<pdfrwt beam="1">  1        2 0.14348477E+00 0.26080611E+03</pdfrwt>
<pdfrwt beam="2">  1       -2 0.28050656E-02 0.26080611E+03</pdfrwt>
<totfact> 0.13478358E+04</totfact>
</mgrwt>
</event>
<event>
 6    1  0.1045058E-005  0.1258236E+03  0.7546771E-02  0.1249778E+00
         -4   -1    0    0    0  501 -0.00000000000E+00  0.00000000000E+00  0.26707326436E+03  0.26707326436E+03  0.00000000000E+00 0.  1.
          4   -1    0    0  501    0  0.00000000000E+00 -0.00000000000E+00 -0.44164624657E+02  0.44164624657E+02  0.00000000000E+00 0. -1.
          5    1    1    2  502    0  0.32262494373E+02  0.38994835143E+02  0.13287640544E+03  0.14226628143E+03  0.47000000000E+01 0. -1.
         -5    1    1    2    0  502 -0.36195316174E+02 -0.25152561608E+02  0.53453737623E+01  0.44647679548E+02  0.47000000000E+01 0. -1.
        -11    1    1    2    0    0  0.46817127188E+01  0.37564401126E+02  0.24153894070E+02  0.44904490474E+02  0.00000000000E+00 0. -1.
         11    1    1    2    0    0 -0.74889091830E+00 -0.51406674660E+02  0.60532966432E+02  0.79419437560E+02  0.00000000000E+00 0.  1.
<mgrwt>
<rscale>  0 0.11603934E+03</rscale>
<asrwt>0</asrwt>
<pdfrwt beam="2">  1        4 0.67945578E-02 0.12582356E+03</pdfrwt>
<pdfrwt beam="1">  1       -4 0.41088194E-01 0.12582356E+03</pdfrwt>
<totfact> 0.13531612E+03</totfact>
</mgrwt>
</event>
<event>
 6    1  0.1045058E-005  0.2600465E+03  0.7546771E-02  0.1107115E+00
          1   -1    0    0  501    0  0.00000000000E+00  0.00000000000E+00  0.20756197376E+02  0.20756197376E+02  0.00000000000E+00 0. -1.
         -1   -1    0    0    0  501 -0.00000000000E+00 -0.00000000000E+00 -0.81450566747E+03  0.81450566747E+03  0.00000000000E+00 0.  1.
          5    1    1    2  502    0 -0.71397357362E+01 -0.29410924452E+02 -0.18129077568E+03  0.18385976627E+03  0.47000000000E+01 0. -1.
         -5    1    1    2    0  502  0.24486297204E+00  0.89735894036E+02 -0.14214787598E+03  0.16816866320E+03  0.47000000000E+01 0. -1.
        -11    1    1    2    0    0  0.47732579165E+02 -0.44217391025E+02 -0.32443577301E+03  0.33089597700E+03  0.00000000000E+00 0. -1.
         11    1    1    2    0    0 -0.40837706401E+02 -0.16107578559E+02 -0.14587504542E+03  0.15233745838E+03  0.00000000000E+00 0.  1.
<mgrwt>
<rscale>  0 0.26004646E+03</rscale>
<asrwt>0</asrwt>
<pdfrwt beam="1">  1        1 0.31932618E-02 0.26004646E+03</pdfrwt>
<pdfrwt beam="2">  1       -1 0.12530854E+00 0.26004646E+03</pdfrwt>
<totfact> 0.18547672E+03</totfact>
</mgrwt>
</event>
<event>
 6    1  0.1045058E-005  0.1538624E+03  0.7546771E-02  0.1203767E+00
         -2   -1    0    0    0  501 -0.00000000000E+00  0.00000000000E+00  0.71812330135E+03  0.71812330135E+03  0.00000000000E+00 0.  1.
          2   -1    0    0  501    0  0.00000000000E+00 -0.00000000000E+00 -0.28727812435E+02  0.28727812435E+02  0.00000000000E+00 0. -1.
          5    1    1    2  502    0  0.15846017627E+02  0.54879994217E+02  0.10942671239E+03  0.12352815641E+03  0.47000000000E+01 0.  1.
         -5    1    1    2    0  502  0.73333330527E+02 -0.62420985348E+02  0.20247440823E+03  0.22425907510E+03  0.47000000000E+01 0.  1.
        -11    1    1    2    0    0 -0.61448416507E+02 -0.30094624400E+02  0.30661175323E+03  0.31415340446E+03  0.00000000000E+00 0.  1.
         11    1    1    2    0    0 -0.27730931647E+02  0.37635615531E+02  0.70882615056E+02  0.84910477819E+02  0.00000000000E+00 0. -1.
<mgrwt>
<rscale>  0 0.14735038E+03</rscale>
<asrwt>0</asrwt>
<pdfrwt beam="2">  1        2 0.44196640E-02 0.15386244E+03</pdfrwt>
<pdfrwt beam="1">  1       -2 0.11048049E+00 0.15386244E+03</pdfrwt>
<totfact> 0.12228440E+03</totfact>
</mgrwt>
</event>
<event>
 6    1  0.1045058E-005  0.2840601E+03  0.7546771E-02  0.1093492E+00
          2   -1    0    0  501    0  0.00000000000E+00  0.00000000000E+00  0.24491238671E+03  0.24491238671E+03  0.00000000000E+00 0. -1.
         -2   -1    0    0    0  501 -0.00000000000E+00 -0.00000000000E+00 -0.82366334865E+02  0.82366334865E+02  0.00000000000E+00 0.  1.
          5    1    1    2  502    0  0.73918033374E+02 -0.67711135887E+01  0.18108397872E+03  0.19576317577E+03  0.47000000000E+01 0. -1.
         -5    1    1    2    0  502 -0.21968924424E+02  0.98469016951E+01 -0.63064164059E+01  0.25326981684E+02  0.47000000000E+01 0. -1.
        -11    1    1    2    0    0 -0.34998484079E+02 -0.26040750099E+02  0.31611461104E+02  0.53872989769E+02  0.00000000000E+00 0. -1.
         11    1    1    2    0    0 -0.16950624871E+02  0.22964961992E+02 -0.43842971578E+02  0.52315574351E+02  0.00000000000E+00 0.  1.
<mgrwt>
<rscale>  0 0.28406010E+03</rscale>
<asrwt>0</asrwt>
<pdfrwt beam="1">  1        2 0.37678828E-01 0.28406010E+03</pdfrwt>
<pdfrwt beam="2">  1       -2 0.12671744E-01 0.28406010E+03</pdfrwt>
<totfact> 0.61352381E+03</totfact>
</mgrwt>
</event>
<event>
 6    1  0.1045058E-005  0.1664783E+03  0.7546771E-02  0.1188175E+00
         -2   -1    0    0    0  501 -0.00000000000E+00  0.00000000000E+00  0.39257456664E+02  0.39257456664E+02  0.00000000000E+00 0.  1.
          2   -1    0    0  501    0  0.00000000000E+00 -0.00000000000E+00 -0.61376859364E+03  0.61376859364E+03  0.00000000000E+00 0. -1.
          5    1    1    2  502    0 -0.27652236321E+01  0.94871963515E+02 -0.26065874735E+03  0.27744081980E+03  0.47000000000E+01 0.  1.
         -5    1    1    2    0  502  0.50149301265E+02  0.43465866030E+01 -0.33779049215E+02  0.60802626574E+02  0.47000000000E+01 0.  1.
        -11    1    1    2    0    0 -0.66383151025E+02 -0.32540540077E+02 -0.15665032508E+03  0.17321932293E+03  0.00000000000E+00 0.  1.
         11    1    1    2    0    0  0.18999073392E+02 -0.66678010042E+02 -0.12342301532E+03  0.14156328099E+03  0.00000000000E+00 0. -1.
<mgrwt>
<rscale>  0 0.16046315E+03</rscale>
<asrwt>0</asrwt>
<pdfrwt beam="2">  1        2 0.94425928E-01 0.16647827E+03</pdfrwt>
<pdfrwt beam="1">  1       -2 0.60396093E-02 0.16647827E+03</pdfrwt>
<totfact> 0.69979267E+03</totfact>
</mgrwt>
</event>
<event>
 6    1  0.1045058E-005  0.1354088E+03  0.7546771E-02  0.1230583E+00
         -1   -1    0    0    0  501 -0.00000000000E+00  0.00000000000E+00  0.50239765439E+02  0.50239765439E+02  0.00000000000E+00 0.  1.
          1   -1    0    0  501    0  0.00000000000E+00 -0.00000000000E+00 -0.29516810384E+03  0.29516810384E+03  0.00000000000E+00 0. -1.
          5    1    1    2  502    0  0.38914898378E+02 -0.23147646652E+02 -0.56330060948E+02  0.72424779101E+02  0.47000000000E+01 0.  1.
         -5    1    1    2    0  502 -0.88158460639E+02  0.62960643740E+01 -0.71323292333E+02  0.11366906632E+03  0.47000000000E+01 0.  1.
        -11    1    1    2    0    0 -0.17154025561E+02  0.12902520803E+02  0.31950966540E+01  0.21701250624E+02  0.00000000000E+00 0. -1.
         11    1    1    2    0    0  0.66397587821E+02  0.39490614749E+01 -0.12047008177E+03  0.13761277324E+03  0.00000000000E+00 0.  1.
<mgrwt>
<rscale>  0 0.12791489E+03</rscale>
<asrwt>0</asrwt>
<pdfrwt beam="2">  1        1 0.45410476E-01 0.13540879E+03</pdfrwt>
<pdfrwt beam="1">  1       -1 0.77291949E-02 0.13540879E+03</pdfrwt>
<totfact> 0.77162502E+03</totfact>
</mgrwt>
</event>
<event>
 6    1  0.1045058E-005  0.1866779E+03  0.7546771E-02  0.1166841E+00
          1   -1    0    0  501    0  0.00000000000E+00  0.00000000000E+00  0.78364080039E+03  0.78364080039E+03  0.00000000000E+00 0. -1.
         -1   -1    0    0    0  501 -0.00000000000E+00 -0.00000000000E+00 -0.46277480947E+02  0.46277480947E+02  0.00000000000E+00 0.  1.
          5    1    1    2  502    0  0.97348718321E+02  0.74495428250E+02  0.49866118682E+03  0.51352839360E+03  0.47000000000E+01 0. -1.
         -5    1    1    2    0  502 -0.17327540953E+02  0.38730564071E+02  0.48551599384E+02  0.64650197769E+02  0.47000000000E+01 0. -1.
        -11    1    1    2    0    0 -0.38271975097E+02 -0.11143266009E+03  0.10922229708E+03  0.16065955307E+03  0.00000000000E+00 0.  1.
         11    1    1    2    0    0 -0.41749202272E+02 -0.17933322304E+01  0.80928236153E+02  0.91080136900E+02  0.00000000000E+00 0. -1.
<mgrwt>
<rscale>  0 0.18099729E+03</rscale>
<asrwt>0</asrwt>
<pdfrwt beam="1">  1        1 0.12056011E+00 0.18667793E+03</pdfrwt>
<pdfrwt beam="2">  1       -1 0.71196130E-02 0.18667793E+03</pdfrwt>
<totfact> 0.24291881E+03</totfact>
</mgrwt>
</event>
<event>
 6    1  0.1045058E-005  0.1803141E+03  0.7546771E-02  0.1173348E+00
         -2   -1    0    0    0  501 -0.00000000000E+00  0.00000000000E+00  0.25095892961E+03  0.25095892961E+03  0.00000000000E+00 0.  1.
          2   -1    0    0  501    0  0.00000000000E+00 -0.00000000000E+00 -0.13108306644E+03  0.13108306644E+03  0.00000000000E+00 0. -1.
          5    1    1    2  502    0  0.47412308810E+02  0.11328619340E+03 -0.65610832194E+01  0.12307244393E+03  0.47000000000E+01 0.  1.
         -5    1    1    2    0  502 -0.54711678305E+02  0.16455543940E+02  0.85012951467E+00  0.57332062492E+02  0.47000000000E+01 0.  1.
        -11    1    1    2    0    0  0.25664541683E+02 -0.70118173076E+02  0.11680964679E+03  0.13863520649E+03  0.00000000000E+00 0.  1.
         11    1    1    2    0    0 -0.18365172187E+02 -0.59623564268E+02  0.87771700854E+01  0.63002283135E+02  0.00000000000E+00 0. -1.
<mgrwt>
<rscale>  0 0.17438769E+03</rscale>
<asrwt>0</asrwt>
<pdfrwt beam="2">  1        2 0.20166626E-01 0.18031409E+03</pdfrwt>
<pdfrwt beam="1">  1       -2 0.38609066E-01 0.18031409E+03</pdfrwt>
<totfact> 0.17267334E+03</totfact>
</mgrwt>
</event>
<event>
 6    1  0.1045058E-005  0.1262149E+03  0.7546771E-02  0.1247670E+00
         -2   -1    0    0    0  501 -0.00000000000E+00  0.00000000000E+00  0.17594287611E+02  0.17594287611E+02  0.00000000000E+00 0.  1.
          2   -1    0    0  501    0  0.00000000000E+00 -0.00000000000E+00 -0.70239627235E+03  0.70239627235E+03  0.00000000000E+00 0. -1.
          5    1    1    2  502    0  0.47015195083E+02 -0.18758459029E+02 -0.27081112170E+03  0.27554139796E+03  0.47000000000E+01 0. -1.
         -5    1    1    2    0  502 -0.60465627446E+02  0.29879790743E+02 -0.16900625170E+03  0.18202773720E+03  0.47000000000E+01 0. -1.
        -11    1    1    2    0    0 -0.34897041927E+02  0.72950515073E+01 -0.55204594066E+02  0.65715816344E+02  0.00000000000E+00 0.  1.
         11    1    1    2    0    0  0.48347474290E+02 -0.18416383221E+02 -0.18978001728E+03  0.19670560846E+03  0.00000000000E+00 0. -1.
<mgrwt>
<rscale>  0 0.11726967E+03</rscale>
<asrwt>0</asrwt>
<pdfrwt beam="2">  1        2 0.10806095E+00 0.12621486E+03</pdfrwt>
<pdfrwt beam="1">  1       -2 0.27068140E-02 0.12621486E+03</pdfrwt>
<totfact> 0.19408563E+04</totfact>
</mgrwt>
</event>
<event>
 6    1  0.1045058E-005  0.1658127E+03  0.7546771E-02  0.1189139E+00
         -1   -1    0    0    0  501 -0.00000000000E+00  0.00000000000E+00  0.24986301363E+02  0.24986301363E+02  0.00000000000E+00 0.  1.
          1   -1    0    0  501    0  0.00000000000E+00 -0.00000000000E+00 -0.14607044006E+04  0.14607044006E+04  0.00000000000E+00 0. -1.
          5    1    1    2  502    0 -0.16023927723E+02 -0.27282413435E+02 -0.23424894185E+03  0.23642282694E+03  0.47000000000E+01 0. -1.
         -5    1    1    2    0  502  0.12064187665E+03  0.57713658751E+02 -0.95748513925E+03  0.96679119291E+03  0.47000000000E+01 0. -1.
        -11    1    1    2    0    0  0.37838579992E+01 -0.32375599409E+02 -0.73986065536E+02  0.80848221453E+02  0.00000000000E+00 0.  1.
         11    1    1    2    0    0 -0.10840180692E+03  0.19443540938E+01 -0.16999795259E+03  0.20162846065E+03  0.00000000000E+00 0. -1.
<mgrwt>
<rscale>  0 0.15960863E+03</rscale>
<asrwt>0</asrwt>
<pdfrwt beam="2">  1        1 0.22472378E+00 0.16581272E+03</pdfrwt>
<pdfrwt beam="1">  1       -1 0.38440459E-02 0.16581272E+03</pdfrwt>
<totfact> 0.19826769E+03</totfact>
</mgrwt>
</event>
<event>
 6    1  0.1045058E-005  0.1523394E+03  0.7546771E-02  0.1212837E+00
          2   -1    0    0  501    0  0.00000000000E+00  0.00000000000E+00  0.58909365481E+03  0.58909365481E+03  0.00000000000E+00 0. -1.
         -2   -1    0    0    0  501 -0.00000000000E+00 -0.00000000000E+00 -0.53165586657E+02  0.53165586657E+02  0.00000000000E+00 0.  1.
          5    1    1    2  502    0  0.12435234523E+02  0.33692772726E+02  0.43487633574E+03  0.43638212082E+03  0.47000000000E+01 0. -1.
         -5    1    1    2    0  502 -0.54940400619E+02  0.19375116593E+02  0.71147841373E+02  0.92075773661E+02  0.47000000000E+01 0.  1.
        -11    1    1    2    0    0  0.50090725032E+02 -0.18193712918E+02 -0.16012221488E+02  0.55646052519E+02  0.00000000000E+00 0.  1.
         11    1    1    2    0    0 -0.75855589361E+01 -0.34874176401E+02  0.45916112531E+02  0.58155294462E+02  0.00000000000E+00 0. -1.
<mgrwt>
<rscale>  0 0.14036594E+03</rscale>
<asrwt>0</asrwt>
<pdfrwt beam="1">  1        2 0.90629788E-01 0.15233935E+03</pdfrwt>
<pdfrwt beam="2">  1       -2 0.81793215E-02 0.15233935E+03</pdfrwt>
<totfact> 0.45819982E+03</totfact>
</mgrwt>
</event>
<event>
 6    1  0.1045058E-005  0.2793043E+03  0.7546771E-02  0.1096070E+00
          2   -1    0    0  501    0  0.00000000000E+00  0.00000000000E+00  0.13355809632E+03  0.13355809632E+03  0.00000000000E+00 0. -1.
         -2   -1    0    0    0  501 -0.00000000000E+00 -0.00000000000E+00 -0.14602425984E+03  0.14602425984E+03  0.00000000000E+00 0.  1.
          5    1    1    2  502    0  0.82171826380E+02 -0.29336579786E+02  0.73705295017E+02  0.11431274854E+03  0.47000000000E+01 0.  1.
         -5    1    1    2    0  502 -0.15408794113E+02 -0.40814157223E+00 -0.32465404542E+02  0.36244861811E+02  0.47000000000E+01 0.  1.
        -11    1    1    2    0    0 -0.56794280141E+02  0.57333776341E+02 -0.17768329055E+02  0.82634530819E+02  0.00000000000E+00 0. -1.
         11    1    1    2    0    0 -0.99687521259E+01 -0.27589054983E+02 -0.35937724939E+02  0.46390214998E+02  0.00000000000E+00 0.  1.
<mgrwt>
<rscale>  0 0.27930429E+03</rscale>
<asrwt>0</asrwt>
<pdfrwt beam="1">  1        2 0.20547400E-01 0.27930429E+03</pdfrwt>
<pdfrwt beam="2">  1       -2 0.22465271E-01 0.27930429E+03</pdfrwt>
<totfact> 0.45952985E+03</totfact>
</mgrwt>
</event>
<event>
 6    1  0.1045058E-005  0.4068024E+03  0.7546771E-02  0.1041449E+00
          2   -1    0    0  501    0  0.00000000000E+00  0.00000000000E+00  0.13161527740E+04  0.13161527740E+04  0.00000000000E+00 0. -1.
         -2   -1    0    0    0  501 -0.00000000000E+00 -0.00000000000E+00 -0.31434071385E+02  0.31434071385E+02  0.00000000000E+00 0.  1.
          5    1    1    2  502    0  0.12060628274E+03 -0.93627157846E+02  0.84186355170E+03  0.85560987009E+03  0.47000000000E+01 0.  1.
         -5    1    1    2    0  502  0.58355411090E+01  0.33674591884E+02  0.16031320488E+03  0.16398306417E+03  0.47000000000E+01 0.  1.
        -11    1    1    2    0    0 -0.75852687837E+02  0.33488172575E+01  0.20872720112E+03  0.22210783263E+03  0.00000000000E+00 0. -1.
         11    1    1    2    0    0 -0.50589136009E+02  0.56603748704E+02  0.73814744923E+02  0.10588607849E+03  0.00000000000E+00 0.  1.
<mgrwt>
<rscale>  0 0.40680236E+03</rscale>
<asrwt>0</asrwt>
<pdfrwt beam="1">  1        2 0.20248500E+00 0.40680236E+03</pdfrwt>
<pdfrwt beam="2">  1       -2 0.48360120E-02 0.40680236E+03</pdfrwt>
<totfact> 0.35490517E+03</totfact>
</mgrwt>
</event>
<event>
 6    1  0.1045058E-005  0.1407077E+03  0.7546771E-02  0.1222953E+00
          3   -1    0    0  501    0  0.00000000000E+00  0.00000000000E+00  0.83175959656E+03  0.83175959656E+03  0.00000000000E+00 0. -1.
         -3   -1    0    0    0  501 -0.00000000000E+00 -0.00000000000E+00 -0.19832052715E+02  0.19832052715E+02  0.00000000000E+00 0.  1.
          5    1    1    2  502    0 -0.83135788247E+02 -0.15205559121E+02  0.36008740780E+03  0.36990241899E+03  0.47000000000E+01 0. -1.
         -5    1    1    2    0  502  0.25913370650E+02  0.47197661098E+02  0.15996566121E+03  0.16884971056E+03  0.47000000000E+01 0. -1.
        -11    1    1    2    0    0  0.57960520512E+02 -0.57767378754E+02  0.17547499231E+03  0.19361809035E+03  0.00000000000E+00 0.  1.
         11    1    1    2    0    0 -0.73810291470E+00  0.25775276777E+02  0.11639948253E+03  0.11922142937E+03  0.00000000000E+00 0. -1.
<mgrwt>
<rscale>  0 0.13308195E+03</rscale>
<asrwt>0</asrwt>
<pdfrwt beam="1">  1        3 0.12796299E+00 0.14070772E+03</pdfrwt>
<pdfrwt beam="2">  1       -3 0.30510857E-02 0.14070772E+03</pdfrwt>
<totfact> 0.58843210E+02</totfact>
</mgrwt>
</event>
<event>
 6    1  0.1045058E-005  0.1471580E+03  0.7546771E-02  0.1214995E+00
          2   -1    0    0  501    0  0.00000000000E+00  0.00000000000E+00  0.62768084301E+03  0.62768084301E+03  0.00000000000E+00 0. -1.
         -2   -1    0    0    0  501 -0.00000000000E+00 -0.00000000000E+00 -0.28049086925E+02  0.28049086925E+02  0.00000000000E+00 0.  1.
          5    1    1    2  502    0 -0.33109845496E+01 -0.71410793653E+02  0.22467565228E+03  0.23582133661E+03  0.47000000000E+01 0. -1.
         -5    1    1    2    0  502  0.67167671217E+02  0.27222293702E+02  0.14809585497E+03  0.16494551098E+03  0.47000000000E+01 0. -1.
        -11    1    1    2    0    0 -0.47816424910E+02  0.29997107409E+02  0.22662068434E+03  0.23354479552E+03  0.00000000000E+00 0. -1.
         11    1    1    2    0    0 -0.16040261757E+02  0.14191392542E+02  0.23956448327E+00  0.21418286828E+02  0.00000000000E+00 0.  1.
<mgrwt>
<rscale>  0 0.13876904E+03</rscale>
<asrwt>0</asrwt>
<pdfrwt beam="1">  1        2 0.96566273E-01 0.14715797E+03</pdfrwt>
<pdfrwt beam="2">  1       -2 0.43152446E-02 0.14715797E+03</pdfrwt>
<totfact> 0.11241712E+04</totfact>
</mgrwt>
</event>
<event>
 6    1  0.1045058E-005  0.1396201E+03  0.7546771E-02  0.1240488E+00
         -1   -1    0    0    0  501 -0.00000000000E+00  0.00000000000E+00  0.11295342406E+03  0.11295342406E+03  0.00000000000E+00 0.  1.
          1   -1    0    0  501    0  0.00000000000E+00 -0.00000000000E+00 -0.11624613292E+03  0.11624613292E+03  0.00000000000E+00 0. -1.
          5    1    1    2  502    0  0.54151620830E+02 -0.49108570522E+02 -0.35314628826E+02  0.81321969641E+02  0.47000000000E+01 0. -1.
         -5    1    1    2    0  502 -0.45240346152E+02  0.42346806464E+02  0.21520596250E+01  0.62182491895E+02  0.47000000000E+01 0.  1.
        -11    1    1    2    0    0  0.13179395482E+02  0.37225189503E+02  0.32935899023E+01  0.39626492821E+02  0.00000000000E+00 0.  1.
         11    1    1    2    0    0 -0.22090670160E+02 -0.30463425445E+02  0.26576270434E+02  0.46068602629E+02  0.00000000000E+00 0. -1.
<mgrwt>
<rscale>  0 0.12159566E+03</rscale>
<asrwt>0</asrwt>
<pdfrwt beam="2">  1        1 0.17884020E-01 0.13962011E+03</pdfrwt>
<pdfrwt beam="1">  1       -1 0.17377450E-01 0.13962011E+03</pdfrwt>
<totfact> 0.71132110E+03</totfact>
</mgrwt>
</event>
<event>
 6    1  0.1045058E-005  0.4801508E+03  0.7546771E-02  0.1019094E+00
          1   -1    0    0  501    0  0.00000000000E+00  0.00000000000E+00  0.50578662397E+03  0.50578662397E+03  0.00000000000E+00 0. -1.
         -1   -1    0    0    0  501 -0.00000000000E+00 -0.00000000000E+00 -0.11395358537E+03  0.11395358537E+03  0.00000000000E+00 0.  1.
          5    1    1    2  502    0  0.14641677742E+03  0.86457580185E+02  0.30137487132E+03  0.34606601819E+03  0.47000000000E+01 0.  1.
         -5    1    1    2    0  502 -0.25542273420E+02  0.25033067187E+02  0.76498340211E+02  0.84576286507E+02  0.47000000000E+01 0.  1.
        -11    1    1    2    0    0 -0.87276741899E+02 -0.67039992175E+02 -0.34415890035E+02  0.11530847200E+03  0.00000000000E+00 0.  1.
         11    1    1    2    0    0 -0.33597762100E+02 -0.44450655197E+02  0.48375717097E+02  0.73789432646E+02  0.00000000000E+00 0. -1.
<mgrwt>
<rscale>  0 0.48015081E+03</rscale>
<asrwt>0</asrwt>
<pdfrwt beam="1">  1        1 0.77813326E-01 0.48015081E+03</pdfrwt>
<pdfrwt beam="2">  1       -1 0.17531321E-01 0.48015081E+03</pdfrwt>
<totfact> 0.11137643E+03</totfact>
</mgrwt>
</event>
<event>
 6    1  0.1045058E-005  0.1907205E+03  0.7546771E-02  0.1162662E+00
          1   -1    0    0  501    0  0.00000000000E+00  0.00000000000E+00  0.72419928634E+03  0.72419928634E+03  0.00000000000E+00 0. -1.
         -1   -1    0    0    0  501 -0.00000000000E+00 -0.00000000000E+00 -0.59767492330E+02  0.59767492330E+02  0.00000000000E+00 0.  1.
          5    1    1    2  502    0  0.12194203528E+03 -0.59975030774E+02  0.48271261999E+03  0.50149818323E+03  0.47000000000E+01 0.  1.
         -5    1    1    2    0  502 -0.16952956578E+02 -0.38648814348E+02  0.58141302983E+02  0.71997463148E+02  0.47000000000E+01 0.  1.
        -11    1    1    2    0    0 -0.59508485940E+02  0.10722136821E+03  0.76958877939E+02  0.14477689938E+03  0.00000000000E+00 0.  1.
         11    1    1    2    0    0 -0.45480592761E+02 -0.85975230853E+01  0.46618993099E+02  0.65694232918E+02  0.00000000000E+00 0. -1.
<mgrwt>
<rscale>  0 0.18541612E+03</rscale>
<asrwt>0</asrwt>
<pdfrwt beam="1">  1        1 0.11141527E+00 0.19072045E+03</pdfrwt>
<pdfrwt beam="2">  1       -1 0.91949993E-02 0.19072045E+03</pdfrwt>
<totfact> 0.18514680E+03</totfact>
</mgrwt>
</event>
<event>
 6    1  0.1045058E-005  0.1299566E+03  0.7546771E-02  0.1240676E+00
         -2   -1    0    0    0  501 -0.00000000000E+00  0.00000000000E+00  0.18356356738E+03  0.18356356738E+03  0.00000000000E+00 0.  1.
          2   -1    0    0  501    0  0.00000000000E+00 -0.00000000000E+00 -0.75028518211E+02  0.75028518211E+02  0.00000000000E+00 0. -1.
          5    1    1    2  502    0 -0.60102203725E+02 -0.15420268427E+02  0.10726080984E+02  0.63144266440E+02  0.47000000000E+01 0.  1.
         -5    1    1    2    0  502  0.64124189363E+02 -0.19913105132E+02  0.22816588733E+02  0.71071303202E+02  0.47000000000E+01 0.  1.
        -11    1    1    2    0    0  0.38992201862E+02  0.38775250190E+02  0.51020704543E+02  0.75013492956E+02  0.00000000000E+00 0. -1.
         11    1    1    2    0    0 -0.43014187500E+02 -0.34418766307E+01  0.23971674908E+02  0.49363022992E+02  0.00000000000E+00 0.  1.
<mgrwt>
<rscale>  0 0.12147986E+03</rscale>
<asrwt>0</asrwt>
<pdfrwt beam="2">  1        2 0.11542849E-01 0.12995656E+03</pdfrwt>
<pdfrwt beam="1">  1       -2 0.28240549E-01 0.12995656E+03</pdfrwt>
<totfact> 0.57886671E+03</totfact>
</mgrwt>
</event>
<event>
 6    1  0.1045058E-005  0.2305667E+03  0.7546771E-02  0.1151315E+00
         -2   -1    0    0    0  501 -0.00000000000E+00  0.00000000000E+00  0.29249538787E+02  0.29249538787E+02  0.00000000000E+00 0.  1.
          2   -1    0    0  501    0  0.00000000000E+00 -0.00000000000E+00 -0.12007687168E+04  0.12007687168E+04  0.00000000000E+00 0. -1.
          5    1    1    2  502    0 -0.13401580698E+03 -0.41315793110E+01 -0.79807554431E+03  0.80927373051E+03  0.47000000000E+01 0. -1.
         -5    1    1    2    0  502  0.56465737164E+02 -0.37623402412E+02 -0.12659214812E+03  0.14370651289E+03  0.47000000000E+01 0.  1.
        -11    1    1    2    0    0  0.54631166781E+02 -0.13496236310E+02 -0.66981400375E+02  0.87482688428E+02  0.00000000000E+00 0. -1.
         11    1    1    2    0    0  0.22918903037E+02  0.55251218033E+02 -0.17987008521E+03  0.18955532375E+03  0.00000000000E+00 0.  1.
<mgrwt>
<rscale>  0 0.19814314E+03</rscale>
<asrwt>0</asrwt>
<pdfrwt beam="2">  1        2 0.18473362E+00 0.23056670E+03</pdfrwt>
<pdfrwt beam="1">  1       -2 0.44999298E-02 0.23056670E+03</pdfrwt>
<totfact> 0.45685856E+03</totfact>
</mgrwt>
</event>
<event>
 6    1  0.1045058E-005  0.2163274E+03  0.7546771E-02  0.1140131E+00
          2   -1    0    0  501    0  0.00000000000E+00  0.00000000000E+00  0.17289224413E+03  0.17289224413E+03  0.00000000000E+00 0. -1.
         -2   -1    0    0    0  501 -0.00000000000E+00 -0.00000000000E+00 -0.25009561746E+03  0.25009561746E+03  0.00000000000E+00 0.  1.
          5    1    1    2  502    0  0.47392683699E+02  0.10819017676E+03  0.72132389032E+01  0.11842846631E+03  0.47000000000E+01 0.  1.
         -5    1    1    2    0  502 -0.64115916287E+02  0.67571530449E+02 -0.35257041877E+02  0.99709134238E+02  0.47000000000E+01 0.  1.
        -11    1    1    2    0    0 -0.15550920567E+02 -0.63208281475E+02  0.20943273061E+02  0.68379373088E+02  0.00000000000E+00 0. -1.
         11    1    1    2    0    0  0.32274153155E+02 -0.11255342574E+03 -0.70102843417E+02  0.13647088796E+03  0.00000000000E+00 0.  1.
<mgrwt>
<rscale>  0 0.21182287E+03</rscale>
<asrwt>0</asrwt>
<pdfrwt beam="1">  1        2 0.26598807E-01 0.21632743E+03</pdfrwt>
<pdfrwt beam="2">  1       -2 0.38476248E-01 0.21632743E+03</pdfrwt>
<totfact> 0.12801864E+03</totfact>
</mgrwt>
</event>
<event>
 6    1  0.1045058E-005  0.1309859E+03  0.7546771E-02  0.1237709E+00
         -2   -1    0    0    0  501 -0.00000000000E+00  0.00000000000E+00  0.22488299636E+02  0.22488299636E+02  0.00000000000E+00 0.  1.
          2   -1    0    0  501    0  0.00000000000E+00 -0.00000000000E+00 -0.85538654828E+03  0.85538654828E+03  0.00000000000E+00 0. -1.
          5    1    1    2  502    0 -0.51356072888E+02  0.52484644614E+02 -0.25479059557E+03  0.26520260507E+03  0.47000000000E+01 0.  1.
         -5    1    1    2    0  502  0.37886457167E+02 -0.15731788270E+02 -0.43188656427E+03  0.43385592908E+03  0.47000000000E+01 0.  1.
        -11    1    1    2    0    0  0.19153886322E+02 -0.66366435878E+02 -0.12175750467E+03  0.13998666049E+03  0.00000000000E+00 0. -1.
         11    1    1    2    0    0 -0.56842706008E+01  0.29613579534E+02 -0.24463584131E+02  0.38829653277E+02  0.00000000000E+00 0.  1.
<mgrwt>
<rscale>  0 0.12332593E+03</rscale>
<asrwt>0</asrwt>
<pdfrwt beam="2">  1        2 0.13159795E+00 0.13098592E+03</pdfrwt>
<pdfrwt beam="1">  1       -2 0.34597380E-02 0.13098592E+03</pdfrwt>
<totfact> 0.10655254E+04</totfact>
</mgrwt>
</event>
<event>
 6    1  0.1045058E-005  0.1267455E+03  0.7546771E-02  0.1246955E+00
         -1   -1    0    0    0  501 -0.00000000000E+00  0.00000000000E+00  0.65194850243E+02  0.65194850243E+02  0.00000000000E+00 0.  1.
          1   -1    0    0  501    0  0.00000000000E+00 -0.00000000000E+00 -0.35125102590E+03  0.35125102590E+03  0.00000000000E+00 0. -1.
          5    1    1    2  502    0 -0.57256744252E+01 -0.24206658148E+02 -0.28600088519E+03  0.28711903799E+03  0.47000000000E+01 0.  1.
         -5    1    1    2    0  502 -0.14557326366E+02  0.29484489955E+02 -0.97054205456E+01  0.34605434354E+02  0.47000000000E+01 0.  1.
        -11    1    1    2    0    0 -0.25266742987E+02  0.13741742252E+02  0.29790829861E+02  0.41409386920E+02  0.00000000000E+00 0.  1.
         11    1    1    2    0    0  0.45549743778E+02 -0.19019574060E+02 -0.20140699776E+02  0.53312016874E+02  0.00000000000E+00 0. -1.
<mgrwt>
<rscale>  0 0.11769147E+03</rscale>
<asrwt>0</asrwt>
<pdfrwt beam="2">  1        1 0.54038619E-01 0.12674548E+03</pdfrwt>
<pdfrwt beam="1">  1       -1 0.10029977E-01 0.12674548E+03</pdfrwt>
<totfact> 0.41740338E+03</totfact>
</mgrwt>
</event>
<event>
 6    1  0.1045058E-005  0.1661109E+03  0.7546771E-02  0.1186925E+00
          2   -1    0    0  501    0  0.00000000000E+00  0.00000000000E+00  0.10316165019E+04  0.10316165019E+04  0.00000000000E+00 0. -1.
         -2   -1    0    0    0  501 -0.00000000000E+00 -0.00000000000E+00 -0.40565575983E+02  0.40565575983E+02  0.00000000000E+00 0.  1.
          5    1    1    2  502    0 -0.39700703573E+02  0.35351251636E+02  0.69396521468E+03  0.69601412776E+03  0.47000000000E+01 0. -1.
         -5    1    1    2    0  502 -0.65761159096E+02  0.17635862855E+02  0.15984532894E+03  0.17380498522E+03  0.47000000000E+01 0.  1.
        -11    1    1    2    0    0  0.17575373124E+02 -0.57969377274E+02  0.52116136649E+02  0.79908911526E+02  0.00000000000E+00 0. -1.
         11    1    1    2    0    0  0.87886489545E+02  0.49822627839E+01  0.85124245600E+02  0.12245405333E+03  0.00000000000E+00 0.  1.
<mgrwt>
<rscale>  0 0.16157964E+03</rscale>
<asrwt>0</asrwt>
<pdfrwt beam="1">  1        2 0.15871021E+00 0.16611094E+03</pdfrwt>
<pdfrwt beam="2">  1       -2 0.62408586E-02 0.16611094E+03</pdfrwt>
<totfact> 0.34565780E+03</totfact>
</mgrwt>
</event>
<event>
 6    1  0.1045058E-005  0.1598595E+03  0.7546771E-02  0.1196013E+00
          2   -1    0    0  501    0  0.00000000000E+00  0.00000000000E+00  0.15799421377E+04  0.15799421377E+04  0.00000000000E+00 0. -1.
         -2   -1    0    0    0  501 -0.00000000000E+00 -0.00000000000E+00 -0.17552770831E+02  0.17552770831E+02  0.00000000000E+00 0.  1.
          5    1    1    2  502    0  0.87756549595E+02  0.17576991103E+02  0.73123786504E+03  0.73670962250E+03  0.47000000000E+01 0.  1.
         -5    1    1    2    0  502 -0.28999782511E+02  0.62913681800E+02  0.46187546988E+03  0.46706547552E+03  0.47000000000E+01 0.  1.
        -11    1    1    2    0    0 -0.45619616390E+02  0.82531690360E+01  0.11034906800E+03  0.11969202566E+03  0.00000000000E+00 0.  1.
         11    1    1    2    0    0 -0.13137150693E+02 -0.88743841939E+02  0.25892696390E+03  0.27402778481E+03  0.00000000000E+00 0. -1.
<mgrwt>
<rscale>  0 0.15368806E+03</rscale>
<asrwt>0</asrwt>
<pdfrwt beam="1">  1        2 0.24306791E+00 0.15985949E+03</pdfrwt>
<pdfrwt beam="2">  1       -2 0.27004275E-02 0.15985949E+03</pdfrwt>
<totfact> 0.60574406E+03</totfact>
</mgrwt>
</event>
<event>
 6    1  0.1045058E-005  0.3188285E+03  0.7546771E-02  0.1076190E+00
          1   -1    0    0  501    0  0.00000000000E+00  0.00000000000E+00  0.36928776774E+03  0.36928776774E+03  0.00000000000E+00 0. -1.
         -1   -1    0    0    0  501 -0.00000000000E+00 -0.00000000000E+00 -0.68815975574E+02  0.68815975574E+02  0.00000000000E+00 0.  1.
          5    1    1    2  502    0 -0.51141509933E+02 -0.11713934101E+03  0.13518754816E+03  0.18610438584E+03  0.47000000000E+01 0.  1.
         -5    1    1    2    0  502  0.13544392247E+02  0.17272530122E+02  0.89542432529E+02  0.92313206430E+02  0.47000000000E+01 0.  1.
        -11    1    1    2    0    0  0.51555342440E+02  0.40900514925E+02  0.42172423063E+01  0.65943844201E+02  0.00000000000E+00 0.  1.
         11    1    1    2    0    0 -0.13958224755E+02  0.58966295962E+02  0.71524569171E+02  0.93742306847E+02  0.00000000000E+00 0. -1.
<mgrwt>
<rscale>  0 0.31882847E+03</rscale>
<asrwt>0</asrwt>
<pdfrwt beam="1">  1        1 0.56813502E-01 0.31882847E+03</pdfrwt>
<pdfrwt beam="2">  1       -1 0.10587073E-01 0.31882847E+03</pdfrwt>
<totfact> 0.37469878E+03</totfact>
</mgrwt>
</event>
<event>
 6    1  0.1045058E-005  0.1410278E+03  0.7546771E-02  0.1222754E+00
          2   -1    0    0  501    0  0.00000000000E+00  0.00000000000E+00  0.26504129224E+03  0.26504129224E+03  0.00000000000E+00 0. -1.
         -2   -1    0    0    0  501 -0.00000000000E+00 -0.00000000000E+00 -0.73708341921E+02  0.73708341921E+02  0.00000000000E+00 0.  1.
          5    1    1    2  502    0 -0.50766268261E+02 -0.53494214355E+02  0.98723724536E+02  0.12331791739E+03  0.47000000000E+01 0.  1.
         -5    1    1    2    0  502  0.65976401979E+02 -0.10011973009E+02  0.77086978639E+02  0.10206673061E+03  0.47000000000E+01 0.  1.
        -11    1    1    2    0    0  0.28290034758E+02  0.38766662977E+02  0.35278827583E+02  0.59563209287E+02  0.00000000000E+00 0. -1.
         11    1    1    2    0    0 -0.43500168476E+02  0.24739524388E+02 -0.19756580439E+02  0.53801776876E+02  0.00000000000E+00 0.  1.
<mgrwt>
<rscale>  0 0.13322043E+03</rscale>
<asrwt>0</asrwt>
<pdfrwt beam="1">  1        2 0.40775583E-01 0.14102779E+03</pdfrwt>
<pdfrwt beam="2">  1       -2 0.11339745E-01 0.14102779E+03</pdfrwt>
<totfact> 0.64791677E+03</totfact>
</mgrwt>
</event>
<event>
 6    1  0.1045058E-005  0.1375371E+03  0.7546771E-02  0.1228899E+00
          2   -1    0    0  501    0  0.00000000000E+00  0.00000000000E+00  0.25071274644E+03  0.25071274644E+03  0.00000000000E+00 0. -1.
         -2   -1    0    0    0  501 -0.00000000000E+00 -0.00000000000E+00 -0.61891915014E+02  0.61891915014E+02  0.00000000000E+00 0.  1.
          5    1    1    2  502    0  0.81669926779E+02  0.19253488091E+02  0.52485940723E+02  0.99083488621E+02  0.47000000000E+01 0.  1.
         -5    1    1    2    0  502 -0.38928529830E+02  0.18797134993E+02  0.84510432564E+02  0.95041390619E+02  0.47000000000E+01 0.  1.
        -11    1    1    2    0    0  0.22768942795E+02  0.46131890695E+01 -0.23732931240E+01  0.23352490009E+02  0.00000000000E+00 0.  1.
         11    1    1    2    0    0 -0.65510339743E+02 -0.42663812153E+02  0.54197751268E+02  0.95127292210E+02  0.00000000000E+00 0. -1.
<mgrwt>
<rscale>  0 0.12903202E+03</rscale>
<asrwt>0</asrwt>
<pdfrwt beam="1">  1        2 0.38571191E-01 0.13753713E+03</pdfrwt>
<pdfrwt beam="2">  1       -2 0.95218332E-02 0.13753713E+03</pdfrwt>
<totfact> 0.90399978E+03</totfact>
</mgrwt>
</event>
<event>
 6    1  0.1045058E-005  0.1541067E+03  0.7546771E-02  0.1206912E+00
          2   -1    0    0  501    0  0.00000000000E+00  0.00000000000E+00  0.15749144194E+03  0.15749144194E+03  0.00000000000E+00 0. -1.
         -2   -1    0    0    0  501 -0.00000000000E+00 -0.00000000000E+00 -0.12747293754E+03  0.12747293754E+03  0.00000000000E+00 0.  1.
          5    1    1    2  502    0 -0.10813696322E+02  0.16678391032E+02  0.59803939677E+02  0.63195774831E+02  0.47000000000E+01 0.  1.
         -5    1    1    2    0  502  0.98968541953E+02  0.21079307979E+01 -0.79002107642E+01  0.99416894936E+02  0.47000000000E+01 0.  1.
        -11    1    1    2    0    0 -0.12628652204E+02 -0.17361077126E+02  0.25381265419E+02  0.33243021670E+02  0.00000000000E+00 0. -1.
         11    1    1    2    0    0 -0.75526193427E+02 -0.14252447038E+01 -0.47266489932E+02  0.89108688052E+02  0.00000000000E+00 0.  1.
<mgrwt>
<rscale>  0 0.14487832E+03</rscale>
<asrwt>0</asrwt>
<pdfrwt beam="1">  1        2 0.24229453E-01 0.15410673E+03</pdfrwt>
<pdfrwt beam="2">  1       -2 0.19611221E-01 0.15410673E+03</pdfrwt>
<totfact> 0.46695748E+03</totfact>
</mgrwt>
</event>
<event>
 6    1  0.1045058E-005  0.3598762E+03  0.7546771E-02  0.1058633E+00
          2   -1    0    0  501    0  0.00000000000E+00  0.00000000000E+00  0.38173570707E+03  0.38173570707E+03  0.00000000000E+00 0. -1.
         -2   -1    0    0    0  501 -0.00000000000E+00 -0.00000000000E+00 -0.84817100469E+02  0.84817100469E+02  0.00000000000E+00 0.  1.
          5    1    1    2  502    0  0.18985666995E+02 -0.12576020195E+03  0.24949925835E+03  0.28008579732E+03  0.47000000000E+01 0. -1.
         -5    1    1    2    0  502  0.18044835012E+01  0.30098874644E+02  0.43029543266E+02  0.52752535572E+02  0.47000000000E+01 0. -1.
        -11    1    1    2    0    0 -0.18440099735E+02  0.32588097682E+02  0.45092155497E+02  0.58611636013E+02  0.00000000000E+00 0. -1.
         11    1    1    2    0    0 -0.23500507610E+01  0.63073229622E+02 -0.40702350510E+02  0.75102838632E+02  0.00000000000E+00 0.  1.
<mgrwt>
<rscale>  0 0.35987618E+03</rscale>
<asrwt>0</asrwt>
<pdfrwt beam="1">  1        2 0.58728569E-01 0.35987618E+03</pdfrwt>
<pdfrwt beam="2">  1       -2 0.13048785E-01 0.35987618E+03</pdfrwt>
<totfact> 0.36380660E+03</totfact>
</mgrwt>
</event>
<event>
 6    1  0.1045058E-005  0.1382928E+03  0.7546771E-02  0.1225577E+00
         -1   -1    0    0    0  501 -0.00000000000E+00  0.00000000000E+00  0.27301165086E+02  0.27301165086E+02  0.00000000000E+00 0.  1.
          1   -1    0    0  501    0  0.00000000000E+00 -0.00000000000E+00 -0.61781486690E+03  0.61781486690E+03  0.00000000000E+00 0. -1.
          5    1    1    2  502    0 -0.49937048102E+01  0.41766126629E+02 -0.18158595458E+03  0.18645346691E+03  0.47000000000E+01 0. -1.
         -5    1    1    2    0  502 -0.35947770913E+02 -0.84443179751E+02 -0.22670676556E+03  0.24462407975E+03  0.47000000000E+01 0. -1.
        -11    1    1    2    0    0  0.30494242156E+02  0.70100222170E+02 -0.94559007963E+02  0.12159500787E+03  0.00000000000E+00 0.  1.
         11    1    1    2    0    0  0.10447233567E+02 -0.27423169048E+02 -0.87661973706E+02  0.92443477454E+02  0.00000000000E+00 0. -1.
<mgrwt>
<rscale>  0 0.13127453E+03</rscale>
<asrwt>0</asrwt>
<pdfrwt beam="2">  1        1 0.95048433E-01 0.13829283E+03</pdfrwt>
<pdfrwt beam="1">  1       -1 0.42001796E-02 0.13829283E+03</pdfrwt>
<totfact> 0.74210992E+03</totfact>
</mgrwt>
</event>
<event>
 6    1  0.1045058E-005  0.2349197E+03  0.7546771E-02  0.1123224E+00
          2   -1    0    0  501    0  0.00000000000E+00  0.00000000000E+00  0.17131797522E+03  0.17131797522E+03  0.00000000000E+00 0. -1.
         -2   -1    0    0    0  501 -0.00000000000E+00 -0.00000000000E+00 -0.80533373827E+02  0.80533373827E+02  0.00000000000E+00 0.  1.
          5    1    1    2  502    0 -0.37728288257E+02 -0.11130093452E+02  0.61462026852E+02  0.73123002262E+02  0.47000000000E+01 0. -1.
         -5    1    1    2    0  502  0.75879879149E+02  0.57740092251E+00  0.29344988994E+02  0.81494219615E+02  0.47000000000E+01 0.  1.
        -11    1    1    2    0    0 -0.85775948994E+01  0.40085403013E+02 -0.25508714157E+02  0.48281561355E+02  0.00000000000E+00 0.  1.
         11    1    1    2    0    0 -0.29573995993E+02 -0.29532710483E+02  0.25486299705E+02  0.48952565818E+02  0.00000000000E+00 0. -1.
<mgrwt>
<rscale>  0 0.23491968E+03</rscale>
<asrwt>0</asrwt>
<pdfrwt beam="1">  1        2 0.26356611E-01 0.23491968E+03</pdfrwt>
<pdfrwt beam="2">  1       -2 0.12389750E-01 0.23491968E+03</pdfrwt>
<totfact> 0.93292875E+03</totfact>
</mgrwt>
</event>
<event>
 6    1  0.1045058E-005  0.1451158E+03  0.7546771E-02  0.1216065E+00
         -2   -1    0    0    0  501 -0.00000000000E+00  0.00000000000E+00  0.57094331734E+02  0.57094331734E+02  0.00000000000E+00 0.  1.
          2   -1    0    0  501    0  0.00000000000E+00 -0.00000000000E+00 -0.31485317941E+03  0.31485317941E+03  0.00000000000E+00 0. -1.
          5    1    1    2  502    0  0.14912042335E+02  0.53155548424E+02 -0.10841778193E+02  0.56458086128E+02  0.47000000000E+01 0. -1.
         -5    1    1    2    0  502 -0.45239151891E+02  0.14022776947E+02 -0.16396649523E+03  0.17073464995E+03  0.47000000000E+01 0. -1.
        -11    1    1    2    0    0  0.54635895520E+02 -0.24943464660E+02 -0.73835947385E+02  0.95178803495E+02  0.00000000000E+00 0. -1.
         11    1    1    2    0    0 -0.24308785964E+02 -0.42234860710E+02 -0.91146268730E+01  0.49575971572E+02  0.00000000000E+00 0.  1.
<mgrwt>
<rscale>  0 0.13798600E+03</rscale>
<asrwt>0</asrwt>
<pdfrwt beam="2">  1        2 0.48438951E-01 0.14511584E+03</pdfrwt>
<pdfrwt beam="1">  1       -2 0.87837432E-02 0.14511584E+03</pdfrwt>
<totfact> 0.80803123E+03</totfact>
</mgrwt>
</event>
<event>
 6    1  0.1045058E-005  0.1752049E+03  0.7546771E-02  0.1178488E+00
          1   -1    0    0  501    0  0.00000000000E+00  0.00000000000E+00  0.13274239991E+04  0.13274239991E+04  0.00000000000E+00 0. -1.
         -1   -1    0    0    0  501 -0.00000000000E+00 -0.00000000000E+00 -0.20690450543E+02  0.20690450543E+02  0.00000000000E+00 0.  1.
          5    1    1    2  502    0  0.70141960255E+02  0.15745822526E+02  0.28008617485E+03  0.28920266398E+03  0.47000000000E+01 0.  1.
         -5    1    1    2    0  502 -0.25399438828E+02  0.98565933052E+02  0.50937713021E+03  0.51946850283E+03  0.47000000000E+01 0.  1.
        -11    1    1    2    0    0 -0.37733119374E+02 -0.67150772308E+02  0.45254127360E+03  0.45904969102E+03  0.00000000000E+00 0. -1.
         11    1    1    2    0    0 -0.70094020531E+01 -0.47160983270E+02  0.64728969946E+02  0.80393591849E+02  0.00000000000E+00 0.  1.
<mgrwt>
<rscale>  0 0.16938792E+03</rscale>
<asrwt>0</asrwt>
<pdfrwt beam="1">  1        1 0.20421901E+00 0.17520487E+03</pdfrwt>
<pdfrwt beam="2">  1       -1 0.31831473E-02 0.17520487E+03</pdfrwt>
<totfact> 0.32091803E+03</totfact>
</mgrwt>
</event>
<event>
 6    1  0.1045058E-005  0.2148415E+03  0.7546771E-02  0.1142195E+00
         -1   -1    0    0    0  501 -0.00000000000E+00  0.00000000000E+00  0.50007791344E+02  0.50007791344E+02  0.00000000000E+00 0.  1.
          1   -1    0    0  501    0  0.00000000000E+00 -0.00000000000E+00 -0.13798413571E+04  0.13798413571E+04  0.00000000000E+00 0. -1.
          5    1    1    2  502    0  0.14276308702E+03 -0.31755644279E+02 -0.63975153514E+03  0.65627268469E+03  0.47000000000E+01 0. -1.
         -5    1    1    2    0  502  0.62548647830E+01 -0.59486142053E+02 -0.49644810627E+03  0.50006053298E+03  0.47000000000E+01 0. -1.
        -11    1    1    2    0    0 -0.33842945739E+02  0.49165165062E+02 -0.24292776544E+02  0.64441426304E+02  0.00000000000E+00 0.  1.
         11    1    1    2    0    0 -0.11517500606E+03  0.42076621271E+02 -0.16934114782E+03  0.20907450448E+03  0.00000000000E+00 0. -1.
<mgrwt>
<rscale>  0 0.20920730E+03</rscale>
<asrwt>0</asrwt>
<pdfrwt beam="2">  1        1 0.21228324E+00 0.21484154E+03</pdfrwt>
<pdfrwt beam="1">  1       -1 0.76935081E-02 0.21484154E+03</pdfrwt>
<totfact> 0.79223482E+02</totfact>
</mgrwt>
</event>
<event>
 6    1  0.1045058E-005  0.1330440E+03  0.7546771E-02  0.1235712E+00
         -2   -1    0    0    0  501 -0.00000000000E+00  0.00000000000E+00  0.67002224780E+02  0.67002224780E+02  0.00000000000E+00 0. -1.
          2   -1    0    0  501    0  0.00000000000E+00 -0.00000000000E+00 -0.22253364050E+03  0.22253364050E+03  0.00000000000E+00 0.  1.
          5    1    1    2  502    0  0.15960676943E+02  0.21697230072E+02 -0.12436330382E+03  0.12733355543E+03  0.47000000000E+01 0.  1.
         -5    1    1    2    0  502 -0.55349344043E+02  0.13469701868E+01 -0.11577486052E+01  0.55576925037E+02  0.47000000000E+01 0.  1.
        -11    1    1    2    0    0  0.53474897871E+02 -0.23348963525E+02 -0.53545555178E+02  0.79195108936E+02  0.00000000000E+00 0.  1.
         11    1    1    2    0    0 -0.14086230771E+02  0.30476326575E+00  0.23535191881E+02  0.27430275880E+02  0.00000000000E+00 0. -1.
<mgrwt>
<rscale>  0 0.12458945E+03</rscale>
<asrwt>0</asrwt>
<pdfrwt beam="2">  1        2 0.34235945E-01 0.13304401E+03</pdfrwt>
<pdfrwt beam="1">  1       -2 0.10308035E-01 0.13304401E+03</pdfrwt>
<totfact> 0.90442649E+03</totfact>
</mgrwt>
</event>
<event>
 6    1  0.1045058E-005  0.2020459E+03  0.7546771E-02  0.1179663E+00
         -1   -1    0    0    0  501 -0.00000000000E+00  0.00000000000E+00  0.65256660224E+02  0.65256660224E+02  0.00000000000E+00 0.  1.
          1   -1    0    0  501    0  0.00000000000E+00 -0.00000000000E+00 -0.38801917297E+03  0.38801917297E+03  0.00000000000E+00 0. -1.
          5    1    1    2  502    0 -0.55357857961E+02  0.19955319762E+02 -0.24836953450E+03  0.25528850913E+03  0.47000000000E+01 0. -1.
         -5    1    1    2    0  502  0.81091147496E+02 -0.29058414166E+02 -0.35833382284E+02  0.93414596942E+02  0.47000000000E+01 0.  1.
        -11    1    1    2    0    0  0.27337099934E+02  0.23758532044E+02 -0.33411335433E+02  0.49275777143E+02  0.00000000000E+00 0.  1.
         11    1    1    2    0    0 -0.53070389468E+02 -0.14655437640E+02 -0.51482605296E+01  0.55296949981E+02  0.00000000000E+00 0. -1.
<mgrwt>
<rscale>  0 0.16827073E+03</rscale>
<asrwt>0</asrwt>
<pdfrwt beam="2">  1        1 0.59695257E-01 0.20204593E+03</pdfrwt>
<pdfrwt beam="1">  1       -1 0.10039486E-01 0.20204593E+03</pdfrwt>
<totfact> 0.37571427E+03</totfact>
</mgrwt>
</event>
<event>
 6    1  0.1045058E-005  0.1515163E+03  0.7546771E-02  0.1207712E+00
         -1   -1    0    0    0  501 -0.00000000000E+00  0.00000000000E+00  0.23726399883E+02  0.23726399883E+02  0.00000000000E+00 0.  1.
          1   -1    0    0  501    0  0.00000000000E+00 -0.00000000000E+00 -0.84692342711E+03  0.84692342711E+03  0.00000000000E+00 0. -1.
          5    1    1    2  502    0  0.27118168632E+02  0.20369982749E+02 -0.12985127898E+03  0.13428989508E+03  0.47000000000E+01 0.  1.
         -5    1    1    2    0  502 -0.11107779618E+03 -0.37188100186E+02 -0.41888305585E+03  0.43497854669E+03  0.47000000000E+01 0.  1.
        -11    1    1    2    0    0  0.33855665264E+01  0.38899298984E+02 -0.64369176519E+02  0.75286176739E+02  0.00000000000E+00 0. -1.
         11    1    1    2    0    0  0.80574061024E+02 -0.22081181547E+02 -0.21009351588E+03  0.22609520849E+03  0.00000000000E+00 0.  1.
<mgrwt>
<rscale>  0 0.14425782E+03</rscale>
<asrwt>0</asrwt>
<pdfrwt beam="2">  1        1 0.13029590E+00 0.15151630E+03</pdfrwt>
<pdfrwt beam="1">  1       -1 0.36502156E-02 0.15151630E+03</pdfrwt>
<totfact> 0.57925644E+03</totfact>
</mgrwt>
</event>
<event>
 6    1  0.1045058E-005  0.1338925E+03  0.7546771E-02  0.1234406E+00
          2   -1    0    0  501    0  0.00000000000E+00  0.00000000000E+00  0.15099385030E+03  0.15099385030E+03  0.00000000000E+00 0. -1.
         -2   -1    0    0    0  501 -0.00000000000E+00 -0.00000000000E+00 -0.10521929055E+03  0.10521929055E+03  0.00000000000E+00 0.  1.
          5    1    1    2  502    0  0.50695119523E+02  0.67360094402E+02  0.72952484496E+02  0.11158643491E+03  0.47000000000E+01 0. -1.
         -5    1    1    2    0  502 -0.14813589333E+02 -0.35502675862E+02 -0.41009791643E+01  0.38971662172E+02  0.47000000000E+01 0. -1.
        -11    1    1    2    0    0  0.25036137836E+02 -0.32963808872E+02 -0.15748804248E+02  0.44288212070E+02  0.00000000000E+00 0.  1.
         11    1    1    2    0    0 -0.60917668026E+02  0.11063903320E+01 -0.73281413275E+01  0.61366831698E+02  0.00000000000E+00 0. -1.
<mgrwt>
<rscale>  0 0.12542560E+03</rscale>
<asrwt>0</asrwt>
<pdfrwt beam="1">  1        2 0.23229823E-01 0.13389253E+03</pdfrwt>
<pdfrwt beam="2">  1       -2 0.16187583E-01 0.13389253E+03</pdfrwt>
<totfact> 0.66803073E+03</totfact>
</mgrwt>
</event>
<event>
 6    1  0.1045058E-005  0.4243960E+03  0.7546771E-02  0.1035645E+00
         -3   -1    0    0    0  501 -0.00000000000E+00  0.00000000000E+00  0.56218922845E+03  0.56218922845E+03  0.00000000000E+00 0.  1.
          3   -1    0    0  501    0  0.00000000000E+00 -0.00000000000E+00 -0.80094010271E+02  0.80094010271E+02  0.00000000000E+00 0. -1.
          5    1    1    2  502    0  0.27189955930E+02 -0.22616604302E+02  0.26453206160E+02  0.44414711637E+02  0.47000000000E+01 0. -1.
         -5    1    1    2    0  502 -0.14152359510E+03 -0.98408561109E+02  0.11253462628E+03  0.20591091516E+03  0.47000000000E+01 0. -1.
        -11    1    1    2    0    0  0.10019311483E+03  0.56398470278E+02  0.15816680335E+03  0.19554075122E+03  0.00000000000E+00 0.  1.
         11    1    1    2    0    0  0.14140524338E+02  0.64626695133E+02  0.18494058239E+03  0.19641686070E+03  0.00000000000E+00 0. -1.
<mgrwt>
<rscale>  0 0.42439599E+03</rscale>
<asrwt>0</asrwt>
<pdfrwt beam="2">  1        3 0.12322156E-01 0.42439599E+03</pdfrwt>
<pdfrwt beam="1">  1       -3 0.86490648E-01 0.42439599E+03</pdfrwt>
<totfact> 0.16966474E+02</totfact>
</mgrwt>
</event>
<event>
 6    1  0.1045058E-005  0.2194509E+03  0.7546771E-02  0.1137789E+00
          2   -1    0    0  501    0  0.00000000000E+00  0.00000000000E+00  0.14073941794E+04  0.14073941794E+04  0.00000000000E+00 0. -1.
         -2   -1    0    0    0  501 -0.00000000000E+00 -0.00000000000E+00 -0.33415130701E+02  0.33415130701E+02  0.00000000000E+00 0.  1.
          5    1    1    2  502    0  0.54178665052E+02  0.10497580321E+03  0.66764906364E+03  0.67803584653E+03  0.47000000000E+01 0. -1.
         -5    1    1    2    0  502  0.85721005690E+02  0.88611440365E+01  0.21963158931E+03  0.23598037146E+03  0.47000000000E+01 0. -1.
        -11    1    1    2    0    0 -0.11352803616E+03 -0.37325023558E+02  0.31719676199E+03  0.33896247314E+03  0.00000000000E+00 0. -1.
         11    1    1    2    0    0 -0.26371634579E+02 -0.76511923684E+02  0.16950163374E+03  0.18783061896E+03  0.00000000000E+00 0.  1.
<mgrwt>
<rscale>  0 0.21484061E+03</rscale>
<asrwt>0</asrwt>
<pdfrwt beam="1">  1        2 0.21652214E+00 0.21945088E+03</pdfrwt>
<pdfrwt beam="2">  1       -2 0.51407904E-02 0.21945088E+03</pdfrwt>
<totfact> 0.28699007E+03</totfact>
</mgrwt>
</event>
<event>
 6    1  0.1045058E-005  0.1259512E+03  0.7546771E-02  0.1247321E+00
         -2   -1    0    0    0  501 -0.00000000000E+00  0.00000000000E+00  0.23970838825E+02  0.23970838825E+02  0.00000000000E+00 0.  1.
          2   -1    0    0  501    0  0.00000000000E+00 -0.00000000000E+00 -0.10198122249E+04  0.10198122249E+04  0.00000000000E+00 0. -1.
          5    1    1    2  502    0 -0.47202423620E+02  0.55302168582E+01 -0.62850823252E+03  0.63032003017E+03  0.47000000000E+01 0.  1.
         -5    1    1    2    0  502  0.61643535480E+02  0.41760451026E-02 -0.27092668575E+03  0.27789077807E+03  0.47000000000E+01 0.  1.
        -11    1    1    2    0    0  0.16827076540E+01 -0.28643820351E+02  0.60392281568E+01  0.29321872827E+02  0.00000000000E+00 0.  1.
         11    1    1    2    0    0 -0.16123819515E+02  0.23109427448E+02 -0.10244569593E+03  0.10625038262E+03  0.00000000000E+00 0. -1.
<mgrwt>
<rscale>  0 0.11747516E+03</rscale>
<asrwt>0</asrwt>
<pdfrwt beam="2">  1        2 0.15689416E+00 0.12595118E+03</pdfrwt>
<pdfrwt beam="1">  1       -2 0.36878220E-02 0.12595118E+03</pdfrwt>
<totfact> 0.76609735E+03</totfact>
</mgrwt>
</event>
<event>
 6    1  0.1045058E-005  0.1298212E+03  0.7546771E-02  0.1241427E+00
          1   -1    0    0  501    0  0.00000000000E+00  0.00000000000E+00  0.29773623872E+03  0.29773623872E+03  0.00000000000E+00 0. -1.
         -1   -1    0    0    0  501 -0.00000000000E+00 -0.00000000000E+00 -0.43638667755E+02  0.43638667755E+02  0.00000000000E+00 0.  1.
          5    1    1    2  502    0  0.18397949024E+01  0.32639995808E+02  0.16456627428E+03  0.16784785611E+03  0.47000000000E+01 0.  1.
         -5    1    1    2    0  502 -0.25783895493E+02 -0.70624575005E+01 -0.14341494145E+02  0.30699446690E+02  0.47000000000E+01 0.  1.
        -11    1    1    2    0    0 -0.20663006996E+02  0.23346490931E+02  0.41152896719E+02  0.51629249513E+02  0.00000000000E+00 0. -1.
         11    1    1    2    0    0  0.44607107587E+02 -0.48924029239E+02  0.62719894116E+02  0.91198354163E+02  0.00000000000E+00 0.  1.
<mgrwt>
<rscale>  0 0.12101818E+03</rscale>
<asrwt>0</asrwt>
<pdfrwt beam="1">  1        1 0.45805574E-01 0.12982121E+03</pdfrwt>
<pdfrwt beam="2">  1       -1 0.67136414E-02 0.12982121E+03</pdfrwt>
<totfact> 0.94020778E+03</totfact>
</mgrwt>
</event>
<event>
 6    1  0.1045058E-005  0.2441157E+03  0.7546771E-02  0.1119018E+00
         -1   -1    0    0    0  501 -0.00000000000E+00  0.00000000000E+00  0.27120672375E+03  0.27120672375E+03  0.00000000000E+00 0.  1.
          1   -1    0    0  501    0  0.00000000000E+00 -0.00000000000E+00 -0.21782801800E+03  0.21782801800E+03  0.00000000000E+00 0. -1.
          5    1    1    2  502    0  0.88560149022E+02 -0.44174459447E+02  0.49148844907E+02  0.11059829030E+03  0.47000000000E+01 0.  1.
         -5    1    1    2    0  502  0.75593563643E+02 -0.86294907973E+02 -0.69844306546E+02  0.13439313659E+03  0.47000000000E+01 0.  1.
        -11    1    1    2    0    0 -0.15947899871E+03  0.90024339222E+02  0.32763423290E+02  0.18604132494E+03  0.00000000000E+00 0.  1.
         11    1    1    2    0    0 -0.46747139591E+01  0.40445028198E+02  0.41310744097E+02  0.58001989917E+02  0.00000000000E+00 0. -1.
<mgrwt>
<rscale>  0 0.24116626E+03</rscale>
<asrwt>0</asrwt>
<pdfrwt beam="2">  1        1 0.33512003E-01 0.24411575E+03</pdfrwt>
<pdfrwt beam="1">  1       -1 0.41724111E-01 0.24411575E+03</pdfrwt>
<totfact> 0.75434812E+02</totfact>
</mgrwt>
</event>
<event>
 6    1  0.1045058E-005  0.1257690E+03  0.7546771E-02  0.1246354E+00
          1   -1    0    0  501    0  0.00000000000E+00  0.00000000000E+00  0.12474330469E+04  0.12474330469E+04  0.00000000000E+00 0. -1.
         -1   -1    0    0    0  501 -0.00000000000E+00 -0.00000000000E+00 -0.15584770262E+02  0.15584770262E+02  0.00000000000E+00 0.  1.
          5    1    1    2  502    0 -0.72816068920E+02 -0.32597326610E+02  0.68083853735E+03  0.68551292441E+03  0.47000000000E+01 0. -1.
         -5    1    1    2    0  502  0.44007088520E+02  0.11654635872E+02  0.36099496527E+03  0.36388447251E+03  0.47000000000E+01 0.  1.
        -11    1    1    2    0    0  0.64597697790E+01 -0.25688306788E+02  0.13584530052E+02  0.29768392431E+02  0.00000000000E+00 0.  1.
         11    1    1    2    0    0  0.22349210622E+02  0.46630997525E+02  0.17643024392E+03  0.18385202777E+03  0.00000000000E+00 0. -1.
<mgrwt>
<rscale>  0 0.11804726E+03</rscale>
<asrwt>0</asrwt>
<pdfrwt beam="1">  1        1 0.19191270E+00 0.12576903E+03</pdfrwt>
<pdfrwt beam="2">  1       -1 0.23976580E-02 0.12576903E+03</pdfrwt>
<totfact> 0.54382010E+03</totfact>
</mgrwt>
</event>
<event>
 6    1  0.1045058E-005  0.1301954E+03  0.7546771E-02  0.1240406E+00
         -2   -1    0    0    0  501 -0.00000000000E+00  0.00000000000E+00  0.29567604648E+02  0.29567604648E+02  0.00000000000E+00 0.  1.
          2   -1    0    0  501    0  0.00000000000E+00 -0.00000000000E+00 -0.48547594768E+03  0.48547594768E+03  0.00000000000E+00 0. -1.
          5    1    1    2  502    0 -0.15500554310E+02  0.42027594807E+02 -0.56214637837E+02  0.72033057802E+02  0.47000000000E+01 0.  1.
         -5    1    1    2    0  502 -0.78970108698E+01 -0.69936346108E+02 -0.27367049765E+03  0.28261473169E+03  0.47000000000E+01 0.  1.
        -11    1    1    2    0    0  0.58489236310E+02  0.26089561133E+02 -0.83505381787E+02  0.10523689824E+03  0.00000000000E+00 0.  1.
         11    1    1    2    0    0 -0.35091671131E+02  0.18191901677E+01 -0.42517825761E+02  0.55158864592E+02  0.00000000000E+00 0. -1.
<mgrwt>
<rscale>  0 0.12164619E+03</rscale>
<asrwt>0</asrwt>
<pdfrwt beam="2">  1        2 0.74688602E-01 0.13019544E+03</pdfrwt>
<pdfrwt beam="1">  1       -2 0.45488626E-02 0.13019544E+03</pdfrwt>
<totfact> 0.13732224E+04</totfact>
</mgrwt>
</event>
<event>
 6    1  0.1045058E-005  0.1330749E+03  0.7546771E-02  0.1239549E+00
         -4   -1    0    0    0  501 -0.00000000000E+00  0.00000000000E+00  0.13577205592E+03  0.13577205592E+03  0.00000000000E+00 0.  1.
          4   -1    0    0  501    0  0.00000000000E+00 -0.00000000000E+00 -0.10262964696E+03  0.10262964696E+03  0.00000000000E+00 0. -1.
          5    1    1    2  502    0 -0.26354310501E+02  0.54686475381E+02 -0.53206948071E+02  0.80859319776E+02  0.47000000000E+01 0. -1.
         -5    1    1    2    0  502  0.31291532377E+02 -0.92841983380E+01  0.41181813386E+02  0.52757824927E+02  0.47000000000E+01 0. -1.
        -11    1    1    2    0    0  0.51508696763E+01 -0.45480101934E+02  0.66764614702E+02  0.80947420630E+02  0.00000000000E+00 0.  1.
         11    1    1    2    0    0 -0.10088091552E+02  0.77824891461E-01 -0.21597071061E+02  0.23837137544E+02  0.00000000000E+00 0. -1.
<mgrwt>
<rscale>  0 0.12217646E+03</rscale>
<asrwt>0</asrwt>
<pdfrwt beam="2">  1        4 0.15789177E-01 0.13307493E+03</pdfrwt>
<pdfrwt beam="1">  1       -4 0.20888008E-01 0.13307493E+03</pdfrwt>
<totfact> 0.11789961E+03</totfact>
</mgrwt>
</event>
<event>
 6    1  0.1045058E-005  0.1614064E+03  0.7546771E-02  0.1193306E+00
          1   -1    0    0  501    0  0.00000000000E+00  0.00000000000E+00  0.51867177527E+03  0.51867177527E+03  0.00000000000E+00 0. -1.
         -1   -1    0    0    0  501 -0.00000000000E+00 -0.00000000000E+00 -0.58393738343E+02  0.58393738343E+02  0.00000000000E+00 0.  1.
          5    1    1    2  502    0 -0.29112778662E+02  0.43020959598E+00  0.94303303266E+02  0.98807600763E+02  0.47000000000E+01 0. -1.
         -5    1    1    2    0  502  0.12807736850E+03  0.24725886410E+02  0.29058678236E+03  0.31855603882E+03  0.47000000000E+01 0. -1.
        -11    1    1    2    0    0 -0.84179919611E+02 -0.40061867665E+02  0.13312631631E+02  0.94172385907E+02  0.00000000000E+00 0.  1.
         11    1    1    2    0    0 -0.14784670231E+02  0.14905771658E+02  0.62075319663E+02  0.65529488124E+02  0.00000000000E+00 0. -1.
<mgrwt>
<rscale>  0 0.15598478E+03</rscale>
<asrwt>0</asrwt>
<pdfrwt beam="1">  1        1 0.79795655E-01 0.16140641E+03</pdfrwt>
<pdfrwt beam="2">  1       -1 0.89836524E-02 0.16140641E+03</pdfrwt>
<totfact> 0.30342855E+03</totfact>
</mgrwt>
</event>
<event>
 6    1  0.1045058E-005  0.1258569E+03  0.7546771E-02  0.1249237E+00
         -1   -1    0    0    0  501 -0.00000000000E+00  0.00000000000E+00  0.69565707378E+02  0.69565707378E+02  0.00000000000E+00 0.  1.
          1   -1    0    0  501    0  0.00000000000E+00 -0.00000000000E+00 -0.19889290312E+03  0.19889290312E+03  0.00000000000E+00 0. -1.
          5    1    1    2  502    0 -0.61594130138E+02  0.18487883361E+02 -0.90507655726E+02  0.11112769431E+03  0.47000000000E+01 0. -1.
         -5    1    1    2    0  502  0.55821393144E+02 -0.50033533572E+01 -0.33005319110E+02  0.65211215039E+02  0.47000000000E+01 0. -1.
        -11    1    1    2    0    0  0.16009397444E+02  0.30821174552E+02 -0.24971230753E+02  0.42776254775E+02  0.00000000000E+00 0.  1.
         11    1    1    2    0    0 -0.10236660450E+02 -0.44305704556E+02  0.19157009846E+02  0.49343446369E+02  0.00000000000E+00 0. -1.
<mgrwt>
<rscale>  0 0.11635343E+03</rscale>
<asrwt>0</asrwt>
<pdfrwt beam="2">  1        1 0.30598908E-01 0.12585689E+03</pdfrwt>
<pdfrwt beam="1">  1       -1 0.10702417E-01 0.12585689E+03</pdfrwt>
<totfact> 0.76325183E+03</totfact>
</mgrwt>
</event>
<event>
 6    1  0.1045058E-005  0.3236805E+03  0.7546771E-02  0.1073968E+00
          2   -1    0    0  501    0  0.00000000000E+00  0.00000000000E+00  0.12726740722E+04  0.12726740722E+04  0.00000000000E+00 0.  1.
         -2   -1    0    0    0  501 -0.00000000000E+00 -0.00000000000E+00 -0.20580502082E+02  0.20580502082E+02  0.00000000000E+00 0. -1.
          5    1    1    2  502    0 -0.11394012804E+03  0.36389830002E+01  0.62540510488E+03  0.63572732377E+03  0.47000000000E+01 0. -1.
         -5    1    1    2    0  502  0.19744332124E+02  0.45698719410E+02  0.28167353472E+03  0.28607740520E+03  0.47000000000E+01 0. -1.
        -11    1    1    2    0    0  0.52566372180E+02 -0.92987379389E+01  0.27755180149E+03  0.28263880222E+03  0.00000000000E+00 0.  1.
         11    1    1    2    0    0  0.41629423736E+02 -0.40038964471E+02  0.67463129041E+02  0.88811043101E+02  0.00000000000E+00 0. -1.
<mgrwt>
<rscale>  0 0.32368053E+03</rscale>
<asrwt>0</asrwt>
<pdfrwt beam="1">  1        2 0.19579595E+00 0.32368053E+03</pdfrwt>
<pdfrwt beam="2">  1       -2 0.31662321E-02 0.32368053E+03</pdfrwt>
<totfact> 0.71219291E+03</totfact>
</mgrwt>
</event>
<event>
 6    1  0.1045058E-005  0.2013113E+03  0.7546771E-02  0.1151526E+00
          4   -1    0    0  501    0  0.00000000000E+00  0.00000000000E+00  0.24195098756E+03  0.24195098756E+03  0.00000000000E+00 0. -1.
         -4   -1    0    0    0  501 -0.00000000000E+00 -0.00000000000E+00 -0.16774749834E+03  0.16774749834E+03  0.00000000000E+00 0.  1.
          5    1    1    2  502    0 -0.61409020433E+02 -0.32235414186E+02  0.15338507954E+02  0.71186723091E+02  0.47000000000E+01 0.  1.
         -5    1    1    2    0  502  0.37088651824E+02 -0.12368118627E+03  0.75725069163E+02  0.14976307967E+03  0.47000000000E+01 0.  1.
        -11    1    1    2    0    0 -0.36113048548E+02  0.73059385306E+02 -0.26609155200E+02  0.85731401465E+02  0.00000000000E+00 0.  1.
         11    1    1    2    0    0  0.60433417157E+02  0.82857215152E+02  0.97490673006E+01  0.10301728168E+03  0.00000000000E+00 0. -1.
<mgrwt>
<rscale>  0 0.19789609E+03</rscale>
<asrwt>0</asrwt>
<pdfrwt beam="1">  1        4 0.37223229E-01 0.20131130E+03</pdfrwt>
<pdfrwt beam="2">  1       -4 0.25807307E-01 0.20131130E+03</pdfrwt>
<totfact> 0.17610382E+02</totfact>
</mgrwt>
</event>
<event>
 6    1  0.1045058E-005  0.1793357E+03  0.7546771E-02  0.1185303E+00
         -2   -1    0    0    0  501 -0.00000000000E+00  0.00000000000E+00  0.22126563651E+03  0.22126563651E+03  0.00000000000E+00 0.  1.
          2   -1    0    0  501    0  0.00000000000E+00 -0.00000000000E+00 -0.19249130204E+03  0.19249130204E+03  0.00000000000E+00 0. -1.
          5    1    1    2  502    0 -0.15965058711E+02 -0.85190726793E+02 -0.15834168534E+03  0.18057276192E+03  0.47000000000E+01 0. -1.
         -5    1    1    2    0  502 -0.10903620663E+02  0.85861536489E+01  0.34422773744E+02  0.37411606892E+02  0.47000000000E+01 0.  1.
        -11    1    1    2    0    0 -0.23787271224E+02 -0.46354136756E+01  0.48844809686E+02  0.54526477655E+02  0.00000000000E+00 0. -1.
         11    1    1    2    0    0  0.50655950597E+02  0.81239986819E+02  0.10384843638E+03  0.14124609208E+03  0.00000000000E+00 0.  1.
<mgrwt>
<rscale>  0 0.16304357E+03</rscale>
<asrwt>0</asrwt>
<pdfrwt beam="2">  1        2 0.29614046E-01 0.17933569E+03</pdfrwt>
<pdfrwt beam="1">  1       -2 0.34040867E-01 0.17933569E+03</pdfrwt>
<totfact> 0.14232472E+03</totfact>
</mgrwt>
</event>
<event>
 6    1  0.1045058E-005  0.1835558E+03  0.7546771E-02  0.1169942E+00
          1   -1    0    0  501    0  0.00000000000E+00  0.00000000000E+00  0.53947794779E+03  0.53947794779E+03  0.00000000000E+00 0. -1.
         -1   -1    0    0    0  501 -0.00000000000E+00 -0.00000000000E+00 -0.55926380919E+02  0.55926380919E+02  0.00000000000E+00 0.  1.
          5    1    1    2  502    0  0.81461703992E+02 -0.80432819090E+01  0.12286483356E+03  0.14771107246E+03  0.47000000000E+01 0. -1.
         -5    1    1    2    0  502 -0.32045284610E+01 -0.10124798773E+03  0.16762820071E+03  0.19591510328E+03  0.47000000000E+01 0. -1.
        -11    1    1    2    0    0 -0.87656425379E+02  0.10398141044E+03  0.13114550409E+03  0.18893100823E+03  0.00000000000E+00 0.  1.
         11    1    1    2    0    0  0.93992498475E+01  0.53098591970E+01  0.61913028516E+02  0.62847144743E+02  0.00000000000E+00 0. -1.
<mgrwt>
<rscale>  0 0.17780711E+03</rscale>
<asrwt>0</asrwt>
<pdfrwt beam="1">  1        1 0.82996604E-01 0.18355584E+03</pdfrwt>
<pdfrwt beam="2">  1       -1 0.86040590E-02 0.18355584E+03</pdfrwt>
<totfact> 0.30889501E+03</totfact>
</mgrwt>
</event>
<event>
 6    1  0.1045058E-005  0.1637666E+03  0.7546771E-02  0.1191764E+00
         -1   -1    0    0    0  501 -0.00000000000E+00  0.00000000000E+00  0.35692833664E+02  0.35692833664E+02  0.00000000000E+00 0.  1.
          1   -1    0    0  501    0  0.00000000000E+00 -0.00000000000E+00 -0.10452695383E+04  0.10452695383E+04  0.00000000000E+00 0. -1.
          5    1    1    2  502    0  0.32731347197E+02 -0.30491490109E+02 -0.15880622319E+03  0.16505325984E+03  0.47000000000E+01 0. -1.
         -5    1    1    2    0  502  0.41236095122E+02  0.10605256939E+03 -0.70517811531E+03  0.71431493568E+03  0.47000000000E+01 0. -1.
        -11    1    1    2    0    0 -0.57189947609E+02 -0.44859530721E+02 -0.14965525094E+03  0.16637235870E+03  0.00000000000E+00 0. -1.
         11    1    1    2    0    0 -0.16777494710E+02 -0.30701548560E+02  0.40628848113E+01  0.35221817752E+02  0.00000000000E+00 0.  1.
<mgrwt>
<rscale>  0 0.15731297E+03</rscale>
<asrwt>0</asrwt>
<pdfrwt beam="2">  1        1 0.16081073E+00 0.16376656E+03</pdfrwt>
<pdfrwt beam="1">  1       -1 0.54912043E-02 0.16376656E+03</pdfrwt>
<totfact> 0.22463800E+03</totfact>
</mgrwt>
</event>
<event>
 6    1  0.1045058E-005  0.1276502E+03  0.7546771E-02  0.1245395E+00
         -2   -1    0    0    0  501 -0.00000000000E+00  0.00000000000E+00  0.63151022985E+02  0.63151022985E+02  0.00000000000E+00 0.  1.
          2   -1    0    0  501    0  0.00000000000E+00 -0.00000000000E+00 -0.20316180899E+03  0.20316180899E+03  0.00000000000E+00 0. -1.
          5    1    1    2  502    0  0.30206810923E+02 -0.46456233656E+02 -0.21893395592E+02  0.59766577970E+02  0.47000000000E+01 0. -1.
         -5    1    1    2    0  502 -0.11329984238E+02  0.64193521917E+02 -0.81739147432E+02  0.10465445534E+03  0.47000000000E+01 0. -1.
        -11    1    1    2    0    0  0.19664907849E+02  0.27635045611E+02 -0.40796222833E+01  0.34162079336E+02  0.00000000000E+00 0.  1.
         11    1    1    2    0    0 -0.38541734534E+02 -0.45372333871E+02 -0.32298620696E+02  0.67729719331E+02  0.00000000000E+00 0. -1.
<mgrwt>
<rscale>  0 0.11861743E+03</rscale>
<asrwt>0</asrwt>
<pdfrwt beam="2">  1        2 0.31255664E-01 0.12765019E+03</pdfrwt>
<pdfrwt beam="1">  1       -2 0.97155418E-02 0.12765019E+03</pdfrwt>
<totfact> 0.10909478E+04</totfact>
</mgrwt>
</event>
<event>
 6    1  0.1045058E-005  0.1251394E+03  0.7546771E-02  0.1241972E+00
         -1   -1    0    0    0  501 -0.00000000000E+00  0.00000000000E+00  0.28187822386E+03  0.28187822386E+03  0.00000000000E+00 0.  1.
          1   -1    0    0  501    0  0.00000000000E+00 -0.00000000000E+00 -0.49120442313E+02  0.49120442313E+02  0.00000000000E+00 0. -1.
          5    1    1    2  502    0  0.24923779030E+02 -0.10731285662E+02  0.68693392293E+02  0.74008292764E+02  0.47000000000E+01 0. -1.
         -5    1    1    2    0  502 -0.74317737047E+02  0.32458104439E+02  0.34761076415E+02  0.88357665299E+02  0.47000000000E+01 0.  1.
        -11    1    1    2    0    0 -0.21776942523E+02  0.11326564779E+02  0.11550744820E+02  0.27128324704E+02  0.00000000000E+00 0.  1.
         11    1    1    2    0    0  0.71170900540E+02 -0.33053383555E+02  0.11775256802E+03  0.14150438340E+03  0.00000000000E+00 0. -1.
<mgrwt>
<rscale>  0 0.12068427E+03</rscale>
<asrwt>0</asrwt>
<pdfrwt beam="2">  1        1 0.75569913E-02 0.12513943E+03</pdfrwt>
<pdfrwt beam="1">  1       -1 0.43365880E-01 0.12513943E+03</pdfrwt>
<totfact> 0.47643356E+03</totfact>
</mgrwt>
</event>
<event>
 6    1  0.1045058E-005  0.1324337E+03  0.7546771E-02  0.1241853E+00
         -2   -1    0    0    0  501 -0.00000000000E+00  0.00000000000E+00  0.56507760325E+02  0.56507760325E+02  0.00000000000E+00 0. -1.
          2   -1    0    0  501    0  0.00000000000E+00 -0.00000000000E+00 -0.23308084833E+03  0.23308084833E+03  0.00000000000E+00 0.  1.
          5    1    1    2  502    0 -0.11034999543E+02 -0.24624130689E+02 -0.13774871714E+03  0.14044542748E+03  0.47000000000E+01 0. -1.
         -5    1    1    2    0  502 -0.30944316829E+02  0.36923825099E+02  0.29878793293E+01  0.48496773365E+02  0.47000000000E+01 0. -1.
        -11    1    1    2    0    0  0.39437036171E+02  0.44350063313E+01 -0.62426564530E+02  0.73973137437E+02  0.00000000000E+00 0.  1.
         11    1    1    2    0    0  0.25422802005E+01 -0.16734700741E+02  0.20614314327E+02  0.26673270379E+02  0.00000000000E+00 0. -1.
<mgrwt>
<rscale>  0 0.12075735E+03</rscale>
<asrwt>0</asrwt>
<pdfrwt beam="2">  1        2 0.35858592E-01 0.13243365E+03</pdfrwt>
<pdfrwt beam="1">  1       -2 0.86935016E-02 0.13243365E+03</pdfrwt>
<totfact> 0.11229567E+04</totfact>
</mgrwt>
</event>
<event>
 6    1  0.1045058E-005  0.1589378E+03  0.7546771E-02  0.1215055E+00
          4   -1    0    0  501    0  0.00000000000E+00  0.00000000000E+00  0.35126595745E+03  0.35126595745E+03  0.00000000000E+00 0. -1.
         -4   -1    0    0    0  501 -0.00000000000E+00 -0.00000000000E+00 -0.44903740774E+02  0.44903740774E+02  0.00000000000E+00 0.  1.
          5    1    1    2  502    0 -0.10460840534E+02  0.23391834861E+01  0.22210437932E+03  0.22241255872E+03  0.47000000000E+01 0. -1.
         -5    1    1    2    0  502  0.43006994928E+01 -0.22572751471E+01 -0.27803652832E+02  0.28613360830E+02  0.47000000000E+01 0.  1.
        -11    1    1    2    0    0  0.21194999858E+02  0.37121233923E+02  0.89318929227E+02  0.99020629897E+02  0.00000000000E+00 0. -1.
         11    1    1    2    0    0 -0.15034858817E+02 -0.37203142262E+02  0.22742560962E+02  0.46123148775E+02  0.00000000000E+00 0.  1.
<mgrwt>
<rscale>  0 0.13872506E+03</rscale>
<asrwt>0</asrwt>
<pdfrwt beam="1">  1        4 0.54040915E-01 0.15893785E+03</pdfrwt>
<pdfrwt beam="2">  1       -4 0.69082680E-02 0.15893785E+03</pdfrwt>
<totfact> 0.79468370E+02</totfact>
</mgrwt>
</event>
<event>
 6    1  0.1045058E-005  0.1282154E+03  0.7546771E-02  0.1244324E+00
          2   -1    0    0  501    0  0.00000000000E+00  0.00000000000E+00  0.99009921220E+02  0.99009921220E+02  0.00000000000E+00 0. -1.
         -2   -1    0    0    0  501 -0.00000000000E+00 -0.00000000000E+00 -0.14085059347E+03  0.14085059347E+03  0.00000000000E+00 0.  1.
          5    1    1    2  502    0  0.16958572073E+02  0.44234911939E+02  0.47270177130E+02  0.67088599977E+02  0.47000000000E+01 0.  1.
         -5    1    1    2    0  502  0.10854504502E+02 -0.50629111026E+02 -0.33521190110E+02  0.61861840723E+02  0.47000000000E+01 0.  1.
        -11    1    1    2    0    0 -0.28272548809E+02 -0.29097933295E+02 -0.62727372940E+02  0.74704417903E+02  0.00000000000E+00 0.  1.
         11    1    1    2    0    0  0.45947223378E+00  0.35492132383E+02  0.71377136749E+01  0.36205656082E+02  0.00000000000E+00 0. -1.
<mgrwt>
<rscale>  0 0.11925935E+03</rscale>
<asrwt>0</asrwt>
<pdfrwt beam="1">  1        2 0.15232296E-01 0.12821537E+03</pdfrwt>
<pdfrwt beam="2">  1       -2 0.21669322E-01 0.12821537E+03</pdfrwt>
<totfact> 0.66016332E+03</totfact>
</mgrwt>
</event>
<event>
 6    1  0.1045058E-005  0.1563159E+03  0.7546771E-02  0.1214987E+00
          2   -1    0    0  501    0  0.00000000000E+00  0.00000000000E+00  0.16008494751E+04  0.16008494751E+04  0.00000000000E+00 0. -1.
         -2   -1    0    0    0  501 -0.00000000000E+00 -0.00000000000E+00 -0.12394015401E+02  0.12394015401E+02  0.00000000000E+00 0.  1.
          5    1    1    2  502    0  0.22967408542E+02  0.14342928157E+02  0.65274507683E+03  0.65332338605E+03  0.47000000000E+01 0. -1.
         -5    1    1    2    0  502 -0.97591553773E+02  0.42571557019E+02  0.63611593014E+03  0.64498218225E+03  0.47000000000E+01 0. -1.
        -11    1    1    2    0    0  0.47399051987E+02 -0.33639483021E+02  0.14429218709E+03  0.15555873553E+03  0.00000000000E+00 0.  1.
         11    1    1    2    0    0  0.27225093244E+02 -0.23275002156E+02  0.15530226561E+03  0.15937918663E+03  0.00000000000E+00 0. -1.
<mgrwt>
<rscale>  0 0.13877488E+03</rscale>
<asrwt>0</asrwt>
<pdfrwt beam="1">  1        2 0.24628437E+00 0.15631588E+03</pdfrwt>
<pdfrwt beam="2">  1       -2 0.19067729E-02 0.15631588E+03</pdfrwt>
<totfact> 0.98214494E+03</totfact>
</mgrwt>
</event>
<event>
 6    1  0.1045058E-005  0.2327123E+03  0.7546771E-02  0.1127561E+00
          2   -1    0    0  501    0  0.00000000000E+00  0.00000000000E+00  0.27062282334E+03  0.27062282334E+03  0.00000000000E+00 0. -1.
         -2   -1    0    0    0  501 -0.00000000000E+00 -0.00000000000E+00 -0.24281251781E+03  0.24281251781E+03  0.00000000000E+00 0.  1.
          5    1    1    2  502    0  0.62610726181E+02  0.44881974363E+01  0.87926988720E+02  0.10813645220E+03  0.47000000000E+01 0. -1.
         -5    1    1    2    0  502  0.94788677330E+02 -0.12176948671E+03  0.49508612309E+02  0.16212925071E+03  0.47000000000E+01 0. -1.
        -11    1    1    2    0    0 -0.79108585645E+02  0.57047119337E+02 -0.10639750629E+03  0.14433631384E+03  0.00000000000E+00 0.  1.
         11    1    1    2    0    0 -0.78290817866E+02  0.60234169933E+02 -0.32277892139E+01  0.98833324405E+02  0.00000000000E+00 0. -1.
<mgrwt>
<rscale>  0 0.22869568E+03</rscale>
<asrwt>0</asrwt>
<pdfrwt beam="1">  1        2 0.41634281E-01 0.23271228E+03</pdfrwt>
<pdfrwt beam="2">  1       -2 0.37355772E-01 0.23271228E+03</pdfrwt>
<totfact> 0.83109916E+02</totfact>
</mgrwt>
</event>
<event>
 6    1  0.1045058E-005  0.3585875E+03  0.7546771E-02  0.1059145E+00
         -2   -1    0    0    0  501 -0.00000000000E+00  0.00000000000E+00  0.61614091674E+02  0.61614091674E+02  0.00000000000E+00 0.  1.
          2   -1    0    0  501    0  0.00000000000E+00 -0.00000000000E+00 -0.52173529602E+03  0.52173529602E+03  0.00000000000E+00 0. -1.
          5    1    1    2  502    0 -0.28409500901E+02 -0.37432865454E+02 -0.83581494723E+02  0.96001434456E+02  0.47000000000E+01 0. -1.
         -5    1    1    2    0  502 -0.99402361398E+02  0.79175270375E+02 -0.25421949540E+03  0.28425199160E+03  0.47000000000E+01 0.  1.
        -11    1    1    2    0    0  0.54600803620E+02  0.10321532242E+02 -0.56615398132E+01  0.55855481528E+02  0.00000000000E+00 0.  1.
         11    1    1    2    0    0  0.73211058680E+02 -0.52063937163E+02 -0.11665867441E+03  0.14724048010E+03  0.00000000000E+00 0. -1.
<mgrwt>
<rscale>  0 0.35858749E+03</rscale>
<asrwt>0</asrwt>
<pdfrwt beam="2">  1        2 0.80266967E-01 0.35858749E+03</pdfrwt>
<pdfrwt beam="1">  1       -2 0.94790912E-02 0.35858749E+03</pdfrwt>
<totfact> 0.43055363E+03</totfact>
</mgrwt>
</event>
<event>
 6    1  0.1045058E-005  0.1255833E+03  0.7546771E-02  0.1248765E+00
          2   -1    0    0  501    0  0.00000000000E+00  0.00000000000E+00  0.10817073798E+04  0.10817073798E+04  0.00000000000E+00 0.  1.
         -2   -1    0    0    0  501 -0.00000000000E+00 -0.00000000000E+00 -0.15128796335E+02  0.15128796335E+02  0.00000000000E+00 0. -1.
          5    1    1    2  502    0 -0.59043059863E+02 -0.24952119047E+01  0.38757067812E+03  0.39207834618E+03  0.47000000000E+01 0.  1.
         -5    1    1    2    0  502  0.64593950697E+02  0.13225904051E+02  0.48441115762E+03  0.48890036064E+03  0.47000000000E+01 0.  1.
        -11    1    1    2    0    0 -0.19346709186E+02  0.36290395373E+02  0.61102040978E+02  0.73652884290E+02  0.00000000000E+00 0. -1.
         11    1    1    2    0    0  0.13795818352E+02 -0.47021087520E+02  0.13349470679E+03  0.14220458508E+03  0.00000000000E+00 0.  1.
<mgrwt>
<rscale>  0 0.11662837E+03</rscale>
<asrwt>0</asrwt>
<pdfrwt beam="1">  1        2 0.16641646E+00 0.12558328E+03</pdfrwt>
<pdfrwt beam="2">  1       -2 0.23275080E-02 0.12558328E+03</pdfrwt>
<totfact> 0.13842327E+04</totfact>
</mgrwt>
</event>
<event>
 6    1  0.1045058E-005  0.2152452E+03  0.7546771E-02  0.1141442E+00
         -2   -1    0    0    0  501 -0.00000000000E+00  0.00000000000E+00  0.25965937275E+02  0.25965937275E+02  0.00000000000E+00 0.  1.
          2   -1    0    0  501    0  0.00000000000E+00 -0.00000000000E+00 -0.22589799055E+04  0.22589799055E+04  0.00000000000E+00 0. -1.
          5    1    1    2  502    0  0.98043118049E+00 -0.14898598438E+03 -0.93359952272E+03  0.94542474244E+03  0.47000000000E+01 0. -1.
         -5    1    1    2    0  502  0.40783414157E+02 -0.21192391207E+02 -0.82598391627E+03  0.82727499917E+03  0.47000000000E+01 0. -1.
        -11    1    1    2    0    0 -0.45994878457E+02  0.94263531660E+02 -0.36530311734E+03  0.38006250773E+03  0.00000000000E+00 0. -1.
         11    1    1    2    0    0  0.42310331198E+01  0.75914843930E+02 -0.10812741189E+03  0.13218359343E+03  0.00000000000E+00 0.  1.
<mgrwt>
<rscale>  0 0.21015642E+03</rscale>
<asrwt>0</asrwt>
<pdfrwt beam="2">  1        2 0.34753540E+00 0.21524520E+03</pdfrwt>
<pdfrwt beam="1">  1       -2 0.39947592E-02 0.21524520E+03</pdfrwt>
<totfact> 0.15004180E+03</totfact>
</mgrwt>
</event>
<event>
 6    1  0.1045058E-005  0.1536572E+03  0.7546771E-02  0.1203901E+00
          2   -1    0    0  501    0  0.00000000000E+00  0.00000000000E+00  0.29049741641E+03  0.29049741641E+03  0.00000000000E+00 0. -1.
         -2   -1    0    0    0  501 -0.00000000000E+00 -0.00000000000E+00 -0.70255292095E+02  0.70255292095E+02  0.00000000000E+00 0.  1.
          5    1    1    2  502    0  0.53423955655E+02 -0.47250286558E+02  0.16563479005E+02  0.73369935631E+02  0.47000000000E+01 0.  1.
         -5    1    1    2    0  502 -0.59611486333E+02 -0.41887411280E+02  0.79051973399E+02  0.10760756955E+03  0.47000000000E+01 0.  1.
        -11    1    1    2    0    0  0.69198837465E+00  0.18726738015E+02 -0.14536457403E+02  0.23716621986E+02  0.00000000000E+00 0.  1.
         11    1    1    2    0    0  0.54955423033E+01  0.70410959823E+02  0.13916312932E+03  0.15605858134E+03  0.00000000000E+00 0. -1.
<mgrwt>
<rscale>  0 0.14724393E+03</rscale>
<asrwt>0</asrwt>
<pdfrwt beam="1">  1        2 0.44691910E-01 0.15365722E+03</pdfrwt>
<pdfrwt beam="2">  1       -2 0.10808507E-01 0.15365722E+03</pdfrwt>
<totfact> 0.63767584E+03</totfact>
</mgrwt>
</event>
<event>
 6    1  0.1045058E-005  0.2140019E+03  0.7546771E-02  0.1152623E+00
          1   -1    0    0  501    0  0.00000000000E+00  0.00000000000E+00  0.70013430919E+02  0.70013430919E+02  0.00000000000E+00 0. -1.
         -1   -1    0    0    0  501 -0.00000000000E+00 -0.00000000000E+00 -0.49488449480E+03  0.49488449480E+03  0.00000000000E+00 0.  1.
          5    1    1    2  502    0  0.64658910915E+02 -0.28425324877E+01 -0.23880031256E+02  0.69146226538E+02  0.47000000000E+01 0. -1.
         -5    1    1    2    0  502 -0.56704146407E+02  0.12611375147E+03 -0.17418710767E+03  0.22244836931E+03  0.47000000000E+01 0.  1.
        -11    1    1    2    0    0  0.49995038667E+01 -0.40033803025E+02 -0.16220288611E+03  0.16714507677E+03  0.00000000000E+00 0.  1.
         11    1    1    2    0    0 -0.12954268375E+02 -0.83237415954E+02 -0.64601038846E+02  0.10615825311E+03  0.00000000000E+00 0. -1.
<mgrwt>
<rscale>  0 0.19661971E+03</rscale>
<asrwt>0</asrwt>
<pdfrwt beam="1">  1        1 0.10771297E-01 0.21400191E+03</pdfrwt>
<pdfrwt beam="2">  1       -1 0.76136077E-01 0.21400191E+03</pdfrwt>
<totfact> 0.10436846E+03</totfact>
</mgrwt>
</event>
<event>
 6    1  0.1045058E-005  0.1396729E+03  0.7546771E-02  0.1225186E+00
         -2   -1    0    0    0  501 -0.00000000000E+00  0.00000000000E+00  0.35738233806E+02  0.35738233806E+02  0.00000000000E+00 0.  1.
          2   -1    0    0  501    0  0.00000000000E+00 -0.00000000000E+00 -0.55002827727E+03  0.55002827727E+03  0.00000000000E+00 0. -1.
          5    1    1    2  502    0 -0.29395860174E+02 -0.18820848737E+01 -0.29978253885E+03  0.30126287432E+03  0.47000000000E+01 0. -1.
         -5    1    1    2    0  502  0.43375401238E+02 -0.58847647356E+02 -0.11448464197E+03  0.13591649745E+03  0.47000000000E+01 0. -1.
        -11    1    1    2    0    0 -0.44914600342E+02  0.60676778916E+02 -0.86544983736E+02  0.11484348929E+03  0.00000000000E+00 0. -1.
         11    1    1    2    0    0  0.30935059278E+02  0.52953313146E-01 -0.13477878902E+02  0.33743650014E+02  0.00000000000E+00 0.  1.
<mgrwt>
<rscale>  0 0.13154170E+03</rscale>
<asrwt>0</asrwt>
<pdfrwt beam="2">  1        2 0.84619732E-01 0.13967285E+03</pdfrwt>
<pdfrwt beam="1">  1       -2 0.54981900E-02 0.13967285E+03</pdfrwt>
<totfact> 0.90460399E+03</totfact>
</mgrwt>
</event>
<event>
 6    1  0.1045058E-005  0.1255491E+03  0.7546771E-02  0.1248710E+00
          2   -1    0    0  501    0  0.00000000000E+00  0.00000000000E+00  0.19816131371E+03  0.19816131371E+03  0.00000000000E+00 0. -1.
         -2   -1    0    0    0  501 -0.00000000000E+00 -0.00000000000E+00 -0.68239653246E+02  0.68239653246E+02  0.00000000000E+00 0.  1.
          5    1    1    2  502    0 -0.15698667491E+02 -0.28758027704E+02 -0.15840110513E+02  0.36694296825E+02  0.47000000000E+01 0. -1.
         -5    1    1    2    0  502  0.70668116315E+01  0.20974343456E+02  0.13339099823E+03  0.13529638325E+03  0.47000000000E+01 0. -1.
        -11    1    1    2    0    0  0.37467751823E+02  0.15906182967E+02 -0.24028997436E+02  0.47267661260E+02  0.00000000000E+00 0.  1.
         11    1    1    2    0    0 -0.28835895964E+02 -0.81224987191E+01  0.36399770181E+02  0.47142625624E+02  0.00000000000E+00 0. -1.
<mgrwt>
<rscale>  0 0.11666079E+03</rscale>
<asrwt>0</asrwt>
<pdfrwt beam="1">  1        2 0.30486356E-01 0.12554913E+03</pdfrwt>
<pdfrwt beam="2">  1       -2 0.10498408E-01 0.12554913E+03</pdfrwt>
<totfact> 0.99094565E+03</totfact>
</mgrwt>
</event>
<event>
 6    1  0.1045058E-005  0.1293112E+03  0.7546771E-02  0.1238363E+00
         -1   -1    0    0    0  501 -0.00000000000E+00  0.00000000000E+00  0.21515866409E+03  0.21515866409E+03  0.00000000000E+00 0.  1.
          1   -1    0    0  501    0  0.00000000000E+00 -0.00000000000E+00 -0.21021252740E+03  0.21021252740E+03  0.00000000000E+00 0. -1.
          5    1    1    2  502    0 -0.59599077175E+02  0.47146004713E+02 -0.16970416457E+03  0.18600104632E+03  0.47000000000E+01 0. -1.
         -5    1    1    2    0  502  0.91115763030E+01 -0.29057415879E+02 -0.47877748919E+01  0.31182800207E+02  0.47000000000E+01 0.  1.
        -11    1    1    2    0    0  0.63806578967E+02 -0.42998601373E+02  0.13873657294E+03  0.15864424323E+03  0.00000000000E+00 0.  1.
         11    1    1    2    0    0 -0.13319078095E+02  0.24910012539E+02  0.40701503207E+02  0.49543101733E+02  0.00000000000E+00 0. -1.
<mgrwt>
<rscale>  0 0.12291559E+03</rscale>
<asrwt>0</asrwt>
<pdfrwt beam="2">  1        1 0.32340389E-01 0.12931120E+03</pdfrwt>
<pdfrwt beam="1">  1       -1 0.33101333E-01 0.12931120E+03</pdfrwt>
<totfact> 0.11708183E+03</totfact>
</mgrwt>
</event>
<event>
 6    1  0.1045058E-005  0.1430970E+03  0.7546771E-02  0.1215147E+00
          2   -1    0    0  501    0  0.00000000000E+00  0.00000000000E+00  0.80596324760E+03  0.80596324760E+03  0.00000000000E+00 0. -1.
         -2   -1    0    0    0  501 -0.00000000000E+00 -0.00000000000E+00 -0.25639866831E+02  0.25639866831E+02  0.00000000000E+00 0.  1.
          5    1    1    2  502    0  0.75180852861E+01 -0.22465918298E+02  0.24322479721E+02  0.34276990987E+02  0.47000000000E+01 0. -1.
         -5    1    1    2    0  502 -0.22414977968E+02  0.90561700906E+02  0.53295048228E+03  0.54107500356E+03  0.47000000000E+01 0. -1.
        -11    1    1    2    0    0 -0.22167909264E+02  0.62558006388E+01  0.12780579484E+03  0.12986482371E+03  0.00000000000E+00 0. -1.
         11    1    1    2    0    0  0.37064801946E+02 -0.74351583247E+02  0.95244623930E+02  0.12638629618E+03  0.00000000000E+00 0.  1.
<mgrwt>
<rscale>  0 0.13865722E+03</rscale>
<asrwt>0</asrwt>
<pdfrwt beam="1">  1        2 0.12399433E+00 0.14309704E+03</pdfrwt>
<pdfrwt beam="2">  1       -2 0.39445955E-02 0.14309704E+03</pdfrwt>
<totfact> 0.95080555E+03</totfact>
</mgrwt>
</event>
<event>
 6    1  0.1045058E-005  0.1518990E+03  0.7546771E-02  0.1206996E+00
          2   -1    0    0  501    0  0.00000000000E+00  0.00000000000E+00  0.20666827251E+03  0.20666827251E+03  0.00000000000E+00 0. -1.
         -2   -1    0    0    0  501 -0.00000000000E+00 -0.00000000000E+00 -0.97780213217E+02  0.97780213217E+02  0.00000000000E+00 0.  1.
          5    1    1    2  502    0 -0.26880993575E+02 -0.59861253162E+02  0.90517558575E+02  0.11189940061E+03  0.47000000000E+01 0. -1.
         -5    1    1    2    0  502 -0.55753972336E+02  0.34990467708E+02  0.21337376204E+01  0.66026366687E+02  0.47000000000E+01 0. -1.
        -11    1    1    2    0    0  0.93388748970E+02 -0.43996993322E+01  0.18317898203E+02  0.95269938506E+02  0.00000000000E+00 0. -1.
         11    1    1    2    0    0 -0.10753783060E+02  0.29270484786E+02 -0.20811351080E+01  0.31252779925E+02  0.00000000000E+00 0.  1.
<mgrwt>
<rscale>  0 0.14481278E+03</rscale>
<asrwt>0</asrwt>
<pdfrwt beam="1">  1        2 0.31795119E-01 0.15189903E+03</pdfrwt>
<pdfrwt beam="2">  1       -2 0.15043110E-01 0.15189903E+03</pdfrwt>
<totfact> 0.53867150E+03</totfact>
</mgrwt>
</event>
<event>
 6    1  0.1045058E-005  0.2642813E+03  0.7546771E-02  0.1106168E+00
          1   -1    0    0  501    0  0.00000000000E+00  0.00000000000E+00  0.17479350113E+03  0.17479350113E+03  0.00000000000E+00 0. -1.
         -1   -1    0    0    0  501 -0.00000000000E+00 -0.00000000000E+00 -0.56741545449E+03  0.56741545449E+03  0.00000000000E+00 0.  1.
          5    1    1    2  502    0 -0.42408715752E+02  0.28366765396E+02  0.57465807183E+02  0.76990788708E+02  0.47000000000E+01 0. -1.
         -5    1    1    2    0  502 -0.14449969334E+03  0.11050364709E+03 -0.45459905643E+02  0.18756308383E+03  0.47000000000E+01 0. -1.
        -11    1    1    2    0    0  0.80481344713E+02 -0.36786618883E+02 -0.24423008052E+03  0.25976688474E+03  0.00000000000E+00 0.  1.
         11    1    1    2    0    0  0.10642706438E+03 -0.10208379360E+03 -0.16039777438E+03  0.21788819834E+03  0.00000000000E+00 0. -1.
<mgrwt>
<rscale>  0 0.26162933E+03</rscale>
<asrwt>0</asrwt>
<pdfrwt beam="1">  1        1 0.26891307E-01 0.26428131E+03</pdfrwt>
<pdfrwt beam="2">  1       -1 0.87294687E-01 0.26428131E+03</pdfrwt>
<totfact> 0.23781337E+02</totfact>
</mgrwt>
</event>
<event>
 6    1  0.1045058E-005  0.1476431E+03  0.7546771E-02  0.1213172E+00
          1   -1    0    0  501    0  0.00000000000E+00  0.00000000000E+00  0.34761811614E+03  0.34761811614E+03  0.00000000000E+00 0. -1.
         -1   -1    0    0    0  501 -0.00000000000E+00 -0.00000000000E+00 -0.19755514198E+03  0.19755514198E+03  0.00000000000E+00 0.  1.
          5    1    1    2  502    0  0.65026111528E+02 -0.12327205048E+02  0.18246778454E+03  0.19415699205E+03  0.47000000000E+01 0. -1.
         -5    1    1    2    0  502 -0.44323261844E+02 -0.63468011356E+02  0.12870693220E+03  0.15026744292E+03  0.47000000000E+01 0. -1.
        -11    1    1    2    0    0 -0.31276358062E+02  0.47498764272E+02 -0.16077747314E+03  0.17053955275E+03  0.00000000000E+00 0.  1.
         11    1    1    2    0    0  0.10573508379E+02  0.28296452131E+02 -0.33426943883E+00  0.30209270410E+02  0.00000000000E+00 0. -1.
<mgrwt>
<rscale>  0 0.14011681E+03</rscale>
<asrwt>0</asrwt>
<pdfrwt beam="1">  1        1 0.53479710E-01 0.14764311E+03</pdfrwt>
<pdfrwt beam="2">  1       -1 0.30393099E-01 0.14764311E+03</pdfrwt>
<totfact> 0.72673828E+02</totfact>
</mgrwt>
</event>
<event>
 6    1  0.1045058E-005  0.1304549E+03  0.7546771E-02  0.1246205E+00
         -2   -1    0    0    0  501 -0.00000000000E+00  0.00000000000E+00  0.26389559817E+02  0.26389559817E+02  0.00000000000E+00 0. -1.
          2   -1    0    0  501    0  0.00000000000E+00 -0.00000000000E+00 -0.46024989998E+03  0.46024989998E+03  0.00000000000E+00 0.  1.
          5    1    1    2  502    0  0.39209485851E+02  0.30712353999E+02 -0.70366254659E+02  0.86337316750E+02  0.47000000000E+01 0. -1.
         -5    1    1    2    0  502 -0.72063426860E+02 -0.12971204723E+02 -0.22207364658E+03  0.23388070495E+03  0.47000000000E+01 0. -1.
        -11    1    1    2    0    0  0.33012158887E+02 -0.43914092752E+02 -0.12209690603E+03  0.13388765678E+03  0.00000000000E+00 0.  1.
         11    1    1    2    0    0 -0.15821787770E+00  0.26172943476E+02 -0.19323532893E+02  0.32533781314E+02  0.00000000000E+00 0. -1.
<mgrwt>
<rscale>  0 0.11813565E+03</rscale>
<asrwt>0</asrwt>
<pdfrwt beam="2">  1        2 0.70807670E-01 0.13045492E+03</pdfrwt>
<pdfrwt beam="1">  1       -2 0.40599327E-02 0.13045492E+03</pdfrwt>
<totfact> 0.17240544E+04</totfact>
</mgrwt>
</event>
<event>
 6    1  0.1142200E-005  0.4373492E+03  0.7546771E-02  0.1031563E+00
         -1   -1    0    0    0  501 -0.00000000000E+00  0.00000000000E+00  0.42897805309E+02  0.42897805309E+02  0.00000000000E+00 0.  1.
          1   -1    0    0  501    0  0.00000000000E+00 -0.00000000000E+00 -0.11147094611E+04  0.11147094611E+04  0.00000000000E+00 0. -1.
          5    1    1    2  502    0  0.18027336744E+03  0.54253635412E+02 -0.64334810762E+03  0.67034380846E+03  0.47000000000E+01 0.  1.
         -5    1    1    2    0  502 -0.48000296107E+01 -0.27880865507E+02 -0.91503119753E+02  0.95892094931E+02  0.47000000000E+01 0.  1.
        -11    1    1    2    0    0 -0.12003984769E+03 -0.46679876810E+02 -0.16347927707E+03  0.20812027764E+03  0.00000000000E+00 0.  1.
         11    1    1    2    0    0 -0.55433490131E+02  0.20307106905E+02 -0.17348115131E+03  0.18325108534E+03  0.00000000000E+00 0. -1.
<mgrwt>
<rscale>  0 0.43734924E+03</rscale>
<asrwt>0</asrwt>
<pdfrwt beam="2">  1        1 0.17149376E+00 0.43734924E+03</pdfrwt>
<pdfrwt beam="1">  1       -1 0.65996624E-02 0.43734924E+03</pdfrwt>
<totfact> 0.15187861E+03</totfact>
</mgrwt>
</event>
<event>
 6    1  0.1045058E-005  0.1318650E+03  0.7546771E-02  0.1236610E+00
          1   -1    0    0  501    0  0.00000000000E+00  0.00000000000E+00  0.79666351695E+02  0.79666351695E+02  0.00000000000E+00 0. -1.
         -1   -1    0    0    0  501 -0.00000000000E+00 -0.00000000000E+00 -0.23008057164E+03  0.23008057164E+03  0.00000000000E+00 0.  1.
          5    1    1    2  502    0  0.60723334011E+00 -0.49892887093E+02 -0.36763009871E+02  0.62155271776E+02  0.47000000000E+01 0. -1.
         -5    1    1    2    0  502  0.41401411999E+02  0.46613103257E+02  0.31103693489E+02  0.69831139611E+02  0.47000000000E+01 0. -1.
        -11    1    1    2    0    0 -0.92356632544E+01 -0.43648123000E+02 -0.77701394744E+02  0.89598899894E+02  0.00000000000E+00 0. -1.
         11    1    1    2    0    0 -0.32772982085E+02  0.46927906836E+02 -0.67053508815E+02  0.88161612049E+02  0.00000000000E+00 0.  1.
<mgrwt>
<rscale>  0 0.12401936E+03</rscale>
<asrwt>0</asrwt>
<pdfrwt beam="1">  1        1 0.12256362E-01 0.13186503E+03</pdfrwt>
<pdfrwt beam="2">  1       -1 0.35397011E-01 0.13186503E+03</pdfrwt>
<totfact> 0.35876611E+03</totfact>
</mgrwt>
</event>
<event>
 6    1  0.1045058E-005  0.1687782E+03  0.7546771E-02  0.1186850E+00
         -1   -1    0    0    0  501 -0.00000000000E+00  0.00000000000E+00  0.70310889769E+02  0.70310889769E+02  0.00000000000E+00 0.  1.
          1   -1    0    0  501    0  0.00000000000E+00 -0.00000000000E+00 -0.42925575983E+03  0.42925575983E+03  0.00000000000E+00 0. -1.
          5    1    1    2  502    0  0.41627679534E+02 -0.10592119981E+02 -0.12411018152E+03  0.13141721297E+03  0.47000000000E+01 0.  1.
         -5    1    1    2    0  502 -0.10054866294E+02  0.11951588397E+03 -0.17908521967E+03  0.21558931505E+03  0.47000000000E+01 0.  1.
        -11    1    1    2    0    0 -0.15547751475E+02 -0.12050490773E+03 -0.42337989478E+02  0.12866884128E+03  0.00000000000E+00 0.  1.
         11    1    1    2    0    0 -0.16025061765E+02  0.11581143736E+02 -0.13411479396E+02  0.23891280301E+02  0.00000000000E+00 0. -1.
<mgrwt>
<rscale>  0 0.16164650E+03</rscale>
<asrwt>0</asrwt>
<pdfrwt beam="2">  1        1 0.66039348E-01 0.16877820E+03</pdfrwt>
<pdfrwt beam="1">  1       -1 0.10817060E-01 0.16877820E+03</pdfrwt>
<totfact> 0.29237384E+03</totfact>
</mgrwt>
</event>
<event>
 6    1  0.1045058E-005  0.2347007E+03  0.7546771E-02  0.1156464E+00
          1   -1    0    0  501    0  0.00000000000E+00  0.00000000000E+00  0.62138144182E+03  0.62138144182E+03  0.00000000000E+00 0. -1.
         -1   -1    0    0    0  501 -0.00000000000E+00 -0.00000000000E+00 -0.47315789254E+02  0.47315789254E+02  0.00000000000E+00 0.  1.
          5    1    1    2  502    0  0.54502208412E+02  0.12374116660E+03  0.26336751378E+03  0.29608597459E+03  0.47000000000E+01 0. -1.
         -5    1    1    2    0  502 -0.36281970554E+02 -0.92021848885E+02  0.16904494660E+03  0.19591499695E+03  0.47000000000E+01 0.  1.
        -11    1    1    2    0    0  0.13704803237E+02 -0.60519017761E+02  0.74483230813E+02  0.96943926137E+02  0.00000000000E+00 0.  1.
         11    1    1    2    0    0 -0.31925041095E+02  0.28799700049E+02  0.67169961379E+02  0.79752333405E+02  0.00000000000E+00 0. -1.
<mgrwt>
<rscale>  0 0.19223129E+03</rscale>
<asrwt>0</asrwt>
<pdfrwt beam="1">  1        1 0.95597139E-01 0.23470070E+03</pdfrwt>
<pdfrwt beam="2">  1       -1 0.72793526E-02 0.23470070E+03</pdfrwt>
<totfact> 0.33087532E+03</totfact>
</mgrwt>
</event>
<event>
 6    1  0.1045058E-005  0.1746393E+03  0.7546771E-02  0.1179916E+00
          3   -1    0    0  501    0  0.00000000000E+00  0.00000000000E+00  0.87439507301E+02  0.87439507301E+02  0.00000000000E+00 0. -1.
         -3   -1    0    0    0  501 -0.00000000000E+00 -0.00000000000E+00 -0.30451821495E+03  0.30451821495E+03  0.00000000000E+00 0.  1.
          5    1    1    2  502    0 -0.83159357839E+00  0.38579472714E+02  0.19666394454E+02  0.43565173403E+02  0.47000000000E+01 0. -1.
         -5    1    1    2    0  502  0.20461135107E+02  0.81791076228E+02 -0.15828613893E+03  0.17940186726E+03  0.47000000000E+01 0. -1.
        -11    1    1    2    0    0  0.28506345842E+02 -0.20554421949E+02 -0.37513710157E+01  0.35343582153E+02  0.00000000000E+00 0.  1.
         11    1    1    2    0    0 -0.48135887370E+02 -0.99816126994E+02 -0.74707592161E+02  0.13364709943E+03  0.00000000000E+00 0. -1.
<mgrwt>
<rscale>  0 0.16803213E+03</rscale>
<asrwt>0</asrwt>
<pdfrwt beam="1">  1        3 0.13452232E-01 0.17463925E+03</pdfrwt>
<pdfrwt beam="2">  1       -3 0.46848956E-01 0.17463925E+03</pdfrwt>
<totfact> 0.48888047E+02</totfact>
</mgrwt>
</event>
<event>
 6    1  0.1045058E-005  0.5313105E+03  0.7546771E-02  0.1005915E+00
          2   -1    0    0  501    0  0.00000000000E+00  0.00000000000E+00  0.99594597042E+03  0.99594597042E+03  0.00000000000E+00 0. -1.
         -2   -1    0    0    0  501 -0.00000000000E+00 -0.00000000000E+00 -0.70859991922E+02  0.70859991922E+02  0.00000000000E+00 0.  1.
          5    1    1    2  502    0  0.25620913569E+01  0.87892312462E+01 -0.46463431050E+01  0.11291297634E+02  0.47000000000E+01 0.  1.
         -5    1    1    2    0  502  0.14688924393E+03  0.17456347221E+03  0.57832106851E+03  0.62171231618E+03  0.47000000000E+01 0.  1.
        -11    1    1    2    0    0 -0.13127872244E+03 -0.18937842744E+03  0.29563144474E+03  0.37482828451E+03  0.00000000000E+00 0.  1.
         11    1    1    2    0    0 -0.18172612844E+02  0.60257239900E+01  0.55779808359E+02  0.58974064026E+02  0.00000000000E+00 0. -1.
<mgrwt>
<rscale>  0 0.53131054E+03</rscale>
<asrwt>0</asrwt>
<pdfrwt beam="1">  1        2 0.15322245E+00 0.53131054E+03</pdfrwt>
<pdfrwt beam="2">  1       -2 0.10901538E-01 0.53131054E+03</pdfrwt>
<totfact> 0.15214189E+03</totfact>
</mgrwt>
</event>
<event>
 6    1  0.1045058E-005  0.1298637E+03  0.7546771E-02  0.1243771E+00
          2   -1    0    0  501    0  0.00000000000E+00  0.00000000000E+00  0.12063724770E+04  0.12063724770E+04  0.00000000000E+00 0. -1.
         -2   -1    0    0    0  501 -0.00000000000E+00 -0.00000000000E+00 -0.10338093170E+02  0.10338093170E+02  0.00000000000E+00 0.  1.
          5    1    1    2  502    0  0.66147394339E+02 -0.43648825134E+01  0.38536383501E+03  0.39105230509E+03  0.47000000000E+01 0.  1.
         -5    1    1    2    0  502 -0.55870216522E+02 -0.29171430400E+02  0.32701146140E+03  0.33306311614E+03  0.47000000000E+01 0.  1.
        -11    1    1    2    0    0 -0.44120658929E+02 -0.22088343746E+01  0.22775689176E+03  0.23200153714E+03  0.00000000000E+00 0.  1.
         11    1    1    2    0    0  0.33843481112E+02  0.35745147288E+02  0.25590219566E+03  0.26059361181E+03  0.00000000000E+00 0. -1.
<mgrwt>
<rscale>  0 0.11959264E+03</rscale>
<asrwt>0</asrwt>
<pdfrwt beam="1">  1        2 0.18559565E+00 0.12986370E+03</pdfrwt>
<pdfrwt beam="2">  1       -2 0.15904768E-02 0.12986370E+03</pdfrwt>
<totfact> 0.20492180E+04</totfact>
</mgrwt>
</event>
<event>
 6    1  0.1045058E-005  0.1279303E+03  0.7546771E-02  0.1245089E+00
          2   -1    0    0  501    0  0.00000000000E+00  0.00000000000E+00  0.37278699537E+03  0.37278699537E+03  0.00000000000E+00 0. -1.
         -2   -1    0    0    0  501 -0.00000000000E+00 -0.00000000000E+00 -0.41038426590E+02  0.41038426590E+02  0.00000000000E+00 0.  1.
          5    1    1    2  502    0  0.15321913311E+02 -0.54366816599E+02  0.24141650013E+03  0.24798090311E+03  0.47000000000E+01 0. -1.
         -5    1    1    2    0  502 -0.30000105756E+02  0.31446019172E+02  0.32938218660E+02  0.54734584274E+02  0.47000000000E+01 0. -1.
        -11    1    1    2    0    0  0.35741145197E+02  0.26980888988E+02 -0.50678847495E+01  0.45067519195E+02  0.00000000000E+00 0.  1.
         11    1    1    2    0    0 -0.21062952751E+02 -0.40600915620E+01  0.62461734740E+02  0.66042415377E+02  0.00000000000E+00 0. -1.
<mgrwt>
<rscale>  0 0.11880077E+03</rscale>
<asrwt>0</asrwt>
<pdfrwt beam="1">  1        2 0.57351843E-01 0.12793027E+03</pdfrwt>
<pdfrwt beam="2">  1       -2 0.63136043E-02 0.12793027E+03</pdfrwt>
<totfact> 0.11118418E+04</totfact>
</mgrwt>
</event>
<event>
 6    1  0.1045058E-005  0.2850566E+03  0.7546771E-02  0.1094579E+00
          2   -1    0    0  501    0  0.00000000000E+00  0.00000000000E+00  0.29941365575E+03  0.29941365575E+03  0.00000000000E+00 0.  1.
         -2   -1    0    0    0  501 -0.00000000000E+00 -0.00000000000E+00 -0.26969404396E+03  0.26969404396E+03  0.00000000000E+00 0. -1.
          5    1    1    2  502    0 -0.22716612929E+02 -0.10690308802E+03  0.88446857317E+02  0.14067427377E+03  0.47000000000E+01 0.  1.
         -5    1    1    2    0  502 -0.82183646993E+02 -0.12682585022E+03 -0.19915302600E+02  0.15250461434E+03  0.47000000000E+01 0.  1.
        -11    1    1    2    0    0  0.87306173854E+02  0.89284614137E+02 -0.37591545242E+02  0.13041178853E+03  0.00000000000E+00 0. -1.
         11    1    1    2    0    0  0.17594086068E+02  0.14444432411E+03 -0.12203976923E+01  0.14551702307E+03  0.00000000000E+00 0.  1.
<mgrwt>
<rscale>  0 0.28204136E+03</rscale>
<asrwt>0</asrwt>
<pdfrwt beam="1">  1        2 0.46063639E-01 0.28505664E+03</pdfrwt>
<pdfrwt beam="2">  1       -2 0.41491391E-01 0.28505664E+03</pdfrwt>
<totfact> 0.61041853E+02</totfact>
</mgrwt>
</event>
<event>
 6    1  0.1045058E-005  0.4180816E+03  0.7546771E-02  0.1038421E+00
         -1   -1    0    0    0  501 -0.00000000000E+00  0.00000000000E+00  0.19368440727E+03  0.19368440727E+03  0.00000000000E+00 0.  1.
          1   -1    0    0  501    0  0.00000000000E+00 -0.00000000000E+00 -0.90015720624E+03  0.90015720624E+03  0.00000000000E+00 0. -1.
          5    1    1    2  502    0  0.23465085962E+03 -0.89856058788E+02 -0.17981448717E+03  0.30901533459E+03  0.47000000000E+01 0. -1.
         -5    1    1    2    0  502  0.13915324034E+03 -0.49438463038E+02 -0.25138136666E+03  0.29158612352E+03  0.47000000000E+01 0. -1.
        -11    1    1    2    0    0 -0.16240169324E+03  0.39579095188E+02 -0.66706341039E+02  0.17997374997E+03  0.00000000000E+00 0.  1.
         11    1    1    2    0    0 -0.21140240671E+03  0.99715426638E+02 -0.20857060410E+03  0.31326640543E+03  0.00000000000E+00 0. -1.
<mgrwt>
<rscale>  0 0.41586312E+03</rscale>
<asrwt>0</asrwt>
<pdfrwt beam="2">  1        1 0.13848572E+00 0.41808163E+03</pdfrwt>
<pdfrwt beam="1">  1       -1 0.29797601E-01 0.41808163E+03</pdfrwt>
<totfact> 0.19555693E+02</totfact>
</mgrwt>
</event>
<event>
 6    1  0.1045058E-005  0.1278919E+03  0.7546771E-02  0.1245449E+00
          1   -1    0    0  501    0  0.00000000000E+00  0.00000000000E+00  0.18155744122E+03  0.18155744122E+03  0.00000000000E+00 0. -1.
         -1   -1    0    0    0  501 -0.00000000000E+00 -0.00000000000E+00 -0.68196808432E+02  0.68196808432E+02  0.00000000000E+00 0.  1.
          5    1    1    2  502    0 -0.21563485441E+02  0.41442009877E+02  0.53883958520E+02  0.71470239071E+02  0.47000000000E+01 0. -1.
         -5    1    1    2    0  502  0.42858837563E+02 -0.58079580099E+02  0.15296758425E+02  0.73933743312E+02  0.47000000000E+01 0. -1.
        -11    1    1    2    0    0  0.54914198924E+00  0.18367776664E+02  0.68904478857E+02  0.71312719644E+02  0.00000000000E+00 0. -1.
         11    1    1    2    0    0 -0.21844494112E+02 -0.17302064418E+01 -0.24724563009E+02  0.33037547629E+02  0.00000000000E+00 0.  1.
<mgrwt>
<rscale>  0 0.11858562E+03</rscale>
<asrwt>0</asrwt>
<pdfrwt beam="1">  1        1 0.27931914E-01 0.12789193E+03</pdfrwt>
<pdfrwt beam="2">  1       -1 0.10491817E-01 0.12789193E+03</pdfrwt>
<totfact> 0.88226793E+03</totfact>
</mgrwt>
</event>
<event>
 6    1  0.1045058E-005  0.1265108E+03  0.7546771E-02  0.1248123E+00
          2   -1    0    0  501    0  0.00000000000E+00  0.00000000000E+00  0.10431577895E+03  0.10431577895E+03  0.00000000000E+00 0. -1.
         -2   -1    0    0    0  501 -0.00000000000E+00 -0.00000000000E+00 -0.11789091942E+03  0.11789091942E+03  0.00000000000E+00 0.  1.
          5    1    1    2  502    0  0.14112058663E+02  0.11879417693E+02  0.65573075818E+02  0.68280224346E+02  0.47000000000E+01 0. -1.
         -5    1    1    2    0  502 -0.13730908134E+02  0.75906393829E+01 -0.56238143918E+02  0.58574520705E+02  0.47000000000E+01 0. -1.
        -11    1    1    2    0    0 -0.26005533760E+01  0.17359725376E+02 -0.47749165348E+02  0.50873428570E+02  0.00000000000E+00 0.  1.
         11    1    1    2    0    0  0.22194028477E+01 -0.36829782451E+02  0.24839092973E+02  0.44478524752E+02  0.00000000000E+00 0. -1.
<mgrwt>
<rscale>  0 0.11700384E+03</rscale>
<asrwt>0</asrwt>
<pdfrwt beam="1">  1        2 0.16048581E-01 0.12651081E+03</pdfrwt>
<pdfrwt beam="2">  1       -2 0.18137065E-01 0.12651081E+03</pdfrwt>
<totfact> 0.83805941E+03</totfact>
</mgrwt>
</event>
<event>
 6    1  0.1045058E-005  0.1416593E+03  0.7546771E-02  0.1221548E+00
         -2   -1    0    0    0  501 -0.00000000000E+00  0.00000000000E+00  0.22737832369E+02  0.22737832369E+02  0.00000000000E+00 0.  1.
          2   -1    0    0  501    0  0.00000000000E+00 -0.00000000000E+00 -0.71772966226E+03  0.71772966226E+03  0.00000000000E+00 0. -1.
          5    1    1    2  502    0  0.83863394328E+02 -0.47148685628E+02 -0.18743628721E+03  0.21073803460E+03  0.47000000000E+01 0.  1.
         -5    1    1    2    0  502 -0.31604148898E+02  0.51253509681E+01 -0.18342182981E+03  0.18625452773E+03  0.47000000000E+01 0.  1.
        -11    1    1    2    0    0 -0.32943970780E+02  0.59229928327E+02 -0.30174785339E+03  0.30926567324E+03  0.00000000000E+00 0. -1.
         11    1    1    2    0    0 -0.19315274650E+02 -0.17206593668E+02 -0.22385859492E+02  0.34209259063E+02  0.00000000000E+00 0.  1.
<mgrwt>
<rscale>  0 0.13406317E+03</rscale>
<asrwt>0</asrwt>
<pdfrwt beam="2">  1        2 0.11041993E+00 0.14165928E+03</pdfrwt>
<pdfrwt beam="1">  1       -2 0.34981287E-02 0.14165928E+03</pdfrwt>
<totfact> 0.13085798E+04</totfact>
</mgrwt>
</event>
<event>
 6    1  0.1045058E-005  0.4110291E+03  0.7546771E-02  0.1040026E+00
         -1   -1    0    0    0  501 -0.00000000000E+00  0.00000000000E+00  0.41244369160E+03  0.41244369160E+03  0.00000000000E+00 0.  1.
          1   -1    0    0  501    0  0.00000000000E+00 -0.00000000000E+00 -0.10240484562E+03  0.10240484562E+03  0.00000000000E+00 0. -1.
          5    1    1    2  502    0  0.89867924513E+00  0.15899423971E+02 -0.26201159228E+02  0.31019188446E+02  0.47000000000E+01 0.  1.
         -5    1    1    2    0  502  0.11165694899E+03 -0.91509077371E+02  0.60309030374E+02  0.15652621072E+03  0.47000000000E+01 0.  1.
        -11    1    1    2    0    0 -0.10555159270E+03  0.15418366372E+02  0.22150533148E+03  0.24585255056E+03  0.00000000000E+00 0.  1.
         11    1    1    2    0    0 -0.70040355325E+01  0.60191287029E+02  0.54425643364E+02  0.81450587496E+02  0.00000000000E+00 0. -1.
<mgrwt>
<rscale>  0 0.41102911E+03</rscale>
<asrwt>0</asrwt>
<pdfrwt beam="2">  1        1 0.15754592E-01 0.41102911E+03</pdfrwt>
<pdfrwt beam="1">  1       -1 0.63452875E-01 0.41102911E+03</pdfrwt>
<totfact> 0.91322626E+02</totfact>
</mgrwt>
</event>
<event>
 6    1  0.1045058E-005  0.2224096E+03  0.7546771E-02  0.1136148E+00
         -1   -1    0    0    0  501 -0.00000000000E+00  0.00000000000E+00  0.13125520530E+03  0.13125520530E+03  0.00000000000E+00 0.  1.
          1   -1    0    0  501    0  0.00000000000E+00 -0.00000000000E+00 -0.35734042283E+03  0.35734042283E+03  0.00000000000E+00 0. -1.
          5    1    1    2  502    0 -0.10044193535E+03  0.12010978171E+02 -0.46250246520E+02  0.11132843876E+03  0.47000000000E+01 0. -1.
         -5    1    1    2    0  502 -0.39128183883E+02  0.10783050403E+03 -0.12221643286E+03  0.16768237485E+03  0.47000000000E+01 0. -1.
        -11    1    1    2    0    0  0.38388898247E+02 -0.76521316932E+02 -0.56769801618E+00  0.85612742829E+02  0.00000000000E+00 0.  1.
         11    1    1    2    0    0  0.10118122099E+03 -0.43320165274E+02 -0.57050840131E+02  0.12397207169E+03  0.00000000000E+00 0. -1.
<mgrwt>
<rscale>  0 0.21698950E+03</rscale>
<asrwt>0</asrwt>
<pdfrwt beam="2">  1        1 0.54975449E-01 0.22240956E+03</pdfrwt>
<pdfrwt beam="1">  1       -1 0.20193109E-01 0.22240956E+03</pdfrwt>
<totfact> 0.13865618E+03</totfact>
</mgrwt>
</event>
<event>
 6    1  0.1045058E-005  0.1289891E+03  0.7546771E-02  0.1243203E+00
         -2   -1    0    0    0  501 -0.00000000000E+00  0.00000000000E+00  0.19009561332E+03  0.19009561332E+03  0.00000000000E+00 0.  1.
          2   -1    0    0  501    0  0.00000000000E+00 -0.00000000000E+00 -0.69352153514E+02  0.69352153514E+02  0.00000000000E+00 0. -1.
          5    1    1    2  502    0  0.73225457230E+01  0.12412364105E+02 -0.41898019318E+02  0.44555813103E+02  0.47000000000E+01 0. -1.
         -5    1    1    2    0  502  0.23278350323E+02 -0.21136456059E+02  0.86123984614E+02  0.91804477529E+02  0.47000000000E+01 0. -1.
        -11    1    1    2    0    0  0.28139864378E+02  0.22878231436E+01  0.51880428270E+02  0.59064921396E+02  0.00000000000E+00 0.  1.
         11    1    1    2    0    0 -0.58740760425E+02  0.64362688111E+01  0.24637066243E+02  0.64022554811E+02  0.00000000000E+00 0. -1.
<mgrwt>
<rscale>  0 0.11993598E+03</rscale>
<asrwt>0</asrwt>
<pdfrwt beam="2">  1        2 0.10669562E-01 0.12898912E+03</pdfrwt>
<pdfrwt beam="1">  1       -2 0.29245479E-01 0.12898912E+03</pdfrwt>
<totfact> 0.59789789E+03</totfact>
</mgrwt>
</event>
<event>
 6    1  0.1045058E-005  0.2039751E+03  0.7546771E-02  0.1150700E+00
         -2   -1    0    0    0  501 -0.00000000000E+00  0.00000000000E+00  0.49011839498E+03  0.49011839498E+03  0.00000000000E+00 0.  1.
          2   -1    0    0  501    0  0.00000000000E+00 -0.00000000000E+00 -0.77888284573E+02  0.77888284573E+02  0.00000000000E+00 0. -1.
          5    1    1    2  502    0  0.42115085004E+02 -0.17400586383E+02  0.10814009484E+03  0.11744288358E+03  0.47000000000E+01 0. -1.
         -5    1    1    2    0  502  0.16009399940E+01 -0.13774879597E+03  0.76255812066E+02  0.15752565719E+03  0.47000000000E+01 0. -1.
        -11    1    1    2    0    0 -0.65415017666E+02  0.90276053219E+02  0.10896873096E+03  0.15589443431E+03  0.00000000000E+00 0. -1.
         11    1    1    2    0    0  0.21698992668E+02  0.64873329130E+02  0.11886547255E+03  0.13714370448E+03  0.00000000000E+00 0.  1.
<mgrwt>
<rscale>  0 0.19886508E+03</rscale>
<asrwt>0</asrwt>
<pdfrwt beam="2">  1        2 0.11982813E-01 0.20397512E+03</pdfrwt>
<pdfrwt beam="1">  1       -2 0.75402828E-01 0.20397512E+03</pdfrwt>
<totfact> 0.82472993E+02</totfact>
</mgrwt>
</event>
<event>
 6    1  0.1045058E-005  0.1311829E+03  0.7546771E-02  0.1236446E+00
          2   -1    0    0  501    0  0.00000000000E+00  0.00000000000E+00  0.24010268606E+03  0.24010268606E+03  0.00000000000E+00 0. -1.
         -2   -1    0    0    0  501 -0.00000000000E+00 -0.00000000000E+00 -0.78794995384E+02  0.78794995384E+02  0.00000000000E+00 0.  1.
          5    1    1    2  502    0  0.32408958598E+02  0.76225621728E+01 -0.32511930442E+01  0.33780235460E+02  0.47000000000E+01 0.  1.
         -5    1    1    2    0  502 -0.43047520010E+02  0.30723100188E+02  0.17171080088E+03  0.17973226478E+03  0.47000000000E+01 0.  1.
        -11    1    1    2    0    0  0.51720093790E+02 -0.34555824740E+02  0.49287418522E+01  0.62396839835E+02  0.00000000000E+00 0.  1.
         11    1    1    2    0    0 -0.41081532379E+02 -0.37898376202E+01 -0.12080659010E+02  0.42988341371E+02  0.00000000000E+00 0. -1.
<mgrwt>
<rscale>  0 0.12412297E+03</rscale>
<asrwt>0</asrwt>
<pdfrwt beam="1">  1        2 0.36938875E-01 0.13118288E+03</pdfrwt>
<pdfrwt beam="2">  1       -2 0.12122307E-01 0.13118288E+03</pdfrwt>
<totfact> 0.64420063E+03</totfact>
</mgrwt>
</event>
<event>
 6    1  0.1045058E-005  0.1294263E+03  0.7546771E-02  0.1242576E+00
         -2   -1    0    0    0  501 -0.00000000000E+00  0.00000000000E+00  0.32289121064E+03  0.32289121064E+03  0.00000000000E+00 0.  1.
          2   -1    0    0  501    0  0.00000000000E+00 -0.00000000000E+00 -0.41403466241E+02  0.41403466241E+02  0.00000000000E+00 0. -1.
          5    1    1    2  502    0  0.41279997933E+02 -0.10459980260E+01  0.90619698154E+01  0.42536356663E+02  0.47000000000E+01 0. -1.
         -5    1    1    2    0  502 -0.73617604781E+02  0.10119724610E+02  0.11329023280E+03  0.13556816517E+03  0.47000000000E+01 0. -1.
        -11    1    1    2    0    0  0.48542609393E+02  0.22085351908E+02  0.56419790951E+02  0.77635948545E+02  0.00000000000E+00 0. -1.
         11    1    1    2    0    0 -0.16205002545E+02 -0.31159078492E+02  0.10271575084E+03  0.10855420650E+03  0.00000000000E+00 0.  1.
<mgrwt>
<rscale>  0 0.12031661E+03</rscale>
<asrwt>0</asrwt>
<pdfrwt beam="2">  1        2 0.63697642E-02 0.12942627E+03</pdfrwt>
<pdfrwt beam="1">  1       -2 0.49675569E-01 0.12942627E+03</pdfrwt>
<totfact> 0.42165136E+03</totfact>
</mgrwt>
</event>
<event>
 6    1  0.1045058E-005  0.2568605E+03  0.7546771E-02  0.1109044E+00
         -1   -1    0    0    0  501 -0.00000000000E+00  0.00000000000E+00  0.34843931760E+02  0.34843931760E+02  0.00000000000E+00 0.  1.
          1   -1    0    0  501    0  0.00000000000E+00 -0.00000000000E+00 -0.47337744657E+03  0.47337744657E+03  0.00000000000E+00 0. -1.
          5    1    1    2  502    0  0.88232850213E+02 -0.28382303976E+01 -0.10892387931E+03  0.14028397233E+03  0.47000000000E+01 0.  1.
         -5    1    1    2    0  502 -0.21922327035E+02  0.86770777184E+01 -0.17901356402E+03  0.18062066937E+03  0.47000000000E+01 0.  1.
        -11    1    1    2    0    0 -0.19730688457E+02  0.40773925918E+02 -0.55900593486E+02  0.71949214408E+02  0.00000000000E+00 0.  1.
         11    1    1    2    0    0 -0.46579834721E+02 -0.46612773239E+02 -0.94695477997E+02  0.11536752223E+03  0.00000000000E+00 0. -1.
<mgrwt>
<rscale>  0 0.25686052E+03</rscale>
<asrwt>0</asrwt>
<pdfrwt beam="2">  1        1 0.72827302E-01 0.25686052E+03</pdfrwt>
<pdfrwt beam="1">  1       -1 0.53606047E-02 0.25686052E+03</pdfrwt>
<totfact> 0.76313802E+03</totfact>
</mgrwt>
</event>
<event>
 6    1  0.1045058E-005  0.3191586E+03  0.7546771E-02  0.1076037E+00
          2   -1    0    0  501    0  0.00000000000E+00  0.00000000000E+00  0.53271449246E+02  0.53271449246E+02  0.00000000000E+00 0. -1.
         -2   -1    0    0    0  501 -0.00000000000E+00 -0.00000000000E+00 -0.47803380200E+03  0.47803380200E+03  0.00000000000E+00 0.  1.
          5    1    1    2  502    0  0.69395257080E+01 -0.46085774403E+02 -0.42673552448E+02  0.63365429833E+02  0.47000000000E+01 0.  1.
         -5    1    1    2    0  502  0.77745933331E+02  0.69829435148E+02 -0.57345220558E+02  0.11929436065E+03  0.47000000000E+01 0.  1.
        -11    1    1    2    0    0 -0.55983256128E+02  0.28648975666E+02 -0.21094232835E+03  0.22011713850E+03  0.00000000000E+00 0.  1.
         11    1    1    2    0    0 -0.28702202911E+02 -0.52392636411E+02 -0.11380125139E+03  0.12852832225E+03  0.00000000000E+00 0. -1.
<mgrwt>
<rscale>  0 0.31915860E+03</rscale>
<asrwt>0</asrwt>
<pdfrwt beam="1">  1        2 0.81956075E-02 0.31915860E+03</pdfrwt>
<pdfrwt beam="2">  1       -2 0.73543662E-01 0.31915860E+03</pdfrwt>
<totfact> 0.14177313E+03</totfact>
</mgrwt>
</event>
<event>
 6    1  0.1045058E-005  0.1250443E+03  0.7546771E-02  0.1249233E+00
          4   -1    0    0  501    0  0.00000000000E+00  0.00000000000E+00  0.10299466973E+03  0.10299466973E+03  0.00000000000E+00 0. -1.
         -4   -1    0    0    0  501 -0.00000000000E+00 -0.00000000000E+00 -0.11619595062E+03  0.11619595062E+03  0.00000000000E+00 0.  1.
          5    1    1    2  502    0  0.27635696071E+02 -0.49802914517E+02  0.24829604985E+02  0.62311004449E+02  0.47000000000E+01 0.  1.
         -5    1    1    2    0  502 -0.26428691775E+02  0.47059451840E+02 -0.32037416042E+02  0.62940875296E+02  0.47000000000E+01 0.  1.
        -11    1    1    2    0    0  0.43202220487E+02  0.16288770063E+02  0.43374504496E+01  0.46374231655E+02  0.00000000000E+00 0.  1.
         11    1    1    2    0    0 -0.44409224783E+02 -0.13545307386E+02 -0.10330920276E+02  0.47564508951E+02  0.00000000000E+00 0. -1.
<mgrwt>
<rscale>  0 0.11635571E+03</rscale>
<asrwt>0</asrwt>
<pdfrwt beam="1">  1        4 0.15845334E-01 0.12504432E+03</pdfrwt>
<pdfrwt beam="2">  1       -4 0.17876300E-01 0.12504432E+03</pdfrwt>
<totfact> 0.15269876E+03</totfact>
</mgrwt>
</event>
<event>
 6    1  0.1045058E-005  0.1564735E+03  0.7546771E-02  0.1200695E+00
         -2   -1    0    0    0  501 -0.00000000000E+00  0.00000000000E+00  0.55130587171E+02  0.55130587171E+02  0.00000000000E+00 0. -1.
          2   -1    0    0  501    0  0.00000000000E+00 -0.00000000000E+00 -0.40453631532E+03  0.40453631532E+03  0.00000000000E+00 0.  1.
          5    1    1    2  502    0  0.49723865415E+01  0.60355814159E+02 -0.25309626253E+03  0.26028322465E+03  0.47000000000E+01 0.  1.
         -5    1    1    2    0  502 -0.14815121890E+01  0.33702612097E+02  0.35681020883E+01  0.34247369140E+02  0.47000000000E+01 0.  1.
        -11    1    1    2    0    0  0.10601037988E+02 -0.99146616773E+02 -0.10889457613E+03  0.14764979626E+03  0.00000000000E+00 0.  1.
         11    1    1    2    0    0 -0.14091912340E+02  0.50881905164E+01  0.90170084272E+01  0.17486512434E+02  0.00000000000E+00 0. -1.
<mgrwt>
<rscale>  0 0.14981976E+03</rscale>
<asrwt>0</asrwt>
<pdfrwt beam="2">  1        2 0.62236353E-01 0.15647354E+03</pdfrwt>
<pdfrwt beam="1">  1       -2 0.84816292E-02 0.15647354E+03</pdfrwt>
<totfact> 0.65612239E+03</totfact>
</mgrwt>
</event>
<event>
 6    1  0.1045058E-005  0.1331970E+03  0.7546771E-02  0.1236049E+00
          1   -1    0    0  501    0  0.00000000000E+00  0.00000000000E+00  0.80929560452E+02  0.80929560452E+02  0.00000000000E+00 0. -1.
         -1   -1    0    0    0  501 -0.00000000000E+00 -0.00000000000E+00 -0.17030492660E+03  0.17030492660E+03  0.00000000000E+00 0.  1.
          5    1    1    2  502    0 -0.15710046095E+02 -0.38484564869E+02  0.17258351910E+02  0.45252712539E+02  0.47000000000E+01 0. -1.
         -5    1    1    2    0  502  0.60225503227E+02  0.27026747692E+02 -0.74711215774E+02  0.99806873973E+02  0.47000000000E+01 0. -1.
        -11    1    1    2    0    0  0.27967599139E+02  0.30151053925E+01 -0.11575349334E+02  0.30418188216E+02  0.00000000000E+00 0. -1.
         11    1    1    2    0    0 -0.72483056272E+02  0.84427117851E+01 -0.20347152948E+02  0.75756712322E+02  0.00000000000E+00 0.  1.
<mgrwt>
<rscale>  0 0.12437495E+03</rscale>
<asrwt>0</asrwt>
<pdfrwt beam="1">  1        1 0.12450702E-01 0.13319704E+03</pdfrwt>
<pdfrwt beam="2">  1       -1 0.26200758E-01 0.13319704E+03</pdfrwt>
<totfact> 0.58345168E+03</totfact>
</mgrwt>
</event>
<event>
 6    1  0.1045058E-005  0.1417903E+03  0.7546771E-02  0.1222740E+00
          1   -1    0    0  501    0  0.00000000000E+00  0.00000000000E+00  0.46528435212E+03  0.46528435212E+03  0.00000000000E+00 0. -1.
         -1   -1    0    0    0  501 -0.00000000000E+00 -0.00000000000E+00 -0.46070147471E+02  0.46070147471E+02  0.00000000000E+00 0.  1.
          5    1    1    2  502    0  0.90876240361E+02  0.23085307778E+02  0.24108676172E+03  0.25872058127E+03  0.47000000000E+01 0.  1.
         -5    1    1    2    0  502 -0.26097401775E+02 -0.39859318457E+02  0.11680505300E+03  0.12623529639E+03  0.47000000000E+01 0.  1.
        -11    1    1    2    0    0 -0.54859282865E+02  0.50520987259E+02  0.34540188568E+02  0.82188415828E+02  0.00000000000E+00 0. -1.
         11    1    1    2    0    0 -0.99195557212E+01 -0.33746976581E+02  0.26782201365E+02  0.44210206106E+02  0.00000000000E+00 0.  1.
<mgrwt>
<rscale>  0 0.13322990E+03</rscale>
<asrwt>0</asrwt>
<pdfrwt beam="1">  1        1 0.71582205E-01 0.14179026E+03</pdfrwt>
<pdfrwt beam="2">  1       -1 0.70877153E-02 0.14179026E+03</pdfrwt>
<totfact> 0.49758110E+03</totfact>
</mgrwt>
</event>
<event>
 6    1  0.1045058E-005  0.4661304E+03  0.7546771E-02  0.1023018E+00
         -2   -1    0    0    0  501 -0.00000000000E+00  0.00000000000E+00  0.26831068598E+02  0.26831068598E+02  0.00000000000E+00 0. -1.
          2   -1    0    0  501    0  0.00000000000E+00 -0.00000000000E+00 -0.20244958695E+04  0.20244958695E+04  0.00000000000E+00 0.  1.
          5    1    1    2  502    0  0.33078849620E+02 -0.26347398230E+02 -0.12851930807E+03  0.13537982949E+03  0.47000000000E+01 0.  1.
         -5    1    1    2    0  502  0.12342816722E+02 -0.11105110865E+03 -0.15416462812E+04  0.15456972667E+04  0.47000000000E+01 0.  1.
        -11    1    1    2    0    0  0.88663003935E+01  0.94373726682E+02 -0.12950847490E+03  0.16049129771E+03  0.00000000000E+00 0. -1.
         11    1    1    2    0    0 -0.54287966735E+02  0.43024780198E+02 -0.19799073670E+03  0.20975854419E+03  0.00000000000E+00 0.  1.
<mgrwt>
<rscale>  0 0.46613040E+03</rscale>
<asrwt>0</asrwt>
<pdfrwt beam="2">  1        2 0.31146094E+00 0.46613040E+03</pdfrwt>
<pdfrwt beam="1">  1       -2 0.41278563E-02 0.46613040E+03</pdfrwt>
<totfact> 0.18672178E+03</totfact>
</mgrwt>
</event>
<event>
 6    1  0.1045058E-005  0.1497590E+03  0.7546771E-02  0.1209967E+00
         -1   -1    0    0    0  501 -0.00000000000E+00  0.00000000000E+00  0.59413918202E+02  0.59413918202E+02  0.00000000000E+00 0.  1.
          1   -1    0    0  501    0  0.00000000000E+00 -0.00000000000E+00 -0.38957605154E+03  0.38957605154E+03  0.00000000000E+00 0. -1.
          5    1    1    2  502    0 -0.56928908497E+02  0.46440405329E+01 -0.66221347690E+02  0.87577534934E+02  0.47000000000E+01 0.  1.
         -5    1    1    2    0  502  0.38424240661E+02  0.75732787905E+02 -0.21124454044E+03  0.22772400686E+03  0.47000000000E+01 0.  1.
        -11    1    1    2    0    0  0.42317453372E+02 -0.87618133222E+02 -0.47436126717E+02  0.10824920437E+03  0.00000000000E+00 0. -1.
         11    1    1    2    0    0 -0.23812785536E+02  0.72413047848E+01 -0.52601184977E+01  0.25439223585E+02  0.00000000000E+00 0.  1.
<mgrwt>
<rscale>  0 0.14252835E+03</rscale>
<asrwt>0</asrwt>
<pdfrwt beam="2">  1        1 0.59934777E-01 0.14975895E+03</pdfrwt>
<pdfrwt beam="1">  1       -1 0.91406028E-02 0.14975895E+03</pdfrwt>
<totfact> 0.42590076E+03</totfact>
</mgrwt>
</event>
<event>
 6    1  0.1045058E-005  0.1390383E+03  0.7546771E-02  0.1223400E+00
          1   -1    0    0  501    0  0.00000000000E+00  0.00000000000E+00  0.92276016173E+03  0.92276016173E+03  0.00000000000E+00 0. -1.
         -1   -1    0    0    0  501 -0.00000000000E+00 -0.00000000000E+00 -0.18798884846E+02  0.18798884846E+02  0.00000000000E+00 0.  1.
          5    1    1    2  502    0 -0.20527214857E+02 -0.38903651297E+02  0.15121388306E+03  0.15755186150E+03  0.47000000000E+01 0.  1.
         -5    1    1    2    0  502 -0.87618457196E+01  0.92325391719E+02  0.45954279850E+03  0.46883090934E+03  0.47000000000E+01 0.  1.
        -11    1    1    2    0    0  0.51402819002E+02 -0.63010813087E+02  0.15652738874E+03  0.17639001047E+03  0.00000000000E+00 0.  1.
         11    1    1    2    0    0 -0.22113758426E+02  0.95890726651E+01  0.13667720658E+03  0.13878626526E+03  0.00000000000E+00 0. -1.
<mgrwt>
<rscale>  0 0.13277176E+03</rscale>
<asrwt>0</asrwt>
<pdfrwt beam="1">  1        1 0.14196307E+00 0.13903831E+03</pdfrwt>
<pdfrwt beam="2">  1       -1 0.28921369E-02 0.13903831E+03</pdfrwt>
<totfact> 0.70788601E+03</totfact>
</mgrwt>
</event>
<event>
 6    1  0.1045058E-005  0.1355486E+03  0.7546771E-02  0.1231512E+00
         -2   -1    0    0    0  501 -0.00000000000E+00  0.00000000000E+00  0.33200076688E+03  0.33200076688E+03  0.00000000000E+00 0.  1.
          2   -1    0    0  501    0  0.00000000000E+00 -0.00000000000E+00 -0.59711777881E+02  0.59711777881E+02  0.00000000000E+00 0. -1.
          5    1    1    2  502    0 -0.12340620129E+02 -0.34728875811E+02  0.39275555040E+02  0.54065191611E+02  0.47000000000E+01 0.  1.
         -5    1    1    2    0  502  0.24243255979E+02  0.85793215687E+02  0.86002653016E+01  0.89689831540E+02  0.47000000000E+01 0.  1.
        -11    1    1    2    0    0  0.17250746093E+02  0.15798515015E+02  0.10857994407E+03  0.11107108342E+03  0.00000000000E+00 0. -1.
         11    1    1    2    0    0 -0.29153381943E+02 -0.66862854890E+02  0.11583322459E+03  0.13688643820E+03  0.00000000000E+00 0.  1.
<mgrwt>
<rscale>  0 0.12730410E+03</rscale>
<asrwt>0</asrwt>
<pdfrwt beam="2">  1        2 0.91864276E-02 0.13554856E+03</pdfrwt>
<pdfrwt beam="1">  1       -2 0.51077040E-01 0.13554856E+03</pdfrwt>
<totfact> 0.25239342E+03</totfact>
</mgrwt>
</event>
<event>
 6    1  0.1045058E-005  0.4073419E+03  0.7546771E-02  0.1041267E+00
         -2   -1    0    0    0  501 -0.00000000000E+00  0.00000000000E+00  0.17860156965E+02  0.17860156965E+02  0.00000000000E+00 0. -1.
          2   -1    0    0  501    0  0.00000000000E+00 -0.00000000000E+00 -0.23225922020E+04  0.23225922020E+04  0.00000000000E+00 0.  1.
          5    1    1    2  502    0  0.80758742758E+02  0.10564174685E+03 -0.90498848420E+03  0.91471766122E+03  0.47000000000E+01 0. -1.
         -5    1    1    2    0  502 -0.20140977318E+02  0.24673897988E+02 -0.84370342219E+03  0.84431748462E+03  0.47000000000E+01 0. -1.
        -11    1    1    2    0    0 -0.72726361158E+02 -0.61259833401E+02 -0.25059972601E+03  0.26803379166E+03  0.00000000000E+00 0. -1.
         11    1    1    2    0    0  0.12108595718E+02 -0.69055811435E+02 -0.30544041263E+03  0.31338342147E+03  0.00000000000E+00 0.  1.
<mgrwt>
<rscale>  0 0.40734193E+03</rscale>
<asrwt>0</asrwt>
<pdfrwt beam="2">  1        2 0.35732176E+00 0.40734193E+03</pdfrwt>
<pdfrwt beam="1">  1       -2 0.27477174E-02 0.40734193E+03</pdfrwt>
<totfact> 0.23948092E+03</totfact>
</mgrwt>
</event>
<event>
 6    1  0.1045058E-005  0.3291453E+03  0.7546771E-02  0.1071516E+00
         -2   -1    0    0    0  501 -0.00000000000E+00  0.00000000000E+00  0.26866775689E+03  0.26866775689E+03  0.00000000000E+00 0.  1.
          2   -1    0    0  501    0  0.00000000000E+00 -0.00000000000E+00 -0.10080912078E+03  0.10080912078E+03  0.00000000000E+00 0. -1.
          5    1    1    2  502    0  0.21129544364E+02  0.21786585778E+02 -0.31844954683E+01  0.30876268820E+02  0.47000000000E+01 0.  1.
         -5    1    1    2    0  502 -0.12212876030E+03 -0.48311018121E+02  0.18763852423E+02  0.13275375973E+03  0.47000000000E+01 0.  1.
        -11    1    1    2    0    0  0.23282950625E+02  0.38737405728E+02  0.10437293001E+03  0.11373825615E+03  0.00000000000E+00 0.  1.
         11    1    1    2    0    0  0.77716265311E+02 -0.12212973385E+02  0.47906349143E+02  0.92108592981E+02  0.00000000000E+00 0. -1.
<mgrwt>
<rscale>  0 0.32914532E+03</rscale>
<asrwt>0</asrwt>
<pdfrwt beam="2">  1        2 0.15509096E-01 0.32914532E+03</pdfrwt>
<pdfrwt beam="1">  1       -2 0.41333501E-01 0.32914532E+03</pdfrwt>
<totfact> 0.21009000E+03</totfact>
</mgrwt>
</event>
<event>
 6    1  0.1045058E-005  0.1331454E+03  0.7546771E-02  0.1235359E+00
         -4   -1    0    0    0  501 -0.00000000000E+00  0.00000000000E+00  0.59864734844E+02  0.59864734844E+02  0.00000000000E+00 0.  1.
          4   -1    0    0  501    0  0.00000000000E+00 -0.00000000000E+00 -0.23340977993E+03  0.23340977993E+03  0.00000000000E+00 0. -1.
          5    1    1    2  502    0  0.50960919752E+02  0.25503357645E+02 -0.12976016368E+03  0.14179995301E+03  0.47000000000E+01 0.  1.
         -5    1    1    2    0  502 -0.16329763799E+02  0.44611726313E+01  0.22943368310E+02  0.28897255862E+02  0.47000000000E+01 0.  1.
        -11    1    1    2    0    0  0.12288586636E+02  0.26562575259E+02 -0.16687102295E+02  0.33690342072E+02  0.00000000000E+00 0. -1.
         11    1    1    2    0    0 -0.46919742589E+02 -0.56527105535E+02 -0.50041147414E+02  0.88886963832E+02  0.00000000000E+00 0.  1.
<mgrwt>
<rscale>  0 0.12481510E+03</rscale>
<asrwt>0</asrwt>
<pdfrwt beam="2">  1        4 0.35909196E-01 0.13314544E+03</pdfrwt>
<pdfrwt beam="1">  1       -4 0.92099594E-02 0.13314544E+03</pdfrwt>
<totfact> 0.10780204E+03</totfact>
</mgrwt>
</event>
<event>
 6    1  0.1045058E-005  0.1258605E+03  0.7546771E-02  0.1248621E+00
          2   -1    0    0  501    0  0.00000000000E+00  0.00000000000E+00  0.34010402452E+03  0.34010402452E+03  0.00000000000E+00 0. -1.
         -2   -1    0    0    0  501 -0.00000000000E+00 -0.00000000000E+00 -0.38699319946E+02  0.38699319946E+02  0.00000000000E+00 0.  1.
          5    1    1    2  502    0  0.56090509394E+02  0.76967504843E+01  0.15300874239E+03  0.16321504361E+03  0.47000000000E+01 0.  1.
         -5    1    1    2    0  502 -0.61286138424E+02  0.60396247119E+01  0.74356580423E+02  0.96661568794E+02  0.47000000000E+01 0.  1.
        -11    1    1    2    0    0  0.39065321450E+02  0.81420807471E+01  0.67360355332E+01  0.40469333990E+02  0.00000000000E+00 0.  1.
         11    1    1    2    0    0 -0.33869692421E+02 -0.21878455943E+02  0.67303346225E+02  0.78457398072E+02  0.00000000000E+00 0. -1.
<mgrwt>
<rscale>  0 0.11671259E+03</rscale>
<asrwt>0</asrwt>
<pdfrwt beam="1">  1        2 0.52323694E-01 0.12586049E+03</pdfrwt>
<pdfrwt beam="2">  1       -2 0.59537418E-02 0.12586049E+03</pdfrwt>
<totfact> 0.13377325E+04</totfact>
</mgrwt>
</event>
<event>
 6    1  0.1045058E-005  0.1500867E+03  0.7546771E-02  0.1210772E+00
          1   -1    0    0  501    0  0.00000000000E+00  0.00000000000E+00  0.51807165137E+03  0.51807165137E+03  0.00000000000E+00 0. -1.
         -1   -1    0    0    0  501 -0.00000000000E+00 -0.00000000000E+00 -0.35946503307E+02  0.35946503307E+02  0.00000000000E+00 0.  1.
          5    1    1    2  502    0  0.62594579761E+02 -0.39746104780E+01  0.93225691247E+02  0.11245887449E+03  0.47000000000E+01 0.  1.
         -5    1    1    2    0  502 -0.25935004144E+02  0.78523772395E+02  0.21391257933E+03  0.22938894669E+03  0.47000000000E+01 0.  1.
        -11    1    1    2    0    0  0.25935349265E+01 -0.75861992165E+02  0.84845246434E+02  0.11384412203E+03  0.00000000000E+00 0.  1.
         11    1    1    2    0    0 -0.39253110543E+02  0.13128302482E+01  0.90141631056E+02  0.98326211460E+02  0.00000000000E+00 0. -1.
<mgrwt>
<rscale>  0 0.14191761E+03</rscale>
<asrwt>0</asrwt>
<pdfrwt beam="1">  1        1 0.79703325E-01 0.15008669E+03</pdfrwt>
<pdfrwt beam="2">  1       -1 0.55302317E-02 0.15008669E+03</pdfrwt>
<totfact> 0.62874716E+03</totfact>
</mgrwt>
</event>
<event>
 6    1  0.1045058E-005  0.2240709E+03  0.7546771E-02  0.1134030E+00
          2   -1    0    0  501    0  0.00000000000E+00  0.00000000000E+00  0.23986432455E+03  0.23986432455E+03  0.00000000000E+00 0.  1.
         -2   -1    0    0    0  501 -0.00000000000E+00 -0.00000000000E+00 -0.20001958728E+03  0.20001958728E+03  0.00000000000E+00 0. -1.
          5    1    1    2  502    0  0.16245266492E+03 -0.81770249452E+02  0.69410513898E+02  0.19472326896E+03  0.47000000000E+01 0. -1.
         -5    1    1    2    0  502 -0.14960692476E+02 -0.31495432432E+02 -0.10950511561E+02  0.36848178882E+02  0.47000000000E+01 0. -1.
        -11    1    1    2    0    0 -0.93582518803E+01  0.57337571292E+02 -0.10720237099E+02  0.59077046671E+02  0.00000000000E+00 0. -1.
         11    1    1    2    0    0 -0.13813372057E+03  0.55928110592E+02 -0.78950279677E+01  0.14923541731E+03  0.00000000000E+00 0.  1.
<mgrwt>
<rscale>  0 0.21980251E+03</rscale>
<asrwt>0</asrwt>
<pdfrwt beam="1">  1        2 0.36902203E-01 0.22407089E+03</pdfrwt>
<pdfrwt beam="2">  1       -2 0.30772244E-01 0.22407089E+03</pdfrwt>
<totfact> 0.13560016E+03</totfact>
</mgrwt>
</event>
<event>
 6    1  0.1045058E-005  0.1539300E+03  0.7546771E-02  0.1204211E+00
          1   -1    0    0  501    0  0.00000000000E+00  0.00000000000E+00  0.72694543080E+03  0.72694543080E+03  0.00000000000E+00 0. -1.
         -1   -1    0    0    0  501 -0.00000000000E+00 -0.00000000000E+00 -0.29315290580E+02  0.29315290580E+02  0.00000000000E+00 0.  1.
          5    1    1    2  502    0  0.73266709943E+02  0.27179071307E+02  0.35224640611E+03  0.36084114693E+03  0.47000000000E+01 0. -1.
         -5    1    1    2    0  502  0.88937010089E+01 -0.63507614362E+02  0.12425091088E+03  0.13990244406E+03  0.47000000000E+01 0. -1.
        -11    1    1    2    0    0 -0.10177485972E+03  0.36996828064E+02  0.19079513072E+03  0.21938475166E+03  0.00000000000E+00 0. -1.
         11    1    1    2    0    0  0.19614448764E+02 -0.66828500889E+00  0.30337692509E+02  0.36132378720E+02  0.00000000000E+00 0.  1.
<mgrwt>
<rscale>  0 0.14699835E+03</rscale>
<asrwt>0</asrwt>
<pdfrwt beam="1">  1        1 0.11183774E+00 0.15393002E+03</pdfrwt>
<pdfrwt beam="2">  1       -1 0.45100453E-02 0.15393002E+03</pdfrwt>
<totfact> 0.53392102E+03</totfact>
</mgrwt>
</event>
<event>
 6    1  0.1045058E-005  0.2734708E+03  0.7546771E-02  0.1139172E+00
         -2   -1    0    0    0  501 -0.00000000000E+00  0.00000000000E+00  0.48883862284E+02  0.48883862284E+02  0.00000000000E+00 0.  1.
          2   -1    0    0  501    0  0.00000000000E+00 -0.00000000000E+00 -0.73615763315E+03  0.73615763315E+03  0.00000000000E+00 0. -1.
          5    1    1    2  502    0  0.54408771065E+02  0.10037791631E+03 -0.10932615864E+03  0.15814657573E+03  0.47000000000E+01 0. -1.
         -5    1    1    2    0  502 -0.34298142901E+02 -0.11075457451E+03 -0.44621666535E+03  0.46105784975E+03  0.47000000000E+01 0.  1.
        -11    1    1    2    0    0 -0.12992967899E+02 -0.41443267956E+02 -0.86057038887E+02  0.96395931531E+02  0.00000000000E+00 0.  1.
         11    1    1    2    0    0 -0.71176602656E+01  0.51819926155E+02 -0.45673907979E+02  0.69441138415E+02  0.00000000000E+00 0. -1.
<mgrwt>
<rscale>  0 0.21305198E+03</rscale>
<asrwt>0</asrwt>
<pdfrwt beam="2">  1        2 0.11325502E+00 0.27347082E+03</pdfrwt>
<pdfrwt beam="1">  1       -2 0.75205942E-02 0.27347082E+03</pdfrwt>
<totfact> 0.40934553E+03</totfact>
</mgrwt>
</event>
<event>
 6    1  0.1045058E-005  0.1271468E+03  0.7546771E-02  0.1245748E+00
          1   -1    0    0  501    0  0.00000000000E+00  0.00000000000E+00  0.21452821114E+02  0.21452821114E+02  0.00000000000E+00 0. -1.
         -1   -1    0    0    0  501 -0.00000000000E+00 -0.00000000000E+00 -0.63667607258E+03  0.63667607258E+03  0.00000000000E+00 0.  1.
          5    1    1    2  502    0  0.42261141406E+02  0.25530806358E+02 -0.14539585202E+03  0.15362249162E+03  0.47000000000E+01 0. -1.
         -5    1    1    2    0  502 -0.57159733588E+02 -0.42823984242E+02 -0.10306376456E+03  0.12548050978E+03  0.47000000000E+01 0. -1.
        -11    1    1    2    0    0 -0.18635149131E+02  0.45253322663E+02 -0.24042999172E+03  0.24536037356E+03  0.00000000000E+00 0.  1.
         11    1    1    2    0    0  0.33533741313E+02 -0.27960144779E+02 -0.12633364318E+03  0.13366551874E+03  0.00000000000E+00 0. -1.
<mgrwt>
<rscale>  0 0.11840700E+03</rscale>
<asrwt>0</asrwt>
<pdfrwt beam="1">  1        1 0.33004338E-02 0.12714678E+03</pdfrwt>
<pdfrwt beam="2">  1       -1 0.97950172E-01 0.12714678E+03</pdfrwt>
<totfact> 0.30176082E+03</totfact>
</mgrwt>
</event>
<event>
 6    1  0.1045058E-005  0.3020593E+03  0.7546771E-02  0.1085774E+00
         -2   -1    0    0    0  501 -0.00000000000E+00  0.00000000000E+00  0.33787859851E+03  0.33787859851E+03  0.00000000000E+00 0.  1.
          2   -1    0    0  501    0  0.00000000000E+00 -0.00000000000E+00 -0.33578565752E+03  0.33578565752E+03  0.00000000000E+00 0. -1.
          5    1    1    2  502    0 -0.77402725184E+02 -0.12450115238E+03 -0.13970479560E+03  0.20256169116E+03  0.47000000000E+01 0.  1.
         -5    1    1    2    0  502 -0.60794342026E+01 -0.13749733162E+03 -0.20117487352E+02  0.13917355719E+03  0.47000000000E+01 0.  1.
        -11    1    1    2    0    0  0.82544885207E+01  0.15278131491E+03  0.11444652814E+03  0.19107138605E+03  0.00000000000E+00 0.  1.
         11    1    1    2    0    0  0.75227670866E+02  0.10921716910E+03  0.47468695802E+02  0.14085762163E+03  0.00000000000E+00 0. -1.
<mgrwt>
<rscale>  0 0.29893614E+03</rscale>
<asrwt>0</asrwt>
<pdfrwt beam="2">  1        2 0.51659332E-01 0.30205930E+03</pdfrwt>
<pdfrwt beam="1">  1       -2 0.51981323E-01 0.30205930E+03</pdfrwt>
<totfact> 0.34512682E+02</totfact>
</mgrwt>
</event>
<event>
 6    1  0.1045058E-005  0.1266049E+03  0.7546771E-02  0.1247910E+00
          2   -1    0    0  501    0  0.00000000000E+00  0.00000000000E+00  0.11936658629E+03  0.11936658629E+03  0.00000000000E+00 0. -1.
         -2   -1    0    0    0  501 -0.00000000000E+00 -0.00000000000E+00 -0.10077416335E+03  0.10077416335E+03  0.00000000000E+00 0.  1.
          5    1    1    2  502    0  0.37857827759E+02 -0.22866182862E+02  0.58278738200E+02  0.73311518655E+02  0.47000000000E+01 0. -1.
         -5    1    1    2    0  502 -0.24182236897E+02  0.81835196084E+01 -0.47106511668E+02  0.53785351314E+02  0.47000000000E+01 0. -1.
        -11    1    1    2    0    0  0.70063579483E+01 -0.12610670455E+02  0.41981165293E+02  0.44390723134E+02  0.00000000000E+00 0. -1.
         11    1    1    2    0    0 -0.20681948810E+02  0.27293333708E+02 -0.34560968886E+02  0.48653156546E+02  0.00000000000E+00 0.  1.
<mgrwt>
<rscale>  0 0.11712873E+03</rscale>
<asrwt>0</asrwt>
<pdfrwt beam="1">  1        2 0.18364090E-01 0.12660488E+03</pdfrwt>
<pdfrwt beam="2">  1       -2 0.15503717E-01 0.12660488E+03</pdfrwt>
<totfact> 0.93018810E+03</totfact>
</mgrwt>
</event>
<event>
 6    1  0.1045058E-005  0.4828752E+03  0.7546771E-02  0.1018348E+00
          2   -1    0    0  501    0  0.00000000000E+00  0.00000000000E+00  0.19807298304E+03  0.19807298304E+03  0.00000000000E+00 0. -1.
         -2   -1    0    0    0  501 -0.00000000000E+00 -0.00000000000E+00 -0.29429613511E+03  0.29429613511E+03  0.00000000000E+00 0.  1.
          5    1    1    2  502    0  0.80013024700E+01  0.43957653626E+01  0.15375343551E+03  0.15409591989E+03  0.47000000000E+01 0. -1.
         -5    1    1    2    0  502  0.44407936224E+02 -0.50199942822E+02 -0.43203441704E+01  0.67326476462E+02  0.47000000000E+01 0.  1.
        -11    1    1    2    0    0 -0.94583217735E+01  0.58853104730E+02 -0.19172799431E+03  0.20078040639E+03  0.00000000000E+00 0.  1.
         11    1    1    2    0    0 -0.42950916921E+02 -0.13048927270E+02 -0.53928249107E+02  0.70166315416E+02  0.00000000000E+00 0. -1.
<mgrwt>
<rscale>  0 0.48287519E+03</rscale>
<asrwt>0</asrwt>
<pdfrwt beam="1">  1        2 0.30472767E-01 0.48287519E+03</pdfrwt>
<pdfrwt beam="2">  1       -2 0.45276328E-01 0.48287519E+03</pdfrwt>
<totfact> 0.81186497E+02</totfact>
</mgrwt>
</event>
<event>
 6    1  0.1045058E-005  0.1656607E+03  0.7546771E-02  0.1188262E+00
          4   -1    0    0  501    0  0.00000000000E+00  0.00000000000E+00  0.12876881338E+03  0.12876881338E+03  0.00000000000E+00 0. -1.
         -4   -1    0    0    0  501 -0.00000000000E+00 -0.00000000000E+00 -0.24637747452E+03  0.24637747452E+03  0.00000000000E+00 0.  1.
          5    1    1    2  502    0 -0.12268815271E+01  0.75656522323E+02  0.56108312743E+02  0.94316739591E+02  0.47000000000E+01 0.  1.
         -5    1    1    2    0  502  0.68051062835E+02  0.10099524081E+02 -0.26678735217E+02  0.73937760667E+02  0.47000000000E+01 0.  1.
        -11    1    1    2    0    0 -0.25440959706E+02  0.19599328314E+02 -0.37570363074E+02  0.49425785604E+02  0.00000000000E+00 0. -1.
         11    1    1    2    0    0 -0.41383221602E+02 -0.10535537472E+03 -0.10946787559E+03  0.15746600204E+03  0.00000000000E+00 0.  1.
<mgrwt>
<rscale>  0 0.16038568E+03</rscale>
<asrwt>0</asrwt>
<pdfrwt beam="1">  1        4 0.19810587E-01 0.16566073E+03</pdfrwt>
<pdfrwt beam="2">  1       -4 0.37904227E-01 0.16566073E+03</pdfrwt>
<totfact> 0.26786576E+02</totfact>
</mgrwt>
</event>
<event>
 6    1  0.1045058E-005  0.1268788E+03  0.7546771E-02  0.1247906E+00
         -2   -1    0    0    0  501 -0.00000000000E+00  0.00000000000E+00  0.26996056235E+02  0.26996056235E+02  0.00000000000E+00 0.  1.
          2   -1    0    0  501    0  0.00000000000E+00 -0.00000000000E+00 -0.44886118612E+03  0.44886118612E+03  0.00000000000E+00 0. -1.
          5    1    1    2  502    0  0.89285570888E+01 -0.44959127386E+02 -0.37292765697E+02  0.59278011441E+02  0.47000000000E+01 0.  1.
         -5    1    1    2    0  502  0.10842523234E+02  0.54082388248E+02 -0.23045753895E+03  0.23701314792E+03  0.47000000000E+01 0.  1.
        -11    1    1    2    0    0 -0.39444762553E+02 -0.38116996535E+02 -0.11253629502E+03  0.12519270113E+03  0.00000000000E+00 0.  1.
         11    1    1    2    0    0  0.19673682230E+02  0.28993735672E+02 -0.41578530214E+02  0.54373381865E+02  0.00000000000E+00 0. -1.
<mgrwt>
<rscale>  0 0.11713099E+03</rscale>
<asrwt>0</asrwt>
<pdfrwt beam="2">  1        2 0.69055560E-01 0.12687878E+03</pdfrwt>
<pdfrwt beam="1">  1       -2 0.41532398E-02 0.12687878E+03</pdfrwt>
<totfact> 0.17084788E+04</totfact>
</mgrwt>
</event>
<event>
 6    1  0.1045058E-005  0.1326777E+03  0.7546771E-02  0.1231009E+00
         -1   -1    0    0    0  501 -0.00000000000E+00  0.00000000000E+00  0.15506956200E+02  0.15506956200E+02  0.00000000000E+00 0.  1.
          1   -1    0    0  501    0  0.00000000000E+00 -0.00000000000E+00 -0.10384808103E+04  0.10384808103E+04  0.00000000000E+00 0. -1.
          5    1    1    2  502    0 -0.16841306716E+02  0.47582662499E+02 -0.19758321604E+03  0.20398273614E+03  0.47000000000E+01 0. -1.
         -5    1    1    2    0  502  0.77272195024E+02 -0.16391241378E+02 -0.47796531257E+03  0.48447145936E+03  0.47000000000E+01 0.  1.
        -11    1    1    2    0    0 -0.51595510621E+02  0.11071837594E+02 -0.88543476567E+02  0.10307584366E+03  0.00000000000E+00 0.  1.
         11    1    1    2    0    0 -0.88353776866E+01 -0.42263258715E+02 -0.25888184889E+03  0.26245772731E+03  0.00000000000E+00 0. -1.
<mgrwt>
<rscale>  0 0.12763389E+03</rscale>
<asrwt>0</asrwt>
<pdfrwt beam="2">  1        1 0.15976627E+00 0.13267767E+03</pdfrwt>
<pdfrwt beam="1">  1       -1 0.23856858E-02 0.13267767E+03</pdfrwt>
<totfact> 0.76700847E+03</totfact>
</mgrwt>
</event>
<event>
 6    1  0.1045058E-005  0.1563176E+03  0.7546771E-02  0.1209366E+00
         -1   -1    0    0    0  501 -0.00000000000E+00  0.00000000000E+00  0.11817900599E+03  0.11817900599E+03  0.00000000000E+00 0.  1.
          1   -1    0    0  501    0  0.00000000000E+00 -0.00000000000E+00 -0.15648598156E+03  0.15648598156E+03  0.00000000000E+00 0. -1.
          5    1    1    2  502    0  0.58011019762E+02 -0.66047245872E+02 -0.64570496282E+02  0.10917397167E+03  0.47000000000E+01 0. -1.
         -5    1    1    2    0  502 -0.52861361934E+02  0.78954469417E+01  0.13406930109E+02  0.55303683809E+02  0.47000000000E+01 0.  1.
        -11    1    1    2    0    0  0.35518090613E+02  0.50481828651E+02  0.25691413784E+02  0.66858047586E+02  0.00000000000E+00 0.  1.
         11    1    1    2    0    0 -0.40667748442E+02  0.76699702793E+01 -0.12834823175E+02  0.43329284478E+02  0.00000000000E+00 0. -1.
<mgrwt>
<rscale>  0 0.14298638E+03</rscale>
<asrwt>0</asrwt>
<pdfrwt beam="2">  1        1 0.24074766E-01 0.15631759E+03</pdfrwt>
<pdfrwt beam="1">  1       -1 0.18181385E-01 0.15631759E+03</pdfrwt>
<totfact> 0.45685416E+03</totfact>
</mgrwt>
</event>
<event>
 6    1  0.1045058E-005  0.3084988E+03  0.7546771E-02  0.1082284E+00
          1   -1    0    0  501    0  0.00000000000E+00  0.00000000000E+00  0.77725527311E+03  0.77725527311E+03  0.00000000000E+00 0. -1.
         -1   -1    0    0    0  501 -0.00000000000E+00 -0.00000000000E+00 -0.14930795052E+03  0.14930795052E+03  0.00000000000E+00 0.  1.
          5    1    1    2  502    0  0.22824880045E+03 -0.14402223618E+03  0.46237889303E+03  0.53540288581E+03  0.47000000000E+01 0. -1.
         -5    1    1    2    0  502 -0.93000759685E+01 -0.37134849191E+02  0.65944563293E+02  0.76395444010E+02  0.47000000000E+01 0.  1.
        -11    1    1    2    0    0  0.81602630667E+00  0.17467632338E+02  0.25446542991E+02  0.30875728795E+02  0.00000000000E+00 0. -1.
         11    1    1    2    0    0 -0.21976475078E+03  0.16368945303E+03  0.74177323282E+02  0.28388916501E+03  0.00000000000E+00 0.  1.
<mgrwt>
<rscale>  0 0.30598950E+03</rscale>
<asrwt>0</asrwt>
<pdfrwt beam="1">  1        1 0.11957773E+00 0.30849882E+03</pdfrwt>
<pdfrwt beam="2">  1       -1 0.22970454E-01 0.30849882E+03</pdfrwt>
<totfact> 0.38769075E+02</totfact>
</mgrwt>
</event>
<event>
 6    1  0.1045058E-005  0.1962038E+03  0.7546771E-02  0.1175417E+00
          3   -1    0    0  501    0  0.00000000000E+00  0.00000000000E+00  0.12781850852E+04  0.12781850852E+04  0.00000000000E+00 0. -1.
         -3   -1    0    0    0  501 -0.00000000000E+00 -0.00000000000E+00 -0.31903503769E+02  0.31903503769E+02  0.00000000000E+00 0.  1.
          5    1    1    2  502    0  0.89331834090E+02 -0.94213570690E+02  0.85291020414E+03  0.86274809754E+03  0.47000000000E+01 0. -1.
         -5    1    1    2    0  502 -0.27560390419E+02  0.56124577620E+02  0.27098996016E+03  0.27814958537E+03  0.47000000000E+01 0.  1.
        -11    1    1    2    0    0 -0.61963803588E+02 -0.68089733212E+00  0.11365513362E+03  0.12945063142E+03  0.00000000000E+00 0. -1.
         11    1    1    2    0    0  0.19235991749E+00  0.38769890402E+02  0.87262835018E+01  0.39740274633E+02  0.00000000000E+00 0.  1.
<mgrwt>
<rscale>  0 0.17235173E+03</rscale>
<asrwt>0</asrwt>
<pdfrwt beam="1">  1        3 0.19664382E+00 0.19620383E+03</pdfrwt>
<pdfrwt beam="2">  1       -3 0.49082323E-02 0.19620383E+03</pdfrwt>
<totfact> 0.96740762E+01</totfact>
</mgrwt>
</event>
<event>
 6    1  0.1045058E-005  0.2676555E+03  0.7546771E-02  0.1102629E+00
         -3   -1    0    0    0  501 -0.00000000000E+00  0.00000000000E+00  0.47264089025E+03  0.47264089025E+03  0.00000000000E+00 0.  1.
          3   -1    0    0  501    0  0.00000000000E+00 -0.00000000000E+00 -0.37893182876E+02  0.37893182876E+02  0.00000000000E+00 0. -1.
          5    1    1    2  502    0  0.28931734364E+02 -0.10677774414E+03  0.15350107508E+03  0.18927018240E+03  0.47000000000E+01 0.  1.
         -5    1    1    2    0  502 -0.15640756102E+02  0.29133627776E+02  0.84529486395E+02  0.90888533870E+02  0.47000000000E+01 0.  1.
        -11    1    1    2    0    0 -0.31333240244E+02  0.31634252515E+02  0.23703450503E+02  0.50441564629E+02  0.00000000000E+00 0. -1.
         11    1    1    2    0    0  0.18042261982E+02  0.46009863849E+02  0.17301369539E+03  0.17993379222E+03  0.00000000000E+00 0.  1.
<mgrwt>
<rscale>  0 0.26765551E+03</rscale>
<asrwt>0</asrwt>
<pdfrwt beam="2">  1        3 0.58297208E-02 0.26765551E+03</pdfrwt>
<pdfrwt beam="1">  1       -3 0.72713979E-01 0.26765551E+03</pdfrwt>
<totfact> 0.82852265E+02</totfact>
</mgrwt>
</event>
<event>
 6    1  0.1509156E-005  0.2698540E+03  0.7546771E-02  0.1103395E+00
          1   -1    0    0  501    0  0.00000000000E+00  0.00000000000E+00  0.40825115973E+03  0.40825115973E+03  0.00000000000E+00 0. -1.
         -1   -1    0    0    0  501 -0.00000000000E+00 -0.00000000000E+00 -0.16937443831E+03  0.16937443831E+03  0.00000000000E+00 0.  1.
          5    1    1    2  502    0  0.72013362738E+02  0.10535744730E+03  0.24346001156E+01  0.12772679199E+03  0.47000000000E+01 0. -1.
         -5    1    1    2    0  502  0.13051083933E+02  0.11816258406E+03  0.11872462080E+03  0.16807841220E+03  0.47000000000E+01 0. -1.
        -11    1    1    2    0    0  0.13797155184E+02 -0.82541164415E+02  0.43528870308E+02  0.94330100522E+02  0.00000000000E+00 0.  1.
         11    1    1    2    0    0 -0.98861601856E+02 -0.14097886694E+03  0.74188630195E+02  0.18749029334E+03  0.00000000000E+00 0. -1.
<mgrwt>
<rscale>  0 0.26633662E+03</rscale>
<asrwt>0</asrwt>
<pdfrwt beam="1">  1        1 0.62807871E-01 0.26985396E+03</pdfrwt>
<pdfrwt beam="2">  1       -1 0.26057606E-01 0.26985396E+03</pdfrwt>
<totfact> 0.76854629E+02</totfact>
</mgrwt>
</event>
<event>
 6    1  0.1045058E-005  0.1566261E+03  0.7546771E-02  0.1200684E+00
         -2   -1    0    0    0  501 -0.00000000000E+00  0.00000000000E+00  0.30821739463E+03  0.30821739463E+03  0.00000000000E+00 0.  1.
          2   -1    0    0  501    0  0.00000000000E+00 -0.00000000000E+00 -0.74136397827E+02  0.74136397827E+02  0.00000000000E+00 0. -1.
          5    1    1    2  502    0 -0.67614680425E+02  0.77525145749E+01 -0.22654823008E+02  0.71883082131E+02  0.47000000000E+01 0. -1.
         -5    1    1    2    0  502 -0.23845912262E+02 -0.30988437440E+02  0.90708117442E+02  0.98888641191E+02  0.47000000000E+01 0. -1.
        -11    1    1    2    0    0  0.29114608816E+02 -0.16777409897E+02  0.45338179953E+01  0.33907188544E+02  0.00000000000E+00 0. -1.
         11    1    1    2    0    0  0.62345983871E+02  0.40013332762E+02  0.16149388438E+03  0.17767488060E+03  0.00000000000E+00 0.  1.
<mgrwt>
<rscale>  0 0.14982860E+03</rscale>
<asrwt>0</asrwt>
<pdfrwt beam="2">  1        2 0.11405600E-01 0.15662609E+03</pdfrwt>
<pdfrwt beam="1">  1       -2 0.47418060E-01 0.15662609E+03</pdfrwt>
<totfact> 0.22591263E+03</totfact>
</mgrwt>
</event>
<event>
 6    1  0.1045058E-005  0.1264337E+03  0.7546771E-02  0.1248365E+00
          2   -1    0    0  501    0  0.00000000000E+00  0.00000000000E+00  0.28913197625E+03  0.28913197625E+03  0.00000000000E+00 0. -1.
         -2   -1    0    0    0  501 -0.00000000000E+00 -0.00000000000E+00 -0.42240754671E+02  0.42240754671E+02  0.00000000000E+00 0.  1.
          5    1    1    2  502    0  0.18884037481E+02 -0.58184427148E+02  0.34753894403E+02  0.70512109671E+02  0.47000000000E+01 0.  1.
         -5    1    1    2    0  502 -0.90392680017E+01  0.41951654876E+02  0.13118048129E+03  0.13810162340E+03  0.47000000000E+01 0.  1.
        -11    1    1    2    0    0 -0.19117643298E+02  0.31655282199E+02  0.93683389341E+02  0.10071801534E+03  0.00000000000E+00 0. -1.
         11    1    1    2    0    0  0.92728738183E+01 -0.15422509928E+02 -0.12726543461E+02  0.22040982505E+02  0.00000000000E+00 0.  1.
<mgrwt>
<rscale>  0 0.11686245E+03</rscale>
<asrwt>0</asrwt>
<pdfrwt beam="1">  1        2 0.44481841E-01 0.12643367E+03</pdfrwt>
<pdfrwt beam="2">  1       -2 0.64985778E-02 0.12643367E+03</pdfrwt>
<totfact> 0.13912723E+04</totfact>
</mgrwt>
</event>
<event>
 6    1  0.1045058E-005  0.3012167E+03  0.7546771E-02  0.1084634E+00
         -1   -1    0    0    0  501 -0.00000000000E+00  0.00000000000E+00  0.13158486083E+03  0.13158486083E+03  0.00000000000E+00 0.  1.
          1   -1    0    0  501    0  0.00000000000E+00 -0.00000000000E+00 -0.17238207755E+03  0.17238207755E+03  0.00000000000E+00 0. -1.
          5    1    1    2  502    0  0.22527970044E+02 -0.11905712568E+02  0.17899109144E+02  0.31491642291E+02  0.47000000000E+01 0. -1.
         -5    1    1    2    0  502 -0.77809330005E+02  0.99966913840E+02 -0.38022501783E+02  0.13234604769E+03  0.47000000000E+01 0. -1.
        -11    1    1    2    0    0  0.52025206645E+01 -0.67258253279E+02  0.22180803365E+02  0.71012160179E+02  0.00000000000E+00 0.  1.
         11    1    1    2    0    0  0.50078839296E+02 -0.20802947993E+02 -0.42854627445E+02  0.69117088219E+02  0.00000000000E+00 0. -1.
<mgrwt>
<rscale>  0 0.30121668E+03</rscale>
<asrwt>0</asrwt>
<pdfrwt beam="2">  1        1 0.26520319E-01 0.30121668E+03</pdfrwt>
<pdfrwt beam="1">  1       -1 0.20243825E-01 0.30121668E+03</pdfrwt>
<totfact> 0.34991400E+03</totfact>
</mgrwt>
</event>
<event>
 6    1  0.1045058E-005  0.1333023E+03  0.7546771E-02  0.1235516E+00
          1   -1    0    0  501    0  0.00000000000E+00  0.00000000000E+00  0.70926067015E+03  0.70926067015E+03  0.00000000000E+00 0. -1.
         -1   -1    0    0    0  501 -0.00000000000E+00 -0.00000000000E+00 -0.21882562440E+02  0.21882562440E+02  0.00000000000E+00 0.  1.
          5    1    1    2  502    0  0.30768808427E+01 -0.46781543770E+02  0.19859058683E+03  0.20410362861E+03  0.47000000000E+01 0. -1.
         -5    1    1    2    0  502 -0.38682361065E+02  0.76401081068E+02  0.30445809388E+03  0.31630724173E+03  0.47000000000E+01 0. -1.
        -11    1    1    2    0    0 -0.19558377353E+02 -0.15588625492E+02  0.93060706181E+01  0.26685919879E+02  0.00000000000E+00 0.  1.
         11    1    1    2    0    0  0.55163857576E+02 -0.14030911806E+02  0.17502335638E+03  0.18404644237E+03  0.00000000000E+00 0. -1.
<mgrwt>
<rscale>  0 0.12471476E+03</rscale>
<asrwt>0</asrwt>
<pdfrwt beam="1">  1        1 0.10911701E+00 0.13330228E+03</pdfrwt>
<pdfrwt beam="2">  1       -1 0.33665486E-02 0.13330228E+03</pdfrwt>
<totfact> 0.84377594E+03</totfact>
</mgrwt>
</event>
<event>
 6    1  0.1045058E-005  0.1410416E+03  0.7546771E-02  0.1222317E+00
          3   -1    0    0  501    0  0.00000000000E+00  0.00000000000E+00  0.31196175775E+03  0.31196175775E+03  0.00000000000E+00 0. -1.
         -3   -1    0    0    0  501 -0.00000000000E+00 -0.00000000000E+00 -0.82431400371E+02  0.82431400371E+02  0.00000000000E+00 0.  1.
          5    1    1    2  502    0 -0.31538135375E+02  0.13716412574E+02  0.10542048989E+03  0.11098812389E+03  0.47000000000E+01 0.  1.
         -5    1    1    2    0  502  0.89031605695E+02 -0.44751328860E+02  0.13690010715E+03  0.16939019330E+03  0.47000000000E+01 0.  1.
        -11    1    1    2    0    0 -0.23607901801E+02 -0.22850317726E+02 -0.33650214402E+02  0.47029851976E+02  0.00000000000E+00 0.  1.
         11    1    1    2    0    0 -0.33885568520E+02  0.53885234012E+02  0.20859974732E+02  0.66984988947E+02  0.00000000000E+00 0. -1.
<mgrwt>
<rscale>  0 0.13352520E+03</rscale>
<asrwt>0</asrwt>
<pdfrwt beam="1">  1        3 0.47994116E-01 0.14104159E+03</pdfrwt>
<pdfrwt beam="2">  1       -3 0.12681754E-01 0.14104159E+03</pdfrwt>
<totfact> 0.50065795E+02</totfact>
</mgrwt>
</event>
<event>
 6    1  0.1272019E-005  0.1819120E+03  0.7546771E-02  0.1171292E+00
         -1   -1    0    0    0  501 -0.00000000000E+00  0.00000000000E+00  0.47059227749E+02  0.47059227749E+02  0.00000000000E+00 0.  1.
          1   -1    0    0  501    0  0.00000000000E+00 -0.00000000000E+00 -0.64494067697E+03  0.64494067697E+03  0.00000000000E+00 0. -1.
          5    1    1    2  502    0  0.71072938111E+02 -0.67417351479E+02 -0.11988978475E+03  0.15489387431E+03  0.47000000000E+01 0. -1.
         -5    1    1    2    0  502 -0.20117569553E+02 -0.54525871145E+02 -0.25793112046E+03  0.26443967201E+03  0.47000000000E+01 0. -1.
        -11    1    1    2    0    0 -0.27150368686E+02  0.54371613526E+02 -0.26550151204E+02  0.66319871879E+02  0.00000000000E+00 0.  1.
         11    1    1    2    0    0 -0.23804999872E+02  0.67571609099E+02 -0.19351039280E+03  0.20634648651E+03  0.00000000000E+00 0. -1.
<mgrwt>
<rscale>  0 0.17644163E+03</rscale>
<asrwt>0</asrwt>
<pdfrwt beam="2">  1        1 0.99221636E-01 0.18191203E+03</pdfrwt>
<pdfrwt beam="1">  1       -1 0.72398817E-02 0.18191203E+03</pdfrwt>
<totfact> 0.31424596E+03</totfact>
</mgrwt>
</event>
<event>
 6    1  0.1045058E-005  0.1827127E+03  0.7546771E-02  0.1170906E+00
          1   -1    0    0  501    0  0.00000000000E+00  0.00000000000E+00  0.23036303855E+03  0.23036303855E+03  0.00000000000E+00 0. -1.
         -1   -1    0    0    0  501 -0.00000000000E+00 -0.00000000000E+00 -0.12824470094E+03  0.12824470094E+03  0.00000000000E+00 0.  1.
          5    1    1    2  502    0 -0.11318146025E+02 -0.10719717927E+03  0.99719185223E+02  0.14691950713E+03  0.47000000000E+01 0. -1.
         -5    1    1    2    0  502  0.21034830366E+02 -0.25686541625E+02 -0.33523290815E+02  0.47414802924E+02  0.47000000000E+01 0. -1.
        -11    1    1    2    0    0  0.20128023392E+02  0.10152751929E+03  0.54721768975E+02  0.11707880466E+03  0.00000000000E+00 0. -1.
         11    1    1    2    0    0 -0.29844707734E+02  0.31356201601E+02 -0.18799325771E+02  0.47194624779E+02  0.00000000000E+00 0.  1.
<mgrwt>
<rscale>  0 0.17683097E+03</rscale>
<asrwt>0</asrwt>
<pdfrwt beam="1">  1        1 0.35440467E-01 0.18271269E+03</pdfrwt>
<pdfrwt beam="2">  1       -1 0.19729954E-01 0.18271269E+03</pdfrwt>
<totfact> 0.24843585E+03</totfact>
</mgrwt>
</event>
<event>
 6    1  0.1045058E-005  0.2884082E+03  0.7546771E-02  0.1091183E+00
         -2   -1    0    0    0  501 -0.00000000000E+00  0.00000000000E+00  0.40088889635E+02  0.40088889635E+02  0.00000000000E+00 0.  1.
          2   -1    0    0  501    0  0.00000000000E+00 -0.00000000000E+00 -0.51871789566E+03  0.51871789566E+03  0.00000000000E+00 0. -1.
          5    1    1    2  502    0  0.25482029732E+02 -0.41045057264E+02 -0.63767434868E+02  0.80139917112E+02  0.47000000000E+01 0. -1.
         -5    1    1    2    0  502  0.32986772644E+02  0.93135205577E+02 -0.13896832019E+03  0.17057718987E+03  0.47000000000E+01 0. -1.
        -11    1    1    2    0    0 -0.57410943898E+02 -0.10962570758E+02 -0.25563425724E+03  0.26223094384E+03  0.00000000000E+00 0. -1.
         11    1    1    2    0    0 -0.10578584784E+01 -0.41127577556E+02 -0.20258993728E+02  0.45858734469E+02  0.00000000000E+00 0.  1.
<mgrwt>
<rscale>  0 0.28840821E+03</rscale>
<asrwt>0</asrwt>
<pdfrwt beam="2">  1        2 0.79802749E-01 0.28840821E+03</pdfrwt>
<pdfrwt beam="1">  1       -2 0.61675218E-02 0.28840821E+03</pdfrwt>
<totfact> 0.84422516E+03</totfact>
</mgrwt>
</event>
<event>
 6    1  0.1045058E-005  0.5639703E+03  0.7546771E-02  0.9983111E-01
          2   -1    0    0  501    0  0.00000000000E+00  0.00000000000E+00  0.37315574248E+03  0.37315574248E+03  0.00000000000E+00 0. -1.
         -2   -1    0    0    0  501 -0.00000000000E+00 -0.00000000000E+00 -0.21308966149E+03  0.21308966149E+03  0.00000000000E+00 0.  1.
          5    1    1    2  502    0 -0.47031341608E+02  0.12081224963E+03  0.24474989994E+03  0.27700568636E+03  0.47000000000E+01 0. -1.
         -5    1    1    2    0  502 -0.90680152547E+01 -0.71914773196E+02  0.18684106749E+02  0.75000995657E+02  0.47000000000E+01 0.  1.
        -11    1    1    2    0    0 -0.11123806933E+02 -0.99964998378E+02  0.25247480611E+00  0.10058232312E+03  0.00000000000E+00 0.  1.
         11    1    1    2    0    0  0.67223163795E+02  0.51067521942E+02 -0.10362040051E+03  0.13365639883E+03  0.00000000000E+00 0. -1.
<mgrwt>
<rscale>  0 0.56397032E+03</rscale>
<asrwt>0</asrwt>
<pdfrwt beam="1">  1        2 0.57408576E-01 0.56397032E+03</pdfrwt>
<pdfrwt beam="2">  1       -2 0.32783025E-01 0.56397032E+03</pdfrwt>
<totfact> 0.74996120E+02</totfact>
</mgrwt>
</event>
<event>
 6    1  0.1045058E-005  0.4302963E+03  0.7546771E-02  0.1033766E+00
         -1   -1    0    0    0  501 -0.00000000000E+00  0.00000000000E+00  0.47646960933E+02  0.47646960933E+02  0.00000000000E+00 0.  1.
          1   -1    0    0  501    0  0.00000000000E+00 -0.00000000000E+00 -0.97149357573E+03  0.97149357573E+03  0.00000000000E+00 0. -1.
          5    1    1    2  502    0  0.18139015441E+02  0.27660534419E+02 -0.23331247207E+03  0.23569244508E+03  0.47000000000E+01 0. -1.
         -5    1    1    2    0  502 -0.13293429064E+03  0.94206166157E+02 -0.43595725816E+03  0.46543221666E+03  0.47000000000E+01 0. -1.
        -11    1    1    2    0    0  0.36776596473E+02 -0.64729792865E+02 -0.44458120722E+02  0.86712101984E+02  0.00000000000E+00 0.  1.
         11    1    1    2    0    0  0.78018678721E+02 -0.57136907712E+02 -0.21011876386E+03  0.23130377294E+03  0.00000000000E+00 0. -1.
<mgrwt>
<rscale>  0 0.43029625E+03</rscale>
<asrwt>0</asrwt>
<pdfrwt beam="2">  1        1 0.14946053E+00 0.43029625E+03</pdfrwt>
<pdfrwt beam="1">  1       -1 0.73303026E-02 0.43029625E+03</pdfrwt>
<totfact> 0.16546897E+03</totfact>
</mgrwt>
</event>
<event>
 6    1  0.1045058E-005  0.2319511E+03  0.7546771E-02  0.1128089E+00
          2   -1    0    0  501    0  0.00000000000E+00  0.00000000000E+00  0.34754962387E+03  0.34754962387E+03  0.00000000000E+00 0. -1.
         -2   -1    0    0    0  501 -0.00000000000E+00 -0.00000000000E+00 -0.15588814443E+03  0.15588814443E+03  0.00000000000E+00 0.  1.
          5    1    1    2  502    0  0.18251607859E+03 -0.84593533263E+02  0.12121076509E+03  0.23490918328E+03  0.47000000000E+01 0.  1.
         -5    1    1    2    0  502  0.25254467414E+01  0.21823361304E+02  0.45477056882E+02  0.50723659987E+02  0.47000000000E+01 0.  1.
        -11    1    1    2    0    0 -0.91428932618E+02 -0.89245553730E+01 -0.15453439553E+02  0.93154206573E+02  0.00000000000E+00 0. -1.
         11    1    1    2    0    0 -0.93612592713E+02  0.71694727332E+02  0.40427097020E+02  0.12465071847E+03  0.00000000000E+00 0.  1.
<mgrwt>
<rscale>  0 0.22795322E+03</rscale>
<asrwt>0</asrwt>
<pdfrwt beam="1">  1        2 0.53469173E-01 0.23195105E+03</pdfrwt>
<pdfrwt beam="2">  1       -2 0.23982792E-01 0.23195105E+03</pdfrwt>
<totfact> 0.14206398E+03</totfact>
</mgrwt>
</event>
<event>
 6    1  0.1045058E-005  0.5188133E+03  0.7546771E-02  0.1008982E+00
          2   -1    0    0  501    0  0.00000000000E+00  0.00000000000E+00  0.10905044703E+04  0.10905044703E+04  0.00000000000E+00 0.  1.
         -2   -1    0    0    0  501 -0.00000000000E+00 -0.00000000000E+00 -0.61707045097E+02  0.61707045097E+02  0.00000000000E+00 0. -1.
          5    1    1    2  502    0  0.44281157655E+02  0.12860556881E+03  0.93442804522E+03  0.94428707231E+03  0.47000000000E+01 0. -1.
         -5    1    1    2    0  502 -0.15737658106E+02 -0.14512428958E+02  0.44891729444E+02  0.49956399484E+02  0.47000000000E+01 0. -1.
        -11    1    1    2    0    0  0.12392579026E+02 -0.58807768284E+02 -0.16841615874E+02  0.62414498722E+02  0.00000000000E+00 0. -1.
         11    1    1    2    0    0 -0.40936078574E+02 -0.55285371567E+02  0.66319266377E+02  0.95553544838E+02  0.00000000000E+00 0.  1.
<mgrwt>
<rscale>  0 0.51881329E+03</rscale>
<asrwt>0</asrwt>
<pdfrwt beam="1">  1        2 0.16776990E+00 0.51881329E+03</pdfrwt>
<pdfrwt beam="2">  1       -2 0.94933924E-02 0.51881329E+03</pdfrwt>
<totfact> 0.16640446E+03</totfact>
</mgrwt>
</event>
<event>
 6    1  0.1045058E-005  0.1444456E+03  0.7546771E-02  0.1218605E+00
         -2   -1    0    0    0  501 -0.00000000000E+00  0.00000000000E+00  0.23511106652E+02  0.23511106652E+02  0.00000000000E+00 0. -1.
          2   -1    0    0  501    0  0.00000000000E+00 -0.00000000000E+00 -0.79360671427E+03  0.79360671427E+03  0.00000000000E+00 0.  1.
          5    1    1    2  502    0  0.23889838204E+02 -0.47849342864E+02 -0.16851368425E+03  0.17685936719E+03  0.47000000000E+01 0.  1.
         -5    1    1    2    0  502  0.41646770950E+02  0.78582808699E+02 -0.38864658928E+03  0.39872041923E+03  0.47000000000E+01 0.  1.
        -11    1    1    2    0    0 -0.62732531892E+02 -0.58694042512E+02 -0.15957326435E+03  0.18122910329E+03  0.00000000000E+00 0. -1.
         11    1    1    2    0    0 -0.28040772622E+01  0.27960576678E+02 -0.53362069735E+02  0.60308931211E+02  0.00000000000E+00 0.  1.
<mgrwt>
<rscale>  0 0.13614998E+03</rscale>
<asrwt>0</asrwt>
<pdfrwt beam="2">  1        2 0.12209334E+00 0.14444556E+03</pdfrwt>
<pdfrwt beam="1">  1       -2 0.36170932E-02 0.14444556E+03</pdfrwt>
<totfact> 0.11030218E+04</totfact>
</mgrwt>
</event>
<event>
 6    1  0.1045058E-005  0.1259608E+03  0.7546771E-02  0.1268231E+00
          2   -1    0    0  501    0  0.00000000000E+00  0.00000000000E+00  0.17579402906E+04  0.17579402906E+04  0.00000000000E+00 0.  1.
         -2   -1    0    0    0  501 -0.00000000000E+00 -0.00000000000E+00 -0.57950024137E+01  0.57950024137E+01  0.00000000000E+00 0. -1.
          5    1    1    2  502    0 -0.39653144483E+02 -0.46752884504E+02  0.66578859305E+03  0.66862152577E+03  0.47000000000E+01 0. -1.
         -5    1    1    2    0  502  0.28446806131E+02  0.57541233166E+02  0.75967674557E+03  0.76239823062E+03  0.47000000000E+01 0. -1.
        -11    1    1    2    0    0  0.32445082194E+02  0.93419301745E+01  0.16775019510E+03  0.17111423954E+03  0.00000000000E+00 0. -1.
         11    1    1    2    0    0 -0.21238743842E+02 -0.20130278837E+02  0.15892975443E+03  0.16160129706E+03  0.00000000000E+00 0.  1.
<mgrwt>
<rscale>  0 0.10596431E+03</rscale>
<asrwt>0</asrwt>
<pdfrwt beam="1">  1        2 0.27045193E+00 0.12596075E+03</pdfrwt>
<pdfrwt beam="2">  1       -2 0.89154024E-03 0.12596075E+03</pdfrwt>
<totfact> 0.24104716E+04</totfact>
</mgrwt>
</event>
<event>
 6    1  0.1045058E-005  0.3611313E+03  0.7546771E-02  0.1059310E+00
          2   -1    0    0  501    0  0.00000000000E+00  0.00000000000E+00  0.65532110553E+03  0.65532110553E+03  0.00000000000E+00 0. -1.
         -2   -1    0    0    0  501 -0.00000000000E+00 -0.00000000000E+00 -0.22940418760E+03  0.22940418760E+03  0.00000000000E+00 0.  1.
          5    1    1    2  502    0  0.17468858147E+03  0.14395174160E+03  0.17605894100E+03  0.28680489031E+03  0.47000000000E+01 0.  1.
         -5    1    1    2    0  502  0.11199961328E+03  0.36605433323E+02  0.21695949928E+03  0.24693599465E+03  0.47000000000E+01 0.  1.
        -11    1    1    2    0    0 -0.16229758527E+03 -0.72675230399E+02 -0.17762334256E+02  0.17871120787E+03  0.00000000000E+00 0.  1.
         11    1    1    2    0    0 -0.12439060948E+03 -0.10788194452E+03  0.50660811897E+02  0.17227320030E+03  0.00000000000E+00 0. -1.
<mgrwt>
<rscale>  0 0.35817212E+03</rscale>
<asrwt>0</asrwt>
<pdfrwt beam="1">  1        2 0.10081863E+00 0.36113133E+03</pdfrwt>
<pdfrwt beam="2">  1       -2 0.35292952E-01 0.36113133E+03</pdfrwt>
<totfact> 0.34400480E+02</totfact>
</mgrwt>
</event>
<event>
 6    1  0.1045058E-005  0.1314791E+03  0.7546771E-02  0.1239731E+00
         -2   -1    0    0    0  501 -0.00000000000E+00  0.00000000000E+00  0.62921716140E+02  0.62921716140E+02  0.00000000000E+00 0.  1.
          2   -1    0    0  501    0  0.00000000000E+00 -0.00000000000E+00 -0.24066905612E+03  0.24066905612E+03  0.00000000000E+00 0. -1.
          5    1    1    2  502    0  0.12878786737E+01  0.61847365083E+02 -0.65419221129E+02  0.90158303513E+02  0.47000000000E+01 0.  1.
         -5    1    1    2    0  502  0.39121629959E+02 -0.56678564524E+02 -0.89674558761E+02  0.11316615261E+03  0.47000000000E+01 0.  1.
        -11    1    1    2    0    0 -0.29496731659E+02 -0.27401700478E+02 -0.49456989776E+02  0.63772283990E+02  0.00000000000E+00 0. -1.
         11    1    1    2    0    0 -0.10912776974E+02  0.22232899918E+02  0.26803429683E+02  0.36494032153E+02  0.00000000000E+00 0.  1.
<mgrwt>
<rscale>  0 0.12206382E+03</rscale>
<asrwt>0</asrwt>
<pdfrwt beam="2">  1        2 0.37026008E-01 0.13147910E+03</pdfrwt>
<pdfrwt beam="1">  1       -2 0.96802642E-02 0.13147910E+03</pdfrwt>
<totfact> 0.91717128E+03</totfact>
</mgrwt>
</event>
<event>
 6    1  0.1045058E-005  0.1437160E+03  0.7546771E-02  0.1223220E+00
         -2   -1    0    0    0  501 -0.00000000000E+00  0.00000000000E+00  0.14453836432E+03  0.14453836432E+03  0.00000000000E+00 0.  1.
          2   -1    0    0  501    0  0.00000000000E+00 -0.00000000000E+00 -0.14957319198E+03  0.14957319198E+03  0.00000000000E+00 0. -1.
          5    1    1    2  502    0  0.35440025157E+02 -0.19132655781E+02  0.17588420791E+02  0.44198376059E+02  0.47000000000E+01 0.  1.
         -5    1    1    2    0  502 -0.48148253988E+02 -0.50639464673E+02 -0.98098413177E+02  0.12053214680E+03  0.47000000000E+01 0.  1.
        -11    1    1    2    0    0  0.82043365282E+00  0.47407730028E+02 -0.24151428687E+01  0.47476298222E+02  0.00000000000E+00 0. -1.
         11    1    1    2    0    0  0.11887795179E+02  0.22364390426E+02  0.77890307601E+02  0.81904735220E+02  0.00000000000E+00 0.  1.
<mgrwt>
<rscale>  0 0.13289678E+03</rscale>
<asrwt>0</asrwt>
<pdfrwt beam="2">  1        2 0.23011260E-01 0.14371599E+03</pdfrwt>
<pdfrwt beam="1">  1       -2 0.22236671E-01 0.14371599E+03</pdfrwt>
<totfact> 0.39753799E+03</totfact>
</mgrwt>
</event>
<event>
 6    1  0.1045058E-005  0.3053338E+03  0.7546771E-02  0.1084076E+00
          2   -1    0    0  501    0  0.00000000000E+00  0.00000000000E+00  0.96933990233E+03  0.96933990233E+03  0.00000000000E+00 0. -1.
         -2   -1    0    0    0  501 -0.00000000000E+00 -0.00000000000E+00 -0.10024242249E+03  0.10024242249E+03  0.00000000000E+00 0.  1.
          5    1    1    2  502    0  0.14508062499E+03  0.16115219289E+03  0.33091486121E+03  0.39565787290E+03  0.47000000000E+01 0. -1.
         -5    1    1    2    0  502  0.68355833272E+02  0.17869164230E+02  0.26014160641E+03  0.26960632848E+03  0.47000000000E+01 0. -1.
        -11    1    1    2    0    0 -0.31559654813E+02  0.79570799927E+01  0.34998838932E+02  0.47793782655E+02  0.00000000000E+00 0. -1.
         11    1    1    2    0    0 -0.18187680345E+03 -0.18697843711E+03  0.24304217329E+03  0.35652434079E+03  0.00000000000E+00 0.  1.
<mgrwt>
<rscale>  0 0.30234190E+03</rscale>
<asrwt>0</asrwt>
<pdfrwt beam="1">  1        2 0.14912921E+00 0.30533377E+03</pdfrwt>
<pdfrwt beam="2">  1       -2 0.15421912E-01 0.30533377E+03</pdfrwt>
<totfact> 0.89749842E+02</totfact>
</mgrwt>
</event>
<event>
 6    1  0.1045058E-005  0.3359211E+03  0.7546771E-02  0.1068547E+00
         -3   -1    0    0    0  501 -0.00000000000E+00  0.00000000000E+00  0.85396238641E+02  0.85396238641E+02  0.00000000000E+00 0.  1.
          3   -1    0    0  501    0  0.00000000000E+00 -0.00000000000E+00 -0.33035114940E+03  0.33035114940E+03  0.00000000000E+00 0. -1.
          5    1    1    2  502    0  0.95831468383E+02  0.61623746550E+02 -0.19919288527E+03  0.22952353259E+03  0.47000000000E+01 0. -1.
         -5    1    1    2    0  502 -0.18043126788E+02 -0.30766652458E+02 -0.51127725732E+02  0.62516203230E+02  0.47000000000E+01 0. -1.
        -11    1    1    2    0    0 -0.51165750349E+02  0.10091123861E+02 -0.32899354437E+02  0.61661432938E+02  0.00000000000E+00 0. -1.
         11    1    1    2    0    0 -0.26622591245E+02 -0.40948217953E+02  0.38265054677E+02  0.62046219285E+02  0.00000000000E+00 0.  1.
<mgrwt>
<rscale>  0 0.33592110E+03</rscale>
<asrwt>0</asrwt>
<pdfrwt beam="2">  1        3 0.50823254E-01 0.33592110E+03</pdfrwt>
<pdfrwt beam="1">  1       -3 0.13137883E-01 0.33592110E+03</pdfrwt>
<totfact> 0.46549320E+02</totfact>
</mgrwt>
</event>
<event>
 6    1  0.1045058E-005  0.2434211E+03  0.7546771E-02  0.1144281E+00
         -1   -1    0    0    0  501 -0.00000000000E+00  0.00000000000E+00  0.10525845569E+03  0.10525845569E+03  0.00000000000E+00 0.  1.
          1   -1    0    0  501    0  0.00000000000E+00 -0.00000000000E+00 -0.40703579661E+03  0.40703579661E+03  0.00000000000E+00 0. -1.
          5    1    1    2  502    0 -0.13200003231E+02  0.16341558546E+03 -0.21423297460E+03  0.26980873051E+03  0.47000000000E+01 0. -1.
         -5    1    1    2    0  502  0.16986443612E+02 -0.76854749437E+02 -0.85261575095E+02  0.11613276009E+03  0.47000000000E+01 0.  1.
        -11    1    1    2    0    0  0.35935830370E+02 -0.16820558539E+02  0.18000785086E+02  0.43569982300E+02  0.00000000000E+00 0.  1.
         11    1    1    2    0    0 -0.39722270751E+02 -0.69740277482E+02 -0.20283576309E+02  0.82782779398E+02  0.00000000000E+00 0. -1.
<mgrwt>
<rscale>  0 0.20660802E+03</rscale>
<asrwt>0</asrwt>
<pdfrwt beam="2">  1        1 0.62620893E-01 0.24342113E+03</pdfrwt>
<pdfrwt beam="1">  1       -1 0.16193608E-01 0.24342113E+03</pdfrwt>
<totfact> 0.16783651E+03</totfact>
</mgrwt>
</event>
<event>
 6    1  0.1045058E-005  0.1378710E+03  0.7546771E-02  0.1224131E+00
          1   -1    0    0  501    0  0.00000000000E+00  0.00000000000E+00  0.72857395669E+03  0.72857395669E+03  0.00000000000E+00 0. -1.
         -1   -1    0    0    0  501 -0.00000000000E+00 -0.00000000000E+00 -0.23013223764E+02  0.23013223764E+02  0.00000000000E+00 0.  1.
          5    1    1    2  502    0 -0.45490701412E+02  0.75704056272E+02  0.20233904113E+03  0.22082501130E+03  0.47000000000E+01 0.  1.
         -5    1    1    2    0  502  0.72637332603E+01 -0.31858275684E+02  0.24681677827E+03  0.24901470556E+03  0.47000000000E+01 0.  1.
        -11    1    1    2    0    0  0.44271554353E+02 -0.66402154997E+02  0.12514680780E+03  0.14842823255E+03  0.00000000000E+00 0.  1.
         11    1    1    2    0    0 -0.60445862011E+01  0.22556374409E+02  0.13125810572E+03  0.13331923105E+03  0.00000000000E+00 0. -1.
<mgrwt>
<rscale>  0 0.13226627E+03</rscale>
<asrwt>0</asrwt>
<pdfrwt beam="1">  1        1 0.11208828E+00 0.13787099E+03</pdfrwt>
<pdfrwt beam="2">  1       -1 0.35404965E-02 0.13787099E+03</pdfrwt>
<totfact> 0.75553662E+03</totfact>
</mgrwt>
</event>
<event>
 6    1  0.1045058E-005  0.1292729E+03  0.7546771E-02  0.1243067E+00
          1   -1    0    0  501    0  0.00000000000E+00  0.00000000000E+00  0.10062026595E+03  0.10062026595E+03  0.00000000000E+00 0.  1.
         -1   -1    0    0    0  501 -0.00000000000E+00 -0.00000000000E+00 -0.12765058030E+03  0.12765058030E+03  0.00000000000E+00 0. -1.
          5    1    1    2  502    0  0.90362978387E+01 -0.41609441358E+02  0.25628173746E+02  0.49918869962E+02  0.47000000000E+01 0. -1.
         -5    1    1    2    0  502 -0.28801545388E+02  0.67980085379E+02 -0.28816649456E+02  0.79393389591E+02  0.47000000000E+01 0. -1.
        -11    1    1    2    0    0  0.12889996777E+02  0.19422188149E+02  0.23243495884E+02  0.32918589130E+02  0.00000000000E+00 0.  1.
         11    1    1    2    0    0  0.68752507718E+01 -0.45792832170E+02 -0.47085334525E+02  0.66039997567E+02  0.00000000000E+00 0. -1.
<mgrwt>
<rscale>  0 0.12001839E+03</rscale>
<asrwt>0</asrwt>
<pdfrwt beam="1">  1        1 0.15480041E-01 0.12927294E+03</pdfrwt>
<pdfrwt beam="2">  1       -1 0.19638551E-01 0.12927294E+03</pdfrwt>
<totfact> 0.70081635E+03</totfact>
</mgrwt>
</event>
<event>
 6    1  0.1045058E-005  0.1259050E+03  0.7546771E-02  0.1249024E+00
         -3   -1    0    0    0  501 -0.00000000000E+00  0.00000000000E+00  0.84318896311E+02  0.84318896311E+02  0.00000000000E+00 0.  1.
          3   -1    0    0  501    0  0.00000000000E+00 -0.00000000000E+00 -0.14301998704E+03  0.14301998704E+03  0.00000000000E+00 0. -1.
          5    1    1    2  502    0  0.16964102550E+02 -0.42440284088E+02  0.20315806305E+02  0.50237241909E+02  0.47000000000E+01 0.  1.
         -5    1    1    2    0  502 -0.31689707782E+02  0.39100644979E+02 -0.67254051463E+02  0.84132606374E+02  0.47000000000E+01 0.  1.
        -11    1    1    2    0    0 -0.62572301564E+01 -0.10415326433E+02  0.36557249674E+02  0.38523557178E+02  0.00000000000E+00 0.  1.
         11    1    1    2    0    0  0.20982835388E+02  0.13754965542E+02 -0.48320095241E+02  0.54445477885E+02  0.00000000000E+00 0. -1.
<mgrwt>
<rscale>  0 0.11647712E+03</rscale>
<asrwt>0</asrwt>
<pdfrwt beam="2">  1        3 0.22003075E-01 0.12590495E+03</pdfrwt>
<pdfrwt beam="1">  1       -3 0.12972138E-01 0.12590495E+03</pdfrwt>
<totfact> 0.20376782E+03</totfact>
</mgrwt>
</event>
<event>
 6    1  0.1045058E-005  0.1858331E+03  0.7546771E-02  0.1167615E+00
          2   -1    0    0  501    0  0.00000000000E+00  0.00000000000E+00  0.12148883223E+04  0.12148883223E+04  0.00000000000E+00 0. -1.
         -2   -1    0    0    0  501 -0.00000000000E+00 -0.00000000000E+00 -0.25275184609E+02  0.25275184609E+02  0.00000000000E+00 0.  1.
          5    1    1    2  502    0 -0.89730232611E+01 -0.72472531294E+02  0.21843589554E+03  0.23036734447E+03  0.47000000000E+01 0.  1.
         -5    1    1    2    0  502  0.10865937131E+03 -0.22226396194E+02  0.44041822753E+03  0.45419288502E+03  0.47000000000E+01 0.  1.
        -11    1    1    2    0    0 -0.11424070373E+02  0.70578612469E+02  0.19883734005E+03  0.21130105944E+03  0.00000000000E+00 0. -1.
         11    1    1    2    0    0 -0.88262277673E+02  0.24120315018E+02  0.33192167462E+03  0.34430221803E+03  0.00000000000E+00 0.  1.
<mgrwt>
<rscale>  0 0.18019488E+03</rscale>
<asrwt>0</asrwt>
<pdfrwt beam="1">  1        2 0.18690585E+00 0.18583313E+03</pdfrwt>
<pdfrwt beam="2">  1       -2 0.38884909E-02 0.18583313E+03</pdfrwt>
<totfact> 0.55581978E+03</totfact>
</mgrwt>
</event>
<event>
 6    1  0.1045058E-005  0.1324083E+03  0.7546771E-02  0.1237659E+00
         -2   -1    0    0    0  501 -0.00000000000E+00  0.00000000000E+00  0.13783319806E+02  0.13783319806E+02  0.00000000000E+00 0. -1.
          2   -1    0    0  501    0  0.00000000000E+00 -0.00000000000E+00 -0.11711962158E+04  0.11711962158E+04  0.00000000000E+00 0.  1.
          5    1    1    2  502    0 -0.17234055237E+02 -0.34312503669E+02 -0.53652100707E+03  0.53791378639E+03  0.47000000000E+01 0.  1.
         -5    1    1    2    0  502  0.57349189572E+02  0.51575134890E+02 -0.34903041867E+03  0.35748181386E+03  0.47000000000E+01 0.  1.
        -11    1    1    2    0    0 -0.49624618674E+02  0.48099601482E+01 -0.25594897468E+03  0.26075969040E+03  0.00000000000E+00 0.  1.
         11    1    1    2    0    0  0.95094843395E+01 -0.22072591369E+02 -0.15912495588E+02  0.28824244968E+02  0.00000000000E+00 0. -1.
<mgrwt>
<rscale>  0 0.12335743E+03</rscale>
<asrwt>0</asrwt>
<pdfrwt beam="2">  1        2 0.18018413E+00 0.13240828E+03</pdfrwt>
<pdfrwt beam="1">  1       -2 0.21205096E-02 0.13240828E+03</pdfrwt>
<totfact> 0.14152568E+04</totfact>
</mgrwt>
</event>
<event>
 6    1  0.1045058E-005  0.1866283E+03  0.7546771E-02  0.1166678E+00
          2   -1    0    0  501    0  0.00000000000E+00  0.00000000000E+00  0.14574252009E+04  0.14574252009E+04  0.00000000000E+00 0.  1.
         -2   -1    0    0    0  501 -0.00000000000E+00 -0.00000000000E+00 -0.27453937087E+02  0.27453937087E+02  0.00000000000E+00 0. -1.
          5    1    1    2  502    0 -0.92533005806E+02  0.99325990739E+01  0.32533087858E+03  0.33841289019E+03  0.47000000000E+01 0. -1.
         -5    1    1    2    0  502 -0.28760383060E+02  0.57099946457E+02  0.77369119571E+03  0.77634252740E+03  0.47000000000E+01 0. -1.
        -11    1    1    2    0    0  0.81965148039E+02 -0.50837484254E+02  0.30594028647E+03  0.32078371870E+03  0.00000000000E+00 0.  1.
         11    1    1    2    0    0  0.39328240826E+02 -0.16195061278E+02  0.25008903050E+02  0.49340001702E+02  0.00000000000E+00 0. -1.
<mgrwt>
<rscale>  0 0.18116696E+03</rscale>
<asrwt>0</asrwt>
<pdfrwt beam="1">  1        2 0.22421920E+00 0.18662830E+03</pdfrwt>
<pdfrwt beam="2">  1       -2 0.42236838E-02 0.18662830E+03</pdfrwt>
<totfact> 0.36257799E+03</totfact>
</mgrwt>
</event>
<event>
 6    1  0.1045058E-005  0.1547936E+03  0.7546771E-02  0.1203019E+00
         -2   -1    0    0    0  501 -0.00000000000E+00  0.00000000000E+00  0.61737723876E+03  0.61737723876E+03  0.00000000000E+00 0. -1.
          2   -1    0    0  501    0  0.00000000000E+00 -0.00000000000E+00 -0.32657235257E+02  0.32657235257E+02  0.00000000000E+00 0.  1.
          5    1    1    2  502    0  0.62058178789E+02 -0.58626860525E+02  0.28691769119E+03  0.29938633544E+03  0.47000000000E+01 0. -1.
         -5    1    1    2    0  502 -0.32685069058E+02 -0.27822362955E+02  0.27844654744E+02  0.51379104873E+02  0.47000000000E+01 0. -1.
        -11    1    1    2    0    0  0.10646353911E+02  0.24596742922E+02  0.92511920221E+01  0.28353644701E+02  0.00000000000E+00 0.  1.
         11    1    1    2    0    0 -0.40019463642E+02  0.61852480557E+02  0.26070646555E+03  0.27091538900E+03  0.00000000000E+00 0. -1.
<mgrwt>
<rscale>  0 0.14794658E+03</rscale>
<asrwt>0</asrwt>
<pdfrwt beam="2">  1        2 0.50241905E-02 0.15479360E+03</pdfrwt>
<pdfrwt beam="1">  1       -2 0.94981105E-01 0.15479360E+03</pdfrwt>
<totfact> 0.14678846E+03</totfact>
</mgrwt>
</event>
<event>
 6    1  0.1045058E-005  0.3746085E+03  0.7546771E-02  0.1053668E+00
          2   -1    0    0  501    0  0.00000000000E+00  0.00000000000E+00  0.25785905593E+04  0.25785905593E+04  0.00000000000E+00 0. -1.
         -2   -1    0    0    0  501 -0.00000000000E+00 -0.00000000000E+00 -0.55961380037E+02  0.55961380037E+02  0.00000000000E+00 0.  1.
          5    1    1    2  502    0 -0.22399421632E+03 -0.86831997184E+02  0.78905815970E+03  0.82483214903E+03  0.47000000000E+01 0. -1.
         -5    1    1    2    0  502 -0.11434192558E+03 -0.14339373463E+02  0.77060934658E+03  0.77919224111E+03  0.47000000000E+01 0. -1.
        -11    1    1    2    0    0  0.24463818816E+03  0.60632519723E+02  0.79476414503E+03  0.83377106676E+03  0.00000000000E+00 0.  1.
         11    1    1    2    0    0  0.93697953741E+02  0.40538850924E+02  0.16819752799E+03  0.19675648246E+03  0.00000000000E+00 0. -1.
<mgrwt>
<rscale>  0 0.37269268E+03</rscale>
<asrwt>0</asrwt>
<pdfrwt beam="1">  1        2 0.39670615E+00 0.37460848E+03</pdfrwt>
<pdfrwt beam="2">  1       -2 0.86094451E-02 0.37460848E+03</pdfrwt>
<totfact> 0.29933838E+02</totfact>
</mgrwt>
</event>
<event>
 6    1  0.1045058E-005  0.1376877E+03  0.7546771E-02  0.1228397E+00
          3   -1    0    0  501    0  0.00000000000E+00  0.00000000000E+00  0.36096276442E+02  0.36096276442E+02  0.00000000000E+00 0. -1.
         -3   -1    0    0    0  501 -0.00000000000E+00 -0.00000000000E+00 -0.42076725808E+03  0.42076725808E+03  0.00000000000E+00 0.  1.
          5    1    1    2  502    0 -0.17893803767E+02 -0.93234085387E+02 -0.15378686652E+03  0.18079068894E+03  0.47000000000E+01 0. -1.
         -5    1    1    2    0  502 -0.35125459480E+01  0.39613853120E+02 -0.37237908792E+02  0.54684067051E+02  0.47000000000E+01 0. -1.
        -11    1    1    2    0    0 -0.91799770034E+00 -0.24129192263E+02 -0.65909729878E+02  0.70193682990E+02  0.00000000000E+00 0.  1.
         11    1    1    2    0    0  0.22324347415E+02  0.77749424530E+02 -0.12773647644E+03  0.15119509554E+03  0.00000000000E+00 0. -1.
<mgrwt>
<rscale>  0 0.12936751E+03</rscale>
<asrwt>0</asrwt>
<pdfrwt beam="1">  1        3 0.55532732E-02 0.13768768E+03</pdfrwt>
<pdfrwt beam="2">  1       -3 0.64733425E-01 0.13768768E+03</pdfrwt>
<totfact> 0.10463074E+03</totfact>
</mgrwt>
</event>
<event>
 6    1  0.1045058E-005  0.2692601E+03  0.7546771E-02  0.1101704E+00
         -1   -1    0    0    0  501 -0.00000000000E+00  0.00000000000E+00  0.32754228919E+03  0.32754228919E+03  0.00000000000E+00 0.  1.
          1   -1    0    0  501    0  0.00000000000E+00 -0.00000000000E+00 -0.55337117051E+02  0.55337117051E+02  0.00000000000E+00 0. -1.
          5    1    1    2  502    0 -0.75864895686E+02  0.83619060389E+02  0.12002835862E+03  0.16485304526E+03  0.47000000000E+01 0. -1.
         -5    1    1    2    0  502  0.25280569833E+02 -0.22537873644E+02  0.50218575126E+02  0.60754080086E+02  0.47000000000E+01 0. -1.
        -11    1    1    2    0    0 -0.10848796456E+02 -0.51371287786E+02  0.69539535531E+02  0.87134680783E+02  0.00000000000E+00 0. -1.
         11    1    1    2    0    0  0.61433122309E+02 -0.97098989583E+01  0.32418702862E+02  0.70137600113E+02  0.00000000000E+00 0.  1.
<mgrwt>
<rscale>  0 0.26926007E+03</rscale>
<asrwt>0</asrwt>
<pdfrwt beam="2">  1        1 0.85134028E-02 0.26926007E+03</pdfrwt>
<pdfrwt beam="1">  1       -1 0.50391120E-01 0.26926007E+03</pdfrwt>
<totfact> 0.32183520E+03</totfact>
</mgrwt>
</event>
<event>
 6    1  0.1045058E-005  0.1143645E+03  0.7546771E-02  0.1262100E+00
          1   -1    0    0  501    0  0.00000000000E+00  0.00000000000E+00  0.61045081160E+03  0.61045081160E+03  0.00000000000E+00 0. -1.
         -1   -1    0    0    0  501 -0.00000000000E+00 -0.00000000000E+00 -0.19278176033E+02  0.19278176033E+02  0.00000000000E+00 0.  1.
          5    1    1    2  502    0 -0.29430624288E+02  0.17417789929E+02  0.35762603411E+03  0.35928820093E+03  0.47000000000E+01 0. -1.
         -5    1    1    2    0  502  0.69031046142E+01 -0.37898774989E+02  0.45779939923E+02  0.60015522145E+02  0.47000000000E+01 0.  1.
        -11    1    1    2    0    0  0.46212669142E+02 -0.54799976891E+01  0.50247096503E+02  0.68486581685E+02  0.00000000000E+00 0.  1.
         11    1    1    2    0    0 -0.23685149468E+02  0.25960982749E+02  0.13751956503E+03  0.14193868288E+03  0.00000000000E+00 0. -1.
<mgrwt>
<rscale>  0 0.10917773E+03</rscale>
<asrwt>0</asrwt>
<pdfrwt beam="1">  1        1 0.93915495E-01 0.11436447E+03</pdfrwt>
<pdfrwt beam="2">  1       -1 0.29658737E-02 0.11436447E+03</pdfrwt>
<totfact> 0.12376273E+04</totfact>
</mgrwt>
</event>
<event>
 6    1  0.1045058E-005  0.3553404E+03  0.7546771E-02  0.1060444E+00
          3   -1    0    0  501    0  0.00000000000E+00  0.00000000000E+00  0.16832000150E+03  0.16832000150E+03  0.00000000000E+00 0. -1.
         -3   -1    0    0    0  501 -0.00000000000E+00 -0.00000000000E+00 -0.18753976611E+03  0.18753976611E+03  0.00000000000E+00 0.  1.
          5    1    1    2  502    0 -0.54866729601E+01 -0.34841311464E+02 -0.18725733074E+02  0.40208999538E+02  0.47000000000E+01 0.  1.
         -5    1    1    2    0  502 -0.12365881557E+03  0.41844750242E+02  0.63014479603E+02  0.14503585912E+03  0.47000000000E+01 0.  1.
        -11    1    1    2    0    0  0.79087231700E+02 -0.17228604673E+02 -0.82997757778E+02  0.11593206128E+03  0.00000000000E+00 0.  1.
         11    1    1    2    0    0  0.50058256835E+02  0.10225165895E+02  0.19489246638E+02  0.54682847671E+02  0.00000000000E+00 0. -1.
<mgrwt>
<rscale>  0 0.35534036E+03</rscale>
<asrwt>0</asrwt>
<pdfrwt beam="1">  1        3 0.25895385E-01 0.35534036E+03</pdfrwt>
<pdfrwt beam="2">  1       -3 0.28852272E-01 0.35534036E+03</pdfrwt>
<totfact> 0.42179483E+02</totfact>
</mgrwt>
</event>
<event>
 6    1  0.1045058E-005  0.1290986E+03  0.7546771E-02  0.1242054E+00
          3   -1    0    0  501    0  0.00000000000E+00  0.00000000000E+00  0.23556085413E+03  0.23556085413E+03  0.00000000000E+00 0. -1.
         -3   -1    0    0    0  501 -0.00000000000E+00 -0.00000000000E+00 -0.56763888507E+02  0.56763888507E+02  0.00000000000E+00 0.  1.
          5    1    1    2  502    0  0.45746515325E+01  0.62530624876E+02  0.46035274231E+02  0.77925239541E+02  0.47000000000E+01 0. -1.
         -5    1    1    2    0  502  0.27326848382E+02 -0.57616381028E+02  0.80979119244E+02  0.10317999689E+03  0.47000000000E+01 0. -1.
        -11    1    1    2    0    0 -0.53034922751E+02 -0.18093679033E+02  0.26077770771E+01  0.56097101115E+02  0.00000000000E+00 0.  1.
         11    1    1    2    0    0  0.21133422837E+02  0.13179435185E+02  0.49174795073E+02  0.55122405092E+02  0.00000000000E+00 0. -1.
<mgrwt>
<rscale>  0 0.12063473E+03</rscale>
<asrwt>0</asrwt>
<pdfrwt beam="1">  1        3 0.36240131E-01 0.12909861E+03</pdfrwt>
<pdfrwt beam="2">  1       -3 0.87329060E-02 0.12909861E+03</pdfrwt>
<totfact> 0.15807740E+03</totfact>
</mgrwt>
</event>
<event>
 6    1  0.1045058E-005  0.1264466E+03  0.7546771E-02  0.1244969E+00
          3   -1    0    0  501    0  0.00000000000E+00  0.00000000000E+00  0.26051853908E+02  0.26051853908E+02  0.00000000000E+00 0. -1.
         -3   -1    0    0    0  501 -0.00000000000E+00 -0.00000000000E+00 -0.50358135975E+03  0.50358135975E+03  0.00000000000E+00 0.  1.
          5    1    1    2  502    0  0.40369726012E+01 -0.59135777545E+02 -0.18747632563E+03  0.19667943463E+03  0.47000000000E+01 0.  1.
         -5    1    1    2    0  502  0.92719778924E+01  0.45365822818E+02 -0.31553766266E+02  0.56229508441E+02  0.47000000000E+01 0.  1.
        -11    1    1    2    0    0 -0.35786415739E+02  0.24952669578E+02 -0.24371487523E+03  0.24758886017E+03  0.00000000000E+00 0.  1.
         11    1    1    2    0    0  0.22477465245E+02 -0.11182714851E+02 -0.14784538712E+02  0.29135410418E+02  0.00000000000E+00 0. -1.
<mgrwt>
<rscale>  0 0.11887223E+03</rscale>
<asrwt>0</asrwt>
<pdfrwt beam="1">  1        3 0.40079775E-02 0.12644664E+03</pdfrwt>
<pdfrwt beam="2">  1       -3 0.77474055E-01 0.12644664E+03</pdfrwt>
<totfact> 0.11787254E+03</totfact>
</mgrwt>
</event>
<event>
 6    1  0.1045058E-005  0.1403408E+03  0.7546771E-02  0.1232063E+00
          3   -1    0    0  501    0  0.00000000000E+00  0.00000000000E+00  0.89233678907E+02  0.89233678907E+02  0.00000000000E+00 0. -1.
         -3   -1    0    0    0  501 -0.00000000000E+00 -0.00000000000E+00 -0.15427687785E+03  0.15427687785E+03  0.00000000000E+00 0.  1.
          5    1    1    2  502    0  0.59177789271E+01  0.56260490047E+02  0.20261116802E+02  0.60273258596E+02  0.47000000000E+01 0. -1.
         -5    1    1    2    0  502 -0.18688936843E+02 -0.62326343395E+02 -0.52460399742E+02  0.83713995141E+02  0.47000000000E+01 0.  1.
        -11    1    1    2    0    0  0.52024319238E+02 -0.71642025599E+01 -0.17653506218E+02  0.55403085404E+02  0.00000000000E+00 0. -1.
         11    1    1    2    0    0 -0.39253161321E+02  0.13230055908E+02 -0.15190409783E+02  0.44120217616E+02  0.00000000000E+00 0.  1.
<mgrwt>
<rscale>  0 0.12694320E+03</rscale>
<asrwt>0</asrwt>
<pdfrwt beam="1">  1        3 0.13728258E-01 0.14034078E+03</pdfrwt>
<pdfrwt beam="2">  1       -3 0.23734904E-01 0.14034078E+03</pdfrwt>
<totfact> 0.16475837E+03</totfact>
</mgrwt>
</event>
<event>
 6    1  0.1045058E-005  0.1714502E+03  0.7546771E-02  0.1182237E+00
         -1   -1    0    0    0  501 -0.00000000000E+00  0.00000000000E+00  0.34480887231E+02  0.34480887231E+02  0.00000000000E+00 0.  1.
          1   -1    0    0  501    0  0.00000000000E+00 -0.00000000000E+00 -0.82846257775E+03  0.82846257775E+03  0.00000000000E+00 0. -1.
          5    1    1    2  502    0 -0.17939591338E+02 -0.57558677287E+01 -0.94236854652E+01  0.21583669716E+02  0.47000000000E+01 0.  1.
         -5    1    1    2    0  502  0.95689599525E+01  0.12280020819E+03 -0.54396672212E+03  0.55775742119E+03  0.47000000000E+01 0.  1.
        -11    1    1    2    0    0 -0.28028970424E+02 -0.47448568401E+00 -0.44825029400E+02  0.52869003967E+02  0.00000000000E+00 0.  1.
         11    1    1    2    0    0  0.36399601809E+02 -0.11656985478E+03 -0.19576625353E+03  0.23073337010E+03  0.00000000000E+00 0. -1.
<mgrwt>
<rscale>  0 0.16585839E+03</rscale>
<asrwt>0</asrwt>
<pdfrwt beam="2">  1        1 0.12745578E+00 0.17145016E+03</pdfrwt>
<pdfrwt beam="1">  1       -1 0.53047521E-02 0.17145016E+03</pdfrwt>
<totfact> 0.34634088E+03</totfact>
</mgrwt>
</event>
<event>
 6    1  0.1045058E-005  0.1348766E+03  0.7546771E-02  0.1241442E+00
         -4   -1    0    0    0  501 -0.00000000000E+00  0.00000000000E+00  0.42354974894E+03  0.42354974894E+03  0.00000000000E+00 0.  1.
          4   -1    0    0  501    0  0.00000000000E+00 -0.00000000000E+00 -0.30769217382E+02  0.30769217382E+02  0.00000000000E+00 0. -1.
          5    1    1    2  502    0 -0.25888246917E+02  0.35290251072E+02  0.15574054462E+02  0.46693086442E+02  0.47000000000E+01 0. -1.
         -5    1    1    2    0  502  0.64398631124E+02 -0.18091319826E+02  0.16975832318E+03  0.18252248583E+03  0.47000000000E+01 0.  1.
        -11    1    1    2    0    0 -0.29169593226E+02 -0.33117466172E+02  0.20063179670E+03  0.20542821029E+03  0.00000000000E+00 0.  1.
         11    1    1    2    0    0 -0.93407909810E+01  0.15918534926E+02  0.68163572074E+01  0.19675183758E+02  0.00000000000E+00 0. -1.
<mgrwt>
<rscale>  0 0.12100862E+03</rscale>
<asrwt>0</asrwt>
<pdfrwt beam="2">  1        4 0.47337260E-02 0.13487657E+03</pdfrwt>
<pdfrwt beam="1">  1       -4 0.65161496E-01 0.13487657E+03</pdfrwt>
<totfact> 0.95886753E+02</totfact>
</mgrwt>
</event>
<event>
 6    1  0.1045058E-005  0.4545453E+03  0.7546771E-02  0.1026375E+00
         -1   -1    0    0    0  501 -0.00000000000E+00  0.00000000000E+00  0.46209971757E+02  0.46209971757E+02  0.00000000000E+00 0.  1.
          1   -1    0    0  501    0  0.00000000000E+00 -0.00000000000E+00 -0.11177859500E+04  0.11177859500E+04  0.00000000000E+00 0. -1.
          5    1    1    2  502    0 -0.17179307022E+03 -0.88288866180E+02 -0.61564528787E+03  0.64525110875E+03  0.47000000000E+01 0.  1.
         -5    1    1    2    0  502  0.74284094034E+01  0.14783514011E+02 -0.15532440381E+03  0.15627377890E+03  0.47000000000E+01 0.  1.
        -11    1    1    2    0    0  0.53360600202E+02  0.17893163848E+02 -0.27866260343E+02  0.62801651507E+02  0.00000000000E+00 0.  1.
         11    1    1    2    0    0  0.11100406062E+03  0.55612188321E+02 -0.27274002621E+03  0.29966938259E+03  0.00000000000E+00 0. -1.
<mgrwt>
<rscale>  0 0.45454530E+03</rscale>
<asrwt>0</asrwt>
<pdfrwt beam="2">  1        1 0.17196707E+00 0.45454530E+03</pdfrwt>
<pdfrwt beam="1">  1       -1 0.71092263E-02 0.45454530E+03</pdfrwt>
<totfact> 0.13470376E+03</totfact>
</mgrwt>
</event>
<event>
 6    1  0.1045058E-005  0.4069239E+03  0.7546771E-02  0.1041408E+00
         -2   -1    0    0    0  501 -0.00000000000E+00  0.00000000000E+00  0.35956088696E+02  0.35956088696E+02  0.00000000000E+00 0.  1.
          2   -1    0    0  501    0  0.00000000000E+00 -0.00000000000E+00 -0.11513144579E+04  0.11513144579E+04  0.00000000000E+00 0. -1.
          5    1    1    2  502    0  0.45048888208E+02 -0.24060166241E+02 -0.13249830211E+03  0.14207809117E+03  0.47000000000E+01 0.  1.
         -5    1    1    2    0  502 -0.67502989508E+02 -0.14618051270E+03 -0.43623173461E+03  0.46502216309E+03  0.47000000000E+01 0.  1.
        -11    1    1    2    0    0  0.13162395066E+02  0.97921365410E+02 -0.44026117239E+03  0.45121141648E+03  0.00000000000E+00 0. -1.
         11    1    1    2    0    0  0.92917062343E+01  0.72319313536E+02 -0.10636716010E+03  0.12895887586E+03  0.00000000000E+00 0.  1.
<mgrwt>
<rscale>  0 0.40692390E+03</rscale>
<asrwt>0</asrwt>
<pdfrwt beam="2">  1        2 0.17712530E+00 0.40692390E+03</pdfrwt>
<pdfrwt beam="1">  1       -2 0.55317060E-02 0.40692390E+03</pdfrwt>
<totfact> 0.35869773E+03</totfact>
</mgrwt>
</event>
<event>
 6    1  0.1045058E-005  0.1667542E+03  0.7546771E-02  0.1190464E+00
         -4   -1    0    0    0  501 -0.00000000000E+00  0.00000000000E+00  0.78919843888E+03  0.78919843888E+03  0.00000000000E+00 0. -1.
          4   -1    0    0  501    0  0.00000000000E+00 -0.00000000000E+00 -0.45030476809E+02  0.45030476809E+02  0.00000000000E+00 0.  1.
          5    1    1    2  502    0 -0.29423083759E+02  0.54244069386E+02  0.35575333693E+02  0.71385091502E+02  0.47000000000E+01 0. -1.
         -5    1    1    2    0  502  0.95580709483E+02  0.34099158577E+02  0.11305686181E+03  0.15199463360E+03  0.47000000000E+01 0. -1.
        -11    1    1    2    0    0 -0.15542912624E+01 -0.67893889703E+02  0.27978558807E+03  0.28790965835E+03  0.00000000000E+00 0. -1.
         11    1    1    2    0    0 -0.64603334462E+02 -0.20449338260E+02  0.31575017850E+03  0.32293953224E+03  0.00000000000E+00 0.  1.
<mgrwt>
<rscale>  0 0.15844459E+03</rscale>
<asrwt>0</asrwt>
<pdfrwt beam="2">  1        4 0.69277662E-02 0.16675423E+03</pdfrwt>
<pdfrwt beam="1">  1       -4 0.12141513E+00 0.16675423E+03</pdfrwt>
<totfact> 0.13093569E+02</totfact>
</mgrwt>
</event>
<event>
 6    1  0.1045058E-005  0.1275956E+03  0.7546771E-02  0.1246318E+00
         -1   -1    0    0    0  501 -0.00000000000E+00  0.00000000000E+00  0.92551125167E+02  0.92551125167E+02  0.00000000000E+00 0.  1.
          1   -1    0    0  501    0  0.00000000000E+00 -0.00000000000E+00 -0.16259785559E+03  0.16259785559E+03  0.00000000000E+00 0. -1.
          5    1    1    2  502    0  0.11571401996E+02 -0.71310026561E+02 -0.82123458800E+02  0.10947771334E+03  0.47000000000E+01 0.  1.
         -5    1    1    2    0  502 -0.27383303160E+01  0.47275378200E+02 -0.11997566104E+02  0.49076383621E+02  0.47000000000E+01 0.  1.
        -11    1    1    2    0    0 -0.32748245056E+00 -0.27445016002E+02 -0.15120116959E+02  0.31336146620E+02  0.00000000000E+00 0. -1.
         11    1    1    2    0    0 -0.85055892295E+01  0.51479664363E+02  0.39194411435E+02  0.65258737184E+02  0.00000000000E+00 0.  1.
<mgrwt>
<rscale>  0 0.11806848E+03</rscale>
<asrwt>0</asrwt>
<pdfrwt beam="2">  1        1 0.25015055E-01 0.12759559E+03</pdfrwt>
<pdfrwt beam="1">  1       -1 0.14238635E-01 0.12759559E+03</pdfrwt>
<totfact> 0.63209531E+03</totfact>
</mgrwt>
</event>
<event>
 6    1  0.1198258E-005  0.1313131E+03  0.7546771E-02  0.1239606E+00
          1   -1    0    0  501    0  0.00000000000E+00  0.00000000000E+00  0.69864199067E+02  0.69864199067E+02  0.00000000000E+00 0. -1.
         -1   -1    0    0    0  501 -0.00000000000E+00 -0.00000000000E+00 -0.18865299405E+03  0.18865299405E+03  0.00000000000E+00 0.  1.
          5    1    1    2  502    0  0.68103349209E+02 -0.45638925080E+02 -0.60127093324E+02  0.10177590583E+03  0.47000000000E+01 0. -1.
         -5    1    1    2    0  502 -0.29648129982E+02  0.33824616006E+02 -0.72076931931E+01  0.45794727868E+02  0.47000000000E+01 0. -1.
        -11    1    1    2    0    0 -0.29911824618E+02  0.20838419496E+02 -0.75521790329E+02  0.83859989229E+02  0.00000000000E+00 0.  1.
         11    1    1    2    0    0 -0.85433946092E+01 -0.90241104209E+01  0.24067781868E+02  0.27086570185E+02  0.00000000000E+00 0. -1.
<mgrwt>
<rscale>  0 0.12214120E+03</rscale>
<asrwt>0</asrwt>
<pdfrwt beam="1">  1        1 0.10748339E-01 0.13131306E+03</pdfrwt>
<pdfrwt beam="2">  1       -1 0.29023537E-01 0.13131306E+03</pdfrwt>
<totfact> 0.59657130E+03</totfact>
</mgrwt>
</event>
<event>
 6    1  0.1045058E-005  0.3308754E+03  0.7546771E-02  0.1070750E+00
         -2   -1    0    0    0  501 -0.00000000000E+00  0.00000000000E+00  0.58932306221E+02  0.58932306221E+02  0.00000000000E+00 0.  1.
          2   -1    0    0  501    0  0.00000000000E+00 -0.00000000000E+00 -0.46442481705E+03  0.46442481705E+03  0.00000000000E+00 0. -1.
          5    1    1    2  502    0  0.90911353699E+02  0.55317245616E+02 -0.33918558022E+03  0.35551908489E+03  0.47000000000E+01 0. -1.
         -5    1    1    2    0  502 -0.69913828079E+01  0.24029668436E+01  0.86110452277E+01  0.12283883064E+02  0.47000000000E+01 0. -1.
        -11    1    1    2    0    0 -0.90723408667E+01  0.22266910462E+02 -0.26511049466E+02  0.35790479378E+02  0.00000000000E+00 0.  1.
         11    1    1    2    0    0 -0.74847630024E+02 -0.79987122921E+02 -0.48406926374E+02  0.11976367594E+03  0.00000000000E+00 0. -1.
<mgrwt>
<rscale>  0 0.33087536E+03</rscale>
<asrwt>0</asrwt>
<pdfrwt beam="2">  1        2 0.71449970E-01 0.33087536E+03</pdfrwt>
<pdfrwt beam="1">  1       -2 0.90665089E-02 0.33087536E+03</pdfrwt>
<totfact> 0.52587632E+03</totfact>
</mgrwt>
</event>
<event>
 6    1  0.1045058E-005  0.1610908E+03  0.7546771E-02  0.1195345E+00
          2   -1    0    0  501    0  0.00000000000E+00  0.00000000000E+00  0.36944004579E+03  0.36944004579E+03  0.00000000000E+00 0. -1.
         -2   -1    0    0    0  501 -0.00000000000E+00 -0.00000000000E+00 -0.66953774700E+02  0.66953774700E+02  0.00000000000E+00 0.  1.
          5    1    1    2  502    0 -0.84416665909E+02 -0.97579998334E+02  0.21348946238E+03  0.24949523063E+03  0.47000000000E+01 0. -1.
         -5    1    1    2    0  502  0.21361196541E+02  0.17896365609E+02  0.21967140563E+02  0.35794215792E+02  0.47000000000E+01 0. -1.
        -11    1    1    2    0    0  0.29842199483E+02  0.42827114700E+01 -0.16001870048E+02  0.34131485941E+02  0.00000000000E+00 0. -1.
         11    1    1    2    0    0  0.33213269886E+02  0.75400921255E+02  0.83031538196E+02  0.11697288813E+03  0.00000000000E+00 0.  1.
<mgrwt>
<rscale>  0 0.15425055E+03</rscale>
<asrwt>0</asrwt>
<pdfrwt beam="1">  1        2 0.56836929E-01 0.16109083E+03</pdfrwt>
<pdfrwt beam="2">  1       -2 0.10300581E-01 0.16109083E+03</pdfrwt>
<totfact> 0.53405061E+03</totfact>
</mgrwt>
</event>
<event>
 6    1  0.1045058E-005  0.3104516E+03  0.7546771E-02  0.1081628E+00
         -2   -1    0    0    0  501 -0.00000000000E+00  0.00000000000E+00  0.13436459255E+04  0.13436459255E+04  0.00000000000E+00 0.  1.
          2   -1    0    0  501    0  0.00000000000E+00 -0.00000000000E+00 -0.69030605486E+02  0.69030605486E+02  0.00000000000E+00 0. -1.
          5    1    1    2  502    0  0.32392804397E+02  0.11340948494E+03  0.40654031198E+03  0.42332980088E+03  0.47000000000E+01 0.  1.
         -5    1    1    2    0  502 -0.32158082228E+02  0.17076355984E+03  0.27113881391E+03  0.32207558434E+03  0.47000000000E+01 0.  1.
        -11    1    1    2    0    0 -0.30584057903E+02 -0.21559579739E+03  0.49446910651E+03  0.54029309615E+03  0.00000000000E+00 0. -1.
         11    1    1    2    0    0  0.30349335734E+02 -0.68577247395E+02  0.10246708762E+03  0.12697804962E+03  0.00000000000E+00 0.  1.
<mgrwt>
<rscale>  0 0.30734001E+03</rscale>
<asrwt>0</asrwt>
<pdfrwt beam="2">  1        2 0.10620094E-01 0.31045159E+03</pdfrwt>
<pdfrwt beam="1">  1       -2 0.20671474E+00 0.31045159E+03</pdfrwt>
<totfact> 0.77519084E+01</totfact>
</mgrwt>
</event>
<event>
 6    1  0.1045058E-005  0.2357771E+03  0.7546771E-02  0.1125350E+00
         -1   -1    0    0    0  501 -0.00000000000E+00  0.00000000000E+00  0.29302958782E+03  0.29302958782E+03  0.00000000000E+00 0.  1.
          1   -1    0    0  501    0  0.00000000000E+00 -0.00000000000E+00 -0.26943041463E+03  0.26943041463E+03  0.00000000000E+00 0. -1.
          5    1    1    2  502    0  0.27533314939E+02 -0.14871111482E+03 -0.13359417235E+03  0.20184789320E+03  0.47000000000E+01 0.  1.
         -5    1    1    2    0  502  0.72360899264E+02 -0.24455681323E+02 -0.18505002805E+02  0.78731856450E+02  0.47000000000E+01 0.  1.
        -11    1    1    2    0    0 -0.65713902668E+02  0.30513240095E+02  0.72712723459E+02  0.10264752787E+03  0.00000000000E+00 0. -1.
         11    1    1    2    0    0 -0.34180311536E+02  0.14265355605E+03  0.10298562489E+03  0.17923272493E+03  0.00000000000E+00 0.  1.
<mgrwt>
<rscale>  0 0.23184126E+03</rscale>
<asrwt>0</asrwt>
<pdfrwt beam="2">  1        1 0.41450833E-01 0.23577709E+03</pdfrwt>
<pdfrwt beam="1">  1       -1 0.45081475E-01 0.23577709E+03</pdfrwt>
<totfact> 0.50218840E+02</totfact>
</mgrwt>
</event>
<event>
 6    1  0.1045058E-005  0.3009131E+03  0.7546771E-02  0.1084785E+00
         -2   -1    0    0    0  501 -0.00000000000E+00  0.00000000000E+00  0.26965669884E+02  0.26965669884E+02  0.00000000000E+00 0.  1.
          2   -1    0    0  501    0  0.00000000000E+00 -0.00000000000E+00 -0.83948096056E+03  0.83948096056E+03  0.00000000000E+00 0. -1.
          5    1    1    2  502    0 -0.16896110146E+01 -0.29851387427E+02 -0.35776370935E+03  0.35904167146E+03  0.47000000000E+01 0.  1.
         -5    1    1    2    0  502 -0.22062420341E+02 -0.70935287418E+02 -0.87453824625E+02  0.11484261767E+03  0.47000000000E+01 0.  1.
        -11    1    1    2    0    0 -0.65561232696E+01  0.53619186309E+02 -0.62315317260E+02  0.82469380123E+02  0.00000000000E+00 0.  1.
         11    1    1    2    0    0  0.30308154625E+02  0.47167488536E+02 -0.30498243944E+03  0.31009296119E+03  0.00000000000E+00 0. -1.
<mgrwt>
<rscale>  0 0.30091305E+03</rscale>
<asrwt>0</asrwt>
<pdfrwt beam="2">  1        2 0.12915091E+00 0.30091305E+03</pdfrwt>
<pdfrwt beam="1">  1       -2 0.41485648E-02 0.30091305E+03</pdfrwt>
<totfact> 0.86723614E+03</totfact>
</mgrwt>
</event>
<event>
 6    1  0.1045058E-005  0.2086600E+03  0.7546771E-02  0.1146231E+00
          1   -1    0    0  501    0  0.00000000000E+00  0.00000000000E+00  0.23196576481E+04  0.23196576481E+04  0.00000000000E+00 0. -1.
         -1   -1    0    0    0  501 -0.00000000000E+00 -0.00000000000E+00 -0.31239876050E+02  0.31239876050E+02  0.00000000000E+00 0.  1.
          5    1    1    2  502    0 -0.50171355297E+02 -0.46918495049E+02  0.55751378706E+03  0.56174925263E+03  0.47000000000E+01 0.  1.
         -5    1    1    2    0  502 -0.11375946433E+03  0.79215865548E+02  0.14000165022E+04  0.14068705220E+04  0.47000000000E+01 0.  1.
        -11    1    1    2    0    0  0.93788858570E+02 -0.58928290640E+02  0.15013790977E+03  0.18657514673E+03  0.00000000000E+00 0.  1.
         11    1    1    2    0    0  0.70141961060E+02  0.26630920142E+02  0.18074957296E+03  0.19570260277E+03  0.00000000000E+00 0. -1.
<mgrwt>
<rscale>  0 0.20421528E+03</rscale>
<asrwt>0</asrwt>
<pdfrwt beam="1">  1        1 0.35687027E+00 0.20865997E+03</pdfrwt>
<pdfrwt beam="2">  1       -1 0.48061366E-02 0.20865997E+03</pdfrwt>
<totfact> 0.39463237E+02</totfact>
</mgrwt>
</event>
<event>
 6    1  0.1045058E-005  0.1312683E+03  0.7546771E-02  0.1239432E+00
          1   -1    0    0  501    0  0.00000000000E+00  0.00000000000E+00  0.14695330432E+03  0.14695330432E+03  0.00000000000E+00 0. -1.
         -1   -1    0    0    0  501 -0.00000000000E+00 -0.00000000000E+00 -0.92399082457E+02  0.92399082457E+02  0.00000000000E+00 0.  1.
          5    1    1    2  502    0 -0.31994735670E+02 -0.40629484482E+02  0.54024557789E+01  0.52208185645E+02  0.47000000000E+01 0.  1.
         -5    1    1    2    0  502  0.16204964853E+02  0.77518150493E+02  0.65473991763E+01  0.79602908098E+02  0.47000000000E+01 0.  1.
        -11    1    1    2    0    0 -0.28884168363E+02 -0.20242913393E+02  0.47996643640E+02  0.59562979487E+02  0.00000000000E+00 0. -1.
         11    1    1    2    0    0  0.44673939180E+02 -0.16645752618E+02 -0.53922767358E+01  0.47978313544E+02  0.00000000000E+00 0.  1.
<mgrwt>
<rscale>  0 0.12224904E+03</rscale>
<asrwt>0</asrwt>
<pdfrwt beam="1">  1        1 0.22608201E-01 0.13126830E+03</pdfrwt>
<pdfrwt beam="2">  1       -1 0.14215243E-01 0.13126830E+03</pdfrwt>
<totfact> 0.72110440E+03</totfact>
</mgrwt>
</event>
<event>
 6    1  0.1045058E-005  0.1266698E+03  0.7546771E-02  0.1248054E+00
         -2   -1    0    0    0  501 -0.00000000000E+00  0.00000000000E+00  0.17798694148E+03  0.17798694148E+03  0.00000000000E+00 0. -1.
          2   -1    0    0  501    0  0.00000000000E+00 -0.00000000000E+00 -0.84980016547E+02  0.84980016547E+02  0.00000000000E+00 0.  1.
          5    1    1    2  502    0  0.23329576855E+01  0.19655096984E+02 -0.61716503775E+02  0.64982939048E+02  0.47000000000E+01 0.  1.
         -5    1    1    2    0  502  0.18007873258E+02 -0.22069312911E+02  0.54732250411E+02  0.61879296269E+02  0.47000000000E+01 0.  1.
        -11    1    1    2    0    0 -0.13377902345E+00  0.43154785950E+02  0.29708426982E+02  0.52392213935E+02  0.00000000000E+00 0.  1.
         11    1    1    2    0    0 -0.20207051920E+02 -0.40740570024E+02  0.70282751313E+02  0.83712508775E+02  0.00000000000E+00 0. -1.
<mgrwt>
<rscale>  0 0.11704415E+03</rscale>
<asrwt>0</asrwt>
<pdfrwt beam="2">  1        2 0.13073849E-01 0.12666983E+03</pdfrwt>
<pdfrwt beam="1">  1       -2 0.27382606E-01 0.12666983E+03</pdfrwt>
<totfact> 0.52576533E+03</totfact>
</mgrwt>
</event>
<event>
 6    1  0.1045058E-005  0.1276390E+03  0.7546771E-02  0.1245426E+00
          4   -1    0    0  501    0  0.00000000000E+00  0.00000000000E+00  0.12932166277E+04  0.12932166277E+04  0.00000000000E+00 0.  1.
         -4   -1    0    0    0  501 -0.00000000000E+00 -0.00000000000E+00 -0.15157199972E+02  0.15157199972E+02  0.00000000000E+00 0. -1.
          5    1    1    2  502    0  0.37431575078E+01 -0.55692897697E+02  0.78650302447E+03  0.78849528063E+03  0.47000000000E+01 0. -1.
         -5    1    1    2    0  502  0.21641626251E+02  0.53496886789E+02  0.30515475815E+03  0.31059908773E+03  0.47000000000E+01 0. -1.
        -11    1    1    2    0    0 -0.17388332096E+02  0.46265361410E+02  0.11227260426E+03  0.12267018964E+03  0.00000000000E+00 0. -1.
         11    1    1    2    0    0 -0.79964516619E+01 -0.44069350502E+02  0.74129040824E+02  0.86609269633E+02  0.00000000000E+00 0.  1.
<mgrwt>
<rscale>  0 0.11859941E+03</rscale>
<asrwt>0</asrwt>
<pdfrwt beam="1">  1        4 0.19895632E+00 0.12763901E+03</pdfrwt>
<pdfrwt beam="2">  1       -4 0.23318779E-02 0.12763901E+03</pdfrwt>
<totfact> 0.19707694E+02</totfact>
</mgrwt>
</event>
<event>
 6    1  0.1045058E-005  0.2860265E+03  0.7546771E-02  0.1093160E+00
         -2   -1    0    0    0  501 -0.00000000000E+00  0.00000000000E+00  0.23629529606E+03  0.23629529606E+03  0.00000000000E+00 0.  1.
          2   -1    0    0  501    0  0.00000000000E+00 -0.00000000000E+00 -0.41328072456E+03  0.41328072456E+03  0.00000000000E+00 0. -1.
          5    1    1    2  502    0  0.12101789943E+02  0.84789696513E+02 -0.95078893927E+02  0.12805401995E+03  0.47000000000E+01 0. -1.
         -5    1    1    2    0  502  0.17032813766E+03  0.88050067617E+02 -0.12969246473E+03  0.23153123827E+03  0.47000000000E+01 0. -1.
        -11    1    1    2    0    0  0.68502997202E+00 -0.73695916978E+02 -0.87593938354E+01  0.74217817440E+02  0.00000000000E+00 0.  1.
         11    1    1    2    0    0 -0.18311495757E+03 -0.99143847152E+02  0.56545323985E+02  0.21577294497E+03  0.00000000000E+00 0. -1.
<mgrwt>
<rscale>  0 0.28467954E+03</rscale>
<asrwt>0</asrwt>
<pdfrwt beam="2">  1        2 0.63581649E-01 0.28602648E+03</pdfrwt>
<pdfrwt beam="1">  1       -2 0.36353123E-01 0.28602648E+03</pdfrwt>
<totfact> 0.55307361E+02</totfact>
</mgrwt>
</event>
<event>
 6    1  0.1045058E-005  0.1523672E+03  0.7546771E-02  0.1211383E+00
         -2   -1    0    0    0  501 -0.00000000000E+00  0.00000000000E+00  0.31189624981E+03  0.31189624981E+03  0.00000000000E+00 0.  1.
          2   -1    0    0  501    0  0.00000000000E+00 -0.00000000000E+00 -0.56652132263E+02  0.56652132263E+02  0.00000000000E+00 0. -1.
          5    1    1    2  502    0  0.63294720541E+02  0.56840030619E+02  0.28999741302E+02  0.90000476247E+02  0.47000000000E+01 0. -1.
         -5    1    1    2    0  502 -0.11587260113E+02 -0.13612864521E+02  0.12600044669E+03  0.12734903707E+03  0.47000000000E+01 0.  1.
        -11    1    1    2    0    0 -0.44645736391E+02 -0.69601809872E+02  0.89514719300E+02  0.12186278631E+03  0.00000000000E+00 0. -1.
         11    1    1    2    0    0 -0.70617240362E+01  0.26374643774E+02  0.10729210259E+02  0.29336082447E+02  0.00000000000E+00 0.  1.
<mgrwt>
<rscale>  0 0.14145611E+03</rscale>
<asrwt>0</asrwt>
<pdfrwt beam="2">  1        2 0.87157128E-02 0.15236716E+03</pdfrwt>
<pdfrwt beam="1">  1       -2 0.47984038E-01 0.15236716E+03</pdfrwt>
<totfact> 0.30692319E+03</totfact>
</mgrwt>
</event>
<event>
 6    1  0.1045058E-005  0.1558052E+03  0.7546771E-02  0.1205334E+00
          1   -1    0    0  501    0  0.00000000000E+00  0.00000000000E+00  0.43945837178E+03  0.43945837178E+03  0.00000000000E+00 0. -1.
         -1   -1    0    0    0  501 -0.00000000000E+00 -0.00000000000E+00 -0.20603919793E+03  0.20603919793E+03  0.00000000000E+00 0.  1.
          5    1    1    2  502    0 -0.50783391309E+02  0.41132801890E+02  0.27479837944E+03  0.28250150366E+03  0.47000000000E+01 0. -1.
         -5    1    1    2    0  502  0.69023141474E+02  0.34893595792E+02  0.13128218237E+03  0.15244296800E+03  0.47000000000E+01 0.  1.
        -11    1    1    2    0    0 -0.33786864727E+02 -0.83699187321E+02 -0.17071340246E+03  0.19310663367E+03  0.00000000000E+00 0.  1.
         11    1    1    2    0    0  0.15547114562E+02  0.76727896392E+01 -0.19479854942E+01  0.17446464385E+02  0.00000000000E+00 0. -1.
<mgrwt>
<rscale>  0 0.14611163E+03</rscale>
<asrwt>0</asrwt>
<pdfrwt beam="1">  1        1 0.67608980E-01 0.15580523E+03</pdfrwt>
<pdfrwt beam="2">  1       -1 0.31698338E-01 0.15580523E+03</pdfrwt>
<totfact> 0.50327261E+02</totfact>
</mgrwt>
</event>
<event>
 6    1  0.1045058E-005  0.4736367E+03  0.7546771E-02  0.1020899E+00
          2   -1    0    0  501    0  0.00000000000E+00  0.00000000000E+00  0.19969719864E+03  0.19969719864E+03  0.00000000000E+00 0. -1.
         -2   -1    0    0    0  501 -0.00000000000E+00 -0.00000000000E+00 -0.28083988413E+03  0.28083988413E+03  0.00000000000E+00 0.  1.
          5    1    1    2  502    0 -0.13212685650E+02 -0.38439613919E+02  0.28322939169E+02  0.49764021778E+02  0.47000000000E+01 0.  1.
         -5    1    1    2    0  502  0.10202957613E+03  0.43704882466E+02  0.12279141300E+03  0.16558977101E+03  0.47000000000E+01 0.  1.
        -11    1    1    2    0    0 -0.26397228437E+02 -0.41583887243E+02 -0.13741996366E+03  0.14598040882E+03  0.00000000000E+00 0.  1.
         11    1    1    2    0    0 -0.62419662042E+02  0.36318618697E+02 -0.94837074004E+02  0.11920288117E+03  0.00000000000E+00 0. -1.
<mgrwt>
<rscale>  0 0.47363673E+03</rscale>
<asrwt>0</asrwt>
<pdfrwt beam="1">  1        2 0.30722646E-01 0.47363673E+03</pdfrwt>
<pdfrwt beam="2">  1       -2 0.43206136E-01 0.47363673E+03</pdfrwt>
<totfact> 0.88220523E+02</totfact>
</mgrwt>
</event>
<event>
 6    1  0.1045058E-005  0.1649499E+03  0.7546771E-02  0.1190570E+00
         -2   -1    0    0    0  501 -0.00000000000E+00  0.00000000000E+00  0.67410052461E+02  0.67410052461E+02  0.00000000000E+00 0. -1.
          2   -1    0    0  501    0  0.00000000000E+00 -0.00000000000E+00 -0.45910377704E+03  0.45910377704E+03  0.00000000000E+00 0.  1.
          5    1    1    2  502    0 -0.74936851415E+02 -0.24296691229E+02 -0.71498450491E+02  0.10648933903E+03  0.47000000000E+01 0.  1.
         -5    1    1    2    0  502 -0.32684903852E+02  0.23319850157E+02 -0.26719368448E+03  0.27023447851E+03  0.47000000000E+01 0.  1.
        -11    1    1    2    0    0  0.49625555076E+02 -0.10942263572E+01 -0.73112988526E+02  0.88370821763E+02  0.00000000000E+00 0.  1.
         11    1    1    2    0    0  0.57996200192E+02  0.20710674290E+01  0.20111398922E+02  0.61419190190E+02  0.00000000000E+00 0. -1.
<mgrwt>
<rscale>  0 0.15835188E+03</rscale>
<asrwt>0</asrwt>
<pdfrwt beam="2">  1        2 0.70631350E-01 0.16494991E+03</pdfrwt>
<pdfrwt beam="1">  1       -2 0.10370777E-01 0.16494991E+03</pdfrwt>
<totfact> 0.41836322E+03</totfact>
</mgrwt>
</event>
<event>
 6    1  0.1045058E-005  0.2677557E+03  0.7546771E-02  0.1102571E+00
          1   -1    0    0  501    0  0.00000000000E+00  0.00000000000E+00  0.40817535035E+02  0.40817535035E+02  0.00000000000E+00 0. -1.
         -1   -1    0    0    0  501 -0.00000000000E+00 -0.00000000000E+00 -0.43910741462E+03  0.43910741462E+03  0.00000000000E+00 0.  1.
          5    1    1    2  502    0  0.64379593077E+01 -0.90161290664E+01 -0.13906957365E+03  0.13958930553E+03  0.47000000000E+01 0. -1.
         -5    1    1    2    0  502 -0.78807517883E+02  0.19656548904E+02 -0.39681645528E+02  0.90519212224E+02  0.47000000000E+01 0. -1.
        -11    1    1    2    0    0  0.28422715364E+02 -0.50912772057E+02 -0.90245346235E+02  0.10744386266E+03  0.00000000000E+00 0.  1.
         11    1    1    2    0    0  0.43946843212E+02  0.40272352219E+02 -0.12929331417E+03  0.14237256924E+03  0.00000000000E+00 0. -1.
<mgrwt>
<rscale>  0 0.26775573E+03</rscale>
<asrwt>0</asrwt>
<pdfrwt beam="1">  1        1 0.62796210E-02 0.26775573E+03</pdfrwt>
<pdfrwt beam="2">  1       -1 0.67554984E-01 0.26775573E+03</pdfrwt>
<totfact> 0.27828786E+03</totfact>
</mgrwt>
</event>
<event>
 6    1  0.1045058E-005  0.1458441E+03  0.7546771E-02  0.1215849E+00
          1   -1    0    0  501    0  0.00000000000E+00  0.00000000000E+00  0.42951566466E+03  0.42951566466E+03  0.00000000000E+00 0. -1.
         -1   -1    0    0    0  501 -0.00000000000E+00 -0.00000000000E+00 -0.46802976520E+02  0.46802976520E+02  0.00000000000E+00 0.  1.
          5    1    1    2  502    0  0.47252499072E+02 -0.58010053718E+02  0.94590774352E+02  0.12069577289E+03  0.47000000000E+01 0.  1.
         -5    1    1    2    0  502  0.27362254151E+02  0.49277526926E+02  0.20268297495E+03  0.21042681850E+03  0.47000000000E+01 0.  1.
        -11    1    1    2    0    0 -0.32073915620E+02  0.37185306172E+02  0.43395577866E+01  0.49298223295E+02  0.00000000000E+00 0.  1.
         11    1    1    2    0    0 -0.42540837603E+02 -0.28452779380E+02  0.81099381053E+02  0.95897826490E+02  0.00000000000E+00 0. -1.
<mgrwt>
<rscale>  0 0.13814364E+03</rscale>
<asrwt>0</asrwt>
<pdfrwt beam="1">  1        1 0.66079330E-01 0.14584406E+03</pdfrwt>
<pdfrwt beam="2">  1       -1 0.72004582E-02 0.14584406E+03</pdfrwt>
<totfact> 0.53918630E+03</totfact>
</mgrwt>
</event>
<event>
 6    1  0.1045058E-005  0.3738590E+03  0.7546771E-02  0.1053227E+00
         -1   -1    0    0    0  501 -0.00000000000E+00  0.00000000000E+00  0.39576638272E+02  0.39576638272E+02  0.00000000000E+00 0.  1.
          1   -1    0    0  501    0  0.00000000000E+00 -0.00000000000E+00 -0.88291074962E+03  0.88291074962E+03  0.00000000000E+00 0. -1.
          5    1    1    2  502    0  0.21152536690E+02 -0.12959387330E+03 -0.48413101671E+03  0.50164422965E+03  0.47000000000E+01 0. -1.
         -5    1    1    2    0  502  0.49387934748E+02  0.11428802802E+02 -0.11739066640E+03  0.12795485215E+03  0.47000000000E+01 0. -1.
        -11    1    1    2    0    0 -0.76267353241E+02  0.41507513036E+02 -0.14813875090E+03  0.17171101399E+03  0.00000000000E+00 0.  1.
         11    1    1    2    0    0  0.57268818032E+01  0.76657557465E+02 -0.93673677347E+02  0.12117729209E+03  0.00000000000E+00 0. -1.
<mgrwt>
<rscale>  0 0.37385901E+03</rscale>
<asrwt>0</asrwt>
<pdfrwt beam="2">  1        1 0.13583241E+00 0.37385901E+03</pdfrwt>
<pdfrwt beam="1">  1       -1 0.60887144E-02 0.37385901E+03</pdfrwt>
<totfact> 0.25817223E+03</totfact>
</mgrwt>
</event>
<event>
 6    1  0.1045058E-005  0.1836346E+03  0.7546771E-02  0.1169560E+00
          2   -1    0    0  501    0  0.00000000000E+00  0.00000000000E+00  0.18541960362E+03  0.18541960362E+03  0.00000000000E+00 0. -1.
         -2   -1    0    0    0  501 -0.00000000000E+00 -0.00000000000E+00 -0.18977514771E+03  0.18977514771E+03  0.00000000000E+00 0.  1.
          5    1    1    2  502    0 -0.74926062360E+02  0.30457360482E+02  0.92379549833E+02  0.12287244140E+03  0.47000000000E+01 0. -1.
         -5    1    1    2    0  502 -0.17159850741E+02  0.67566149068E+02 -0.22810205686E+02  0.73498574549E+02  0.47000000000E+01 0. -1.
        -11    1    1    2    0    0 -0.16760205029E+02 -0.30319517624E+02 -0.15750485539E+02  0.38055951129E+02  0.00000000000E+00 0.  1.
         11    1    1    2    0    0  0.10884611813E+03 -0.67703991926E+02 -0.58174402690E+02  0.14076778425E+03  0.00000000000E+00 0. -1.
<mgrwt>
<rscale>  0 0.17819618E+03</rscale>
<asrwt>0</asrwt>
<pdfrwt beam="1">  1        2 0.28526093E-01 0.18363464E+03</pdfrwt>
<pdfrwt beam="2">  1       -2 0.29196176E-01 0.18363464E+03</pdfrwt>
<totfact> 0.19635936E+03</totfact>
</mgrwt>
</event>
<event>
 6    1  0.1045058E-005  0.2001601E+03  0.7546771E-02  0.1170011E+00
          1   -1    0    0  501    0  0.00000000000E+00  0.00000000000E+00  0.50821124455E+03  0.50821124455E+03  0.00000000000E+00 0. -1.
         -1   -1    0    0    0  501 -0.00000000000E+00 -0.00000000000E+00 -0.98363124578E+02  0.98363124578E+02  0.00000000000E+00 0.  1.
          5    1    1    2  502    0 -0.21548864719E+02 -0.50229733909E+02  0.36578553406E+03  0.36987636673E+03  0.47000000000E+01 0. -1.
         -5    1    1    2    0  502  0.83954411149E+02 -0.73223387537E+01  0.69909367326E+02  0.10959639335E+03  0.47000000000E+01 0.  1.
        -11    1    1    2    0    0 -0.56362047349E+02 -0.75593296498E+01 -0.21744967403E+00  0.56867135768E+02  0.00000000000E+00 0. -1.
         11    1    1    2    0    0 -0.60434990810E+01  0.65111402312E+02 -0.25629331732E+02  0.70234473282E+02  0.00000000000E+00 0.  1.
<mgrwt>
<rscale>  0 0.17773718E+03</rscale>
<asrwt>0</asrwt>
<pdfrwt beam="1">  1        1 0.78186343E-01 0.20016014E+03</pdfrwt>
<pdfrwt beam="2">  1       -1 0.15132789E-01 0.20016014E+03</pdfrwt>
<totfact> 0.13950563E+03</totfact>
</mgrwt>
</event>
<event>
 6    1  0.1045058E-005  0.1403359E+03  0.7546771E-02  0.1223802E+00
          1   -1    0    0  501    0  0.00000000000E+00  0.00000000000E+00  0.17127164322E+03  0.17127164322E+03  0.00000000000E+00 0. -1.
         -1   -1    0    0    0  501 -0.00000000000E+00 -0.00000000000E+00 -0.96582999398E+02  0.96582999398E+02  0.00000000000E+00 0.  1.
          5    1    1    2  502    0 -0.77514715558E+02  0.23156670588E+02  0.74271344888E+02  0.10992308762E+03  0.47000000000E+01 0.  1.
         -5    1    1    2    0  502  0.16774651213E+02 -0.42474418888E+02 -0.57161455845E+01  0.46262614534E+02  0.47000000000E+01 0.  1.
        -11    1    1    2    0    0  0.12697231565E+02  0.27333386058E+02  0.41633814227E+02  0.51397550233E+02  0.00000000000E+00 0. -1.
         11    1    1    2    0    0  0.48042832780E+02 -0.80156377578E+01 -0.35500369711E+02  0.60271390227E+02  0.00000000000E+00 0.  1.
<mgrwt>
<rscale>  0 0.13249382E+03</rscale>
<asrwt>0</asrwt>
<pdfrwt beam="1">  1        1 0.26349484E-01 0.14033588E+03</pdfrwt>
<pdfrwt beam="2">  1       -1 0.14858923E-01 0.14033588E+03</pdfrwt>
<totfact> 0.55754674E+03</totfact>
</mgrwt>
</event>
<event>
 6    1  0.1045058E-005  0.1321431E+03  0.7546771E-02  0.1237867E+00
          2   -1    0    0  501    0  0.00000000000E+00  0.00000000000E+00  0.62323171965E+03  0.62323171965E+03  0.00000000000E+00 0. -1.
         -2   -1    0    0    0  501 -0.00000000000E+00 -0.00000000000E+00 -0.30430557767E+02  0.30430557767E+02  0.00000000000E+00 0.  1.
          5    1    1    2  502    0  0.63606170355E+02  0.73776330916E+01  0.15768001464E+03  0.17025055475E+03  0.47000000000E+01 0. -1.
         -5    1    1    2    0  502 -0.37666970619E+02 -0.41489179764E+02  0.34274346343E+03  0.34732596280E+03  0.47000000000E+01 0. -1.
        -11    1    1    2    0    0 -0.47642737179E+02 -0.10538489807E+02  0.34100627494E+02  0.59529345442E+02  0.00000000000E+00 0.  1.
         11    1    1    2    0    0  0.21703537443E+02  0.44650036479E+02  0.58277056317E+02  0.76556414415E+02  0.00000000000E+00 0. -1.
<mgrwt>
<rscale>  0 0.12322693E+03</rscale>
<asrwt>0</asrwt>
<pdfrwt beam="1">  1        2 0.95881794E-01 0.13214308E+03</pdfrwt>
<pdfrwt beam="2">  1       -2 0.46816247E-02 0.13214308E+03</pdfrwt>
<totfact> 0.99636944E+03</totfact>
</mgrwt>
</event>
<event>
 6    1  0.1045058E-005  0.1846048E+03  0.7546771E-02  0.1168836E+00
          2   -1    0    0  501    0  0.00000000000E+00  0.00000000000E+00  0.45240835679E+03  0.45240835679E+03  0.00000000000E+00 0. -1.
         -2   -1    0    0    0  501 -0.00000000000E+00 -0.00000000000E+00 -0.99833732948E+02  0.99833732948E+02  0.00000000000E+00 0.  1.
          5    1    1    2  502    0  0.10247558604E+02  0.49597097594E+02  0.11777746483E+03  0.12829070804E+03  0.47000000000E+01 0.  1.
         -5    1    1    2    0  502 -0.13177898919E+03  0.11094257119E+02  0.22459212959E+03  0.26067700169E+03  0.47000000000E+01 0.  1.
        -11    1    1    2    0    0  0.11926565357E+03 -0.21338482439E+02  0.19644797083E+02  0.12274178182E+03  0.00000000000E+00 0. -1.
         11    1    1    2    0    0  0.22657770186E+01 -0.39352872274E+02 -0.94397676719E+01  0.40532598183E+02  0.00000000000E+00 0.  1.
<mgrwt>
<rscale>  0 0.17893665E+03</rscale>
<asrwt>0</asrwt>
<pdfrwt beam="1">  1        2 0.69601284E-01 0.18460482E+03</pdfrwt>
<pdfrwt beam="2">  1       -2 0.15359036E-01 0.18460482E+03</pdfrwt>
<totfact> 0.22639623E+03</totfact>
</mgrwt>
</event>
<event>
 6    1  0.1045058E-005  0.3164580E+03  0.7546771E-02  0.1077291E+00
         -2   -1    0    0    0  501 -0.00000000000E+00  0.00000000000E+00  0.17786675438E+02  0.17786675438E+02  0.00000000000E+00 0.  1.
          2   -1    0    0  501    0  0.00000000000E+00 -0.00000000000E+00 -0.14075943277E+04  0.14075943277E+04  0.00000000000E+00 0. -1.
          5    1    1    2  502    0 -0.76933763835E+02  0.73543855493E+02 -0.91165097771E+03  0.91785461695E+03  0.47000000000E+01 0. -1.
         -5    1    1    2    0  502 -0.97614304625E+01 -0.16324034266E+02 -0.20490476149E+02  0.28349765999E+02  0.47000000000E+01 0. -1.
        -11    1    1    2    0    0  0.18919820932E+02 -0.63050854898E+02 -0.14571357531E+03  0.15989313918E+03  0.00000000000E+00 0.  1.
         11    1    1    2    0    0  0.67775373366E+02  0.58310336711E+01 -0.31195262306E+03  0.31928348098E+03  0.00000000000E+00 0. -1.
<mgrwt>
<rscale>  0 0.31645804E+03</rscale>
<asrwt>0</asrwt>
<pdfrwt beam="2">  1        2 0.21655303E+00 0.31645804E+03</pdfrwt>
<pdfrwt beam="1">  1       -2 0.27364108E-02 0.31645804E+03</pdfrwt>
<totfact> 0.74563046E+03</totfact>
</mgrwt>
</event>
<event>
 6    1  0.1045058E-005  0.3584977E+03  0.7546771E-02  0.1059180E+00
         -1   -1    0    0    0  501 -0.00000000000E+00  0.00000000000E+00  0.23104374429E+03  0.23104374429E+03  0.00000000000E+00 0.  1.
          1   -1    0    0  501    0  0.00000000000E+00 -0.00000000000E+00 -0.13906524490E+03  0.13906524490E+03  0.00000000000E+00 0. -1.
          5    1    1    2  502    0  0.36380113451E+02  0.11999041680E+01 -0.63260643637E+02  0.73136526155E+02  0.47000000000E+01 0. -1.
         -5    1    1    2    0  502 -0.66804677265E+01  0.96334541059E+02  0.88810617186E+01  0.97087258213E+02  0.47000000000E+01 0. -1.
        -11    1    1    2    0    0 -0.18562419387E+01 -0.57591773315E+02  0.14634604940E+02  0.59451069372E+02  0.00000000000E+00 0. -1.
         11    1    1    2    0    0 -0.27843403785E+02 -0.39942671912E+02  0.13172347637E+03  0.14043413545E+03  0.00000000000E+00 0.  1.
<mgrwt>
<rscale>  0 0.35849773E+03</rscale>
<asrwt>0</asrwt>
<pdfrwt beam="2">  1        1 0.21394653E-01 0.35849773E+03</pdfrwt>
<pdfrwt beam="1">  1       -1 0.35545191E-01 0.35849773E+03</pdfrwt>
<totfact> 0.17877268E+03</totfact>
</mgrwt>
</event>
<event>
 6    1  0.1045058E-005  0.2720650E+03  0.7546771E-02  0.1102127E+00
         -2   -1    0    0    0  501 -0.00000000000E+00  0.00000000000E+00  0.86135123809E+02  0.86135123809E+02  0.00000000000E+00 0.  1.
          2   -1    0    0  501    0  0.00000000000E+00 -0.00000000000E+00 -0.81673953450E+03  0.81673953450E+03  0.00000000000E+00 0. -1.
          5    1    1    2  502    0 -0.66088230790E+02 -0.19852447473E+03 -0.34654536761E+03  0.40483997224E+03  0.47000000000E+01 0. -1.
         -5    1    1    2    0  502 -0.53905017167E+02 -0.11224546917E+02 -0.41641742184E+02  0.69194407442E+02  0.47000000000E+01 0. -1.
        -11    1    1    2    0    0  0.45811761412E+02  0.95987908177E+02 -0.22672512675E+03  0.25043298325E+03  0.00000000000E+00 0. -1.
         11    1    1    2    0    0  0.74181486544E+02  0.11376111347E+03 -0.11569217415E+03  0.17840729537E+03  0.00000000000E+00 0.  1.
<mgrwt>
<rscale>  0 0.26852398E+03</rscale>
<asrwt>0</asrwt>
<pdfrwt beam="2">  1        2 0.12565224E+00 0.27206499E+03</pdfrwt>
<pdfrwt beam="1">  1       -2 0.13251557E-01 0.27206499E+03</pdfrwt>
<totfact> 0.14520569E+03</totfact>
</mgrwt>
</event>
<event>
 6    1  0.1045058E-005  0.4725921E+03  0.7546771E-02  0.1021765E+00
         -2   -1    0    0    0  501 -0.00000000000E+00  0.00000000000E+00  0.10541222048E+03  0.10541222048E+03  0.00000000000E+00 0.  1.
          2   -1    0    0  501    0  0.00000000000E+00 -0.00000000000E+00 -0.22297905677E+04  0.22297905677E+04  0.00000000000E+00 0. -1.
          5    1    1    2  502    0 -0.10281385491E+03  0.27899316398E+03 -0.83751797050E+03  0.88874423498E+03  0.47000000000E+01 0. -1.
         -5    1    1    2    0  502 -0.13710389491E+03  0.10850772864E+03 -0.53328457800E+03  0.56123607895E+03  0.47000000000E+01 0. -1.
        -11    1    1    2    0    0  0.22928521379E+03 -0.37045802423E+03 -0.74570615540E+03  0.86364838168E+03  0.00000000000E+00 0. -1.
         11    1    1    2    0    0  0.10632536022E+02 -0.17042868388E+02 -0.78696433659E+01  0.21574092608E+02  0.00000000000E+00 0.  1.
<mgrwt>
<rscale>  0 0.47055107E+03</rscale>
<asrwt>0</asrwt>
<pdfrwt beam="2">  1        2 0.34304469E+00 0.47259209E+03</pdfrwt>
<pdfrwt beam="1">  1       -2 0.16217265E-01 0.47259209E+03</pdfrwt>
<totfact> 0.16256674E+02</totfact>
</mgrwt>
</event>
<event>
 6    1  0.1045058E-005  0.2461071E+03  0.7546771E-02  0.1115790E+00
          2   -1    0    0  501    0  0.00000000000E+00  0.00000000000E+00  0.14191584807E+03  0.14191584807E+03  0.00000000000E+00 0. -1.
         -2   -1    0    0    0  501 -0.00000000000E+00 -0.00000000000E+00 -0.10669829734E+03  0.10669829734E+03  0.00000000000E+00 0.  1.
          5    1    1    2  502    0 -0.22399396963E+02  0.10745740798E+02 -0.36042235125E+02  0.44026544747E+02  0.47000000000E+01 0. -1.
         -5    1    1    2    0  502 -0.51030618744E+01 -0.52661522172E+02  0.83119207731E+02  0.98641623323E+02  0.47000000000E+01 0. -1.
        -11    1    1    2    0    0 -0.15170497486E+02  0.42082228461E+02 -0.35548823476E+02  0.57138225355E+02  0.00000000000E+00 0.  1.
         11    1    1    2    0    0  0.42672956323E+02 -0.16644708729E+00  0.23689401603E+02  0.48807751990E+02  0.00000000000E+00 0. -1.
<mgrwt>
<rscale>  0 0.24610713E+03</rscale>
<asrwt>0</asrwt>
<pdfrwt beam="1">  1        2 0.21833207E-01 0.24610713E+03</pdfrwt>
<pdfrwt beam="2">  1       -2 0.16415123E-01 0.24610713E+03</pdfrwt>
<totfact> 0.72772117E+03</totfact>
</mgrwt>
</event>
<event>
 6    1  0.1045058E-005  0.1538838E+03  0.7546771E-02  0.1204512E+00
          2   -1    0    0  501    0  0.00000000000E+00  0.00000000000E+00  0.17657169769E+03  0.17657169769E+03  0.00000000000E+00 0. -1.
         -2   -1    0    0    0  501 -0.00000000000E+00 -0.00000000000E+00 -0.11916896060E+03  0.11916896060E+03  0.00000000000E+00 0.  1.
          5    1    1    2  502    0  0.89831007574E+02  0.56836841363E+02  0.15648850560E+02  0.10755004873E+03  0.47000000000E+01 0. -1.
         -5    1    1    2    0  502 -0.36546755208E+01 -0.30576385373E+02  0.51847281415E+02  0.60485556836E+02  0.47000000000E+01 0. -1.
        -11    1    1    2    0    0 -0.79079882859E+02 -0.14285015774E+02 -0.43597359468E+02  0.91424391172E+02  0.00000000000E+00 0.  1.
         11    1    1    2    0    0 -0.70964491940E+01 -0.11975440216E+02  0.33503964584E+02  0.36280661549E+02  0.00000000000E+00 0. -1.
<mgrwt>
<rscale>  0 0.14675963E+03</rscale>
<asrwt>0</asrwt>
<pdfrwt beam="1">  1        2 0.27164876E-01 0.15388384E+03</pdfrwt>
<pdfrwt beam="2">  1       -2 0.18333686E-01 0.15388384E+03</pdfrwt>
<totfact> 0.46098873E+03</totfact>
</mgrwt>
</event>
<event>
 6    1  0.1045058E-005  0.1665443E+03  0.7546771E-02  0.1188221E+00
          1   -1    0    0  501    0  0.00000000000E+00  0.00000000000E+00  0.20908947957E+03  0.20908947957E+03  0.00000000000E+00 0. -1.
         -1   -1    0    0    0  501 -0.00000000000E+00 -0.00000000000E+00 -0.15038579284E+03  0.15038579284E+03  0.00000000000E+00 0.  1.
          5    1    1    2  502    0 -0.30176016993E+02 -0.96679521691E+01  0.42766108506E+02  0.53433054727E+02  0.47000000000E+01 0. -1.
         -5    1    1    2    0  502  0.11670490704E+03 -0.58366635262E+02  0.75457077652E+02  0.15080636593E+03  0.47000000000E+01 0. -1.
        -11    1    1    2    0    0  0.12697232147E+02  0.19810260371E+02  0.91944680264E+01  0.25262706950E+02  0.00000000000E+00 0. -1.
         11    1    1    2    0    0 -0.99226122192E+02  0.48224327060E+02 -0.68713967455E+02  0.12997314480E+03  0.00000000000E+00 0.  1.
<mgrwt>
<rscale>  0 0.16042191E+03</rscale>
<asrwt>0</asrwt>
<pdfrwt beam="1">  1        1 0.32167612E-01 0.16654435E+03</pdfrwt>
<pdfrwt beam="2">  1       -1 0.23136276E-01 0.16654435E+03</pdfrwt>
<totfact> 0.21570995E+03</totfact>
</mgrwt>
</event>
<event>
 6    1  0.1045058E-005  0.1333764E+03  0.7546771E-02  0.1236942E+00
         -2   -1    0    0    0  501 -0.00000000000E+00  0.00000000000E+00  0.43909745097E+02  0.43909745097E+02  0.00000000000E+00 0.  1.
          2   -1    0    0  501    0  0.00000000000E+00 -0.00000000000E+00 -0.32762883097E+03  0.32762883097E+03  0.00000000000E+00 0. -1.
          5    1    1    2  502    0  0.56798781447E+02 -0.65120447896E+02 -0.10079797005E+03  0.13284989678E+03  0.47000000000E+01 0.  1.
         -5    1    1    2    0  502 -0.31599698290E+02  0.26009536741E+02 -0.15196162916E+02  0.43909569581E+02  0.47000000000E+01 0.  1.
        -11    1    1    2    0    0  0.65366840084E+01  0.59619887806E+02 -0.87271607985E+02  0.10589425301E+03  0.00000000000E+00 0. -1.
         11    1    1    2    0    0 -0.31735767166E+02 -0.20508976651E+02 -0.80453344924E+02  0.88884856698E+02  0.00000000000E+00 0.  1.
<mgrwt>
<rscale>  0 0.12380913E+03</rscale>
<asrwt>0</asrwt>
<pdfrwt beam="2">  1        2 0.50404433E-01 0.13337642E+03</pdfrwt>
<pdfrwt beam="1">  1       -2 0.67553457E-02 0.13337642E+03</pdfrwt>
<totfact> 0.11541217E+04</totfact>
</mgrwt>
</event>
<event>
 6    1  0.1045058E-005  0.1150701E+03  0.7546771E-02  0.1262063E+00
         -2   -1    0    0    0  501 -0.00000000000E+00  0.00000000000E+00  0.48885658858E+02  0.48885658858E+02  0.00000000000E+00 0.  1.
          2   -1    0    0  501    0  0.00000000000E+00 -0.00000000000E+00 -0.15209993500E+04  0.15209993500E+04  0.00000000000E+00 0. -1.
          5    1    1    2  502    0 -0.23733214852E+02  0.32224630890E+02 -0.13731310188E+04  0.13737221616E+04  0.47000000000E+01 0. -1.
         -5    1    1    2    0  502  0.10620430574E+02 -0.25534071023E+02 -0.98945795221E+02  0.10284523674E+03  0.47000000000E+01 0.  1.
        -11    1    1    2    0    0  0.20071536387E+02  0.32272479685E+01  0.43559070951E+02  0.48069474352E+02  0.00000000000E+00 0.  1.
         11    1    1    2    0    0 -0.69587521090E+01 -0.99178078357E+01 -0.43595948075E+02  0.45248136224E+02  0.00000000000E+00 0. -1.
<mgrwt>
<rscale>  0 0.10919754E+03</rscale>
<asrwt>0</asrwt>
<pdfrwt beam="2">  1        2 0.23399990E+00 0.11507013E+03</pdfrwt>
<pdfrwt beam="1">  1       -2 0.75208706E-02 0.11507013E+03</pdfrwt>
<totfact> 0.13990204E+03</totfact>
</mgrwt>
</event>
<event>
 6    1  0.1045058E-005  0.3739711E+03  0.7546771E-02  0.1053185E+00
         -2   -1    0    0    0  501 -0.00000000000E+00  0.00000000000E+00  0.71248701800E+02  0.71248701800E+02  0.00000000000E+00 0.  1.
          2   -1    0    0  501    0  0.00000000000E+00 -0.00000000000E+00 -0.49072611269E+03  0.49072611269E+03  0.00000000000E+00 0. -1.
          5    1    1    2  502    0  0.14186850019E+02  0.58072182919E+02 -0.77542119207E+02  0.98023035015E+02  0.47000000000E+01 0. -1.
         -5    1    1    2    0  502 -0.13362710265E+03  0.31810243237E+02 -0.16047436097E+03  0.21128701964E+03  0.47000000000E+01 0.  1.
        -11    1    1    2    0    0  0.38317935593E+02 -0.83810996530E+02 -0.11661601120E+03  0.14863324458E+03  0.00000000000E+00 0.  1.
         11    1    1    2    0    0  0.81122317040E+02 -0.60714296265E+01 -0.64844919515E+02  0.10403151526E+03  0.00000000000E+00 0. -1.
<mgrwt>
<rscale>  0 0.37397111E+03</rscale>
<asrwt>0</asrwt>
<pdfrwt beam="2">  1        2 0.75496323E-01 0.37397111E+03</pdfrwt>
<pdfrwt beam="1">  1       -2 0.10961339E-01 0.37397111E+03</pdfrwt>
<totfact> 0.36586844E+03</totfact>
</mgrwt>
</event>
<event>
 6    1  0.1045058E-005  0.1368732E+03  0.7546771E-02  0.1230996E+00
          1   -1    0    0  501    0  0.00000000000E+00  0.00000000000E+00  0.97171729336E+02  0.97171729336E+02  0.00000000000E+00 0. -1.
         -1   -1    0    0    0  501 -0.00000000000E+00 -0.00000000000E+00 -0.19345001618E+03  0.19345001618E+03  0.00000000000E+00 0.  1.
          5    1    1    2  502    0 -0.62903455395E+02  0.21566514314E+02 -0.11365863678E+02  0.67625676318E+02  0.47000000000E+01 0. -1.
         -5    1    1    2    0  502  0.54954879229E+02  0.33611476117E+02  0.27480529997E+02  0.70192874330E+02  0.47000000000E+01 0. -1.
        -11    1    1    2    0    0 -0.18973918505E+02 -0.62351129231E+02 -0.10565285729E+03  0.12413782322E+03  0.00000000000E+00 0.  1.
         11    1    1    2    0    0  0.26922494672E+02  0.71731388003E+01 -0.67400958787E+01  0.28665371654E+02  0.00000000000E+00 0. -1.
<mgrwt>
<rscale>  0 0.12764274E+03</rscale>
<asrwt>0</asrwt>
<pdfrwt beam="1">  1        1 0.14949497E-01 0.13687319E+03</pdfrwt>
<pdfrwt beam="2">  1       -1 0.29761541E-01 0.13687319E+03</pdfrwt>
<totfact> 0.37257747E+03</totfact>
</mgrwt>
</event>
<event>
 6    1  0.1045058E-005  0.2488219E+03  0.7546771E-02  0.1114052E+00
         -1   -1    0    0    0  501 -0.00000000000E+00  0.00000000000E+00  0.77322171321E+02  0.77322171321E+02  0.00000000000E+00 0.  1.
          1   -1    0    0  501    0  0.00000000000E+00 -0.00000000000E+00 -0.20017646663E+03  0.20017646663E+03  0.00000000000E+00 0. -1.
          5    1    1    2  502    0 -0.23700958126E+02  0.90792015302E+02 -0.75844168147E+02  0.12074499286E+03  0.47000000000E+01 0.  1.
         -5    1    1    2    0  502 -0.69968825206E+00 -0.34695467378E+02  0.50669687613E+01  0.35384024540E+02  0.47000000000E+01 0.  1.
        -11    1    1    2    0    0  0.34225987429E+02 -0.26677668212E+02  0.16245748491E+02  0.46336168818E+02  0.00000000000E+00 0.  1.
         11    1    1    2    0    0 -0.98253410508E+01 -0.29418879712E+02 -0.68322844410E+02  0.75033451730E+02  0.00000000000E+00 0. -1.
<mgrwt>
<rscale>  0 0.24882186E+03</rscale>
<asrwt>0</asrwt>
<pdfrwt beam="2">  1        1 0.30796379E-01 0.24882186E+03</pdfrwt>
<pdfrwt beam="1">  1       -1 0.11895719E-01 0.24882186E+03</pdfrwt>
<totfact> 0.67121245E+03</totfact>
</mgrwt>
</event>
<event>
 6    1  0.1045058E-005  0.1357068E+03  0.7546771E-02  0.1231112E+00
         -1   -1    0    0    0  501 -0.00000000000E+00  0.00000000000E+00  0.44311305294E+02  0.44311305294E+02  0.00000000000E+00 0.  1.
          1   -1    0    0  501    0  0.00000000000E+00 -0.00000000000E+00 -0.32961568712E+03  0.32961568712E+03  0.00000000000E+00 0. -1.
          5    1    1    2  502    0  0.29560079965E+02 -0.36494390769E+02 -0.44323180993E+02  0.64747766437E+02  0.47000000000E+01 0. -1.
         -5    1    1    2    0  502 -0.82055534196E+02  0.30580309374E+02 -0.11246404852E+03  0.14261317689E+03  0.47000000000E+01 0. -1.
        -11    1    1    2    0    0 -0.21759303061E+02  0.18044957327E+01 -0.50167611228E+01  0.22402932101E+02  0.00000000000E+00 0.  1.
         11    1    1    2    0    0  0.74254757292E+02  0.41095856630E+01 -0.12350039119E+03  0.14416311699E+03  0.00000000000E+00 0. -1.
<mgrwt>
<rscale>  0 0.12756659E+03</rscale>
<asrwt>0</asrwt>
<pdfrwt beam="2">  1        1 0.50710106E-01 0.13570676E+03</pdfrwt>
<pdfrwt beam="1">  1       -1 0.68171239E-02 0.13570676E+03</pdfrwt>
<totfact> 0.81271085E+03</totfact>
</mgrwt>
</event>
<event>
 6    1  0.1045058E-005  0.2425865E+03  0.7546771E-02  0.1120757E+00
         -2   -1    0    0    0  501 -0.00000000000E+00  0.00000000000E+00  0.57582443499E+02  0.57582443499E+02  0.00000000000E+00 0.  1.
          2   -1    0    0  501    0  0.00000000000E+00 -0.00000000000E+00 -0.11412937192E+04  0.11412937192E+04  0.00000000000E+00 0. -1.
          5    1    1    2  502    0 -0.19654575059E+02 -0.21378333341E+03 -0.74703617919E+03  0.77728679327E+03  0.47000000000E+01 0.  1.
         -5    1    1    2    0  502  0.23833484978E+02  0.59213230484E+01 -0.50898967782E+02  0.56708835238E+02  0.47000000000E+01 0.  1.
        -11    1    1    2    0    0 -0.37866773048E+02  0.15521873138E+03 -0.23592913677E+03  0.28493736970E+03  0.00000000000E+00 0. -1.
         11    1    1    2    0    0  0.33687863129E+02  0.52643278984E+02 -0.49846991982E+02  0.79943164523E+02  0.00000000000E+00 0.  1.
<mgrwt>
<rscale>  0 0.23855803E+03</rscale>
<asrwt>0</asrwt>
<pdfrwt beam="2">  1        2 0.17558364E+00 0.24258650E+03</pdfrwt>
<pdfrwt beam="1">  1       -2 0.88588378E-02 0.24258650E+03</pdfrwt>
<totfact> 0.17390656E+03</totfact>
</mgrwt>
</event>
<event>
 6    1  0.1045058E-005  0.1193716E+03  0.7546771E-02  0.1254473E+00
          1   -1    0    0  501    0  0.00000000000E+00  0.00000000000E+00  0.14983528247E+03  0.14983528247E+03  0.00000000000E+00 0. -1.
         -1   -1    0    0    0  501 -0.00000000000E+00 -0.00000000000E+00 -0.80191162978E+02  0.80191162978E+02  0.00000000000E+00 0.  1.
          5    1    1    2  502    0  0.11242765478E+02  0.41616226380E+02  0.40214272125E+02  0.59140407137E+02  0.47000000000E+01 0. -1.
         -5    1    1    2    0  502 -0.13868294623E+01 -0.70912871885E+02  0.16269096435E+02  0.72920039727E+02  0.47000000000E+01 0.  1.
        -11    1    1    2    0    0 -0.39998153419E+02  0.25114988772E+02  0.36439118300E+02  0.59652529539E+02  0.00000000000E+00 0.  1.
         11    1    1    2    0    0  0.30142217403E+02  0.41816567327E+01 -0.23278367368E+02  0.38313469046E+02  0.00000000000E+00 0. -1.
<mgrwt>
<rscale>  0 0.11335901E+03</rscale>
<asrwt>0</asrwt>
<pdfrwt beam="1">  1        1 0.23051582E-01 0.11937165E+03</pdfrwt>
<pdfrwt beam="2">  1       -1 0.12337102E-01 0.11937165E+03</pdfrwt>
<totfact> 0.87016590E+03</totfact>
</mgrwt>
</event>
<event>
 6    1  0.1919921E-005  0.3261526E+03  0.7546771E-02  0.1074095E+00
          1   -1    0    0  501    0  0.00000000000E+00  0.00000000000E+00  0.93216439294E+03  0.93216439294E+03  0.00000000000E+00 0. -1.
         -1   -1    0    0    0  501 -0.00000000000E+00 -0.00000000000E+00 -0.11787705652E+03  0.11787705652E+03  0.00000000000E+00 0.  1.
          5    1    1    2  502    0  0.18691772351E+03 -0.11499492748E+03  0.27030540473E+03  0.34820851588E+03  0.47000000000E+01 0.  1.
         -5    1    1    2    0  502  0.63840366890E+02 -0.51949773387E+02  0.27600758584E+03  0.28805667643E+03  0.47000000000E+01 0.  1.
        -11    1    1    2    0    0 -0.21802229596E+03  0.98468704323E+02  0.20886701922E+03  0.31757713863E+03  0.00000000000E+00 0. -1.
         11    1    1    2    0    0 -0.32735794442E+02  0.68475996548E+02  0.59107326639E+02  0.96199118516E+02  0.00000000000E+00 0.  1.
<mgrwt>
<rscale>  0 0.32339940E+03</rscale>
<asrwt>0</asrwt>
<pdfrwt beam="1">  1        1 0.14340990E+00 0.32615259E+03</pdfrwt>
<pdfrwt beam="2">  1       -1 0.18134932E-01 0.32615259E+03</pdfrwt>
<totfact> 0.42665177E+02</totfact>
</mgrwt>
</event>
<event>
 6    1  0.1045058E-005  0.1329739E+03  0.7546771E-02  0.1240445E+00
         -2   -1    0    0    0  501 -0.00000000000E+00  0.00000000000E+00  0.44225965009E+03  0.44225965009E+03  0.00000000000E+00 0.  1.
          2   -1    0    0  501    0  0.00000000000E+00 -0.00000000000E+00 -0.29196787869E+02  0.29196787869E+02  0.00000000000E+00 0. -1.
          5    1    1    2  502    0  0.46620316764E+02 -0.31085467959E+02  0.20044465156E+03  0.20818239261E+03  0.47000000000E+01 0. -1.
         -5    1    1    2    0  502 -0.59191656241E+02 -0.12494103656E+02  0.66337553621E+02  0.89902813166E+02  0.47000000000E+01 0. -1.
        -11    1    1    2    0    0 -0.20651576931E+02  0.17872167395E+02  0.12164389544E+03  0.12467212717E+03  0.00000000000E+00 0.  1.
         11    1    1    2    0    0  0.33222916409E+02  0.25707404219E+02  0.24636761603E+02  0.48699105009E+02  0.00000000000E+00 0. -1.
<mgrwt>
<rscale>  0 0.12162185E+03</rscale>
<asrwt>0</asrwt>
<pdfrwt beam="2">  1        2 0.44918138E-02 0.13297385E+03</pdfrwt>
<pdfrwt beam="1">  1       -2 0.68039941E-01 0.13297385E+03</pdfrwt>
<totfact> 0.34992783E+03</totfact>
</mgrwt>
</event>
<event>
 6    1  0.1045058E-005  0.1828389E+03  0.7546771E-02  0.1193114E+00
          1   -1    0    0  501    0  0.00000000000E+00  0.00000000000E+00  0.20570123652E+04  0.20570123652E+04  0.00000000000E+00 0. -1.
         -1   -1    0    0    0  501 -0.00000000000E+00 -0.00000000000E+00 -0.33971920832E+02  0.33971920832E+02  0.00000000000E+00 0.  1.
          5    1    1    2  502    0  0.45290480040E+02  0.84869473999E+02  0.15453507995E+04  0.15483491979E+04  0.47000000000E+01 0. -1.
         -5    1    1    2    0  502 -0.17272471221E+02 -0.66161173823E+02  0.42792510313E+03  0.43337930624E+03  0.47000000000E+01 0.  1.
        -11    1    1    2    0    0 -0.38096030835E+02  0.50191171712E+01  0.67704660945E+02  0.77848700800E+02  0.00000000000E+00 0. -1.
         11    1    1    2    0    0  0.10078022016E+02 -0.23727417347E+02 -0.17940119234E+02  0.31407081046E+02  0.00000000000E+00 0.  1.
<mgrwt>
<rscale>  0 0.15614918E+03</rscale>
<asrwt>0</asrwt>
<pdfrwt beam="1">  1        1 0.31646334E+00 0.18283894E+03</pdfrwt>
<pdfrwt beam="2">  1       -1 0.52264510E-02 0.18283894E+03</pdfrwt>
<totfact> 0.51790350E+02</totfact>
</mgrwt>
</event>
<event>
 6    1  0.1045058E-005  0.1404960E+03  0.7546771E-02  0.1222279E+00
         -2   -1    0    0    0  501 -0.00000000000E+00  0.00000000000E+00  0.17469335678E+03  0.17469335678E+03  0.00000000000E+00 0.  1.
          2   -1    0    0  501    0  0.00000000000E+00 -0.00000000000E+00 -0.93211107943E+02  0.93211107943E+02  0.00000000000E+00 0. -1.
          5    1    1    2  502    0  0.27556111166E+02  0.65817609720E+02  0.67566896220E+02  0.98380244342E+02  0.47000000000E+01 0. -1.
         -5    1    1    2    0  502 -0.43940062473E+02 -0.38025119721E+01 -0.21747145096E+02  0.49398547623E+02  0.47000000000E+01 0. -1.
        -11    1    1    2    0    0  0.46859990677E+02 -0.14520952475E+01  0.13259566447E+02  0.48721488167E+02  0.00000000000E+00 0.  1.
         11    1    1    2    0    0 -0.30476039370E+02 -0.60563002501E+02  0.22402931262E+02  0.71404184589E+02  0.00000000000E+00 0. -1.
<mgrwt>
<rscale>  0 0.13355132E+03</rscale>
<asrwt>0</asrwt>
<pdfrwt beam="2">  1        2 0.14340171E-01 0.14049598E+03</pdfrwt>
<pdfrwt beam="1">  1       -2 0.26875901E-01 0.14049598E+03</pdfrwt>
<totfact> 0.49057465E+03</totfact>
</mgrwt>
</event>
<event>
 6    1  0.1045058E-005  0.1305362E+03  0.7546771E-02  0.1239606E+00
          1   -1    0    0  501    0  0.00000000000E+00  0.00000000000E+00  0.43420393493E+03  0.43420393493E+03  0.00000000000E+00 0. -1.
         -1   -1    0    0    0  501 -0.00000000000E+00 -0.00000000000E+00 -0.35074231493E+02  0.35074231493E+02  0.00000000000E+00 0.  1.
          5    1    1    2  502    0  0.19243567722E+01 -0.60068325067E+02  0.69958328240E+02  0.92348061785E+02  0.47000000000E+01 0.  1.
         -5    1    1    2    0  502 -0.29306272679E+02  0.34269773304E+02  0.23564763424E+03  0.23996910739E+03  0.47000000000E+01 0.  1.
        -11    1    1    2    0    0  0.58031893280E+02 -0.26894250400E+01  0.51050402059E+02  0.77337424285E+02  0.00000000000E+00 0.  1.
         11    1    1    2    0    0 -0.30649977373E+02  0.28487976802E+02  0.42473338901E+02  0.59623572961E+02  0.00000000000E+00 0. -1.
<mgrwt>
<rscale>  0 0.12214094E+03</rscale>
<asrwt>0</asrwt>
<pdfrwt beam="1">  1        1 0.66800602E-01 0.13053619E+03</pdfrwt>
<pdfrwt beam="2">  1       -1 0.53960359E-02 0.13053619E+03</pdfrwt>
<totfact> 0.81252838E+03</totfact>
</mgrwt>
</event>
<event>
 6    1  0.1045058E-005  0.1836113E+03  0.7546771E-02  0.1169606E+00
          2   -1    0    0  501    0  0.00000000000E+00  0.00000000000E+00  0.60993401161E+03  0.60993401161E+03  0.00000000000E+00 0. -1.
         -2   -1    0    0    0  501 -0.00000000000E+00 -0.00000000000E+00 -0.49204418448E+02  0.49204418448E+02  0.00000000000E+00 0.  1.
          5    1    1    2  502    0  0.50240202937E+02  0.15118579381E+02  0.18982736992E+02  0.55991818486E+02  0.47000000000E+01 0.  1.
         -5    1    1    2    0  502  0.78065513907E+02 -0.55436065859E+02  0.26873927629E+03  0.28532485080E+03  0.47000000000E+01 0.  1.
        -11    1    1    2    0    0 -0.56411001858E+02  0.24845824303E+02  0.21642763308E+03  0.22503430067E+03  0.00000000000E+00 0. -1.
         11    1    1    2    0    0 -0.71894714985E+02  0.15471662174E+02  0.56579946787E+02  0.92787460099E+02  0.00000000000E+00 0.  1.
<mgrwt>
<rscale>  0 0.17814936E+03</rscale>
<asrwt>0</asrwt>
<pdfrwt beam="1">  1        2 0.93835997E-01 0.18361131E+03</pdfrwt>
<pdfrwt beam="2">  1       -2 0.75699109E-02 0.18361131E+03</pdfrwt>
<totfact> 0.50047025E+03</totfact>
</mgrwt>
</event>
<event>
 6    1  0.1045058E-005  0.1349573E+03  0.7546771E-02  0.1233875E+00
         -1   -1    0    0    0  501 -0.00000000000E+00  0.00000000000E+00  0.18461399418E+03  0.18461399418E+03  0.00000000000E+00 0.  1.
          1   -1    0    0  501    0  0.00000000000E+00 -0.00000000000E+00 -0.92204263023E+02  0.92204263023E+02  0.00000000000E+00 0. -1.
          5    1    1    2  502    0  0.86295805435E+01  0.41317225702E+02 -0.61027437945E+01  0.42905900316E+02  0.47000000000E+01 0.  1.
         -5    1    1    2    0  502 -0.39807091451E+01 -0.91987746070E+02 -0.98668824929E-01  0.92193769898E+02  0.47000000000E+01 0.  1.
        -11    1    1    2    0    0  0.40204304279E+02  0.17041321158E+02  0.29354575242E+02  0.52616383352E+02  0.00000000000E+00 0. -1.
         11    1    1    2    0    0 -0.44853175678E+02  0.33629199211E+02  0.69256568536E+02  0.89102203639E+02  0.00000000000E+00 0.  1.
<mgrwt>
<rscale>  0 0.12576714E+03</rscale>
<asrwt>0</asrwt>
<pdfrwt beam="2">  1        1 0.14185271E-01 0.13495726E+03</pdfrwt>
<pdfrwt beam="1">  1       -1 0.28402153E-01 0.13495726E+03</pdfrwt>
<totfact> 0.43091486E+03</totfact>
</mgrwt>
</event>
<event>
 6    1  0.1045058E-005  0.1475987E+03  0.7546771E-02  0.1212995E+00
          2   -1    0    0  501    0  0.00000000000E+00  0.00000000000E+00  0.16712562649E+03  0.16712562649E+03  0.00000000000E+00 0. -1.
         -2   -1    0    0    0  501 -0.00000000000E+00 -0.00000000000E+00 -0.11536741406E+03  0.11536741406E+03  0.00000000000E+00 0.  1.
          5    1    1    2  502    0  0.63462519289E+02  0.49296199856E+02  0.94399072995E+02  0.12405999217E+03  0.47000000000E+01 0. -1.
         -5    1    1    2    0  502 -0.17776167712E+02  0.14538306860E+02 -0.29075995547E+02  0.37347798087E+02  0.47000000000E+01 0. -1.
        -11    1    1    2    0    0 -0.38986658658E+02 -0.45197612379E+02  0.34610746136E+02  0.68997735225E+02  0.00000000000E+00 0. -1.
         11    1    1    2    0    0 -0.66996929183E+01 -0.18636894337E+02 -0.48175611156E+02  0.52087515068E+02  0.00000000000E+00 0.  1.
<mgrwt>
<rscale>  0 0.14024877E+03</rscale>
<asrwt>0</asrwt>
<pdfrwt beam="1">  1        2 0.25711635E-01 0.14759868E+03</pdfrwt>
<pdfrwt beam="2">  1       -2 0.17748833E-01 0.14759868E+03</pdfrwt>
<totfact> 0.51575310E+03</totfact>
</mgrwt>
</event>
<event>
 6    1  0.1045058E-005  0.1374597E+03  0.7546771E-02  0.1229007E+00
         -2   -1    0    0    0  501 -0.00000000000E+00  0.00000000000E+00  0.55241857745E+02  0.55241857745E+02  0.00000000000E+00 0.  1.
          2   -1    0    0  501    0  0.00000000000E+00 -0.00000000000E+00 -0.27416779141E+03  0.27416779141E+03  0.00000000000E+00 0. -1.
          5    1    1    2  502    0  0.16669041378E+02  0.17576122276E+02  0.92868961158E+01  0.26365004346E+02  0.47000000000E+01 0. -1.
         -5    1    1    2    0  502 -0.71476633247E+02 -0.33946202316E+02 -0.15414630493E+03  0.17333328323E+03  0.47000000000E+01 0. -1.
        -11    1    1    2    0    0  0.78417488355E+02  0.76908487567E+01 -0.67400680212E+02  0.10368849178E+03  0.00000000000E+00 0. -1.
         11    1    1    2    0    0 -0.23609896485E+02  0.86792312839E+01 -0.66658446379E+01  0.26022869797E+02  0.00000000000E+00 0.  1.
<mgrwt>
<rscale>  0 0.12895975E+03</rscale>
<asrwt>0</asrwt>
<pdfrwt beam="2">  1        2 0.42179660E-01 0.13745966E+03</pdfrwt>
<pdfrwt beam="1">  1       -2 0.84987474E-02 0.13745966E+03</pdfrwt>
<totfact> 0.98129347E+03</totfact>
</mgrwt>
</event>
<event>
 6    1  0.1045058E-005  0.1316972E+03  0.7546771E-02  0.1236500E+00
         -1   -1    0    0    0  501 -0.00000000000E+00  0.00000000000E+00  0.47527923530E+02  0.47527923530E+02  0.00000000000E+00 0.  1.
          1   -1    0    0  501    0  0.00000000000E+00 -0.00000000000E+00 -0.29196871331E+03  0.29196871331E+03  0.00000000000E+00 0. -1.
          5    1    1    2  502    0  0.61909072564E+02  0.27023779685E+01 -0.28617203319E+02  0.68418348696E+02  0.47000000000E+01 0. -1.
         -5    1    1    2    0  502 -0.41437853581E+02 -0.38945750797E+02 -0.10314001428E+03  0.11787204826E+03  0.47000000000E+01 0. -1.
        -11    1    1    2    0    0  0.20443548876E+02 -0.14847201617E+02 -0.29549642065E+01  0.25438354899E+02  0.00000000000E+00 0.  1.
         11    1    1    2    0    0 -0.40914767859E+02  0.51090574446E+02 -0.10972860797E+03  0.12776788499E+03  0.00000000000E+00 0. -1.
<mgrwt>
<rscale>  0 0.12408873E+03</rscale>
<asrwt>0</asrwt>
<pdfrwt beam="2">  1        1 0.44918262E-01 0.13169718E+03</pdfrwt>
<pdfrwt beam="1">  1       -1 0.73119884E-02 0.13169718E+03</pdfrwt>
<totfact> 0.84849636E+03</totfact>
</mgrwt>
</event>
<event>
 6    1  0.1045058E-005  0.1292165E+03  0.7546771E-02  0.1242456E+00
          2   -1    0    0  501    0  0.00000000000E+00  0.00000000000E+00  0.67985767876E+03  0.67985767876E+03  0.00000000000E+00 0. -1.
         -2   -1    0    0    0  501 -0.00000000000E+00 -0.00000000000E+00 -0.24403901751E+02  0.24403901751E+02  0.00000000000E+00 0.  1.
          5    1    1    2  502    0  0.44210865543E+02 -0.38150912761E+01  0.10415798940E+03  0.11331430761E+03  0.47000000000E+01 0. -1.
         -5    1    1    2    0  502 -0.69637456628E+02  0.24434385252E+02  0.42547585440E+03  0.43185438197E+03  0.47000000000E+01 0. -1.
        -11    1    1    2    0    0 -0.34662394391E+02 -0.66504261265E+01  0.39172980888E+02  0.52727907072E+02  0.00000000000E+00 0. -1.
         11    1    1    2    0    0  0.60088985476E+02 -0.13968867849E+02  0.86646952315E+02  0.10636498385E+03  0.00000000000E+00 0.  1.
<mgrwt>
<rscale>  0 0.12038955E+03</rscale>
<asrwt>0</asrwt>
<pdfrwt beam="1">  1        2 0.10459347E+00 0.12921645E+03</pdfrwt>
<pdfrwt beam="2">  1       -2 0.37544470E-02 0.12921645E+03</pdfrwt>
<totfact> 0.12488604E+04</totfact>
</mgrwt>
</event>
<event>
 6    1  0.1045058E-005  0.1526808E+03  0.7546771E-02  0.1205877E+00
          1   -1    0    0  501    0  0.00000000000E+00  0.00000000000E+00  0.39158610537E+03  0.39158610537E+03  0.00000000000E+00 0. -1.
         -1   -1    0    0    0  501 -0.00000000000E+00 -0.00000000000E+00 -0.75395675381E+02  0.75395675381E+02  0.00000000000E+00 0.  1.
          5    1    1    2  502    0  0.15996662137E+02 -0.27766748039E+02  0.24603254816E+02  0.40673033373E+02  0.47000000000E+01 0. -1.
         -5    1    1    2    0  502 -0.10360512037E+03  0.30011380173E+02  0.27894887056E+03  0.29911413589E+03  0.47000000000E+01 0. -1.
        -11    1    1    2    0    0  0.77853564186E+02  0.31520751407E+02 -0.11186703507E+02  0.84734158172E+02  0.00000000000E+00 0.  1.
         11    1    1    2    0    0  0.97548940459E+01 -0.33765383541E+02  0.23825008127E+02  0.42460453316E+02  0.00000000000E+00 0. -1.
<mgrwt>
<rscale>  0 0.14568568E+03</rscale>
<asrwt>0</asrwt>
<pdfrwt beam="1">  1        1 0.60244015E-01 0.15268080E+03</pdfrwt>
<pdfrwt beam="2">  1       -1 0.11599335E-01 0.15268080E+03</pdfrwt>
<totfact> 0.29393422E+03</totfact>
</mgrwt>
</event>
<event>
 6    1  0.1045058E-005  0.1285986E+03  0.7546771E-02  0.1244278E+00
          2   -1    0    0  501    0  0.00000000000E+00  0.00000000000E+00  0.20424841217E+03  0.20424841217E+03  0.00000000000E+00 0. -1.
         -2   -1    0    0    0  501 -0.00000000000E+00 -0.00000000000E+00 -0.62053790567E+02  0.62053790567E+02  0.00000000000E+00 0.  1.
          5    1    1    2  502    0 -0.47564939630E+02  0.23142666571E+01  0.10904302175E+03  0.11908085448E+03  0.47000000000E+01 0. -1.
         -5    1    1    2    0  502  0.31373258125E+02  0.23198079712E+02 -0.13032264199E+02  0.41404856453E+02  0.47000000000E+01 0. -1.
        -11    1    1    2    0    0  0.53955970388E+02 -0.14591699128E+02  0.27017510266E+02  0.62081481015E+02  0.00000000000E+00 0.  1.
         11    1    1    2    0    0 -0.37764288884E+02 -0.10920647241E+02  0.19166353786E+02  0.43735010787E+02  0.00000000000E+00 0. -1.
<mgrwt>
<rscale>  0 0.11928703E+03</rscale>
<asrwt>0</asrwt>
<pdfrwt beam="1">  1        2 0.31422832E-01 0.12859859E+03</pdfrwt>
<pdfrwt beam="2">  1       -2 0.95467371E-02 0.12859859E+03</pdfrwt>
<totfact> 0.11155306E+04</totfact>
</mgrwt>
</event>
<event>
 6    1  0.1045058E-005  0.2766537E+03  0.7546771E-02  0.1099415E+00
          1   -1    0    0  501    0  0.00000000000E+00  0.00000000000E+00  0.14332888666E+04  0.14332888666E+04  0.00000000000E+00 0. -1.
         -1   -1    0    0    0  501 -0.00000000000E+00 -0.00000000000E+00 -0.57821566672E+02  0.57821566672E+02  0.00000000000E+00 0.  1.
          5    1    1    2  502    0 -0.82907163981E+02 -0.17180295891E+03  0.67891316473E+03  0.70521984500E+03  0.47000000000E+01 0. -1.
         -5    1    1    2    0  502 -0.85063653303E+02 -0.90216468557E+01  0.28199533093E+03  0.29472134617E+03  0.47000000000E+01 0. -1.
        -11    1    1    2    0    0  0.92944607373E+02  0.35464559057E+02  0.16927852711E+03  0.19634575302E+03  0.00000000000E+00 0.  1.
         11    1    1    2    0    0  0.75026209912E+02  0.14536004671E+03  0.24528027719E+03  0.29482348911E+03  0.00000000000E+00 0. -1.
<mgrwt>
<rscale>  0 0.27328326E+03</rscale>
<asrwt>0</asrwt>
<pdfrwt beam="1">  1        1 0.22050595E+00 0.27665366E+03</pdfrwt>
<pdfrwt beam="2">  1       -1 0.88956267E-02 0.27665366E+03</pdfrwt>
<totfact> 0.58033160E+02</totfact>
</mgrwt>
</event>
<event>
 6    1  0.1045058E-005  0.1847804E+03  0.7546771E-02  0.1168225E+00
          1   -1    0    0  501    0  0.00000000000E+00  0.00000000000E+00  0.48158355189E+03  0.48158355189E+03  0.00000000000E+00 0. -1.
         -1   -1    0    0    0  501 -0.00000000000E+00 -0.00000000000E+00 -0.70878847108E+02  0.70878847108E+02  0.00000000000E+00 0.  1.
          5    1    1    2  502    0 -0.46450559120E+02  0.23294929900E+02  0.79462122104E+02  0.95061175308E+02  0.47000000000E+01 0.  1.
         -5    1    1    2    0  502  0.73501949030E+02  0.11006125125E+03  0.22579293972E+03  0.26176431607E+03  0.47000000000E+01 0.  1.
        -11    1    1    2    0    0  0.32004246646E+02 -0.26796244126E+02  0.37646395991E+02  0.56209978063E+02  0.00000000000E+00 0.  1.
         11    1    1    2    0    0 -0.59055636557E+02 -0.10655993702E+03  0.67803246962E+02  0.13942692956E+03  0.00000000000E+00 0. -1.
<mgrwt>
<rscale>  0 0.17956489E+03</rscale>
<asrwt>0</asrwt>
<pdfrwt beam="1">  1        1 0.74089775E-01 0.18478035E+03</pdfrwt>
<pdfrwt beam="2">  1       -1 0.10904438E-01 0.18478035E+03</pdfrwt>
<totfact> 0.24955662E+03</totfact>
</mgrwt>
</event>
<event>
 6    1  0.1045058E-005  0.1266706E+03  0.7546771E-02  0.1247349E+00
          3   -1    0    0  501    0  0.00000000000E+00  0.00000000000E+00  0.75092940317E+03  0.75092940317E+03  0.00000000000E+00 0. -1.
         -3   -1    0    0    0  501 -0.00000000000E+00 -0.00000000000E+00 -0.19934353415E+02  0.19934353415E+02  0.00000000000E+00 0.  1.
          5    1    1    2  502    0  0.42748684188E+02 -0.22522802947E+02  0.51028113492E+03  0.51258526443E+03  0.47000000000E+01 0. -1.
         -5    1    1    2    0  502 -0.40149944753E+02  0.22037797186E+01  0.65790978793E+02  0.77249062125E+02  0.47000000000E+01 0. -1.
        -11    1    1    2    0    0 -0.56871525325E+00 -0.34200697319E+02  0.89677574159E+02  0.95979573042E+02  0.00000000000E+00 0. -1.
         11    1    1    2    0    0 -0.20300241821E+01  0.54519720547E+02  0.65245361879E+02  0.85049856987E+02  0.00000000000E+00 0.  1.
<mgrwt>
<rscale>  0 0.11745872E+03</rscale>
<asrwt>0</asrwt>
<pdfrwt beam="1">  1        3 0.11552758E+00 0.12667065E+03</pdfrwt>
<pdfrwt beam="2">  1       -3 0.30668242E-02 0.12667065E+03</pdfrwt>
<totfact> 0.73156974E+02</totfact>
</mgrwt>
</event>
<event>
 6    1  0.1045058E-005  0.1423880E+03  0.7546771E-02  0.1220542E+00
         -3   -1    0    0    0  501 -0.00000000000E+00  0.00000000000E+00  0.93807323318E+01  0.93807323318E+01  0.00000000000E+00 0.  1.
          3   -1    0    0  501    0  0.00000000000E+00 -0.00000000000E+00 -0.18004418359E+04  0.18004418359E+04  0.00000000000E+00 0. -1.
          5    1    1    2  502    0 -0.17694785648E+02 -0.30698560822E+02 -0.88907022239E+02  0.95823043571E+02  0.47000000000E+01 0. -1.
         -5    1    1    2    0  502 -0.49722461053E+02  0.40966567240E+02 -0.10440601037E+04  0.10460564865E+04  0.47000000000E+01 0. -1.
        -11    1    1    2    0    0  0.64408665810E+02  0.31879442473E+02 -0.43126388571E+03  0.43721083495E+03  0.00000000000E+00 0. -1.
         11    1    1    2    0    0  0.30085808910E+01 -0.42147448890E+02 -0.22683009194E+03  0.23073220325E+03  0.00000000000E+00 0.  1.
<mgrwt>
<rscale>  0 0.13477177E+03</rscale>
<asrwt>0</asrwt>
<pdfrwt beam="2">  1        3 0.27699097E+00 0.14238804E+03</pdfrwt>
<pdfrwt beam="1">  1       -3 0.14431900E-02 0.14238804E+03</pdfrwt>
<totfact> 0.22244500E+02</totfact>
</mgrwt>
</event>
<event>
 6    1  0.1045058E-005  0.1681053E+03  0.7546771E-02  0.1186386E+00
          1   -1    0    0  501    0  0.00000000000E+00  0.00000000000E+00  0.50945727713E+03  0.50945727713E+03  0.00000000000E+00 0. -1.
         -1   -1    0    0    0  501 -0.00000000000E+00 -0.00000000000E+00 -0.64156908042E+02  0.64156908042E+02  0.00000000000E+00 0.  1.
          5    1    1    2  502    0  0.96842066841E+01 -0.16624503328E+02 -0.14677852682E+01  0.19859566048E+02  0.47000000000E+01 0. -1.
         -5    1    1    2    0  502 -0.71873161894E+02 -0.77025890538E+02  0.37920158689E+03  0.39359201302E+03  0.47000000000E+01 0. -1.
        -11    1    1    2    0    0  0.50033493147E+02  0.11214888439E+03  0.60707002142E+02  0.13698927993E+03  0.00000000000E+00 0.  1.
         11    1    1    2    0    0  0.12155462062E+02 -0.18498490523E+02  0.68595653246E+01  0.23173326175E+02  0.00000000000E+00 0. -1.
<mgrwt>
<rscale>  0 0.16206431E+03</rscale>
<asrwt>0</asrwt>
<pdfrwt beam="1">  1        1 0.78378040E-01 0.16810527E+03</pdfrwt>
<pdfrwt beam="2">  1       -1 0.98702939E-02 0.16810527E+03</pdfrwt>
<totfact> 0.26941811E+03</totfact>
</mgrwt>
</event>
<event>
 6    1  0.1045058E-005  0.1842959E+03  0.7546771E-02  0.1169739E+00
         -1   -1    0    0    0  501 -0.00000000000E+00  0.00000000000E+00  0.19240707506E+02  0.19240707506E+02  0.00000000000E+00 0.  1.
          1   -1    0    0  501    0  0.00000000000E+00 -0.00000000000E+00 -0.15444225326E+04  0.15444225326E+04  0.00000000000E+00 0. -1.
          5    1    1    2  502    0 -0.50514550526E+01 -0.86092483143E+02 -0.34408784958E+03  0.35476185122E+03  0.47000000000E+01 0.  1.
         -5    1    1    2    0  502 -0.96631718254E+02 -0.33564388407E+01 -0.48407402360E+03  0.49365849023E+03  0.47000000000E+01 0.  1.
        -11    1    1    2    0    0  0.11598195626E+03  0.71250060465E+02 -0.56168900924E+03  0.57794716748E+03  0.00000000000E+00 0.  1.
         11    1    1    2    0    0 -0.14298782951E+02  0.18198861518E+02 -0.13533094266E+03  0.13729573117E+03  0.00000000000E+00 0. -1.
<mgrwt>
<rscale>  0 0.17801376E+03</rscale>
<asrwt>0</asrwt>
<pdfrwt beam="2">  1        1 0.23760351E+00 0.18429592E+03</pdfrwt>
<pdfrwt beam="1">  1       -1 0.29601084E-02 0.18429592E+03</pdfrwt>
<totfact> 0.25680876E+03</totfact>
</mgrwt>
</event>
<event>
 6    1  0.1045058E-005  0.2059770E+03  0.7546771E-02  0.1149041E+00
         -1   -1    0    0    0  501 -0.00000000000E+00  0.00000000000E+00  0.36347488852E+02  0.36347488852E+02  0.00000000000E+00 0.  1.
          1   -1    0    0  501    0  0.00000000000E+00 -0.00000000000E+00 -0.11924315501E+04  0.11924315501E+04  0.00000000000E+00 0. -1.
          5    1    1    2  502    0 -0.94658013540E+02  0.91715874953E+01 -0.19728969757E+03  0.21906522388E+03  0.47000000000E+01 0. -1.
         -5    1    1    2    0  502 -0.69038535253E+02 -0.11085106176E+02 -0.61306517285E+03  0.61705769186E+03  0.47000000000E+01 0. -1.
        -11    1    1    2    0    0  0.11748244077E+03  0.49127146699E+01 -0.31712656509E+03  0.33822406322E+03  0.00000000000E+00 0.  1.
         11    1    1    2    0    0  0.46214108019E+02 -0.29991959888E+01 -0.28602625755E+02  0.54432060008E+02  0.00000000000E+00 0. -1.
<mgrwt>
<rscale>  0 0.20082934E+03</rscale>
<asrwt>0</asrwt>
<pdfrwt beam="2">  1        1 0.18345103E+00 0.20597697E+03</pdfrwt>
<pdfrwt beam="1">  1       -1 0.55919208E-02 0.20597697E+03</pdfrwt>
<totfact> 0.17227350E+03</totfact>
</mgrwt>
</event>
<event>
 6    1  0.1045058E-005  0.1342629E+03  0.7546771E-02  0.1234678E+00
         -2   -1    0    0    0  501 -0.00000000000E+00  0.00000000000E+00  0.11168524791E+03  0.11168524791E+03  0.00000000000E+00 0.  1.
          2   -1    0    0  501    0  0.00000000000E+00 -0.00000000000E+00 -0.18795486124E+03  0.18795486124E+03  0.00000000000E+00 0. -1.
          5    1    1    2  502    0  0.63823923390E+02 -0.54714350116E+02 -0.67151284220E+02  0.10769651005E+03  0.47000000000E+01 0. -1.
         -5    1    1    2    0  502 -0.15864638137E+02  0.45568345813E+02 -0.60895936872E+02  0.77836790856E+02  0.47000000000E+01 0. -1.
        -11    1    1    2    0    0 -0.41416379232E+01  0.44370107537E+02  0.15423951941E+02  0.47156737600E+02  0.00000000000E+00 0.  1.
         11    1    1    2    0    0 -0.43817647329E+02 -0.35224103233E+02  0.36353655819E+02  0.66950070631E+02  0.00000000000E+00 0. -1.
<mgrwt>
<rscale>  0 0.12525038E+03</rscale>
<asrwt>0</asrwt>
<pdfrwt beam="2">  1        2 0.28916132E-01 0.13426286E+03</pdfrwt>
<pdfrwt beam="1">  1       -2 0.17182346E-01 0.13426286E+03</pdfrwt>
<totfact> 0.47598187E+03</totfact>
</mgrwt>
</event>
<event>
 6    1  0.1045058E-005  0.1587025E+03  0.7546771E-02  0.1194487E+00
          2   -1    0    0  501    0  0.00000000000E+00  0.00000000000E+00  0.19781856591E+03  0.19781856591E+03  0.00000000000E+00 0. -1.
         -2   -1    0    0    0  501 -0.00000000000E+00 -0.00000000000E+00 -0.11979564508E+03  0.11979564508E+03  0.00000000000E+00 0.  1.
          5    1    1    2  502    0  0.10307465837E+02  0.29291583593E+02  0.17931221539E+02  0.36164339165E+02  0.47000000000E+01 0.  1.
         -5    1    1    2    0  502 -0.37326117360E+01 -0.12686119302E+03  0.50953657204E+02  0.13684319445E+03  0.47000000000E+01 0.  1.
        -11    1    1    2    0    0  0.23765770020E+02 -0.39485888962E+01 -0.23584180735E+02  0.33713747342E+02  0.00000000000E+00 0.  1.
         11    1    1    2    0    0 -0.30340624120E+02  0.10151819833E+03  0.32722222825E+02  0.11089293003E+03  0.00000000000E+00 0. -1.
<mgrwt>
<rscale>  0 0.15497715E+03</rscale>
<asrwt>0</asrwt>
<pdfrwt beam="1">  1        2 0.30433626E-01 0.15870249E+03</pdfrwt>
<pdfrwt beam="2">  1       -2 0.18430099E-01 0.15870249E+03</pdfrwt>
<totfact> 0.40434242E+03</totfact>
</mgrwt>
</event>
<event>
 6    1  0.1045058E-005  0.2197768E+03  0.7546771E-02  0.1134050E+00
          2   -1    0    0  501    0  0.00000000000E+00  0.00000000000E+00  0.35873759900E+02  0.35873759900E+02  0.00000000000E+00 0. -1.
         -2   -1    0    0    0  501 -0.00000000000E+00 -0.00000000000E+00 -0.33660979610E+03  0.33660979610E+03  0.00000000000E+00 0.  1.
          5    1    1    2  502    0 -0.35637129033E+01 -0.76918837862E+01  0.20302301156E+02  0.22497523376E+02  0.47000000000E+01 0. -1.
         -5    1    1    2    0  502  0.85542163821E+01  0.20773219357E+02 -0.17680137192E+03  0.17828493030E+03  0.47000000000E+01 0. -1.
        -11    1    1    2    0    0 -0.20392647966E+02 -0.42513074073E+02 -0.12433963248E+03  0.13297956897E+03  0.00000000000E+00 0.  1.
         11    1    1    2    0    0  0.15402144487E+02  0.29431738502E+02 -0.19897332949E+02  0.38721533344E+02  0.00000000000E+00 0. -1.
<mgrwt>
<rscale>  0 0.21977679E+03</rscale>
<asrwt>0</asrwt>
<pdfrwt beam="1">  1        2 0.55190401E-02 0.21977679E+03</pdfrwt>
<pdfrwt beam="2">  1       -2 0.51786121E-01 0.21977679E+03</pdfrwt>
<totfact> 0.48467975E+03</totfact>
</mgrwt>
</event>
<event>
 6    1  0.1045058E-005  0.1498308E+03  0.7546771E-02  0.1210052E+00
         -1   -1    0    0    0  501 -0.00000000000E+00  0.00000000000E+00  0.40881626071E+03  0.40881626071E+03  0.00000000000E+00 0.  1.
          1   -1    0    0  501    0  0.00000000000E+00 -0.00000000000E+00 -0.60210961634E+02  0.60210961634E+02  0.00000000000E+00 0. -1.
          5    1    1    2  502    0 -0.31613080866E+02 -0.36083467287E+02 -0.23666765757E+02  0.53699248549E+02  0.47000000000E+01 0.  1.
         -5    1    1    2    0  502  0.37423542388E+02 -0.46321312499E+02  0.95062024690E+02  0.11227227643E+03  0.47000000000E+01 0.  1.
        -11    1    1    2    0    0 -0.47302442039E+02  0.55863896518E+02  0.16748783792E+03  0.18278531617E+03  0.00000000000E+00 0.  1.
         11    1    1    2    0    0  0.41491980516E+02  0.26540883268E+02  0.10972220222E+03  0.12027038119E+03  0.00000000000E+00 0. -1.
<mgrwt>
<rscale>  0 0.14246317E+03</rscale>
<asrwt>0</asrwt>
<pdfrwt beam="2">  1        1 0.92632251E-02 0.14983078E+03</pdfrwt>
<pdfrwt beam="1">  1       -1 0.62894808E-01 0.14983078E+03</pdfrwt>
<totfact> 0.18450761E+03</totfact>
</mgrwt>
</event>
<event>
 6    1  0.1045058E-005  0.2625097E+03  0.7546771E-02  0.1107791E+00
         -1   -1    0    0    0  501 -0.00000000000E+00  0.00000000000E+00  0.15561842191E+03  0.15561842191E+03  0.00000000000E+00 0.  1.
          1   -1    0    0  501    0  0.00000000000E+00 -0.00000000000E+00 -0.47749003645E+03  0.47749003645E+03  0.00000000000E+00 0. -1.
          5    1    1    2  502    0  0.42517933904E+02 -0.18286344240E+03 -0.12926005475E+03  0.22798479121E+03  0.47000000000E+01 0.  1.
         -5    1    1    2    0  502  0.36641741061E+01 -0.43311203041E+02 -0.14590370313E+03  0.15231305613E+03  0.47000000000E+01 0.  1.
        -11    1    1    2    0    0 -0.41901895412E+02  0.43079587774E+02 -0.34415455656E+02  0.69253471465E+02  0.00000000000E+00 0.  1.
         11    1    1    2    0    0 -0.42802125983E+01  0.18309505766E+03 -0.12292401005E+02  0.18355713956E+03  0.00000000000E+00 0. -1.
<mgrwt>
<rscale>  0 0.25892410E+03</rscale>
<asrwt>0</asrwt>
<pdfrwt beam="2">  1        1 0.73460006E-01 0.26250973E+03</pdfrwt>
<pdfrwt beam="1">  1       -1 0.23941296E-01 0.26250973E+03</pdfrwt>
<totfact> 0.72153286E+02</totfact>
</mgrwt>
</event>
<event>
 6    1  0.1045058E-005  0.1434702E+03  0.7546771E-02  0.1219415E+00
         -1   -1    0    0    0  501 -0.00000000000E+00  0.00000000000E+00  0.11693159883E+03  0.11693159883E+03  0.00000000000E+00 0.  1.
          1   -1    0    0  501    0  0.00000000000E+00 -0.00000000000E+00 -0.19483480707E+03  0.19483480707E+03  0.00000000000E+00 0. -1.
          5    1    1    2  502    0 -0.32074970798E+02  0.74702094748E+02 -0.11765524782E+03  0.14308757476E+03  0.47000000000E+01 0. -1.
         -5    1    1    2    0  502 -0.26967034881E+02 -0.36329125940E+02 -0.51768345603E+01  0.45781174930E+02  0.47000000000E+01 0. -1.
        -11    1    1    2    0    0 -0.96034368921E+00 -0.46561805417E+02  0.41273598380E+02  0.62228883221E+02  0.00000000000E+00 0. -1.
         11    1    1    2    0    0  0.60002349368E+02  0.81888366091E+01  0.36552757599E+01  0.60668772986E+02  0.00000000000E+00 0.  1.
<mgrwt>
<rscale>  0 0.13557164E+03</rscale>
<asrwt>0</asrwt>
<pdfrwt beam="2">  1        1 0.29974586E-01 0.14347015E+03</pdfrwt>
<pdfrwt beam="1">  1       -1 0.17989477E-01 0.14347015E+03</pdfrwt>
<totfact> 0.35136087E+03</totfact>
</mgrwt>
</event>
<event>
 6    1  0.1045058E-005  0.1296353E+03  0.7546771E-02  0.1238274E+00
          2   -1    0    0  501    0  0.00000000000E+00  0.00000000000E+00  0.60235591365E+03  0.60235591365E+03  0.00000000000E+00 0.  1.
         -2   -1    0    0    0  501 -0.00000000000E+00 -0.00000000000E+00 -0.25241177084E+02  0.25241177084E+02  0.00000000000E+00 0. -1.
          5    1    1    2  502    0 -0.48753741866E+02 -0.16068974610E+02  0.19262646305E+03  0.19940457256E+03  0.47000000000E+01 0. -1.
         -5    1    1    2    0  502  0.76816279586E+02 -0.37533481925E+01  0.21963201415E+03  0.23275553715E+03  0.47000000000E+01 0. -1.
        -11    1    1    2    0    0  0.31436399201E+02  0.31290368236E+02  0.71470305330E+02  0.84115033633E+02  0.00000000000E+00 0.  1.
         11    1    1    2    0    0 -0.59498936922E+02 -0.11468045433E+02  0.93385954035E+02  0.11132194740E+03  0.00000000000E+00 0. -1.
<mgrwt>
<rscale>  0 0.12297177E+03</rscale>
<asrwt>0</asrwt>
<pdfrwt beam="1">  1        2 0.92670130E-01 0.12963529E+03</pdfrwt>
<pdfrwt beam="2">  1       -2 0.38832585E-02 0.12963529E+03</pdfrwt>
<totfact> 0.13665336E+04</totfact>
</mgrwt>
</event>
<event>
 6    1  0.1489694E-005  0.3604794E+03  0.7546771E-02  0.1058394E+00
         -1   -1    0    0    0  501 -0.00000000000E+00  0.00000000000E+00  0.17397233279E+02  0.17397233279E+02  0.00000000000E+00 0.  1.
          1   -1    0    0  501    0  0.00000000000E+00 -0.00000000000E+00 -0.18673284278E+04  0.18673284278E+04  0.00000000000E+00 0. -1.
          5    1    1    2  502    0 -0.14763865813E+02  0.12045849629E+03 -0.10767547298E+04  0.10835825115E+04  0.47000000000E+01 0.  1.
         -5    1    1    2    0  502 -0.20277845460E+01  0.20359130931E+02 -0.18857114390E+02  0.28218555695E+02  0.47000000000E+01 0.  1.
        -11    1    1    2    0    0  0.54072287075E+02 -0.89694289056E+02 -0.50016569070E+03  0.51101330303E+03  0.00000000000E+00 0.  1.
         11    1    1    2    0    0 -0.37280636716E+02 -0.51123338161E+02 -0.25415365963E+03  0.26191129086E+03  0.00000000000E+00 0. -1.
<mgrwt>
<rscale>  0 0.36047939E+03</rscale>
<asrwt>0</asrwt>
<pdfrwt beam="2">  1        1 0.28728117E+00 0.36047939E+03</pdfrwt>
<pdfrwt beam="1">  1       -1 0.26764986E-02 0.36047939E+03</pdfrwt>
<totfact> 0.18302301E+03</totfact>
</mgrwt>
</event>
<event>
 6    1  0.1045058E-005  0.1278293E+03  0.7546771E-02  0.1243907E+00
          2   -1    0    0  501    0  0.00000000000E+00  0.00000000000E+00  0.17933706078E+04  0.17933706078E+04  0.00000000000E+00 0. -1.
         -2   -1    0    0    0  501 -0.00000000000E+00 -0.00000000000E+00 -0.92456821037E+01  0.92456821037E+01  0.00000000000E+00 0.  1.
          5    1    1    2  502    0 -0.50545554897E+02 -0.11526426966E+02  0.10140066002E+04  0.10153419064E+04  0.47000000000E+01 0. -1.
         -5    1    1    2    0  502  0.57909096504E+02 -0.14130019156E+02  0.40194259161E+03  0.40636567012E+03  0.47000000000E+01 0. -1.
        -11    1    1    2    0    0  0.29114952425E+02  0.42949826615E+02  0.14255242456E+03  0.15170221425E+03  0.00000000000E+00 0.  1.
         11    1    1    2    0    0 -0.36478494033E+02 -0.17293380493E+02  0.22562330937E+03  0.22920649918E+03  0.00000000000E+00 0. -1.
<mgrwt>
<rscale>  0 0.11951029E+03</rscale>
<asrwt>0</asrwt>
<pdfrwt beam="1">  1        2 0.27590289E+00 0.12782926E+03</pdfrwt>
<pdfrwt beam="2">  1       -2 0.14224141E-02 0.12782926E+03</pdfrwt>
<totfact> 0.11857471E+04</totfact>
</mgrwt>
</event>
<event>
 6    1  0.1045058E-005  0.3400615E+03  0.7546771E-02  0.1066770E+00
         -2   -1    0    0    0  501 -0.00000000000E+00  0.00000000000E+00  0.10507994654E+03  0.10507994654E+03  0.00000000000E+00 0.  1.
          2   -1    0    0  501    0  0.00000000000E+00 -0.00000000000E+00 -0.27512819645E+03  0.27512819645E+03  0.00000000000E+00 0. -1.
          5    1    1    2  502    0 -0.12985929731E+02 -0.14076569212E+02 -0.61502936458E+02  0.64587037126E+02  0.47000000000E+01 0.  1.
         -5    1    1    2    0  502  0.12220100603E+03  0.64015023640E+02 -0.83897444483E+02  0.16152981247E+03  0.47000000000E+01 0.  1.
        -11    1    1    2    0    0 -0.67006889594E+02 -0.70422896260E+02 -0.39431773636E+02  0.10490077379E+03  0.00000000000E+00 0.  1.
         11    1    1    2    0    0 -0.42208186703E+02  0.20484441832E+02  0.14783904663E+02  0.49190519605E+02  0.00000000000E+00 0. -1.
<mgrwt>
<rscale>  0 0.34006150E+03</rscale>
<asrwt>0</asrwt>
<pdfrwt beam="2">  1        2 0.42327414E-01 0.34006150E+03</pdfrwt>
<pdfrwt beam="1">  1       -2 0.16166146E-01 0.34006150E+03</pdfrwt>
<totfact> 0.36379794E+03</totfact>
</mgrwt>
</event>
<event>
 6    1  0.1045058E-005  0.1272703E+03  0.7546771E-02  0.1246349E+00
          1   -1    0    0  501    0  0.00000000000E+00  0.00000000000E+00  0.12075568839E+03  0.12075568839E+03  0.00000000000E+00 0. -1.
         -1   -1    0    0    0  501 -0.00000000000E+00 -0.00000000000E+00 -0.10418700472E+03  0.10418700472E+03  0.00000000000E+00 0.  1.
          5    1    1    2  502    0 -0.19848768526E+02  0.27480028215E+02 -0.32283640628E+02  0.47047306138E+02  0.47000000000E+01 0.  1.
         -5    1    1    2    0  502  0.33928664240E+02 -0.46852076301E+02  0.59465327782E+02  0.83093239912E+02  0.47000000000E+01 0.  1.
        -11    1    1    2    0    0 -0.34105878537E+02  0.32485596599E+02  0.23886177514E+02  0.52811688227E+02  0.00000000000E+00 0. -1.
         11    1    1    2    0    0  0.20025982823E+02 -0.13113548513E+02 -0.34499181000E+02  0.41990458825E+02  0.00000000000E+00 0.  1.
<mgrwt>
<rscale>  0 0.11804975E+03</rscale>
<asrwt>0</asrwt>
<pdfrwt beam="1">  1        1 0.18577798E-01 0.12727025E+03</pdfrwt>
<pdfrwt beam="2">  1       -1 0.16028770E-01 0.12727025E+03</pdfrwt>
<totfact> 0.76454995E+03</totfact>
</mgrwt>
</event>
<event>
 6    1  0.1045058E-005  0.1372311E+03  0.7546771E-02  0.1229047E+00
          1   -1    0    0  501    0  0.00000000000E+00  0.00000000000E+00  0.55892229869E+03  0.55892229869E+03  0.00000000000E+00 0. -1.
         -1   -1    0    0    0  501 -0.00000000000E+00 -0.00000000000E+00 -0.26714808713E+02  0.26714808713E+02  0.00000000000E+00 0.  1.
          5    1    1    2  502    0  0.46528346931E+02 -0.16813985154E+02  0.33101994212E+02  0.59711214907E+02  0.47000000000E+01 0.  1.
         -5    1    1    2    0  502 -0.30140535537E+02 -0.37412678546E+02  0.25345237994E+03  0.25800844811E+03  0.47000000000E+01 0.  1.
        -11    1    1    2    0    0  0.12878114236E+02  0.51413244374E+02  0.22698438987E+03  0.23309028458E+03  0.00000000000E+00 0. -1.
         11    1    1    2    0    0 -0.29265925630E+02  0.28134193267E+01  0.18668725961E+02  0.34827159807E+02  0.00000000000E+00 0.  1.
<mgrwt>
<rscale>  0 0.12893346E+03</rscale>
<asrwt>0</asrwt>
<pdfrwt beam="1">  1        1 0.85988037E-01 0.13723110E+03</pdfrwt>
<pdfrwt beam="2">  1       -1 0.41099710E-02 0.13723110E+03</pdfrwt>
<totfact> 0.87712796E+03</totfact>
</mgrwt>
</event>
<event>
 6    1  0.1045058E-005  0.1585484E+03  0.7546771E-02  0.1198196E+00
          1   -1    0    0  501    0  0.00000000000E+00  0.00000000000E+00  0.59166042965E+02  0.59166042965E+02  0.00000000000E+00 0. -1.
         -1   -1    0    0    0  501 -0.00000000000E+00 -0.00000000000E+00 -0.42228031197E+03  0.42228031197E+03  0.00000000000E+00 0.  1.
          5    1    1    2  502    0  0.94478568778E+02 -0.63806553147E+01 -0.79134722288E+02  0.12349618210E+03  0.47000000000E+01 0. -1.
         -5    1    1    2    0  502 -0.12704549940E+02  0.59541901348E+02 -0.23808666463E+02  0.65540721724E+02  0.47000000000E+01 0. -1.
        -11    1    1    2    0    0 -0.36543230204E+02 -0.46564908829E+02 -0.23034789059E+03  0.23783155616E+03  0.00000000000E+00 0.  1.
         11    1    1    2    0    0 -0.45230788633E+02 -0.65963372038E+01 -0.29822989664E+02  0.54577894952E+02  0.00000000000E+00 0. -1.
<mgrwt>
<rscale>  0 0.15186857E+03</rscale>
<asrwt>0</asrwt>
<pdfrwt beam="1">  1        1 0.91024685E-02 0.15854845E+03</pdfrwt>
<pdfrwt beam="2">  1       -1 0.64966199E-01 0.15854845E+03</pdfrwt>
<totfact> 0.17779106E+03</totfact>
</mgrwt>
</event>
<event>
 6    1  0.1045058E-005  0.1293375E+03  0.7546771E-02  0.1243086E+00
          2   -1    0    0  501    0  0.00000000000E+00  0.00000000000E+00  0.10032123096E+04  0.10032123096E+04  0.00000000000E+00 0. -1.
         -2   -1    0    0    0  501 -0.00000000000E+00 -0.00000000000E+00 -0.62191526827E+02  0.62191526827E+02  0.00000000000E+00 0.  1.
          5    1    1    2  502    0 -0.73301669435E+02 -0.16092323132E+02  0.52180244217E+03  0.52719254193E+03  0.47000000000E+01 0. -1.
         -5    1    1    2    0  502  0.52619960569E+02 -0.99213969112E+01  0.43735675620E+03  0.44064761041E+03  0.47000000000E+01 0. -1.
        -11    1    1    2    0    0 -0.21743998267E+02 -0.11786064843E+02  0.17672911207E+02  0.30398101514E+02  0.00000000000E+00 0.  1.
         11    1    1    2    0    0  0.42425707133E+02  0.37799784887E+02 -0.35811326767E+02  0.67165582615E+02  0.00000000000E+00 0. -1.
<mgrwt>
<rscale>  0 0.12000681E+03</rscale>
<asrwt>0</asrwt>
<pdfrwt beam="1">  1        2 0.15434034E+00 0.12933751E+03</pdfrwt>
<pdfrwt beam="2">  1       -2 0.95679279E-02 0.12933751E+03</pdfrwt>
<totfact> 0.18490596E+03</totfact>
</mgrwt>
</event>
<event>
 6    1  0.1045058E-005  0.2597612E+03  0.7546771E-02  0.1107287E+00
          2   -1    0    0  501    0  0.00000000000E+00  0.00000000000E+00  0.18724349898E+03  0.18724349898E+03  0.00000000000E+00 0. -1.
         -2   -1    0    0    0  501 -0.00000000000E+00 -0.00000000000E+00 -0.90091116267E+02  0.90091116267E+02  0.00000000000E+00 0.  1.
          5    1    1    2  502    0 -0.48802338461E+02 -0.47052713906E+02 -0.25489302972E+02  0.72576998362E+02  0.47000000000E+01 0.  1.
         -5    1    1    2    0  502 -0.15510663371E+02  0.17330017637E+02  0.76172261059E+02  0.79782288413E+02  0.47000000000E+01 0.  1.
        -11    1    1    2    0    0  0.31913193785E+02 -0.97421708459E+01  0.63012174236E+02  0.71301444111E+02  0.00000000000E+00 0. -1.
         11    1    1    2    0    0  0.32399808047E+02  0.39464867114E+02 -0.16542749610E+02  0.53673884362E+02  0.00000000000E+00 0.  1.
<mgrwt>
<rscale>  0 0.25976124E+03</rscale>
<asrwt>0</asrwt>
<pdfrwt beam="1">  1        2 0.28806692E-01 0.25976124E+03</pdfrwt>
<pdfrwt beam="2">  1       -2 0.13860172E-01 0.25976124E+03</pdfrwt>
<totfact> 0.70796973E+03</totfact>
</mgrwt>
</event>
<event>
 6    1  0.1045058E-005  0.2489643E+03  0.7546771E-02  0.1113961E+00
          2   -1    0    0  501    0  0.00000000000E+00  0.00000000000E+00  0.15207807896E+04  0.15207807896E+04  0.00000000000E+00 0.  1.
         -2   -1    0    0    0  501 -0.00000000000E+00 -0.00000000000E+00 -0.10189374982E+02  0.10189374982E+02  0.00000000000E+00 0. -1.
          5    1    1    2  502    0 -0.64721810646E+01 -0.57965753881E+01  0.10759110987E+04  0.10759564451E+04  0.47000000000E+01 0.  1.
         -5    1    1    2    0  502 -0.29788018502E+02  0.19687931326E+02  0.85067866274E+02  0.92377337906E+02  0.47000000000E+01 0.  1.
        -11    1    1    2    0    0 -0.24151068664E+02 -0.24093998359E+02  0.10185658323E+03  0.10741768207E+03  0.00000000000E+00 0. -1.
         11    1    1    2    0    0  0.60411268231E+02  0.10202642422E+02  0.24775586645E+03  0.25521869955E+03  0.00000000000E+00 0.  1.
<mgrwt>
<rscale>  0 0.24896430E+03</rscale>
<asrwt>0</asrwt>
<pdfrwt beam="1">  1        2 0.23396610E+00 0.24896430E+03</pdfrwt>
<pdfrwt beam="2">  1       -2 0.15675974E-02 0.24896430E+03</pdfrwt>
<totfact> 0.14657907E+04</totfact>
</mgrwt>
</event>
<event>
 6    1  0.1045058E-005  0.1333099E+03  0.7546771E-02  0.1235011E+00
         -1   -1    0    0    0  501 -0.00000000000E+00  0.00000000000E+00  0.14718011884E+03  0.14718011884E+03  0.00000000000E+00 0.  1.
          1   -1    0    0  501    0  0.00000000000E+00 -0.00000000000E+00 -0.10509042453E+03  0.10509042453E+03  0.00000000000E+00 0. -1.
          5    1    1    2  502    0  0.74792278519E+02 -0.10195287911E+02  0.28899149341E+02  0.80963446409E+02  0.47000000000E+01 0. -1.
         -5    1    1    2    0  502 -0.29129793855E+02  0.23093341806E+01 -0.44238584890E+02  0.53226124295E+02  0.47000000000E+01 0. -1.
        -11    1    1    2    0    0 -0.51661932607E+02  0.22502101521E+02 -0.22014600934E+01  0.56392785710E+02  0.00000000000E+00 0. -1.
         11    1    1    2    0    0  0.59994479430E+01 -0.14616147790E+02  0.59630589951E+02  0.61688186954E+02  0.00000000000E+00 0.  1.
<mgrwt>
<rscale>  0 0.12503747E+03</rscale>
<asrwt>0</asrwt>
<pdfrwt beam="2">  1        1 0.16167758E-01 0.13330995E+03</pdfrwt>
<pdfrwt beam="1">  1       -1 0.22643095E-01 0.13330995E+03</pdfrwt>
<totfact> 0.52786431E+03</totfact>
</mgrwt>
</event>
<event>
 6    1  0.1045058E-005  0.1274099E+03  0.7546771E-02  0.1245121E+00
          1   -1    0    0  501    0  0.00000000000E+00  0.00000000000E+00  0.82818740675E+02  0.82818740675E+02  0.00000000000E+00 0. -1.
         -1   -1    0    0    0  501 -0.00000000000E+00 -0.00000000000E+00 -0.15543426813E+03  0.15543426813E+03  0.00000000000E+00 0.  1.
          5    1    1    2  502    0 -0.29810472182E+02  0.31342881281E+02 -0.53000423843E+02  0.68572409803E+02  0.47000000000E+01 0.  1.
         -5    1    1    2    0  502  0.13315561938E+02 -0.49675683025E+02  0.31713115965E+02  0.60603542783E+02  0.47000000000E+01 0.  1.
        -11    1    1    2    0    0  0.27252489542E+02 -0.33260430416E+01 -0.72129825591E+02  0.77178186609E+02  0.00000000000E+00 0.  1.
         11    1    1    2    0    0 -0.10757579298E+02  0.21658844785E+02  0.20801606012E+02  0.31898869611E+02  0.00000000000E+00 0. -1.
<mgrwt>
<rscale>  0 0.11878116E+03</rscale>
<asrwt>0</asrwt>
<pdfrwt beam="1">  1        1 0.12741345E-01 0.12740988E+03</pdfrwt>
<pdfrwt beam="2">  1       -1 0.23912964E-01 0.12740988E+03</pdfrwt>
<totfact> 0.65559331E+03</totfact>
</mgrwt>
</event>
<event>
 6    1  0.1045058E-005  0.1327640E+03  0.7546771E-02  0.1236459E+00
         -3   -1    0    0    0  501 -0.00000000000E+00  0.00000000000E+00  0.20943583985E+03  0.20943583985E+03  0.00000000000E+00 0.  1.
          3   -1    0    0  501    0  0.00000000000E+00 -0.00000000000E+00 -0.74355846504E+02  0.74355846504E+02  0.00000000000E+00 0. -1.
          5    1    1    2  502    0  0.16600412495E+02  0.37422031100E+02  0.56001813080E+02  0.69528952062E+02  0.47000000000E+01 0.  1.
         -5    1    1    2    0  502 -0.56393663579E+02 -0.17009656688E+02 -0.29203145813E+02  0.65912725917E+02  0.47000000000E+01 0.  1.
        -11    1    1    2    0    0  0.46409641159E+02  0.23884656388E+02  0.79527803850E+02  0.95126248683E+02  0.00000000000E+00 0.  1.
         11    1    1    2    0    0 -0.66163900750E+01 -0.44297030800E+02  0.28753522233E+02  0.53223759696E+02  0.00000000000E+00 0. -1.
<mgrwt>
<rscale>  0 0.12411509E+03</rscale>
<asrwt>0</asrwt>
<pdfrwt beam="2">  1        3 0.11439361E-01 0.13276400E+03</pdfrwt>
<pdfrwt beam="1">  1       -3 0.32220898E-01 0.13276400E+03</pdfrwt>
<totfact> 0.12684063E+03</totfact>
</mgrwt>
</event>
<event>
 6    1  0.1045058E-005  0.2709601E+03  0.7546771E-02  0.1134039E+00
          2   -1    0    0  501    0  0.00000000000E+00  0.00000000000E+00  0.14540571215E+04  0.14540571215E+04  0.00000000000E+00 0. -1.
         -2   -1    0    0    0  501 -0.00000000000E+00 -0.00000000000E+00 -0.38804222622E+02  0.38804222622E+02  0.00000000000E+00 0.  1.
          5    1    1    2  502    0 -0.48860976584E+02 -0.37804184992E+02  0.91114360279E+03  0.91324766977E+03  0.47000000000E+01 0. -1.
         -5    1    1    2    0  502  0.14358923546E+03 -0.13281116801E+02  0.39054094954E+03  0.41633950074E+03  0.47000000000E+01 0.  1.
        -11    1    1    2    0    0 -0.81203828797E+02  0.37721244189E+02  0.63645179157E+02  0.10985291487E+03  0.00000000000E+00 0.  1.
         11    1    1    2    0    0 -0.13524430076E+02  0.13364057605E+02  0.49923167403E+02  0.53421258766E+02  0.00000000000E+00 0. -1.
<mgrwt>
<rscale>  0 0.21979055E+03</rscale>
<asrwt>0</asrwt>
<pdfrwt beam="1">  1        2 0.22370105E+00 0.27096009E+03</pdfrwt>
<pdfrwt beam="2">  1       -2 0.59698815E-02 0.27096009E+03</pdfrwt>
<totfact> 0.21546933E+03</totfact>
</mgrwt>
</event>
<event>
 6    1  0.1045058E-005  0.2866461E+03  0.7546771E-02  0.1092113E+00
          1   -1    0    0  501    0  0.00000000000E+00  0.00000000000E+00  0.51925273317E+03  0.51925273317E+03  0.00000000000E+00 0. -1.
         -1   -1    0    0    0  501 -0.00000000000E+00 -0.00000000000E+00 -0.39559720875E+02  0.39559720875E+02  0.00000000000E+00 0.  1.
          5    1    1    2  502    0  0.12404436442E+02  0.49484378548E+02  0.19296345414E+03  0.19964858727E+03  0.47000000000E+01 0. -1.
         -5    1    1    2    0  502  0.17242634180E+02 -0.65870675307E+02  0.63800484471E+02  0.93428293988E+02  0.47000000000E+01 0.  1.
        -11    1    1    2    0    0 -0.74080356441E+02 -0.23884919074E+02  0.84552822538E+02  0.11492418531E+03  0.00000000000E+00 0.  1.
         11    1    1    2    0    0  0.44433285819E+02  0.40271215833E+02  0.13837625115E+03  0.15081138748E+03  0.00000000000E+00 0. -1.
<mgrwt>
<rscale>  0 0.28664608E+03</rscale>
<asrwt>0</asrwt>
<pdfrwt beam="1">  1        1 0.79885031E-01 0.28664608E+03</pdfrwt>
<pdfrwt beam="2">  1       -1 0.60861113E-02 0.28664608E+03</pdfrwt>
<totfact> 0.55958094E+03</totfact>
</mgrwt>
</event>
<event>
 6    1  0.1045058E-005  0.3274634E+03  0.7546771E-02  0.1072265E+00
         -3   -1    0    0    0  501 -0.00000000000E+00  0.00000000000E+00  0.54809141848E+02  0.54809141848E+02  0.00000000000E+00 0.  1.
          3   -1    0    0  501    0  0.00000000000E+00 -0.00000000000E+00 -0.48911675692E+03  0.48911675692E+03  0.00000000000E+00 0. -1.
          5    1    1    2  502    0  0.43578068384E+01  0.50999341521E+01 -0.16559628063E+03  0.16579872727E+03  0.47000000000E+01 0. -1.
         -5    1    1    2    0  502  0.90764910492E+01 -0.11814755658E+03 -0.14022190411E+03  0.18364503862E+03  0.47000000000E+01 0. -1.
        -11    1    1    2    0    0 -0.65080102268E+00  0.40802888988E+02 -0.11211393608E+03  0.11930982338E+03  0.00000000000E+00 0. -1.
         11    1    1    2    0    0 -0.12783496865E+02  0.72244733442E+02 -0.16375494251E+02  0.75172309491E+02  0.00000000000E+00 0.  1.
<mgrwt>
<rscale>  0 0.32746340E+03</rscale>
<asrwt>0</asrwt>
<pdfrwt beam="2">  1        3 0.75248729E-01 0.32746340E+03</pdfrwt>
<pdfrwt beam="1">  1       -3 0.84321760E-02 0.32746340E+03</pdfrwt>
<totfact> 0.42976089E+02</totfact>
</mgrwt>
</event>
<event>
 6    1  0.1045058E-005  0.1371256E+03  0.7546771E-02  0.1228864E+00
         -3   -1    0    0    0  501 -0.00000000000E+00  0.00000000000E+00  0.62189788743E+03  0.62189788743E+03  0.00000000000E+00 0.  1.
          3   -1    0    0  501    0  0.00000000000E+00 -0.00000000000E+00 -0.24099550237E+02  0.24099550237E+02  0.00000000000E+00 0. -1.
          5    1    1    2  502    0  0.82858649513E+01  0.81991738524E+02  0.31008777728E+03  0.32088599278E+03  0.47000000000E+01 0. -1.
         -5    1    1    2    0  502  0.42573286660E+01 -0.27024707526E+02  0.14152627864E+02  0.31158410416E+02  0.47000000000E+01 0. -1.
        -11    1    1    2    0    0 -0.41232401107E+02 -0.59277802791E+02  0.14283283142E+03  0.16004745089E+03  0.00000000000E+00 0. -1.
         11    1    1    2    0    0  0.28689207489E+02  0.43107717927E+01  0.13072510063E+03  0.13390558358E+03  0.00000000000E+00 0.  1.
<mgrwt>
<rscale>  0 0.12905545E+03</rscale>
<asrwt>0</asrwt>
<pdfrwt beam="2">  1        3 0.37076236E-02 0.13712557E+03</pdfrwt>
<pdfrwt beam="1">  1       -3 0.95676585E-01 0.13712557E+03</pdfrwt>
<totfact> 0.84774889E+02</totfact>
</mgrwt>
</event>
<event>
 6    1  0.1045058E-005  0.1269106E+03  0.7546771E-02  0.1247234E+00
          1   -1    0    0  501    0  0.00000000000E+00  0.00000000000E+00  0.96390100322E+02  0.96390100322E+02  0.00000000000E+00 0. -1.
         -1   -1    0    0    0  501 -0.00000000000E+00 -0.00000000000E+00 -0.12675315524E+03  0.12675315524E+03  0.00000000000E+00 0.  1.
          5    1    1    2  502    0  0.49753068623E+02 -0.30787313226E+02  0.66960898554E+01  0.59077526289E+02  0.47000000000E+01 0.  1.
         -5    1    1    2    0  502 -0.64721319513E+02  0.14453598269E+02 -0.14683737780E+02  0.68084196827E+02  0.47000000000E+01 0.  1.
        -11    1    1    2    0    0  0.38877717184E+01  0.22698723872E+02 -0.55709642434E+02  0.60281930082E+02  0.00000000000E+00 0.  1.
         11    1    1    2    0    0  0.11080479171E+02 -0.63650089147E+01  0.33334235436E+02  0.35699602368E+02  0.00000000000E+00 0. -1.
<mgrwt>
<rscale>  0 0.11752679E+03</rscale>
<asrwt>0</asrwt>
<pdfrwt beam="1">  1        1 0.14829246E-01 0.12691060E+03</pdfrwt>
<pdfrwt beam="2">  1       -1 0.19500486E-01 0.12691060E+03</pdfrwt>
<totfact> 0.74814087E+03</totfact>
</mgrwt>
</event>
<event>
 6    1  0.1045058E-005  0.1448002E+03  0.7546771E-02  0.1217214E+00
          1   -1    0    0  501    0  0.00000000000E+00  0.00000000000E+00  0.52252768168E+02  0.52252768168E+02  0.00000000000E+00 0. -1.
         -1   -1    0    0    0  501 -0.00000000000E+00 -0.00000000000E+00 -0.32678454709E+03  0.32678454709E+03  0.00000000000E+00 0.  1.
          5    1    1    2  502    0 -0.76996553060E+01 -0.57946809518E+02 -0.11387569598E+02  0.59740138654E+02  0.47000000000E+01 0. -1.
         -5    1    1    2    0  502 -0.50370141363E+02  0.13552622644E+02 -0.14127944751E+03  0.15067447365E+03  0.47000000000E+01 0. -1.
        -11    1    1    2    0    0  0.70941253631E+02  0.24258787757E+01 -0.61083618097E+02  0.93646968741E+02  0.00000000000E+00 0.  1.
         11    1    1    2    0    0 -0.12871456962E+02  0.41968308098E+02 -0.60781143713E+02  0.74975734208E+02  0.00000000000E+00 0. -1.
<mgrwt>
<rscale>  0 0.13715122E+03</rscale>
<asrwt>0</asrwt>
<pdfrwt beam="1">  1        1 0.80388873E-02 0.14480018E+03</pdfrwt>
<pdfrwt beam="2">  1       -1 0.50274546E-01 0.14480018E+03</pdfrwt>
<totfact> 0.33901450E+03</totfact>
</mgrwt>
</event>
<event>
 6    1  0.1045058E-005  0.3123431E+03  0.7546771E-02  0.1079228E+00
         -1   -1    0    0    0  501 -0.00000000000E+00  0.00000000000E+00  0.23768185657E+03  0.23768185657E+03  0.00000000000E+00 0.  1.
          1   -1    0    0  501    0  0.00000000000E+00 -0.00000000000E+00 -0.10261426497E+03  0.10261426497E+03  0.00000000000E+00 0. -1.
          5    1    1    2  502    0 -0.12501164767E+02 -0.29915584220E+02  0.52773633815E+01  0.33183759040E+02  0.47000000000E+01 0.  1.
         -5    1    1    2    0  502 -0.32404372689E+02  0.12818650909E+03  0.34407060425E+02  0.13670318317E+03  0.47000000000E+01 0.  1.
        -11    1    1    2    0    0  0.10935047490E+02 -0.40350921210E+02 -0.12236191989E+02  0.43560262861E+02  0.00000000000E+00 0. -1.
         11    1    1    2    0    0  0.33970489966E+02 -0.57920003656E+02  0.10761935977E+03  0.12684891647E+03  0.00000000000E+00 0.  1.
<mgrwt>
<rscale>  0 0.31234307E+03</rscale>
<asrwt>0</asrwt>
<pdfrwt beam="2">  1        1 0.15786810E-01 0.31234307E+03</pdfrwt>
<pdfrwt beam="1">  1       -1 0.36566439E-01 0.31234307E+03</pdfrwt>
<totfact> 0.25230625E+03</totfact>
</mgrwt>
</event>
<event>
 6    1  0.1045058E-005  0.1564524E+03  0.7546771E-02  0.1200716E+00
          2   -1    0    0  501    0  0.00000000000E+00  0.00000000000E+00  0.86809174946E+03  0.86809174946E+03  0.00000000000E+00 0. -1.
         -2   -1    0    0    0  501 -0.00000000000E+00 -0.00000000000E+00 -0.27591734991E+02  0.27591734991E+02  0.00000000000E+00 0.  1.
          5    1    1    2  502    0 -0.25519483338E+02 -0.22466992050E+02  0.32661203730E+03  0.32841060073E+03  0.47000000000E+01 0.  1.
         -5    1    1    2    0  502  0.93585094293E+02 -0.42489334280E+02  0.28889291600E+03  0.30666711646E+03  0.47000000000E+01 0.  1.
        -11    1    1    2    0    0 -0.84575374961E+02  0.49704079643E+02  0.12927532326E+03  0.16228246605E+03  0.00000000000E+00 0.  1.
         11    1    1    2    0    0  0.16509764006E+02  0.15252246687E+02  0.95719737910E+02  0.98323301216E+02  0.00000000000E+00 0. -1.
<mgrwt>
<rscale>  0 0.14980255E+03</rscale>
<asrwt>0</asrwt>
<pdfrwt beam="1">  1        2 0.13355256E+00 0.15645242E+03</pdfrwt>
<pdfrwt beam="2">  1       -2 0.42448830E-02 0.15645242E+03</pdfrwt>
<totfact> 0.77921845E+03</totfact>
</mgrwt>
</event>
<event>
 6    1  0.1045058E-005  0.1281462E+03  0.7546771E-02  0.1247871E+00
         -2   -1    0    0    0  501 -0.00000000000E+00  0.00000000000E+00  0.87672980378E+02  0.87672980378E+02  0.00000000000E+00 0.  1.
          2   -1    0    0  501    0  0.00000000000E+00 -0.00000000000E+00 -0.93404048756E+03  0.93404048756E+03  0.00000000000E+00 0. -1.
          5    1    1    2  502    0  0.45709390956E-02  0.49970246727E+02 -0.58732348452E+03  0.58946415586E+03  0.47000000000E+01 0. -1.
         -5    1    1    2    0  502  0.10850884915E+02 -0.65471227319E+02 -0.31811846900E+03  0.32500103635E+03  0.47000000000E+01 0.  1.
        -11    1    1    2    0    0 -0.10928242706E+01  0.50299376036E+02  0.20329625710E+02  0.54263387067E+02  0.00000000000E+00 0.  1.
         11    1    1    2    0    0 -0.97626315830E+01 -0.34798395444E+02  0.38744820626E+02  0.52984888660E+02  0.00000000000E+00 0. -1.
<mgrwt>
<rscale>  0 0.11715200E+03</rscale>
<asrwt>0</asrwt>
<pdfrwt beam="2">  1        2 0.14369853E+00 0.12814623E+03</pdfrwt>
<pdfrwt beam="1">  1       -2 0.13488151E-01 0.12814623E+03</pdfrwt>
<totfact> 0.11805610E+03</totfact>
</mgrwt>
</event>
<event>
 6    1  0.1045058E-005  0.1309423E+03  0.7546771E-02  0.1240304E+00
          3   -1    0    0  501    0  0.00000000000E+00  0.00000000000E+00  0.59281528750E+02  0.59281528750E+02  0.00000000000E+00 0. -1.
         -3   -1    0    0    0  501 -0.00000000000E+00 -0.00000000000E+00 -0.22072272631E+03  0.22072272631E+03  0.00000000000E+00 0.  1.
          5    1    1    2  502    0  0.25715511974E+02  0.92136014443E+00  0.28123532396E+02  0.38407805653E+02  0.47000000000E+01 0. -1.
         -5    1    1    2    0  502  0.39404906492E+01 -0.26264540075E+02 -0.11646738489E+03  0.11954955154E+03  0.47000000000E+01 0. -1.
        -11    1    1    2    0    0  0.12240056307E+02  0.30698278368E+02 -0.72643243012E+02  0.79807543681E+02  0.00000000000E+00 0.  1.
         11    1    1    2    0    0 -0.41896058930E+02 -0.53550984372E+01 -0.45410205780E+00  0.42239354184E+02  0.00000000000E+00 0. -1.
<mgrwt>
<rscale>  0 0.12170911E+03</rscale>
<asrwt>0</asrwt>
<pdfrwt beam="1">  1        3 0.91202352E-02 0.13094232E+03</pdfrwt>
<pdfrwt beam="2">  1       -3 0.33957343E-01 0.13094232E+03</pdfrwt>
<totfact> 0.16684886E+03</totfact>
</mgrwt>
</event>
<event>
 6    1  0.1045058E-005  0.1597259E+03  0.7546771E-02  0.1196782E+00
         -1   -1    0    0    0  501 -0.00000000000E+00  0.00000000000E+00  0.67991655251E+02  0.67991655251E+02  0.00000000000E+00 0.  1.
          1   -1    0    0  501    0  0.00000000000E+00 -0.00000000000E+00 -0.33548072948E+03  0.33548072948E+03  0.00000000000E+00 0. -1.
          5    1    1    2  502    0  0.88127019277E+01 -0.21649932265E+02 -0.14883827891E+03  0.15073588343E+03  0.47000000000E+01 0.  1.
         -5    1    1    2    0  502 -0.62700946812E+02 -0.61920816184E+02 -0.40850340896E+02  0.97244210929E+02  0.47000000000E+01 0.  1.
        -11    1    1    2    0    0  0.35833825591E+02  0.73870310019E+02 -0.77069778634E+01  0.82463830050E+02  0.00000000000E+00 0.  1.
         11    1    1    2    0    0  0.18054419293E+02  0.97004384299E+01 -0.70093476556E+02  0.73028460325E+02  0.00000000000E+00 0. -1.
<mgrwt>
<rscale>  0 0.15304390E+03</rscale>
<asrwt>0</asrwt>
<pdfrwt beam="2">  1        1 0.51612419E-01 0.15972587E+03</pdfrwt>
<pdfrwt beam="1">  1       -1 0.10460255E-01 0.15972587E+03</pdfrwt>
<totfact> 0.41941453E+03</totfact>
</mgrwt>
</event>
<event>
 6    1  0.1045058E-005  0.2191217E+03  0.7546771E-02  0.1138018E+00
          2   -1    0    0  501    0  0.00000000000E+00  0.00000000000E+00  0.71070940919E+02  0.71070940919E+02  0.00000000000E+00 0. -1.
         -2   -1    0    0    0  501 -0.00000000000E+00 -0.00000000000E+00 -0.65288246373E+03  0.65288246373E+03  0.00000000000E+00 0.  1.
          5    1    1    2  502    0 -0.37048481590E+02 -0.17813419385E+02 -0.49680493950E+02  0.64654074717E+02  0.47000000000E+01 0.  1.
         -5    1    1    2    0  502 -0.68596912288E+02  0.16351073702E+03 -0.17422435157E+03  0.24863127755E+03  0.47000000000E+01 0.  1.
        -11    1    1    2    0    0  0.88293301331E+02 -0.55921801788E+02 -0.14302909768E+03  0.17714479320E+03  0.00000000000E+00 0. -1.
         11    1    1    2    0    0  0.17352092548E+02 -0.89775515844E+02 -0.21487757961E+03  0.23352325918E+03  0.00000000000E+00 0.  1.
<mgrwt>
<rscale>  0 0.21454301E+03</rscale>
<asrwt>0</asrwt>
<pdfrwt beam="1">  1        2 0.10933990E-01 0.21912173E+03</pdfrwt>
<pdfrwt beam="2">  1       -2 0.10044346E+00 0.21912173E+03</pdfrwt>
<totfact> 0.48517623E+02</totfact>
</mgrwt>
</event>
<event>
 6    1  0.1045058E-005  0.1631913E+03  0.7546771E-02  0.1192012E+00
         -1   -1    0    0    0  501 -0.00000000000E+00  0.00000000000E+00  0.34776749814E+02  0.34776749814E+02  0.00000000000E+00 0.  1.
          1   -1    0    0  501    0  0.00000000000E+00 -0.00000000000E+00 -0.76715356488E+03  0.76715356488E+03  0.00000000000E+00 0. -1.
          5    1    1    2  502    0 -0.94153321934E+02 -0.59644032707E+01 -0.32279411247E+03  0.33633101430E+03  0.47000000000E+01 0.  1.
         -5    1    1    2    0  502  0.17877708159E+02 -0.66070385971E+02 -0.21581803785E+03  0.22646064517E+03  0.47000000000E+01 0.  1.
        -11    1    1    2    0    0  0.65421024783E+02 -0.16074731461E+01 -0.83228417616E+02  0.10587475597E+03  0.00000000000E+00 0.  1.
         11    1    1    2    0    0  0.10854588991E+02  0.73642262388E+02 -0.11053624714E+03  0.13326389925E+03  0.00000000000E+00 0. -1.
<mgrwt>
<rscale>  0 0.15709867E+03</rscale>
<asrwt>0</asrwt>
<pdfrwt beam="2">  1        1 0.11802362E+00 0.16319131E+03</pdfrwt>
<pdfrwt beam="1">  1       -1 0.53502694E-02 0.16319131E+03</pdfrwt>
<totfact> 0.38365433E+03</totfact>
</mgrwt>
</event>
<event>
 6    1  0.1045058E-005  0.1380959E+03  0.7546771E-02  0.1227241E+00
          1   -1    0    0  501    0  0.00000000000E+00  0.00000000000E+00  0.67578442859E+02  0.67578442859E+02  0.00000000000E+00 0. -1.
         -1   -1    0    0    0  501 -0.00000000000E+00 -0.00000000000E+00 -0.22685175552E+03  0.22685175552E+03  0.00000000000E+00 0.  1.
          5    1    1    2  502    0 -0.21535878308E+02  0.38517210811E+02 -0.54238069347E+02  0.70080152324E+02  0.47000000000E+01 0. -1.
         -5    1    1    2    0  502 -0.15552254561E+02 -0.83900786752E+02 -0.24573560872E+02  0.88922238689E+02  0.47000000000E+01 0. -1.
        -11    1    1    2    0    0 -0.69556396739E+01  0.51021206928E+02 -0.10481313626E+02  0.52549047708E+02  0.00000000000E+00 0.  1.
         11    1    1    2    0    0  0.44043772543E+02 -0.56376309873E+01 -0.69980368815E+02  0.82878759658E+02  0.00000000000E+00 0. -1.
<mgrwt>
<rscale>  0 0.13014470E+03</rscale>
<asrwt>0</asrwt>
<pdfrwt beam="1">  1        1 0.10396684E-01 0.13809594E+03</pdfrwt>
<pdfrwt beam="2">  1       -1 0.34900270E-01 0.13809594E+03</pdfrwt>
<totfact> 0.45774211E+03</totfact>
</mgrwt>
</event>
<event>
 6    1  0.1045058E-005  0.1295569E+03  0.7546771E-02  0.1241001E+00
          1   -1    0    0  501    0  0.00000000000E+00  0.00000000000E+00  0.80774342839E+03  0.80774342839E+03  0.00000000000E+00 0. -1.
         -1   -1    0    0    0  501 -0.00000000000E+00 -0.00000000000E+00 -0.25214371581E+02  0.25214371581E+02  0.00000000000E+00 0.  1.
          5    1    1    2  502    0  0.18176369130E+02 -0.41348940558E+02  0.12034064072E+03  0.12862377342E+03  0.47000000000E+01 0.  1.
         -5    1    1    2    0  502 -0.52234287080E+02  0.42274060561E+02  0.55112627941E+03  0.55522768555E+03  0.47000000000E+01 0.  1.
        -11    1    1    2    0    0  0.52450710575E+02  0.52377275917E+01  0.20609899233E+02  0.56597515639E+02  0.00000000000E+00 0.  1.
         11    1    1    2    0    0 -0.18392792626E+02 -0.61628475950E+01  0.90452237450E+02  0.92508825367E+02  0.00000000000E+00 0. -1.
<mgrwt>
<rscale>  0 0.12127976E+03</rscale>
<asrwt>0</asrwt>
<pdfrwt beam="1">  1        1 0.12426820E+00 0.12955691E+03</pdfrwt>
<pdfrwt beam="2">  1       -1 0.38791347E-02 0.12955691E+03</pdfrwt>
<totfact> 0.56554926E+03</totfact>
</mgrwt>
</event>
<event>
 6    1  0.1045058E-005  0.3702991E+03  0.7546771E-02  0.1054579E+00
          1   -1    0    0  501    0  0.00000000000E+00  0.00000000000E+00  0.51072958333E+03  0.51072958333E+03  0.00000000000E+00 0. -1.
         -1   -1    0    0    0  501 -0.00000000000E+00 -0.00000000000E+00 -0.67120365331E+02  0.67120365331E+02  0.00000000000E+00 0.  1.
          5    1    1    2  502    0  0.73716410831E+01  0.20405144080E+02  0.43115453985E+02  0.48494776724E+02  0.47000000000E+01 0. -1.
         -5    1    1    2    0  502 -0.66563090297E+02 -0.15506677784E+03  0.18976629681E+03  0.25398757447E+03  0.47000000000E+01 0. -1.
        -11    1    1    2    0    0  0.64320836647E+02  0.40018485079E+02  0.57136256977E+02  0.94885199248E+02  0.00000000000E+00 0.  1.
         11    1    1    2    0    0 -0.51293874339E+01  0.94643148683E+02  0.15359121022E+03  0.18048239822E+03  0.00000000000E+00 0. -1.
<mgrwt>
<rscale>  0 0.37029910E+03</rscale>
<asrwt>0</asrwt>
<pdfrwt beam="1">  1        1 0.78573779E-01 0.37029910E+03</pdfrwt>
<pdfrwt beam="2">  1       -1 0.10326210E-01 0.37029910E+03</pdfrwt>
<totfact> 0.25536612E+03</totfact>
</mgrwt>
</event>
<event>
 6    1  0.1045058E-005  0.1314775E+03  0.7546771E-02  0.1240849E+00
          1   -1    0    0  501    0  0.00000000000E+00  0.00000000000E+00  0.57175028606E+03  0.57175028606E+03  0.00000000000E+00 0. -1.
         -1   -1    0    0    0  501 -0.00000000000E+00 -0.00000000000E+00 -0.23250729060E+02  0.23250729060E+02  0.00000000000E+00 0.  1.
          5    1    1    2  502    0 -0.50871816197E+02 -0.38806640091E+02  0.15906817038E+03  0.17151871567E+03  0.47000000000E+01 0.  1.
         -5    1    1    2    0  502  0.64818113827E+02  0.52609678857E+00  0.10535567141E+03  0.12378841689E+03  0.47000000000E+01 0.  1.
        -11    1    1    2    0    0 -0.15805539294E+02 -0.21210797976E+02  0.15891370273E+03  0.16110021085E+03  0.00000000000E+00 0. -1.
         11    1    1    2    0    0  0.18592416633E+01  0.59491341279E+02  0.12516201248E+03  0.13859367170E+03  0.00000000000E+00 0.  1.
<mgrwt>
<rscale>  0 0.12137313E+03</rscale>
<asrwt>0</asrwt>
<pdfrwt beam="1">  1        1 0.87961572E-01 0.13147751E+03</pdfrwt>
<pdfrwt beam="2">  1       -1 0.35770357E-02 0.13147751E+03</pdfrwt>
<totfact> 0.10400029E+04</totfact>
</mgrwt>
</event>
<event>
 6    1  0.1045058E-005  0.1842719E+03  0.7546771E-02  0.1168072E+00
          1   -1    0    0  501    0  0.00000000000E+00  0.00000000000E+00  0.19981299623E+04  0.19981299623E+04  0.00000000000E+00 0. -1.
         -1   -1    0    0    0  501 -0.00000000000E+00 -0.00000000000E+00 -0.15416645434E+02  0.15416645434E+02  0.00000000000E+00 0.  1.
          5    1    1    2  502    0 -0.12715034473E+03  0.17785185741E+01  0.69952742187E+03  0.71100708664E+03  0.47000000000E+01 0.  1.
         -5    1    1    2    0  502  0.48723693219E+01  0.56353851192E+02  0.35092105525E+03  0.35548160789E+03  0.47000000000E+01 0.  1.
        -11    1    1    2    0    0  0.22441865373E+01 -0.44696680313E+02  0.20464258745E+03  0.20947892067E+03  0.00000000000E+00 0.  1.
         11    1    1    2    0    0  0.12003378887E+03 -0.13435689453E+02  0.72762225228E+03  0.73757899253E+03  0.00000000000E+00 0. -1.
<mgrwt>
<rscale>  0 0.17972223E+03</rscale>
<asrwt>0</asrwt>
<pdfrwt beam="1">  1        1 0.30740440E+00 0.18427190E+03</pdfrwt>
<pdfrwt beam="2">  1       -1 0.23717932E-02 0.18427190E+03</pdfrwt>
<totfact> 0.18110531E+03</totfact>
</mgrwt>
</event>
<event>
 6    1  0.1045058E-005  0.1474805E+03  0.7546771E-02  0.1222317E+00
         -1   -1    0    0    0  501 -0.00000000000E+00  0.00000000000E+00  0.31942016447E+02  0.31942016447E+02  0.00000000000E+00 0.  1.
          1   -1    0    0  501    0  0.00000000000E+00 -0.00000000000E+00 -0.75886132965E+03  0.75886132965E+03  0.00000000000E+00 0. -1.
          5    1    1    2  502    0  0.69840583796E+02  0.31625235313E+02 -0.22368585664E+03  0.23650648007E+03  0.47000000000E+01 0. -1.
         -5    1    1    2    0  502 -0.56022166748E+02  0.73377242284E+01 -0.42302993553E+03  0.42681230268E+03  0.47000000000E+01 0.  1.
        -11    1    1    2    0    0  0.13566532566E+02 -0.33780612559E+02  0.59939468025E+01  0.36893197056E+02  0.00000000000E+00 0.  1.
         11    1    1    2    0    0 -0.27384949613E+02 -0.51823469823E+01 -0.86197467838E+02  0.90591366296E+02  0.00000000000E+00 0. -1.
<mgrwt>
<rscale>  0 0.13352520E+03</rscale>
<asrwt>0</asrwt>
<pdfrwt beam="2">  1        1 0.11674789E+00 0.14748048E+03</pdfrwt>
<pdfrwt beam="1">  1       -1 0.49141567E-02 0.14748048E+03</pdfrwt>
<totfact> 0.44070251E+03</totfact>
</mgrwt>
</event>
<event>
 6    1  0.1045058E-005  0.3614975E+03  0.7546771E-02  0.1059235E+00
          2   -1    0    0  501    0  0.00000000000E+00  0.00000000000E+00  0.56074689362E+03  0.56074689362E+03  0.00000000000E+00 0. -1.
         -2   -1    0    0    0  501 -0.00000000000E+00 -0.00000000000E+00 -0.24471436212E+03  0.24471436212E+03  0.00000000000E+00 0.  1.
          5    1    1    2  502    0  0.29163314173E+02  0.43125406202E+02 -0.18169748464E+01  0.52303833045E+02  0.47000000000E+01 0.  1.
         -5    1    1    2    0  502  0.44567694689E+02  0.28797121942E+03  0.27627893024E+03  0.40157918262E+03  0.47000000000E+01 0.  1.
        -11    1    1    2    0    0 -0.12032134041E+02 -0.12221608804E+03 -0.21838312902E+02  0.12473354134E+03  0.00000000000E+00 0.  1.
         11    1    1    2    0    0 -0.61698874821E+02 -0.20888053758E+03  0.63408889013E+02  0.22684469873E+03  0.00000000000E+00 0. -1.
<mgrwt>
<rscale>  0 0.35836050E+03</rscale>
<asrwt>0</asrwt>
<pdfrwt beam="1">  1        2 0.86268752E-01 0.36149748E+03</pdfrwt>
<pdfrwt beam="2">  1       -2 0.37648364E-01 0.36149748E+03</pdfrwt>
<totfact> 0.36600323E+02</totfact>
</mgrwt>
</event>
<event>
 6    1  0.1045058E-005  0.1527407E+03  0.7546771E-02  0.1206197E+00
          1   -1    0    0  501    0  0.00000000000E+00  0.00000000000E+00  0.22082576989E+04  0.22082576989E+04  0.00000000000E+00 0. -1.
         -1   -1    0    0    0  501 -0.00000000000E+00 -0.00000000000E+00 -0.10167275521E+02  0.10167275521E+02  0.00000000000E+00 0.  1.
          5    1    1    2  502    0 -0.54577657118E+02 -0.34159173309E+02  0.15068633014E+04  0.15082455599E+04  0.47000000000E+01 0. -1.
         -5    1    1    2    0  502 -0.30705022853E+02  0.13546429073E+02  0.94627005476E+02  0.10051201090E+03  0.47000000000E+01 0. -1.
        -11    1    1    2    0    0 -0.68119033150E+01  0.31706707646E+02  0.17556405081E+03  0.17853417957E+03  0.00000000000E+00 0.  1.
         11    1    1    2    0    0  0.92094583286E+02 -0.11093963410E+02  0.42103606571E+03  0.43113322410E+03  0.00000000000E+00 0. -1.
<mgrwt>
<rscale>  0 0.14543525E+03</rscale>
<asrwt>0</asrwt>
<pdfrwt beam="1">  1        1 0.33973157E+00 0.15274069E+03</pdfrwt>
<pdfrwt beam="2">  1       -1 0.15641980E-02 0.15274069E+03</pdfrwt>
<totfact> 0.24285626E+03</totfact>
</mgrwt>
</event>
<event>
 6    1  0.1045058E-005  0.1661584E+03  0.7546771E-02  0.1188152E+00
          2   -1    0    0  501    0  0.00000000000E+00  0.00000000000E+00  0.10595778017E+04  0.10595778017E+04  0.00000000000E+00 0. -1.
         -2   -1    0    0    0  501 -0.00000000000E+00 -0.00000000000E+00 -0.28985703355E+02  0.28985703355E+02  0.00000000000E+00 0.  1.
          5    1    1    2  502    0 -0.61454855650E+01  0.31239848362E+02  0.51215987299E+03  0.51317006988E+03  0.47000000000E+01 0. -1.
         -5    1    1    2    0  502 -0.96629905654E+02  0.64522246411E+01  0.28251849340E+03  0.29869341971E+03  0.47000000000E+01 0. -1.
        -11    1    1    2    0    0 -0.15278438561E+02 -0.17808114143E+02  0.25801010439E+02  0.34874801130E+02  0.00000000000E+00 0.  1.
         11    1    1    2    0    0  0.11805382978E+03 -0.19883958860E+02  0.21011272157E+03  0.24182521438E+03  0.00000000000E+00 0. -1.
<mgrwt>
<rscale>  0 0.16048329E+03</rscale>
<asrwt>0</asrwt>
<pdfrwt beam="1">  1        2 0.16301194E+00 0.16615842E+03</pdfrwt>
<pdfrwt beam="2">  1       -2 0.44593398E-02 0.16615842E+03</pdfrwt>
<totfact> 0.55342944E+03</totfact>
</mgrwt>
</event>
<event>
 6    1  0.1045058E-005  0.3161777E+03  0.7546771E-02  0.1077422E+00
         -1   -1    0    0    0  501 -0.00000000000E+00  0.00000000000E+00  0.23825630996E+03  0.23825630996E+03  0.00000000000E+00 0.  1.
          1   -1    0    0  501    0  0.00000000000E+00 -0.00000000000E+00 -0.10489578715E+03  0.10489578715E+03  0.00000000000E+00 0. -1.
          5    1    1    2  502    0 -0.74340368384E+02 -0.98950392378E+02  0.41168698268E+02  0.13051675080E+03  0.47000000000E+01 0. -1.
         -5    1    1    2    0  502  0.24090102110E+01  0.24479736002E+02 -0.21471947747E+02  0.32987806004E+02  0.47000000000E+01 0. -1.
        -11    1    1    2    0    0  0.14946774127E+02  0.70644632653E+02  0.95479487451E+02  0.11970966003E+03  0.00000000000E+00 0.  1.
         11    1    1    2    0    0  0.56984584045E+02  0.38260237235E+01  0.18184284844E+02  0.59937880273E+02  0.00000000000E+00 0. -1.
<mgrwt>
<rscale>  0 0.31617769E+03</rscale>
<asrwt>0</asrwt>
<pdfrwt beam="2">  1        1 0.16137814E-01 0.31617769E+03</pdfrwt>
<pdfrwt beam="1">  1       -1 0.36654817E-01 0.31617769E+03</pdfrwt>
<totfact> 0.24414643E+03</totfact>
</mgrwt>
</event>
<event>
 6    1  0.1045058E-005  0.1593320E+03  0.7546771E-02  0.1197170E+00
          1   -1    0    0  501    0  0.00000000000E+00  0.00000000000E+00  0.13684470515E+04  0.13684470515E+04  0.00000000000E+00 0. -1.
         -1   -1    0    0    0  501 -0.00000000000E+00 -0.00000000000E+00 -0.27479450304E+02  0.27479450304E+02  0.00000000000E+00 0.  1.
          5    1    1    2  502    0  0.52893587440E+02  0.62715163014E+02  0.50140529656E+03  0.50809475955E+03  0.47000000000E+01 0. -1.
         -5    1    1    2    0  502  0.45822642188E+02 -0.58648742765E+02  0.65627648588E+03  0.66050004200E+03  0.47000000000E+01 0. -1.
        -11    1    1    2    0    0 -0.42380930392E+02 -0.44418822379E+02  0.59646375659E+02  0.85597109599E+02  0.00000000000E+00 0. -1.
         11    1    1    2    0    0 -0.56335299236E+02  0.40352402130E+02  0.12363944307E+03  0.14173459063E+03  0.00000000000E+00 0.  1.
<mgrwt>
<rscale>  0 0.15271975E+03</rscale>
<asrwt>0</asrwt>
<pdfrwt beam="1">  1        1 0.21053026E+00 0.15933205E+03</pdfrwt>
<pdfrwt beam="2">  1       -1 0.42276088E-02 0.15933205E+03</pdfrwt>
<totfact> 0.19819686E+03</totfact>
</mgrwt>
</event>
<event>
 6    1  0.1045058E-005  0.1463477E+03  0.7546771E-02  0.1213598E+00
          2   -1    0    0  501    0  0.00000000000E+00  0.00000000000E+00  0.51489492690E+03  0.51489492690E+03  0.00000000000E+00 0.  1.
         -2   -1    0    0    0  501 -0.00000000000E+00 -0.00000000000E+00 -0.36026412021E+02  0.36026412021E+02  0.00000000000E+00 0. -1.
          5    1    1    2  502    0  0.43304774941E+02 -0.96203688843E+01  0.49233361302E+02  0.66436954290E+02  0.47000000000E+01 0. -1.
         -5    1    1    2    0  502 -0.33815079267E+02  0.85137376401E+02  0.25929003663E+03  0.27503680761E+03  0.47000000000E+01 0. -1.
        -11    1    1    2    0    0 -0.34170963906E+02 -0.87751431719E+02  0.12737545235E+03  0.15840604283E+03  0.00000000000E+00 0.  1.
         11    1    1    2    0    0  0.24681268232E+02  0.12234424203E+02  0.42969664604E+02  0.51041534198E+02  0.00000000000E+00 0. -1.
<mgrwt>
<rscale>  0 0.13980034E+03</rscale>
<asrwt>0</asrwt>
<pdfrwt beam="1">  1        2 0.79214599E-01 0.14634768E+03</pdfrwt>
<pdfrwt beam="2">  1       -2 0.55425253E-02 0.14634768E+03</pdfrwt>
<totfact> 0.96466443E+03</totfact>
</mgrwt>
</event>
<event>
 6    1  0.1045058E-005  0.1410693E+03  0.7546771E-02  0.1222190E+00
          1   -1    0    0  501    0  0.00000000000E+00  0.00000000000E+00  0.51258550245E+03  0.51258550245E+03  0.00000000000E+00 0. -1.
         -1   -1    0    0    0  501 -0.00000000000E+00 -0.00000000000E+00 -0.37582311352E+02  0.37582311352E+02  0.00000000000E+00 0.  1.
          5    1    1    2  502    0 -0.76244062886E+02  0.63897176568E+02  0.27005595466E+03  0.28783383218E+03  0.47000000000E+01 0. -1.
         -5    1    1    2    0  502  0.16397282296E+02 -0.37571504492E+02  0.98134878273E+02  0.10645671961E+03  0.47000000000E+01 0. -1.
        -11    1    1    2    0    0  0.50109639677E+02 -0.46035435390E+02  0.27192244757E+02  0.73277933070E+02  0.00000000000E+00 0.  1.
         11    1    1    2    0    0  0.97371409135E+01  0.19709763313E+02  0.79620113400E+02  0.82599328937E+02  0.00000000000E+00 0. -1.
<mgrwt>
<rscale>  0 0.13361374E+03</rscale>
<asrwt>0</asrwt>
<pdfrwt beam="1">  1        1 0.78859303E-01 0.14106931E+03</pdfrwt>
<pdfrwt beam="2">  1       -1 0.57818944E-02 0.14106931E+03</pdfrwt>
<totfact> 0.59470266E+03</totfact>
</mgrwt>
</event>
<event>
 6    1  0.1045058E-005  0.1253802E+03  0.7546771E-02  0.1248904E+00
          1   -1    0    0  501    0  0.00000000000E+00  0.00000000000E+00  0.11736666726E+03  0.11736666726E+03  0.00000000000E+00 0. -1.
         -1   -1    0    0    0  501 -0.00000000000E+00 -0.00000000000E+00 -0.15856914139E+03  0.15856914139E+03  0.00000000000E+00 0.  1.
          5    1    1    2  502    0 -0.36178310032E+02  0.11736053147E+02 -0.27499402770E+02  0.47168975110E+02  0.47000000000E+01 0. -1.
         -5    1    1    2    0  502  0.26142628938E+02 -0.12094060287E+02  0.86708473786E+02  0.91488539000E+02  0.47000000000E+01 0. -1.
        -11    1    1    2    0    0  0.39590217677E+02  0.12578560117E+02 -0.96496661187E+02  0.10505813215E+03  0.00000000000E+00 0.  1.
         11    1    1    2    0    0 -0.29554536583E+02 -0.12220552976E+02 -0.39148839588E+01  0.32220162385E+02  0.00000000000E+00 0. -1.
<mgrwt>
<rscale>  0 0.11654734E+03</rscale>
<asrwt>0</asrwt>
<pdfrwt beam="1">  1        1 0.18056410E-01 0.12538019E+03</pdfrwt>
<pdfrwt beam="2">  1       -1 0.24395253E-01 0.12538019E+03</pdfrwt>
<totfact> 0.40416838E+03</totfact>
</mgrwt>
</event>
<event>
 6    1  0.1045058E-005  0.1330861E+03  0.7546771E-02  0.1234574E+00
         -2   -1    0    0    0  501 -0.00000000000E+00  0.00000000000E+00  0.26928777884E+02  0.26928777884E+02  0.00000000000E+00 0.  1.
          2   -1    0    0  501    0  0.00000000000E+00 -0.00000000000E+00 -0.81244907310E+03  0.81244907310E+03  0.00000000000E+00 0. -1.
          5    1    1    2  502    0 -0.20455946350E+02  0.77177070490E+02 -0.54584042148E+03  0.55166892397E+03  0.47000000000E+01 0.  1.
         -5    1    1    2    0  502 -0.88176386716E+01 -0.42103933808E+02 -0.12592900603E+03  0.13315666169E+03  0.47000000000E+01 0.  1.
        -11    1    1    2    0    0  0.13771067494E+02 -0.65258204461E+01  0.15229159174E+02  0.21544278163E+02  0.00000000000E+00 0.  1.
         11    1    1    2    0    0  0.15502517528E+02 -0.28547316236E+02 -0.12898002688E+03  0.13300798716E+03  0.00000000000E+00 0. -1.
<mgrwt>
<rscale>  0 0.12531764E+03</rscale>
<asrwt>0</asrwt>
<pdfrwt beam="2">  1        2 0.12499215E+00 0.13308613E+03</pdfrwt>
<pdfrwt beam="1">  1       -2 0.41428893E-02 0.13308613E+03</pdfrwt>
<totfact> 0.87150784E+03</totfact>
</mgrwt>
</event>
<event>
 6    1  0.1045058E-005  0.1331221E+03  0.7546771E-02  0.1236143E+00
         -2   -1    0    0    0  501 -0.00000000000E+00  0.00000000000E+00  0.13677438975E+02  0.13677438975E+02  0.00000000000E+00 0.  1.
          2   -1    0    0  501    0  0.00000000000E+00 -0.00000000000E+00 -0.10272733802E+04  0.10272733802E+04  0.00000000000E+00 0. -1.
          5    1    1    2  502    0 -0.69391815796E+02  0.19954322643E+02 -0.35494829162E+03  0.36224822818E+03  0.47000000000E+01 0. -1.
         -5    1    1    2    0  502  0.34609962715E+02 -0.49723958541E+02 -0.29694683974E+03  0.30310037480E+03  0.47000000000E+01 0. -1.
        -11    1    1    2    0    0 -0.14226355447E+02  0.46996095040E+02 -0.16427290111E+03  0.17145439096E+03  0.00000000000E+00 0. -1.
         11    1    1    2    0    0  0.49008208528E+02 -0.17226459142E+02 -0.19742790876E+03  0.20414782525E+03  0.00000000000E+00 0.  1.
<mgrwt>
<rscale>  0 0.12431564E+03</rscale>
<asrwt>0</asrwt>
<pdfrwt beam="2">  1        2 0.15804209E+00 0.13312213E+03</pdfrwt>
<pdfrwt beam="1">  1       -2 0.21042210E-02 0.13312213E+03</pdfrwt>
<totfact> 0.17307881E+04</totfact>
</mgrwt>
</event>
<event>
 6    1  0.1045058E-005  0.1287935E+03  0.7546771E-02  0.1248177E+00
          2   -1    0    0  501    0  0.00000000000E+00  0.00000000000E+00  0.13422863959E+04  0.13422863959E+04  0.00000000000E+00 0. -1.
         -2   -1    0    0    0  501 -0.00000000000E+00 -0.00000000000E+00 -0.95285092347E+01  0.95285092347E+01  0.00000000000E+00 0.  1.
          5    1    1    2  502    0 -0.50531653597E+02 -0.49640804703E+02  0.65088794967E+03  0.65474794428E+03  0.47000000000E+01 0. -1.
         -5    1    1    2    0  502  0.19552262651E+02  0.51059353924E+02  0.32468340218E+03  0.32928824797E+03  0.47000000000E+01 0. -1.
        -11    1    1    2    0    0 -0.15637440033E+02 -0.29187048514E+02  0.12196352252E+03  0.12637845606E+03  0.00000000000E+00 0.  1.
         11    1    1    2    0    0  0.46616830979E+02  0.27768499293E+02  0.23522301230E+03  0.24140025683E+03  0.00000000000E+00 0. -1.
<mgrwt>
<rscale>  0 0.11697236E+03</rscale>
<asrwt>0</asrwt>
<pdfrwt beam="1">  1        2 0.20650545E+00 0.12879350E+03</pdfrwt>
<pdfrwt beam="2">  1       -2 0.14659256E-02 0.12879350E+03</pdfrwt>
<totfact> 0.19443333E+04</totfact>
</mgrwt>
</event>
<event>
 6    1  0.1045058E-005  0.1284437E+03  0.7546771E-02  0.1244576E+00
          1   -1    0    0  501    0  0.00000000000E+00  0.00000000000E+00  0.16882435901E+03  0.16882435901E+03  0.00000000000E+00 0. -1.
         -1   -1    0    0    0  501 -0.00000000000E+00 -0.00000000000E+00 -0.87184675237E+02  0.87184675237E+02  0.00000000000E+00 0.  1.
          5    1    1    2  502    0  0.57213687032E+02  0.14759353917E+02  0.16460235228E+02  0.61516451910E+02  0.47000000000E+01 0. -1.
         -5    1    1    2    0  502 -0.42512373234E+02 -0.40436554469E+02  0.78998117900E+02  0.98515021429E+02  0.47000000000E+01 0. -1.
        -11    1    1    2    0    0  0.12330024144E+02  0.33799843985E+02  0.27954785620E+02  0.45562363721E+02  0.00000000000E+00 0. -1.
         11    1    1    2    0    0 -0.27031337942E+02 -0.81226434331E+01 -0.41773454973E+02  0.50415197190E+02  0.00000000000E+00 0.  1.
<mgrwt>
<rscale>  0 0.11910768E+03</rscale>
<asrwt>0</asrwt>
<pdfrwt beam="1">  1        1 0.25972978E-01 0.12844367E+03</pdfrwt>
<pdfrwt beam="2">  1       -1 0.13413027E-01 0.12844367E+03</pdfrwt>
<totfact> 0.66207453E+03</totfact>
</mgrwt>
</event>
<event>
 6    1  0.1045058E-005  0.3449914E+03  0.7546771E-02  0.1064690E+00
         -2   -1    0    0    0  501 -0.00000000000E+00  0.00000000000E+00  0.42968392894E+02  0.42968392894E+02  0.00000000000E+00 0.  1.
          2   -1    0    0  501    0  0.00000000000E+00 -0.00000000000E+00 -0.69248034155E+03  0.69248034155E+03  0.00000000000E+00 0. -1.
          5    1    1    2  502    0 -0.10219265699E+03  0.83350089546E+02 -0.32632215045E+03  0.35199263123E+03  0.47000000000E+01 0. -1.
         -5    1    1    2    0  502 -0.21145166527E+02 -0.30942789214E+02 -0.28350889680E+02  0.47227504883E+02  0.47000000000E+01 0. -1.
        -11    1    1    2    0    0  0.29573152319E+02 -0.58247202308E+02 -0.93608098926E+02  0.11414807970E+03  0.00000000000E+00 0.  1.
         11    1    1    2    0    0  0.93764671200E+02  0.58399019752E+01 -0.20123080960E+03  0.22208051863E+03  0.00000000000E+00 0. -1.
<mgrwt>
<rscale>  0 0.34499141E+03</rscale>
<asrwt>0</asrwt>
<pdfrwt beam="2">  1        2 0.10653542E+00 0.34499141E+03</pdfrwt>
<pdfrwt beam="1">  1       -2 0.66105229E-02 0.34499141E+03</pdfrwt>
<totfact> 0.54349932E+03</totfact>
</mgrwt>
</event>
<event>
 6    1  0.1045058E-005  0.2788723E+03  0.7546771E-02  0.1098213E+00
          1   -1    0    0  501    0  0.00000000000E+00  0.00000000000E+00  0.58252018577E+03  0.58252018577E+03  0.00000000000E+00 0. -1.
         -1   -1    0    0    0  501 -0.00000000000E+00 -0.00000000000E+00 -0.12872128831E+03  0.12872128831E+03  0.00000000000E+00 0.  1.
          5    1    1    2  502    0  0.22585049577E+03  0.10920481749E+03  0.14255995963E+03  0.28858199995E+03  0.47000000000E+01 0.  1.
         -5    1    1    2    0  502 -0.74901413925E+00 -0.20813397470E+01  0.50100533384E+02  0.50369102064E+02  0.47000000000E+01 0.  1.
        -11    1    1    2    0    0 -0.35089640114E+02 -0.24357358081E+02  0.10327807063E+03  0.11176280065E+03  0.00000000000E+00 0. -1.
         11    1    1    2    0    0 -0.19001184152E+03 -0.82766119664E+02  0.15786033381E+03  0.26052757143E+03  0.00000000000E+00 0.  1.
<mgrwt>
<rscale>  0 0.27542665E+03</rscale>
<asrwt>0</asrwt>
<pdfrwt beam="1">  1        1 0.89618488E-01 0.27887234E+03</pdfrwt>
<pdfrwt beam="2">  1       -1 0.19803276E-01 0.27887234E+03</pdfrwt>
<totfact> 0.75355965E+02</totfact>
</mgrwt>
</event>
<event>
 6    1  0.1045058E-005  0.1570020E+03  0.7546771E-02  0.1200148E+00
          1   -1    0    0  501    0  0.00000000000E+00  0.00000000000E+00  0.26123120292E+03  0.26123120292E+03  0.00000000000E+00 0. -1.
         -1   -1    0    0    0  501 -0.00000000000E+00 -0.00000000000E+00 -0.98200462352E+02  0.98200462352E+02  0.00000000000E+00 0.  1.
          5    1    1    2  502    0 -0.45554970664E+02 -0.11516088086E+03  0.11405590886E+03  0.16842839481E+03  0.47000000000E+01 0. -1.
         -5    1    1    2    0  502  0.11856789906E+02  0.27641424614E+02  0.50831811911E+02  0.59250273617E+02  0.47000000000E+01 0.  1.
        -11    1    1    2    0    0 -0.10107448344E+02 -0.77734122346E+01  0.20853626969E+02  0.24442999153E+02  0.00000000000E+00 0. -1.
         11    1    1    2    0    0  0.43805629103E+02  0.95292868485E+02 -0.22710607176E+02  0.10730999769E+03  0.00000000000E+00 0.  1.
<mgrwt>
<rscale>  0 0.15026511E+03</rscale>
<asrwt>0</asrwt>
<pdfrwt beam="1">  1        1 0.40189415E-01 0.15700196E+03</pdfrwt>
<pdfrwt beam="2">  1       -1 0.15107764E-01 0.15700196E+03</pdfrwt>
<totfact> 0.32309871E+03</totfact>
</mgrwt>
</event>
<event>
 6    1  0.1045058E-005  0.4327072E+03  0.7546771E-02  0.1033008E+00
         -2   -1    0    0    0  501 -0.00000000000E+00  0.00000000000E+00  0.16247104728E+02  0.16247104728E+02  0.00000000000E+00 0.  1.
          2   -1    0    0  501    0  0.00000000000E+00 -0.00000000000E+00 -0.28810603535E+04  0.28810603535E+04  0.00000000000E+00 0. -1.
          5    1    1    2  502    0 -0.22709287533E+02 -0.16968119878E+01 -0.21852578204E+03  0.21975941010E+03  0.47000000000E+01 0. -1.
         -5    1    1    2    0  502  0.16576285124E+03 -0.40691793016E+02 -0.20627927140E+04  0.20698475827E+04  0.47000000000E+01 0. -1.
        -11    1    1    2    0    0 -0.81446283635E+02 -0.61062322287E+01 -0.19570618883E+03  0.21206530960E+03  0.00000000000E+00 0.  1.
         11    1    1    2    0    0 -0.61607280073E+02  0.48494837233E+02 -0.38778856392E+03  0.39563515580E+03  0.00000000000E+00 0. -1.
<mgrwt>
<rscale>  0 0.43270724E+03</rscale>
<asrwt>0</asrwt>
<pdfrwt beam="2">  1        2 0.44323993E+00 0.43270724E+03</pdfrwt>
<pdfrwt beam="1">  1       -2 0.24995553E-02 0.43270724E+03</pdfrwt>
<totfact> 0.13322792E+03</totfact>
</mgrwt>
</event>
<event>
 6    1  0.1045058E-005  0.1870935E+03  0.7546771E-02  0.1165994E+00
         -2   -1    0    0    0  501 -0.00000000000E+00  0.00000000000E+00  0.63465729988E+03  0.63465729988E+03  0.00000000000E+00 0.  1.
          2   -1    0    0  501    0  0.00000000000E+00 -0.00000000000E+00 -0.51994119273E+02  0.51994119273E+02  0.00000000000E+00 0. -1.
          5    1    1    2  502    0 -0.12383352852E+03  0.51128283213E+01  0.14732170136E+03  0.19257896430E+03  0.47000000000E+01 0.  1.
         -5    1    1    2    0  502 -0.29775643771E+01 -0.62667102421E+02  0.83341030039E+02  0.10442149637E+03  0.47000000000E+01 0.  1.
        -11    1    1    2    0    0  0.84266315116E+02  0.34362081973E+02  0.31719332027E+03  0.32998964676E+03  0.00000000000E+00 0.  1.
         11    1    1    2    0    0  0.42544777785E+02  0.23192192127E+02  0.34807128936E+02  0.59661311728E+02  0.00000000000E+00 0. -1.
<mgrwt>
<rscale>  0 0.18188227E+03</rscale>
<asrwt>0</asrwt>
<pdfrwt beam="2">  1        2 0.79990957E-02 0.18709350E+03</pdfrwt>
<pdfrwt beam="1">  1       -2 0.97639579E-01 0.18709350E+03</pdfrwt>
<totfact> 0.76252734E+02</totfact>
</mgrwt>
</event>
<event>
 6    1  0.1045058E-005  0.1852734E+03  0.7546771E-02  0.1168091E+00
         -1   -1    0    0    0  501 -0.00000000000E+00  0.00000000000E+00  0.31160692082E+03  0.31160692082E+03  0.00000000000E+00 0.  1.
          1   -1    0    0  501    0  0.00000000000E+00 -0.00000000000E+00 -0.10191233500E+03  0.10191233500E+03  0.00000000000E+00 0. -1.
          5    1    1    2  502    0 -0.32687992911E+02  0.71766189079E+02  0.10761249285E+01  0.79007207395E+02  0.47000000000E+01 0. -1.
         -5    1    1    2    0  502  0.78401658952E+02  0.57116487647E+02  0.68754844840E+02  0.11898920950E+03  0.47000000000E+01 0. -1.
        -11    1    1    2    0    0 -0.14096165313E+02 -0.12936237947E+03  0.97221459124E+02  0.16243564637E+03  0.00000000000E+00 0. -1.
         11    1    1    2    0    0 -0.31617500728E+02  0.47970274337E+00  0.42642156924E+02  0.53087192562E+02  0.00000000000E+00 0.  1.
<mgrwt>
<rscale>  0 0.17970289E+03</rscale>
<asrwt>0</asrwt>
<pdfrwt beam="2">  1        1 0.15678821E-01 0.18527336E+03</pdfrwt>
<pdfrwt beam="1">  1       -1 0.47939526E-01 0.18527336E+03</pdfrwt>
<totfact> 0.15431314E+03</totfact>
</mgrwt>
</event>
<event>
 6    1  0.1045058E-005  0.1186902E+03  0.7546771E-02  0.1251163E+00
          1   -1    0    0  501    0  0.00000000000E+00  0.00000000000E+00  0.56965006651E+03  0.56965006651E+03  0.00000000000E+00 0. -1.
         -1   -1    0    0    0  501 -0.00000000000E+00 -0.00000000000E+00 -0.22072021116E+02  0.22072021116E+02  0.00000000000E+00 0.  1.
          5    1    1    2  502    0  0.43132035356E+02  0.55033966560E+02  0.21848060996E+03  0.22944493212E+03  0.47000000000E+01 0. -1.
         -5    1    1    2    0  502 -0.11861872216E+02 -0.43098368426E+02  0.79887895369E+02  0.91664274393E+02  0.47000000000E+01 0.  1.
        -11    1    1    2    0    0 -0.54627809274E+02  0.26298737568E+02  0.13931816023E+03  0.15193870775E+03  0.00000000000E+00 0. -1.
         11    1    1    2    0    0  0.23357646134E+02 -0.38234335702E+02  0.10989137984E+03  0.11867417336E+03  0.00000000000E+00 0.  1.
<mgrwt>
<rscale>  0 0.11523997E+03</rscale>
<asrwt>0</asrwt>
<pdfrwt beam="1">  1        1 0.87638460E-01 0.11869017E+03</pdfrwt>
<pdfrwt beam="2">  1       -1 0.33956960E-02 0.11869017E+03</pdfrwt>
<totfact> 0.11191898E+04</totfact>
</mgrwt>
</event>
<event>
 6    1  0.1045058E-005  0.1646622E+03  0.7546771E-02  0.1190852E+00
         -1   -1    0    0    0  501 -0.00000000000E+00  0.00000000000E+00  0.26087013945E+03  0.26087013945E+03  0.00000000000E+00 0.  1.
          1   -1    0    0  501    0  0.00000000000E+00 -0.00000000000E+00 -0.10144727369E+03  0.10144727369E+03  0.00000000000E+00 0. -1.
          5    1    1    2  502    0  0.34376298456E+02  0.40550676786E+02 -0.15319830093E+01  0.53390301135E+02  0.47000000000E+01 0.  1.
         -5    1    1    2    0  502 -0.10136858950E+03  0.43117018035E+02  0.23455348336E+02  0.11272493756E+03  0.47000000000E+01 0.  1.
        -11    1    1    2    0    0  0.41554142430E+02 -0.67062226237E+02  0.14485539324E+03  0.16494597264E+03  0.00000000000E+00 0.  1.
         11    1    1    2    0    0  0.25438148614E+02 -0.16605468585E+02 -0.73558928124E+01  0.31256201799E+02  0.00000000000E+00 0. -1.
<mgrwt>
<rscale>  0 0.15810568E+03</rscale>
<asrwt>0</asrwt>
<pdfrwt beam="2">  1        1 0.15607273E-01 0.16466220E+03</pdfrwt>
<pdfrwt beam="1">  1       -1 0.40133867E-01 0.16466220E+03</pdfrwt>
<totfact> 0.21264037E+03</totfact>
</mgrwt>
</event>
<event>
 6    1  0.1045058E-005  0.1362459E+03  0.7546771E-02  0.1226125E+00
         -2   -1    0    0    0  501 -0.00000000000E+00  0.00000000000E+00  0.20569351986E+02  0.20569351986E+02  0.00000000000E+00 0. -1.
          2   -1    0    0  501    0  0.00000000000E+00 -0.00000000000E+00 -0.81613866758E+03  0.81613866758E+03  0.00000000000E+00 0.  1.
          5    1    1    2  502    0  0.39246335441E+02  0.97665715469E+00 -0.21348234693E+03  0.21711294562E+03  0.47000000000E+01 0. -1.
         -5    1    1    2    0  502 -0.93223113596E+02 -0.59317286288E+01 -0.30932762633E+03  0.32315848236E+03  0.47000000000E+01 0. -1.
        -11    1    1    2    0    0 -0.80572762796E+01  0.42453718425E+02 -0.11387840783E+03  0.12180118915E+03  0.00000000000E+00 0. -1.
         11    1    1    2    0    0  0.62034054435E+02 -0.37498646951E+02 -0.15888093450E+03  0.17463540242E+03  0.00000000000E+00 0.  1.
<mgrwt>
<rscale>  0 0.13090063E+03</rscale>
<asrwt>0</asrwt>
<pdfrwt beam="2">  1        2 0.12555978E+00 0.13624591E+03</pdfrwt>
<pdfrwt beam="1">  1       -2 0.31645162E-02 0.13624591E+03</pdfrwt>
<totfact> 0.12928787E+04</totfact>
</mgrwt>
</event>
<event>
 6    1  0.1045058E-005  0.1255932E+03  0.7546771E-02  0.1251182E+00
         -2   -1    0    0    0  501 -0.00000000000E+00  0.00000000000E+00  0.32750396621E+03  0.32750396621E+03  0.00000000000E+00 0.  1.
          2   -1    0    0  501    0  0.00000000000E+00 -0.00000000000E+00 -0.58050366991E+02  0.58050366991E+02  0.00000000000E+00 0. -1.
          5    1    1    2  502    0  0.48020049834E+02  0.14255475542E+02 -0.27792387944E+02  0.57477392048E+02  0.47000000000E+01 0. -1.
         -5    1    1    2    0  502 -0.43291755281E+02 -0.30376846124E+01  0.56423553416E+02  0.71338005181E+02  0.47000000000E+01 0. -1.
        -11    1    1    2    0    0 -0.45703085069E+02 -0.12736524770E+02  0.14320489799E+03  0.15085964953E+03  0.00000000000E+00 0.  1.
         11    1    1    2    0    0  0.40974790515E+02  0.15187338399E+01  0.97617535757E+02  0.10587928644E+03  0.00000000000E+00 0. -1.
<mgrwt>
<rscale>  0 0.11522892E+03</rscale>
<asrwt>0</asrwt>
<pdfrwt beam="2">  1        2 0.89308259E-02 0.12559324E+03</pdfrwt>
<pdfrwt beam="1">  1       -2 0.50385224E-01 0.12559324E+03</pdfrwt>
<totfact> 0.26730861E+03</totfact>
</mgrwt>
</event>
<event>
 6    1  0.1045058E-005  0.1608735E+03  0.7546771E-02  0.1195561E+00
          2   -1    0    0  501    0  0.00000000000E+00  0.00000000000E+00  0.91535916686E+02  0.91535916686E+02  0.00000000000E+00 0. -1.
         -2   -1    0    0    0  501 -0.00000000000E+00 -0.00000000000E+00 -0.25071852955E+03  0.25071852955E+03  0.00000000000E+00 0.  1.
          5    1    1    2  502    0  0.32706031508E+02  0.51356061027E+01 -0.47260543278E+02  0.57893936625E+02  0.47000000000E+01 0. -1.
         -5    1    1    2    0  502 -0.29991957454E+02 -0.10636761435E+03 -0.30281361590E+01  0.11065643453E+03  0.47000000000E+01 0. -1.
        -11    1    1    2    0    0  0.36219818362E+02  0.78936412410E+02 -0.89851219513E+02  0.12496429128E+03  0.00000000000E+00 0.  1.
         11    1    1    2    0    0 -0.38933892416E+02  0.22295595833E+02 -0.19042713912E+02  0.48739783805E+02  0.00000000000E+00 0. -1.
<mgrwt>
<rscale>  0 0.15406885E+03</rscale>
<asrwt>0</asrwt>
<pdfrwt beam="1">  1        2 0.14082449E-01 0.16087348E+03</pdfrwt>
<pdfrwt beam="2">  1       -2 0.38572081E-01 0.16087348E+03</pdfrwt>
<totfact> 0.26129113E+03</totfact>
</mgrwt>
</event>
<event>
 6    1  0.1045058E-005  0.2337995E+03  0.7546771E-02  0.1126842E+00
         -4   -1    0    0    0  501 -0.00000000000E+00  0.00000000000E+00  0.10140672162E+04  0.10140672162E+04  0.00000000000E+00 0.  1.
          4   -1    0    0  501    0  0.00000000000E+00 -0.00000000000E+00 -0.51108668417E+02  0.51108668417E+02  0.00000000000E+00 0. -1.
          5    1    1    2  502    0 -0.15185329422E+02 -0.69571719194E+02  0.90340580346E+02  0.11512744590E+03  0.47000000000E+01 0. -1.
         -5    1    1    2    0  502 -0.15367387484E+03 -0.33012285648E+02  0.34067493816E+03  0.37521590358E+03  0.47000000000E+01 0. -1.
        -11    1    1    2    0    0  0.16258717806E+03  0.69411417152E+02  0.49046081552E+03  0.52134858479E+03  0.00000000000E+00 0.  1.
         11    1    1    2    0    0  0.62720262037E+01  0.33172587690E+02  0.41482213766E+02  0.53483950356E+02  0.00000000000E+00 0. -1.
<mgrwt>
<rscale>  0 0.22971220E+03</rscale>
<asrwt>0</asrwt>
<pdfrwt beam="2">  1        4 0.78628728E-02 0.23379954E+03</pdfrwt>
<pdfrwt beam="1">  1       -4 0.15601033E+00 0.23379954E+03</pdfrwt>
<totfact> 0.58964696E+01</totfact>
</mgrwt>
</event>
<event>
 6    1  0.1045058E-005  0.1577599E+03  0.7546771E-02  0.1201066E+00
         -4   -1    0    0    0  501 -0.00000000000E+00  0.00000000000E+00  0.14122238737E+03  0.14122238737E+03  0.00000000000E+00 0.  1.
          4   -1    0    0  501    0  0.00000000000E+00 -0.00000000000E+00 -0.21794043939E+03  0.21794043939E+03  0.00000000000E+00 0. -1.
          5    1    1    2  502    0 -0.14088280744E+02 -0.28996713773E+02  0.39923190762E+01  0.32822517813E+02  0.47000000000E+01 0. -1.
         -5    1    1    2    0  502  0.10307641093E+03 -0.76661610509E+01 -0.14937749367E+03  0.18171197575E+03  0.47000000000E+01 0. -1.
        -11    1    1    2    0    0 -0.77789251658E+02  0.58140143856E+02  0.70989989579E+02  0.12029556360E+03  0.00000000000E+00 0.  1.
         11    1    1    2    0    0 -0.11198878523E+02 -0.21477269032E+02 -0.23228670064E+01  0.24332769599E+02  0.00000000000E+00 0. -1.
<mgrwt>
<rscale>  0 0.14951826E+03</rscale>
<asrwt>0</asrwt>
<pdfrwt beam="2">  1        4 0.33529298E-01 0.15775994E+03</pdfrwt>
<pdfrwt beam="1">  1       -4 0.21726521E-01 0.15775994E+03</pdfrwt>
<totfact> 0.28517356E+02</totfact>
</mgrwt>
</event>
<event>
 6    1  0.1045058E-005  0.1512781E+03  0.7546771E-02  0.1210374E+00
          1   -1    0    0  501    0  0.00000000000E+00  0.00000000000E+00  0.41542008277E+03  0.41542008277E+03  0.00000000000E+00 0. -1.
         -1   -1    0    0    0  501 -0.00000000000E+00 -0.00000000000E+00 -0.53372794722E+02  0.53372794722E+02  0.00000000000E+00 0.  1.
          5    1    1    2  502    0  0.35333906075E+02  0.81531992976E+02  0.10307324500E+03  0.13616950698E+03  0.47000000000E+01 0.  1.
         -5    1    1    2    0  502  0.26038769760E+02 -0.22426882754E+02  0.19536836569E+03  0.19842346361E+03  0.47000000000E+01 0.  1.
        -11    1    1    2    0    0  0.30730139109E+01 -0.44079218278E+02  0.27080303209E+01  0.44269112558E+02  0.00000000000E+00 0.  1.
         11    1    1    2    0    0 -0.64445689745E+02 -0.15025891943E+02  0.60897647040E+02  0.89930794339E+02  0.00000000000E+00 0. -1.
<mgrwt>
<rscale>  0 0.14221912E+03</rscale>
<asrwt>0</asrwt>
<pdfrwt beam="1">  1        1 0.63910780E-01 0.15127809E+03</pdfrwt>
<pdfrwt beam="2">  1       -1 0.82111995E-02 0.15127809E+03</pdfrwt>
<totfact> 0.46229971E+03</totfact>
</mgrwt>
</event>
<event>
 6    1  0.1045058E-005  0.1407078E+03  0.7546771E-02  0.1223314E+00
         -2   -1    0    0    0  501 -0.00000000000E+00  0.00000000000E+00  0.45459498304E+02  0.45459498304E+02  0.00000000000E+00 0.  1.
          2   -1    0    0  501    0  0.00000000000E+00 -0.00000000000E+00 -0.35479642691E+03  0.35479642691E+03  0.00000000000E+00 0. -1.
          5    1    1    2  502    0  0.41568011573E+01  0.93313121670E+02 -0.93717867303E+02  0.13239994835E+03  0.47000000000E+01 0.  1.
         -5    1    1    2    0  502 -0.21419658987E+02 -0.31055484285E+02 -0.10035211587E+03  0.10731207786E+03  0.47000000000E+01 0.  1.
        -11    1    1    2    0    0 -0.33277779772E+02 -0.26434920786E+02 -0.76361498372E+02  0.87391613426E+02  0.00000000000E+00 0. -1.
         11    1    1    2    0    0  0.50540637601E+02 -0.35822716599E+02 -0.38905447056E+02  0.73152285571E+02  0.00000000000E+00 0.  1.
<mgrwt>
<rscale>  0 0.13283111E+03</rscale>
<asrwt>0</asrwt>
<pdfrwt beam="2">  1        2 0.54584064E-01 0.14070784E+03</pdfrwt>
<pdfrwt beam="1">  1       -2 0.69937692E-02 0.14070784E+03</pdfrwt>
<totfact> 0.10097074E+04</totfact>
</mgrwt>
</event>
<event>
 6    1  0.1045058E-005  0.1524343E+03  0.7546771E-02  0.1204461E+00
         -2   -1    0    0    0  501 -0.00000000000E+00  0.00000000000E+00  0.32067446612E+02  0.32067446612E+02  0.00000000000E+00 0.  1.
          2   -1    0    0  501    0  0.00000000000E+00 -0.00000000000E+00 -0.69220962673E+03  0.69220962673E+03  0.00000000000E+00 0. -1.
          5    1    1    2  502    0 -0.13232156659E+02 -0.22509330952E+02 -0.13030735118E+02  0.29557571068E+02  0.47000000000E+01 0.  1.
         -5    1    1    2    0  502  0.74971771762E+02 -0.39130010967E+02 -0.45053383451E+03  0.45842638488E+03  0.47000000000E+01 0.  1.
        -11    1    1    2    0    0 -0.34623508291E+02  0.71901292560E+02 -0.19068032876E+03  0.20670648508E+03  0.00000000000E+00 0. -1.
         11    1    1    2    0    0 -0.27116106813E+02 -0.10261950641E+02 -0.58972817310E+01  0.29586632310E+02  0.00000000000E+00 0.  1.
<mgrwt>
<rscale>  0 0.14680029E+03</rscale>
<asrwt>0</asrwt>
<pdfrwt beam="2">  1        2 0.10649379E+00 0.15243435E+03</pdfrwt>
<pdfrwt beam="1">  1       -2 0.49334533E-02 0.15243435E+03</pdfrwt>
<totfact> 0.82189121E+03</totfact>
</mgrwt>
</event>
<event>
 6    1  0.1045058E-005  0.2291074E+03  0.7546771E-02  0.1130207E+00
          1   -1    0    0  501    0  0.00000000000E+00  0.00000000000E+00  0.13369367370E+04  0.13369367370E+04  0.00000000000E+00 0. -1.
         -1   -1    0    0    0  501 -0.00000000000E+00 -0.00000000000E+00 -0.82315278782E+02  0.82315278782E+02  0.00000000000E+00 0.  1.
          5    1    1    2  502    0  0.32554980329E+02 -0.16231001221E+02  0.60347177945E+02  0.70619714179E+02  0.47000000000E+01 0. -1.
         -5    1    1    2    0  502  0.15751962220E+03  0.43500239768E+02  0.11058872854E+04  0.11179058459E+04  0.47000000000E+01 0. -1.
        -11    1    1    2    0    0 -0.79065494602E+02  0.29625483273E+02  0.57704720389E+02  0.10226855064E+03  0.00000000000E+00 0. -1.
         11    1    1    2    0    0 -0.11100910792E+03 -0.56894721821E+02  0.30682274497E+02  0.12845790509E+03  0.00000000000E+00 0.  1.
<mgrwt>
<rscale>  0 0.22500289E+03</rscale>
<asrwt>0</asrwt>
<pdfrwt beam="1">  1        1 0.20568256E+00 0.22910736E+03</pdfrwt>
<pdfrwt beam="2">  1       -1 0.12663890E-01 0.22910736E+03</pdfrwt>
<totfact> 0.39149247E+02</totfact>
</mgrwt>
</event>
<event>
 6    1  0.1045058E-005  0.1498534E+03  0.7546771E-02  0.1209794E+00
         -3   -1    0    0    0  501 -0.00000000000E+00  0.00000000000E+00  0.18037287539E+02  0.18037287539E+02  0.00000000000E+00 0.  1.
          3   -1    0    0  501    0  0.00000000000E+00 -0.00000000000E+00 -0.10357571688E+04  0.10357571688E+04  0.00000000000E+00 0. -1.
          5    1    1    2  502    0  0.83640381080E+01 -0.42543009956E+02 -0.32419605862E+03  0.32711624731E+03  0.47000000000E+01 0. -1.
         -5    1    1    2    0  502  0.72958776743E+02  0.57285447523E+02 -0.26373994588E+03  0.27961662085E+03  0.47000000000E+01 0. -1.
        -11    1    1    2    0    0 -0.60666765511E+02 -0.47049268522E+02 -0.20248402280E+03  0.21654992403E+03  0.00000000000E+00 0.  1.
         11    1    1    2    0    0 -0.20656049340E+02  0.32306830955E+02 -0.22729985394E+03  0.23051166413E+03  0.00000000000E+00 0. -1.
<mgrwt>
<rscale>  0 0.14265960E+03</rscale>
<asrwt>0</asrwt>
<pdfrwt beam="2">  1        3 0.15934728E+00 0.14985335E+03</pdfrwt>
<pdfrwt beam="1">  1       -3 0.27749670E-02 0.14985335E+03</pdfrwt>
<totfact> 0.40073484E+02</totfact>
</mgrwt>
</event>
<event>
 6    1  0.1045058E-005  0.1262873E+03  0.7546771E-02  0.1246728E+00
         -1   -1    0    0    0  501 -0.00000000000E+00  0.00000000000E+00  0.40576767622E+03  0.40576767622E+03  0.00000000000E+00 0.  1.
          1   -1    0    0  501    0  0.00000000000E+00 -0.00000000000E+00 -0.31471794910E+02  0.31471794910E+02  0.00000000000E+00 0. -1.
          5    1    1    2  502    0  0.55249550316E+02 -0.27531708939E+02  0.13342109297E+03  0.14708428148E+03  0.47000000000E+01 0.  1.
         -5    1    1    2    0  502 -0.39457337677E+02  0.36156812196E+02  0.37877952649E+02  0.65734510431E+02  0.47000000000E+01 0.  1.
        -11    1    1    2    0    0  0.14379165469E+02 -0.34502980833E+02  0.33075016028E+02  0.49911649654E+02  0.00000000000E+00 0. -1.
         11    1    1    2    0    0 -0.30171378109E+02  0.25877877575E+02  0.16992181966E+03  0.17450902957E+03  0.00000000000E+00 0.  1.
<mgrwt>
<rscale>  0 0.11782526E+03</rscale>
<asrwt>0</asrwt>
<pdfrwt beam="2">  1        1 0.48418149E-02 0.12628727E+03</pdfrwt>
<pdfrwt beam="1">  1       -1 0.62425793E-01 0.12628727E+03</pdfrwt>
<totfact> 0.44576365E+03</totfact>
</mgrwt>
</event>
<event>
 6    1  0.1045058E-005  0.1434728E+03  0.7546771E-02  0.1218666E+00
         -2   -1    0    0    0  501 -0.00000000000E+00  0.00000000000E+00  0.19512271115E+03  0.19512271115E+03  0.00000000000E+00 0.  1.
          2   -1    0    0  501    0  0.00000000000E+00 -0.00000000000E+00 -0.88396258311E+02  0.88396258311E+02  0.00000000000E+00 0. -1.
          5    1    1    2  502    0  0.18891914692E+02 -0.21130044716E+02 -0.44471410846E+02  0.52945062216E+02  0.47000000000E+01 0. -1.
         -5    1    1    2    0  502 -0.57216270293E+01 -0.47984612581E+02  0.82096573258E+02  0.95379229400E+02  0.47000000000E+01 0. -1.
        -11    1    1    2    0    0  0.11221206520E+02  0.43855577176E+02  0.85267012191E+02  0.96538544081E+02  0.00000000000E+00 0.  1.
         11    1    1    2    0    0 -0.24391494183E+02  0.25259080120E+02 -0.16165721767E+02  0.38656133759E+02  0.00000000000E+00 0. -1.
<mgrwt>
<rscale>  0 0.13610667E+03</rscale>
<asrwt>0</asrwt>
<pdfrwt beam="2">  1        2 0.13599424E-01 0.14347279E+03</pdfrwt>
<pdfrwt beam="1">  1       -2 0.30018878E-01 0.14347279E+03</pdfrwt>
<totfact> 0.42936984E+03</totfact>
</mgrwt>
</event>
<event>
 6    1  0.1045058E-005  0.1301905E+03  0.7546771E-02  0.1240785E+00
         -2   -1    0    0    0  501 -0.00000000000E+00  0.00000000000E+00  0.44468751480E+02  0.44468751480E+02  0.00000000000E+00 0.  1.
          2   -1    0    0  501    0  0.00000000000E+00 -0.00000000000E+00 -0.32036801783E+03  0.32036801783E+03  0.00000000000E+00 0. -1.
          5    1    1    2  502    0  0.52802465783E+02 -0.30942967344E+02 -0.19574741151E+03  0.20514557449E+03  0.47000000000E+01 0.  1.
         -5    1    1    2    0  502 -0.37478305995E+02 -0.41224891781E+01 -0.11674739514E+02  0.39749312951E+02  0.47000000000E+01 0.  1.
        -11    1    1    2    0    0 -0.27084933680E+02  0.57160243663E+01 -0.81253945943E+02  0.85839794374E+02  0.00000000000E+00 0. -1.
         11    1    1    2    0    0  0.11760773892E+02  0.29349432156E+02  0.12776830621E+02  0.34102087489E+02  0.00000000000E+00 0.  1.
<mgrwt>
<rscale>  0 0.12141259E+03</rscale>
<asrwt>0</asrwt>
<pdfrwt beam="2">  1        2 0.49287386E-01 0.13019046E+03</pdfrwt>
<pdfrwt beam="1">  1       -2 0.68413465E-02 0.13019046E+03</pdfrwt>
<totfact> 0.11570216E+04</totfact>
</mgrwt>
</event>
<event>
 6    1  0.1045058E-005  0.1294026E+03  0.7546771E-02  0.1242834E+00
         -2   -1    0    0    0  501 -0.00000000000E+00  0.00000000000E+00  0.88105319640E+01  0.88105319640E+01  0.00000000000E+00 0.  1.
          2   -1    0    0  501    0  0.00000000000E+00 -0.00000000000E+00 -0.16465191979E+04  0.16465191979E+04  0.00000000000E+00 0. -1.
          5    1    1    2  502    0 -0.15455097548E+02  0.57943388108E+02 -0.27942237060E+03  0.28582380492E+03  0.47000000000E+01 0. -1.
         -5    1    1    2    0  502  0.16926069509E+02 -0.24527281856E+02 -0.93241246751E+03  0.93290041213E+03  0.47000000000E+01 0. -1.
        -11    1    1    2    0    0  0.28797285947E+02 -0.52885081491E+02 -0.26554058259E+03  0.27228278779E+03  0.00000000000E+00 0. -1.
         11    1    1    2    0    0 -0.30268257908E+02  0.19468975239E+02 -0.16033324523E+03  0.16432272502E+03  0.00000000000E+00 0.  1.
<mgrwt>
<rscale>  0 0.12015986E+03</rscale>
<asrwt>0</asrwt>
<pdfrwt beam="2">  1        2 0.25331069E+00 0.12940264E+03</pdfrwt>
<pdfrwt beam="1">  1       -2 0.13554662E-02 0.12940264E+03</pdfrwt>
<totfact> 0.15112545E+04</totfact>
</mgrwt>
</event>
<event>
 6    1  0.1045058E-005  0.2487395E+03  0.7546771E-02  0.1114104E+00
         -1   -1    0    0    0  501 -0.00000000000E+00  0.00000000000E+00  0.12564634888E+03  0.12564634888E+03  0.00000000000E+00 0.  1.
          1   -1    0    0  501    0  0.00000000000E+00 -0.00000000000E+00 -0.12310611762E+03  0.12310611762E+03  0.00000000000E+00 0. -1.
          5    1    1    2  502    0 -0.40057523536E+01  0.11047669081E+02  0.60600946323E+02  0.61908494888E+02  0.47000000000E+01 0.  1.
         -5    1    1    2    0  502  0.34653371958E+02  0.41617101627E+02 -0.54907038043E+02  0.77263912421E+02  0.47000000000E+01 0.  1.
        -11    1    1    2    0    0 -0.61193997378E+02 -0.19508168514E+02 -0.52983933711E+01  0.64446465584E+02  0.00000000000E+00 0.  1.
         11    1    1    2    0    0  0.30546377774E+02 -0.33156602194E+02  0.21447163467E+01  0.45133593613E+02  0.00000000000E+00 0. -1.
<mgrwt>
<rscale>  0 0.24873950E+03</rscale>
<asrwt>0</asrwt>
<pdfrwt beam="2">  1        1 0.18939403E-01 0.24873950E+03</pdfrwt>
<pdfrwt beam="1">  1       -1 0.19330208E-01 0.24873950E+03</pdfrwt>
<totfact> 0.57704234E+03</totfact>
</mgrwt>
</event>
<event>
 6    1  0.1045058E-005  0.1791786E+03  0.7546771E-02  0.1173826E+00
          4   -1    0    0  501    0  0.00000000000E+00  0.00000000000E+00  0.39803208281E+03  0.39803208281E+03  0.00000000000E+00 0. -1.
         -4   -1    0    0    0  501 -0.00000000000E+00 -0.00000000000E+00 -0.90281700169E+02  0.90281700169E+02  0.00000000000E+00 0.  1.
          5    1    1    2  502    0  0.23138003289E+02 -0.69635470296E+02  0.17603841505E+03  0.19077756549E+03  0.47000000000E+01 0. -1.
         -5    1    1    2    0  502 -0.84133895808E+02 -0.43318696746E+02  0.95310940784E+02  0.13439228901E+03  0.47000000000E+01 0. -1.
        -11    1    1    2    0    0  0.43396605974E+02  0.11880739469E+03  0.48897326248E+01  0.12657950832E+03  0.00000000000E+00 0.  1.
         11    1    1    2    0    0  0.17599286545E+02 -0.58532276435E+01  0.31511294185E+02  0.36564420164E+02  0.00000000000E+00 0. -1.
<mgrwt>
<rscale>  0 0.17391423E+03</rscale>
<asrwt>0</asrwt>
<pdfrwt beam="1">  1        4 0.61235704E-01 0.17917857E+03</pdfrwt>
<pdfrwt beam="2">  1       -4 0.13889493E-01 0.17917857E+03</pdfrwt>
<totfact> 0.19163639E+02</totfact>
</mgrwt>
</event>
<event>
 6    1  0.1045058E-005  0.1334274E+03  0.7546771E-02  0.1234807E+00
          4   -1    0    0  501    0  0.00000000000E+00  0.00000000000E+00  0.51796187110E+02  0.51796187110E+02  0.00000000000E+00 0. -1.
         -4   -1    0    0    0  501 -0.00000000000E+00 -0.00000000000E+00 -0.27242891914E+03  0.27242891914E+03  0.00000000000E+00 0.  1.
          5    1    1    2  502    0 -0.23013712831E+02  0.24078048866E+02  0.19399399036E+02  0.38830530494E+02  0.47000000000E+01 0. -1.
         -5    1    1    2    0  502 -0.23648945243E+02 -0.23974724803E+02 -0.13031464091E+03  0.13467759901E+03  0.47000000000E+01 0. -1.
        -11    1    1    2    0    0  0.37727490922E+02  0.18324257495E+02 -0.29968043734E+01  0.42049052551E+02  0.00000000000E+00 0. -1.
         11    1    1    2    0    0  0.89351671523E+01 -0.18427581557E+02 -0.10672068579E+03  0.10866792420E+03  0.00000000000E+00 0.  1.
<mgrwt>
<rscale>  0 0.12516804E+03</rscale>
<asrwt>0</asrwt>
<pdfrwt beam="1">  1        4 0.79686442E-02 0.13342743E+03</pdfrwt>
<pdfrwt beam="2">  1       -4 0.41912141E-01 0.13342743E+03</pdfrwt>
<totfact> 0.10138970E+03</totfact>
</mgrwt>
</event>
<event>
 6    1  0.1045058E-005  0.1582642E+03  0.7546771E-02  0.1196646E+00
          1   -1    0    0  501    0  0.00000000000E+00  0.00000000000E+00  0.57030736335E+03  0.57030736335E+03  0.00000000000E+00 0. -1.
         -1   -1    0    0    0  501 -0.00000000000E+00 -0.00000000000E+00 -0.43014019804E+02  0.43014019804E+02  0.00000000000E+00 0.  1.
          5    1    1    2  502    0 -0.38316852648E+02  0.80650279005E+01  0.31617214736E+03  0.31862225697E+03  0.47000000000E+01 0. -1.
         -5    1    1    2    0  502 -0.33643435851E+02  0.57084183637E+02  0.60104004363E+02  0.89582733481E+02  0.47000000000E+01 0. -1.
        -11    1    1    2    0    0  0.95463894398E+02 -0.61922583426E+02  0.11342564319E+03  0.16066467566E+03  0.00000000000E+00 0.  1.
         11    1    1    2    0    0 -0.23503605900E+02 -0.32266281120E+01  0.37591548638E+02  0.44451717045E+02  0.00000000000E+00 0. -1.
<mgrwt>
<rscale>  0 0.15315726E+03</rscale>
<asrwt>0</asrwt>
<pdfrwt beam="1">  1        1 0.87739589E-01 0.15826425E+03</pdfrwt>
<pdfrwt beam="2">  1       -1 0.66175419E-02 0.15826425E+03</pdfrwt>
<totfact> 0.42406742E+03</totfact>
</mgrwt>
</event>
<event>
 6    1  0.1568304E-005  0.2235914E+03  0.7546771E-02  0.1134469E+00
          1   -1    0    0  501    0  0.00000000000E+00  0.00000000000E+00  0.27195249273E+03  0.27195249273E+03  0.00000000000E+00 0. -1.
         -1   -1    0    0    0  501 -0.00000000000E+00 -0.00000000000E+00 -0.18057072547E+03  0.18057072547E+03  0.00000000000E+00 0.  1.
          5    1    1    2  502    0  0.10706312907E+02 -0.88286017214E+01 -0.98470779060E+01  0.17652883269E+02  0.47000000000E+01 0. -1.
         -5    1    1    2    0  502 -0.18063956286E+03  0.82928278074E+02  0.11162743919E+03  0.22801431129E+03  0.47000000000E+01 0. -1.
        -11    1    1    2    0    0  0.17289594673E+03 -0.53739662644E+02 -0.23334814569E+02  0.18255265900E+03  0.00000000000E+00 0.  1.
         11    1    1    2    0    0 -0.29626967864E+01 -0.20360013709E+02  0.12936220551E+02  0.24303364636E+02  0.00000000000E+00 0. -1.
<mgrwt>
<rscale>  0 0.21921540E+03</rscale>
<asrwt>0</asrwt>
<pdfrwt beam="1">  1        1 0.41838845E-01 0.22359143E+03</pdfrwt>
<pdfrwt beam="2">  1       -1 0.27780112E-01 0.22359143E+03</pdfrwt>
<totfact> 0.11542388E+03</totfact>
</mgrwt>
</event>
<event>
 6    1  0.1045058E-005  0.1310488E+03  0.7546771E-02  0.1239692E+00
         -1   -1    0    0    0  501 -0.00000000000E+00  0.00000000000E+00  0.56671671499E+02  0.56671671499E+02  0.00000000000E+00 0.  1.
          1   -1    0    0  501    0  0.00000000000E+00 -0.00000000000E+00 -0.26031463604E+03  0.26031463604E+03  0.00000000000E+00 0. -1.
          5    1    1    2  502    0 -0.37079325985E+02 -0.47841578973E+02 -0.13654194026E+03  0.14943053418E+03  0.47000000000E+01 0.  1.
         -5    1    1    2    0  502  0.52981394377E+02  0.11860884226E+02 -0.29087141095E+02  0.61772651730E+02  0.47000000000E+01 0.  1.
        -11    1    1    2    0    0 -0.90320777922E+01  0.51623625146E+02 -0.58873049479E+02  0.78820131042E+02  0.00000000000E+00 0. -1.
         11    1    1    2    0    0 -0.68699906001E+01 -0.15642930398E+02  0.20859166302E+02  0.26962990582E+02  0.00000000000E+00 0.  1.
<mgrwt>
<rscale>  0 0.12208790E+03</rscale>
<asrwt>0</asrwt>
<pdfrwt beam="2">  1        1 0.40048406E-01 0.13104882E+03</pdfrwt>
<pdfrwt beam="1">  1       -1 0.87187187E-02 0.13104882E+03</pdfrwt>
<totfact> 0.74962416E+03</totfact>
</mgrwt>
</event>
<event>
 6    1  0.1045058E-005  0.1758200E+03  0.7546771E-02  0.1178007E+00
          2   -1    0    0  501    0  0.00000000000E+00  0.00000000000E+00  0.17593505096E+04  0.17593505096E+04  0.00000000000E+00 0. -1.
         -2   -1    0    0    0  501 -0.00000000000E+00 -0.00000000000E+00 -0.16405818167E+02  0.16405818167E+02  0.00000000000E+00 0.  1.
          5    1    1    2  502    0  0.10335919628E+03  0.53045427456E+02  0.10371926877E+04  0.10436894664E+04  0.47000000000E+01 0.  1.
         -5    1    1    2    0  502  0.18922449437E+02 -0.34853758529E+02  0.11269371018E+03  0.11956088780E+03  0.47000000000E+01 0.  1.
        -11    1    1    2    0    0 -0.34579376989E+02  0.36078069870E+02  0.19028613375E+03  0.19673884501E+03  0.00000000000E+00 0. -1.
         11    1    1    2    0    0 -0.87702268732E+02 -0.54269738798E+02  0.40277215983E+03  0.41576712860E+03  0.00000000000E+00 0.  1.
<mgrwt>
<rscale>  0 0.16984720E+03</rscale>
<asrwt>0</asrwt>
<pdfrwt beam="1">  1        2 0.27066916E+00 0.17581996E+03</pdfrwt>
<pdfrwt beam="2">  1       -2 0.25239734E-02 0.17581996E+03</pdfrwt>
<totfact> 0.54119242E+03</totfact>
</mgrwt>
</event>
<event>
 6    1  0.1045058E-005  0.1688705E+03  0.7546771E-02  0.1185598E+00
         -2   -1    0    0    0  501 -0.00000000000E+00  0.00000000000E+00  0.42383858133E+02  0.42383858133E+02  0.00000000000E+00 0. -1.
          2   -1    0    0  501    0  0.00000000000E+00 -0.00000000000E+00 -0.66833572257E+03  0.66833572257E+03  0.00000000000E+00 0.  1.
          5    1    1    2  502    0  0.61035903381E+02  0.43940856593E+02 -0.39775440354E+03  0.40482939112E+03  0.47000000000E+01 0. -1.
         -5    1    1    2    0  502 -0.89766992479E+01  0.56957398084E+02 -0.61241305094E+02  0.84245556414E+02  0.47000000000E+01 0. -1.
        -11    1    1    2    0    0  0.54151588077E+01 -0.49491513758E+02 -0.12344220192E+03  0.13310413628E+03  0.00000000000E+00 0.  1.
         11    1    1    2    0    0 -0.57474362941E+02 -0.51406740918E+02 -0.43513953883E+02  0.88540496892E+02  0.00000000000E+00 0. -1.
<mgrwt>
<rscale>  0 0.16277596E+03</rscale>
<asrwt>0</asrwt>
<pdfrwt beam="2">  1        2 0.10282087E+00 0.16887049E+03</pdfrwt>
<pdfrwt beam="1">  1       -2 0.65205943E-02 0.16887049E+03</pdfrwt>
<totfact> 0.56395261E+03</totfact>
</mgrwt>
</event>
<event>
 6    1  0.1045058E-005  0.1329910E+03  0.7546771E-02  0.1236124E+00
         -1   -1    0    0    0  501 -0.00000000000E+00  0.00000000000E+00  0.35513101909E+03  0.35513101909E+03  0.00000000000E+00 0.  1.
          1   -1    0    0  501    0  0.00000000000E+00 -0.00000000000E+00 -0.42997872406E+02  0.42997872406E+02  0.00000000000E+00 0. -1.
          5    1    1    2  502    0 -0.73749646351E+02  0.39591242079E+02  0.88336134375E+02  0.12178603952E+03  0.47000000000E+01 0. -1.
         -5    1    1    2    0  502  0.28434588258E+02 -0.36552753972E+02  0.24383186659E+02  0.52547687142E+02  0.47000000000E+01 0. -1.
        -11    1    1    2    0    0  0.46026407085E+02  0.33364123828E+02  0.16157629717E+03  0.17128483505E+03  0.00000000000E+00 0.  1.
         11    1    1    2    0    0 -0.71134899150E+00 -0.36402611936E+02  0.37837528476E+02  0.52510329786E+02  0.00000000000E+00 0. -1.
<mgrwt>
<rscale>  0 0.12432779E+03</rscale>
<asrwt>0</asrwt>
<pdfrwt beam="2">  1        1 0.66150575E-02 0.13299099E+03</pdfrwt>
<pdfrwt beam="1">  1       -1 0.54635539E-01 0.13299099E+03</pdfrwt>
<totfact> 0.37633433E+03</totfact>
</mgrwt>
</event>
<event>
 6    1  0.1045058E-005  0.1284027E+03  0.7546771E-02  0.1243596E+00
         -1   -1    0    0    0  501 -0.00000000000E+00  0.00000000000E+00  0.29254464341E+03  0.29254464341E+03  0.00000000000E+00 0.  1.
          1   -1    0    0  501    0  0.00000000000E+00 -0.00000000000E+00 -0.43785869642E+02  0.43785869642E+02  0.00000000000E+00 0. -1.
          5    1    1    2  502    0  0.43509636132E+01  0.55255806508E+02  0.14308680273E+03  0.15351891790E+03  0.47000000000E+01 0. -1.
         -5    1    1    2    0  502  0.21718022767E+02 -0.41815832322E+02  0.14021181265E+02  0.49385421631E+02  0.47000000000E+01 0. -1.
        -11    1    1    2    0    0  0.20032691912E+02  0.27798271893E+02  0.41343716314E+02  0.53696885795E+02  0.00000000000E+00 0.  1.
         11    1    1    2    0    0 -0.46101678292E+02 -0.41238246080E+02  0.50307073454E+02  0.79729287721E+02  0.00000000000E+00 0. -1.
<mgrwt>
<rscale>  0 0.11969804E+03</rscale>
<asrwt>0</asrwt>
<pdfrwt beam="2">  1        1 0.67362878E-02 0.12840270E+03</pdfrwt>
<pdfrwt beam="1">  1       -1 0.45006867E-01 0.12840270E+03</pdfrwt>
<totfact> 0.52148562E+03</totfact>
</mgrwt>
</event>
<event>
 6    1  0.1045058E-005  0.1174893E+03  0.7546771E-02  0.1277782E+00
          1   -1    0    0  501    0  0.00000000000E+00  0.00000000000E+00  0.24035871257E+03  0.24035871257E+03  0.00000000000E+00 0. -1.
         -1   -1    0    0    0  501 -0.00000000000E+00 -0.00000000000E+00 -0.34747014648E+02  0.34747014648E+02  0.00000000000E+00 0.  1.
          5    1    1    2  502    0  0.19550664611E+02  0.65888538891E+02  0.96421574868E+02  0.11850205966E+03  0.47000000000E+01 0. -1.
         -5    1    1    2    0  502  0.11043022211E+02 -0.46033474350E+02  0.46652210053E+02  0.66629931736E+02  0.47000000000E+01 0.  1.
        -11    1    1    2    0    0 -0.67750255611E+01  0.14370738787E+02  0.38951389865E+02  0.42066968955E+02  0.00000000000E+00 0. -1.
         11    1    1    2    0    0 -0.23818661261E+02 -0.34225803327E+02  0.23586523131E+02  0.47906766861E+02  0.00000000000E+00 0.  1.
<mgrwt>
<rscale>  0 0.10120489E+03</rscale>
<asrwt>0</asrwt>
<pdfrwt beam="1">  1        1 0.36978263E-01 0.11748935E+03</pdfrwt>
<pdfrwt beam="2">  1       -1 0.53456947E-02 0.11748935E+03</pdfrwt>
<totfact> 0.17026786E+04</totfact>
</mgrwt>
</event>
<event>
 6    1  0.1045058E-005  0.2423435E+03  0.7546771E-02  0.1118241E+00
         -2   -1    0    0    0  501 -0.00000000000E+00  0.00000000000E+00  0.18914874752E+02  0.18914874752E+02  0.00000000000E+00 0.  1.
          2   -1    0    0  501    0  0.00000000000E+00 -0.00000000000E+00 -0.77624584277E+03  0.77624584277E+03  0.00000000000E+00 0. -1.
          5    1    1    2  502    0  0.67090434802E+02  0.33203083013E+02 -0.17863740470E+03  0.19374463482E+03  0.47000000000E+01 0. -1.
         -5    1    1    2    0  502 -0.41456604610E+02  0.23399124273E+02 -0.20678001095E+03  0.21224097628E+03  0.47000000000E+01 0.  1.
        -11    1    1    2    0    0 -0.56382678924E+02 -0.17194419175E+02 -0.13941997964E+03  0.15136903665E+03  0.00000000000E+00 0.  1.
         11    1    1    2    0    0  0.30748848732E+02 -0.39407788111E+02 -0.23249357273E+03  0.23780606978E+03  0.00000000000E+00 0. -1.
<mgrwt>
<rscale>  0 0.24234350E+03</rscale>
<asrwt>0</asrwt>
<pdfrwt beam="2">  1        2 0.11942245E+00 0.24234350E+03</pdfrwt>
<pdfrwt beam="1">  1       -2 0.29099804E-02 0.24234350E+03</pdfrwt>
<totfact> 0.16163134E+04</totfact>
</mgrwt>
</event>
<event>
 6    1  0.1045058E-005  0.1873355E+03  0.7546771E-02  0.1163476E+00
          1   -1    0    0  501    0  0.00000000000E+00  0.00000000000E+00  0.10661137460E+04  0.10661137460E+04  0.00000000000E+00 0. -1.
         -1   -1    0    0    0  501 -0.00000000000E+00 -0.00000000000E+00 -0.31385010122E+02  0.31385010122E+02  0.00000000000E+00 0.  1.
          5    1    1    2  502    0  0.46344995774E+01  0.29189166048E+02  0.73182713078E+02  0.79065071267E+02  0.47000000000E+01 0.  1.
         -5    1    1    2    0  502 -0.13278693412E+03 -0.84365154608E+02  0.40102073588E+03  0.43080107914E+03  0.47000000000E+01 0.  1.
        -11    1    1    2    0    0  0.20629715485E+02 -0.23700493188E+02  0.43337582366E+02  0.53529847597E+02  0.00000000000E+00 0.  1.
         11    1    1    2    0    0  0.10752271905E+03  0.78876481748E+02  0.51718770453E+03  0.53410275809E+03  0.00000000000E+00 0. -1.
<mgrwt>
<rscale>  0 0.18454447E+03</rscale>
<asrwt>0</asrwt>
<pdfrwt beam="1">  1        1 0.16401747E+00 0.18733548E+03</pdfrwt>
<pdfrwt beam="2">  1       -1 0.48284639E-02 0.18733548E+03</pdfrwt>
<totfact> 0.26338624E+03</totfact>
</mgrwt>
</event>
<event>
 6    1  0.1045058E-005  0.1226739E+03  0.7546771E-02  0.1248036E+00
          3   -1    0    0  501    0  0.00000000000E+00  0.00000000000E+00  0.13773802776E+02  0.13773802776E+02  0.00000000000E+00 0. -1.
         -3   -1    0    0    0  501 -0.00000000000E+00 -0.00000000000E+00 -0.95733356814E+03  0.95733356814E+03  0.00000000000E+00 0.  1.
          5    1    1    2  502    0 -0.64579871060E+02  0.42779792671E+02 -0.32539060469E+03  0.33451727314E+03  0.47000000000E+01 0. -1.
         -5    1    1    2    0  502  0.20163642272E+02 -0.33920366150E+02 -0.85289721509E+02  0.94093518929E+02  0.47000000000E+01 0.  1.
        -11    1    1    2    0    0  0.26828225004E+02 -0.50111658330E+02 -0.29419962225E+03  0.29964036726E+03  0.00000000000E+00 0.  1.
         11    1    1    2    0    0  0.17588003785E+02  0.41252231808E+02 -0.23867981691E+03  0.24285621159E+03  0.00000000000E+00 0. -1.
<mgrwt>
<rscale>  0 0.11705497E+03</rscale>
<asrwt>0</asrwt>
<pdfrwt beam="1">  1        3 0.21190462E-02 0.12267388E+03</pdfrwt>
<pdfrwt beam="2">  1       -3 0.14728212E+00 0.12267388E+03</pdfrwt>
<totfact> 0.71444503E+02</totfact>
</mgrwt>
</event>
<event>
 6    1  0.1045058E-005  0.7645384E+03  0.7546771E-02  0.9612814E-01
         -2   -1    0    0    0  501 -0.00000000000E+00  0.00000000000E+00  0.62239285569E+02  0.62239285569E+02  0.00000000000E+00 0.  1.
          2   -1    0    0  501    0  0.00000000000E+00 -0.00000000000E+00 -0.23478697754E+04  0.23478697754E+04  0.00000000000E+00 0. -1.
          5    1    1    2  502    0  0.31752728993E+01 -0.23614639054E+02 -0.10305403734E+04  0.10308265056E+04  0.47000000000E+01 0. -1.
         -5    1    1    2    0  502 -0.16890775097E+02  0.92284842996E+02 -0.12609994941E+04  0.12644934182E+04  0.47000000000E+01 0.  1.
        -11    1    1    2    0    0 -0.21370460930E+02 -0.67361003320E+02  0.24830481377E+02  0.74904967620E+02  0.00000000000E+00 0.  1.
         11    1    1    2    0    0  0.35085963128E+02 -0.13092006218E+01 -0.18921103774E+02  0.39884169578E+02  0.00000000000E+00 0. -1.
<mgrwt>
<rscale>  0 0.76453839E+03</rscale>
<asrwt>0</asrwt>
<pdfrwt beam="2">  1        2 0.36121076E+00 0.76453839E+03</pdfrwt>
<pdfrwt beam="1">  1       -2 0.95752740E-02 0.76453839E+03</pdfrwt>
<totfact> 0.32364482E+02</totfact>
</mgrwt>
</event>
<event>
 6    1  0.1045058E-005  0.1255683E+03  0.7546771E-02  0.1244987E+00
         -1   -1    0    0    0  501 -0.00000000000E+00  0.00000000000E+00  0.44469464273E+02  0.44469464273E+02  0.00000000000E+00 0. -1.
          1   -1    0    0  501    0  0.00000000000E+00 -0.00000000000E+00 -0.34131944353E+03  0.34131944353E+03  0.00000000000E+00 0.  1.
          5    1    1    2  502    0  0.11077377666E+01  0.57992753295E+02 -0.20234110957E+03  0.21054310993E+03  0.47000000000E+01 0.  1.
         -5    1    1    2    0  502 -0.18853306738E+01 -0.46126022251E+02 -0.35554888367E+02  0.58458570691E+02  0.47000000000E+01 0.  1.
        -11    1    1    2    0    0 -0.49614450876E+02 -0.35501858529E+01 -0.29166584002E+02  0.57661834671E+02  0.00000000000E+00 0.  1.
         11    1    1    2    0    0  0.50392043783E+02 -0.83165451918E+01 -0.29787397320E+02  0.59125392512E+02  0.00000000000E+00 0. -1.
<mgrwt>
<rscale>  0 0.11886156E+03</rscale>
<asrwt>0</asrwt>
<pdfrwt beam="2">  1        1 0.52510686E-01 0.12556830E+03</pdfrwt>
<pdfrwt beam="1">  1       -1 0.68414557E-02 0.12556830E+03</pdfrwt>
<totfact> 0.76991675E+03</totfact>
</mgrwt>
</event>
<event>
 6    1  0.1045058E-005  0.1354424E+03  0.7546771E-02  0.1231840E+00
         -2   -1    0    0    0  501 -0.00000000000E+00  0.00000000000E+00  0.17968538508E+02  0.17968538508E+02  0.00000000000E+00 0.  1.
          2   -1    0    0  501    0  0.00000000000E+00 -0.00000000000E+00 -0.84302984109E+03  0.84302984109E+03  0.00000000000E+00 0. -1.
          5    1    1    2  502    0 -0.34898284688E+02 -0.22991990346E+02 -0.13287738277E+03  0.13937363720E+03  0.47000000000E+01 0. -1.
         -5    1    1    2    0  502  0.60569036222E+02  0.68388786680E+02 -0.42103543332E+03  0.43085793529E+03  0.47000000000E+01 0. -1.
        -11    1    1    2    0    0 -0.40854937876E+01  0.27220007268E+02 -0.51081829638E+02  0.58025626876E+02  0.00000000000E+00 0.  1.
         11    1    1    2    0    0 -0.21585257746E+02 -0.72616803601E+02 -0.22006665686E+03  0.23274118024E+03  0.00000000000E+00 0. -1.
<mgrwt>
<rscale>  0 0.12708887E+03</rscale>
<asrwt>0</asrwt>
<pdfrwt beam="2">  1        2 0.12969687E+00 0.13544238E+03</pdfrwt>
<pdfrwt beam="1">  1       -2 0.27643912E-02 0.13544238E+03</pdfrwt>
<totfact> 0.15130943E+04</totfact>
</mgrwt>
</event>
<event>
 6    1  0.1045058E-005  0.3369992E+03  0.7546771E-02  0.1068081E+00
          2   -1    0    0  501    0  0.00000000000E+00  0.00000000000E+00  0.63871700032E+03  0.63871700032E+03  0.00000000000E+00 0. -1.
         -2   -1    0    0    0  501 -0.00000000000E+00 -0.00000000000E+00 -0.44451792426E+02  0.44451792426E+02  0.00000000000E+00 0.  1.
          5    1    1    2  502    0  0.79053261450E+00 -0.29245042469E+02  0.84355966200E+02  0.89408704746E+02  0.47000000000E+01 0. -1.
         -5    1    1    2    0  502  0.51339263366E+02  0.12780438433E+03  0.36530821751E+03  0.39043804169E+03  0.47000000000E+01 0. -1.
        -11    1    1    2    0    0 -0.38778145909E+02 -0.63349027128E+02  0.14791835317E+03  0.16551943404E+03  0.00000000000E+00 0. -1.
         11    1    1    2    0    0 -0.13351650071E+02 -0.35210314737E+02 -0.33173289842E+01  0.37802612278E+02  0.00000000000E+00 0.  1.
<mgrwt>
<rscale>  0 0.33699920E+03</rscale>
<asrwt>0</asrwt>
<pdfrwt beam="1">  1        2 0.98264147E-01 0.33699920E+03</pdfrwt>
<pdfrwt beam="2">  1       -2 0.68387378E-02 0.33699920E+03</pdfrwt>
<totfact> 0.56805945E+03</totfact>
</mgrwt>
</event>
<event>
 6    1  0.1045058E-005  0.1332988E+03  0.7546771E-02  0.1235468E+00
         -2   -1    0    0    0  501 -0.00000000000E+00  0.00000000000E+00  0.78119505976E+02  0.78119505976E+02  0.00000000000E+00 0.  1.
          2   -1    0    0  501    0  0.00000000000E+00 -0.00000000000E+00 -0.18347946969E+03  0.18347946969E+03  0.00000000000E+00 0. -1.
          5    1    1    2  502    0 -0.26056727531E+02  0.35768405930E+02  0.13425646555E+02  0.46483006549E+02  0.47000000000E+01 0. -1.
         -5    1    1    2    0  502 -0.17605508878E+02 -0.51090308108E+02 -0.96160537035E+02  0.11040431336E+03  0.47000000000E+01 0. -1.
        -11    1    1    2    0    0  0.52109444006E+02  0.32859778869E+02 -0.44073166135E+02  0.75746968224E+02  0.00000000000E+00 0. -1.
         11    1    1    2    0    0 -0.84472075962E+01 -0.17537876691E+02  0.21448092899E+02  0.28964687535E+02  0.00000000000E+00 0.  1.
<mgrwt>
<rscale>  0 0.12474493E+03</rscale>
<asrwt>0</asrwt>
<pdfrwt beam="2">  1        2 0.28227611E-01 0.13329880E+03</pdfrwt>
<pdfrwt beam="1">  1       -2 0.12018386E-01 0.13329880E+03</pdfrwt>
<totfact> 0.87343717E+03</totfact>
</mgrwt>
</event>
<event>
 6    1  0.1045058E-005  0.2092286E+03  0.7546771E-02  0.1153031E+00
         -2   -1    0    0    0  501 -0.00000000000E+00  0.00000000000E+00  0.30196344427E+02  0.30196344427E+02  0.00000000000E+00 0.  1.
          2   -1    0    0  501    0  0.00000000000E+00 -0.00000000000E+00 -0.12757637402E+04  0.12757637402E+04  0.00000000000E+00 0. -1.
          5    1    1    2  502    0  0.43245436936E+02 -0.61278616190E+02 -0.62189257433E+03  0.62641655520E+03  0.47000000000E+01 0.  1.
         -5    1    1    2    0  502 -0.44246279072E+02 -0.41134954263E+02 -0.14208723400E+03  0.15446905755E+03  0.47000000000E+01 0.  1.
        -11    1    1    2    0    0 -0.27541633522E+02  0.13827047392E+03 -0.44385937121E+03  0.46571279449E+03  0.00000000000E+00 0. -1.
         11    1    1    2    0    0  0.28542475658E+02 -0.35856903470E+02 -0.37728216227E+02  0.59361677392E+02  0.00000000000E+00 0.  1.
<mgrwt>
<rscale>  0 0.19614695E+03</rscale>
<asrwt>0</asrwt>
<pdfrwt beam="2">  1        2 0.19627129E+00 0.20922858E+03</pdfrwt>
<pdfrwt beam="1">  1       -2 0.46455927E-02 0.20922858E+03</pdfrwt>
<totfact> 0.39456021E+03</totfact>
</mgrwt>
</event>
<event>
 6    1  0.1045058E-005  0.2062347E+03  0.7546771E-02  0.1175617E+00
         -3   -1    0    0    0  501 -0.00000000000E+00  0.00000000000E+00  0.22292758870E+03  0.22292758870E+03  0.00000000000E+00 0.  1.
          3   -1    0    0  501    0  0.00000000000E+00 -0.00000000000E+00 -0.10548075398E+03  0.10548075398E+03  0.00000000000E+00 0. -1.
          5    1    1    2  502    0 -0.48846226986E+02  0.11396593440E+03  0.42109915903E+02  0.13103252693E+03  0.47000000000E+01 0. -1.
         -5    1    1    2    0  502  0.47661180284E+02 -0.66731812798E+02  0.29945670757E+02  0.87427433581E+02  0.47000000000E+01 0.  1.
        -11    1    1    2    0    0  0.20055099951E+02  0.20900366673E+02  0.18148856262E+02  0.34182061739E+02  0.00000000000E+00 0. -1.
         11    1    1    2    0    0 -0.18870053249E+02 -0.68134488278E+02  0.27242391797E+02  0.75766320442E+02  0.00000000000E+00 0.  1.
<mgrwt>
<rscale>  0 0.17215697E+03</rscale>
<asrwt>0</asrwt>
<pdfrwt beam="2">  1        3 0.16227808E-01 0.20623469E+03</pdfrwt>
<pdfrwt beam="1">  1       -3 0.34296552E-01 0.20623469E+03</pdfrwt>
<totfact> 0.66254120E+02</totfact>
</mgrwt>
</event>
<event>
 6    1  0.1045058E-005  0.1546096E+03  0.7546771E-02  0.1217506E+00
         -1   -1    0    0    0  501 -0.00000000000E+00  0.00000000000E+00  0.60559622975E+02  0.60559622975E+02  0.00000000000E+00 0.  1.
          1   -1    0    0  501    0  0.00000000000E+00 -0.00000000000E+00 -0.26894814604E+03  0.26894814604E+03  0.00000000000E+00 0. -1.
          5    1    1    2  502    0  0.59014847465E+02 -0.46812102473E+02 -0.53629888637E+02  0.92587148754E+02  0.47000000000E+01 0. -1.
         -5    1    1    2    0  502 -0.67452532956E+02  0.31050025909E+02 -0.10734584068E+03  0.13061074926E+03  0.47000000000E+01 0.  1.
        -11    1    1    2    0    0 -0.13630417359E+02  0.91161789859E+01 -0.71273810649E+02  0.73135826249E+02  0.00000000000E+00 0. -1.
         11    1    1    2    0    0  0.22068102850E+02  0.66458975779E+01  0.23861016897E+02  0.33174044754E+02  0.00000000000E+00 0.  1.
<mgrwt>
<rscale>  0 0.13694028E+03</rscale>
<asrwt>0</asrwt>
<pdfrwt beam="2">  1        1 0.41376639E-01 0.15460956E+03</pdfrwt>
<pdfrwt beam="1">  1       -1 0.93168648E-02 0.15460956E+03</pdfrwt>
<totfact> 0.65803956E+03</totfact>
</mgrwt>
</event>
<event>
 6    1  0.1045058E-005  0.1409833E+03  0.7546771E-02  0.1222899E+00
          2   -1    0    0  501    0  0.00000000000E+00  0.00000000000E+00  0.10917303832E+04  0.10917303832E+04  0.00000000000E+00 0. -1.
         -2   -1    0    0    0  501 -0.00000000000E+00 -0.00000000000E+00 -0.16842070665E+02  0.16842070665E+02  0.00000000000E+00 0.  1.
          5    1    1    2  502    0 -0.55363966497E+02  0.77834287203E+01  0.40709118558E+03  0.41093925820E+03  0.47000000000E+01 0. -1.
         -5    1    1    2    0  502  0.58046490525E+02  0.57360817005E+02  0.38206822497E+03  0.39071457219E+03  0.47000000000E+01 0. -1.
        -11    1    1    2    0    0 -0.20904646226E+02  0.14010621033E+02  0.33275049993E+02  0.41719667875E+02  0.00000000000E+00 0.  1.
         11    1    1    2    0    0  0.18222122198E+02 -0.79154866758E+02  0.25245385201E+03  0.26519895562E+03  0.00000000000E+00 0. -1.
<mgrwt>
<rscale>  0 0.13311928E+03</rscale>
<asrwt>0</asrwt>
<pdfrwt beam="1">  1        2 0.16795847E+00 0.14098329E+03</pdfrwt>
<pdfrwt beam="2">  1       -2 0.25910887E-02 0.14098329E+03</pdfrwt>
<totfact> 0.11760960E+04</totfact>
</mgrwt>
</event>
<event>
 6    1  0.1045058E-005  0.1343621E+03  0.7546771E-02  0.1234254E+00
         -1   -1    0    0    0  501 -0.00000000000E+00  0.00000000000E+00  0.17041099784E+02  0.17041099784E+02  0.00000000000E+00 0.  1.
          1   -1    0    0  501    0  0.00000000000E+00 -0.00000000000E+00 -0.90058522477E+03  0.90058522477E+03  0.00000000000E+00 0. -1.
          5    1    1    2  502    0 -0.17468590036E+02  0.59003162547E+02 -0.19474176032E+03  0.20428648521E+03  0.47000000000E+01 0. -1.
         -5    1    1    2    0  502 -0.31639475194E+02 -0.54919132051E+02 -0.43597725637E+03  0.44058532151E+03  0.47000000000E+01 0. -1.
        -11    1    1    2    0    0 -0.78459842186E+01  0.12381153324E+02 -0.17350579046E+01  0.14760177910E+02  0.00000000000E+00 0.  1.
         11    1    1    2    0    0  0.56954049448E+02 -0.16465183820E+02 -0.25109005039E+03  0.25799433992E+03  0.00000000000E+00 0. -1.
<mgrwt>
<rscale>  0 0.12552325E+03</rscale>
<asrwt>0</asrwt>
<pdfrwt beam="2">  1        1 0.13855157E+00 0.13436208E+03</pdfrwt>
<pdfrwt beam="1">  1       -1 0.26217077E-02 0.13436208E+03</pdfrwt>
<totfact> 0.84737408E+03</totfact>
</mgrwt>
</event>
<event>
 6    1  0.1045058E-005  0.2969352E+03  0.7546771E-02  0.1086783E+00
         -1   -1    0    0    0  501 -0.00000000000E+00  0.00000000000E+00  0.22683732828E+03  0.22683732828E+03  0.00000000000E+00 0.  1.
          1   -1    0    0  501    0  0.00000000000E+00 -0.00000000000E+00 -0.97173757638E+02  0.97173757638E+02  0.00000000000E+00 0. -1.
          5    1    1    2  502    0  0.55191223979E+02 -0.11376218714E+03  0.80107789878E+02  0.14975731844E+03  0.47000000000E+01 0.  1.
         -5    1    1    2    0  502  0.22815693935E+01  0.32150069459E+02  0.11271978042E+02  0.34467085953E+02  0.47000000000E+01 0.  1.
        -11    1    1    2    0    0 -0.57847746003E+02  0.60305663651E+01  0.96197077487E+01  0.58951405628E+02  0.00000000000E+00 0.  1.
         11    1    1    2    0    0  0.37495263024E+00  0.75581551316E+02  0.28664094975E+02  0.80835275898E+02  0.00000000000E+00 0. -1.
<mgrwt>
<rscale>  0 0.29693525E+03</rscale>
<asrwt>0</asrwt>
<pdfrwt beam="2">  1        1 0.14949809E-01 0.29693525E+03</pdfrwt>
<pdfrwt beam="1">  1       -1 0.34898050E-01 0.29693525E+03</pdfrwt>
<totfact> 0.29378462E+03</totfact>
</mgrwt>
</event>
<event>
 6    1  0.1045058E-005  0.1380310E+03  0.7546771E-02  0.1227166E+00
         -2   -1    0    0    0  501 -0.00000000000E+00  0.00000000000E+00  0.26877567733E+03  0.26877567733E+03  0.00000000000E+00 0.  1.
          2   -1    0    0  501    0  0.00000000000E+00 -0.00000000000E+00 -0.56952592411E+02  0.56952592411E+02  0.00000000000E+00 0. -1.
          5    1    1    2  502    0 -0.63709453019E+02 -0.70464416854E+02  0.71822357567E+02  0.11918334403E+03  0.47000000000E+01 0. -1.
         -5    1    1    2    0  502  0.13641591936E+02  0.40062290758E+02  0.40642538932E+02  0.58864132901E+02  0.47000000000E+01 0. -1.
        -11    1    1    2    0    0  0.58544084680E+02  0.52180654494E+02  0.96173368376E+02  0.12409491262E+03  0.00000000000E+00 0.  1.
         11    1    1    2    0    0 -0.84762235975E+01 -0.21778528398E+02  0.31848200458E+01  0.23585880191E+02  0.00000000000E+00 0. -1.
<mgrwt>
<rscale>  0 0.13019578E+03</rscale>
<asrwt>0</asrwt>
<pdfrwt beam="2">  1        2 0.87619374E-02 0.13803098E+03</pdfrwt>
<pdfrwt beam="1">  1       -2 0.41350104E-01 0.13803098E+03</pdfrwt>
<totfact> 0.40410757E+03</totfact>
</mgrwt>
</event>
<event>
 6    1  0.1045058E-005  0.1264774E+03  0.7546771E-02  0.1249437E+00
          2   -1    0    0  501    0  0.00000000000E+00  0.00000000000E+00  0.67187018887E+03  0.67187018887E+03  0.00000000000E+00 0. -1.
         -2   -1    0    0    0  501 -0.00000000000E+00 -0.00000000000E+00 -0.18833681665E+02  0.18833681665E+02  0.00000000000E+00 0.  1.
          5    1    1    2  502    0  0.12829003661E+02 -0.54024780822E+02  0.13009899552E+03  0.14153126479E+03  0.47000000000E+01 0.  1.
         -5    1    1    2    0  502 -0.32002041908E+02  0.50916708333E+02  0.33867856715E+03  0.34400858088E+03  0.47000000000E+01 0.  1.
        -11    1    1    2    0    0 -0.14571467119E+02 -0.18792947277E+02  0.91278695111E+01  0.25471955621E+02  0.00000000000E+00 0.  1.
         11    1    1    2    0    0  0.33744505366E+02  0.21901019766E+02  0.17513107502E+03  0.17969206924E+03  0.00000000000E+00 0. -1.
<mgrwt>
<rscale>  0 0.11623688E+03</rscale>
<asrwt>0</asrwt>
<pdfrwt beam="1">  1        2 0.10336463E+00 0.12647742E+03</pdfrwt>
<pdfrwt beam="2">  1       -2 0.28974900E-02 0.12647742E+03</pdfrwt>
<totfact> 0.18514483E+04</totfact>
</mgrwt>
</event>
<event>
 6    1  0.1045058E-005  0.2211267E+03  0.7546771E-02  0.1133046E+00
         -2   -1    0    0    0  501 -0.00000000000E+00  0.00000000000E+00  0.32507708895E+02  0.32507708895E+02  0.00000000000E+00 0.  1.
          2   -1    0    0  501    0  0.00000000000E+00 -0.00000000000E+00 -0.37604172029E+03  0.37604172029E+03  0.00000000000E+00 0. -1.
          5    1    1    2  502    0 -0.14751973818E+02 -0.73068888657E+01 -0.20891871335E+03  0.20961901189E+03  0.47000000000E+01 0. -1.
         -5    1    1    2    0  502  0.37048748641E+02  0.10510416899E+02 -0.49321935937E+01  0.39108760820E+02  0.47000000000E+01 0. -1.
        -11    1    1    2    0    0 -0.33977508493E+02  0.37278131295E+02 -0.81184194907E+02  0.95577213074E+02  0.00000000000E+00 0.  1.
         11    1    1    2    0    0  0.11680733670E+02 -0.40481659328E+02 -0.48498909537E+02  0.64244443396E+02  0.00000000000E+00 0. -1.
<mgrwt>
<rscale>  0 0.22112670E+03</rscale>
<asrwt>0</asrwt>
<pdfrwt beam="2">  1        2 0.57852572E-01 0.22112670E+03</pdfrwt>
<pdfrwt beam="1">  1       -2 0.50011860E-02 0.22112670E+03</pdfrwt>
<totfact> 0.16343504E+04</totfact>
</mgrwt>
</event>
<event>
 6    1  0.1045058E-005  0.1262718E+03  0.7546771E-02  0.1247402E+00
         -3   -1    0    0    0  501 -0.00000000000E+00  0.00000000000E+00  0.24881596507E+03  0.24881596507E+03  0.00000000000E+00 0.  1.
          3   -1    0    0  501    0  0.00000000000E+00 -0.00000000000E+00 -0.84618240236E+02  0.84618240236E+02  0.00000000000E+00 0. -1.
          5    1    1    2  502    0  0.19855578045E+01 -0.31341890780E+02 -0.67705484347E+02  0.74782211576E+02  0.47000000000E+01 0. -1.
         -5    1    1    2    0  502  0.14999123079E+02  0.11835387067E+02  0.49060240451E+02  0.52858748314E+02  0.47000000000E+01 0.  1.
        -11    1    1    2    0    0  0.42252134660E+01  0.49796311424E+02  0.14278156715E+03  0.15127491854E+03  0.00000000000E+00 0.  1.
         11    1    1    2    0    0 -0.21209894349E+02 -0.30289807711E+02  0.40061401582E+02  0.54518326883E+02  0.00000000000E+00 0. -1.
<mgrwt>
<rscale>  0 0.11742787E+03</rscale>
<asrwt>0</asrwt>
<pdfrwt beam="2">  1        3 0.13018191E-01 0.12627181E+03</pdfrwt>
<pdfrwt beam="1">  1       -3 0.38279379E-01 0.12627181E+03</pdfrwt>
<totfact> 0.73158804E+02</totfact>
</mgrwt>
</event>
<event>
 6    1  0.1045058E-005  0.1829167E+03  0.7546771E-02  0.1172296E+00
          2   -1    0    0  501    0  0.00000000000E+00  0.00000000000E+00  0.16011467395E+04  0.16011467395E+04  0.00000000000E+00 0. -1.
         -2   -1    0    0    0  501 -0.00000000000E+00 -0.00000000000E+00 -0.20802124791E+02  0.20802124791E+02  0.00000000000E+00 0.  1.
          5    1    1    2  502    0  0.62458159062E+01  0.59848991575E+02  0.43177523281E+03  0.43597345524E+03  0.47000000000E+01 0.  1.
         -5    1    1    2    0  502 -0.12152989955E+03  0.75539850381E+01  0.72164778518E+03  0.73186350847E+03  0.47000000000E+01 0.  1.
        -11    1    1    2    0    0  0.39981272767E+02  0.31886598392E+01  0.54601789812E+02  0.67749724533E+02  0.00000000000E+00 0.  1.
         11    1    1    2    0    0  0.75302810874E+02 -0.70591636452E+02  0.37231980688E+03  0.38636217602E+03  0.00000000000E+00 0. -1.
<mgrwt>
<rscale>  0 0.17543483E+03</rscale>
<asrwt>0</asrwt>
<pdfrwt beam="1">  1        2 0.24633017E+00 0.18291669E+03</pdfrwt>
<pdfrwt beam="2">  1       -2 0.32003282E-02 0.18291669E+03</pdfrwt>
<totfact> 0.46073536E+03</totfact>
</mgrwt>
</event>
<event>
 6    1  0.1045058E-005  0.2269298E+03  0.7546771E-02  0.1131561E+00
          2   -1    0    0  501    0  0.00000000000E+00  0.00000000000E+00  0.57781738278E+03  0.57781738278E+03  0.00000000000E+00 0. -1.
         -2   -1    0    0    0  501 -0.00000000000E+00 -0.00000000000E+00 -0.87748769780E+02  0.87748769780E+02  0.00000000000E+00 0.  1.
          5    1    1    2  502    0 -0.37673745711E+02 -0.17170307526E+03  0.21513804176E+03  0.27786277941E+03  0.47000000000E+01 0.  1.
         -5    1    1    2    0  502 -0.43702485878E+02  0.67851310107E+00  0.11163640743E+03  0.11997976961E+03  0.47000000000E+01 0.  1.
        -11    1    1    2    0    0  0.47367179697E+01  0.83875002661E+02  0.25977560138E+02  0.87933419127E+02  0.00000000000E+00 0.  1.
         11    1    1    2    0    0  0.76639513619E+02  0.87149559494E+02  0.13731660367E+03  0.17979018441E+03  0.00000000000E+00 0. -1.
<mgrwt>
<rscale>  0 0.22314311E+03</rscale>
<asrwt>0</asrwt>
<pdfrwt beam="1">  1        2 0.88894980E-01 0.22692984E+03</pdfrwt>
<pdfrwt beam="2">  1       -2 0.13499811E-01 0.22692984E+03</pdfrwt>
<totfact> 0.21383587E+03</totfact>
</mgrwt>
</event>
<event>
 6    1  0.1045058E-005  0.3336880E+03  0.7546771E-02  0.1069517E+00
         -2   -1    0    0    0  501 -0.00000000000E+00  0.00000000000E+00  0.12157729476E+03  0.12157729476E+03  0.00000000000E+00 0.  1.
          2   -1    0    0  501    0  0.00000000000E+00 -0.00000000000E+00 -0.22896474858E+03  0.22896474858E+03  0.00000000000E+00 0. -1.
          5    1    1    2  502    0  0.11869579524E+02 -0.16445948045E+01  0.24246805481E+02  0.27451578938E+02  0.47000000000E+01 0. -1.
         -5    1    1    2    0  502  0.59965560955E+01 -0.11415680936E+03 -0.13320207611E+03  0.17559219484E+03  0.47000000000E+01 0. -1.
        -11    1    1    2    0    0 -0.51440904369E+02  0.56717966633E+02  0.15510452277E+02  0.78125978465E+02  0.00000000000E+00 0.  1.
         11    1    1    2    0    0  0.33574768750E+02  0.59083437535E+02 -0.13942635469E+02  0.69372291092E+02  0.00000000000E+00 0. -1.
<mgrwt>
<rscale>  0 0.33368797E+03</rscale>
<asrwt>0</asrwt>
<pdfrwt beam="2">  1        2 0.35225346E-01 0.33368797E+03</pdfrwt>
<pdfrwt beam="1">  1       -2 0.18704199E-01 0.33368797E+03</pdfrwt>
<totfact> 0.34714105E+03</totfact>
</mgrwt>
</event>
<event>
 6    1  0.1045058E-005  0.1258179E+03  0.7546771E-02  0.1249477E+00
         -4   -1    0    0    0  501 -0.00000000000E+00  0.00000000000E+00  0.63981341335E+02  0.63981341335E+02  0.00000000000E+00 0.  1.
          4   -1    0    0  501    0  0.00000000000E+00 -0.00000000000E+00 -0.18983573490E+03  0.18983573490E+03  0.00000000000E+00 0. -1.
          5    1    1    2  502    0 -0.45656058634E+02  0.24263194923E+02 -0.69047824184E+02  0.86387906228E+02  0.47000000000E+01 0.  1.
         -5    1    1    2    0  502  0.59430565064E+02 -0.28120232321E+02 -0.24198657850E+02  0.70216839657E+02  0.47000000000E+01 0.  1.
        -11    1    1    2    0    0 -0.38417049645E+02  0.13326774696E+02 -0.50860534223E+02  0.65117329251E+02  0.00000000000E+00 0. -1.
         11    1    1    2    0    0  0.24642543215E+02 -0.94697372971E+01  0.18252622692E+02  0.32095001101E+02  0.00000000000E+00 0.  1.
<mgrwt>
<rscale>  0 0.11621371E+03</rscale>
<asrwt>0</asrwt>
<pdfrwt beam="2">  1        4 0.29205498E-01 0.12581788E+03</pdfrwt>
<pdfrwt beam="1">  1       -4 0.98432832E-02 0.12581788E+03</pdfrwt>
<totfact> 0.14124080E+03</totfact>
</mgrwt>
</event>
<event>
 6    1  0.1045058E-005  0.2050560E+03  0.7546771E-02  0.1149546E+00
          2   -1    0    0  501    0  0.00000000000E+00  0.00000000000E+00  0.52841159928E+03  0.52841159928E+03  0.00000000000E+00 0. -1.
         -2   -1    0    0    0  501 -0.00000000000E+00 -0.00000000000E+00 -0.10438133179E+03  0.10438133179E+03  0.00000000000E+00 0.  1.
          5    1    1    2  502    0 -0.17603500379E+03  0.33359641367E+02  0.35269211814E+03  0.39561977760E+03  0.47000000000E+01 0.  1.
         -5    1    1    2    0  502  0.13975388882E+02 -0.20786748606E+02  0.41038195261E+02  0.48307596528E+02  0.47000000000E+01 0.  1.
        -11    1    1    2    0    0  0.14529733721E+03 -0.13762613900E+02 -0.88966572877E+01  0.14621859065E+03  0.00000000000E+00 0.  1.
         11    1    1    2    0    0  0.16762277699E+02  0.11897211396E+01  0.39196611384E+02  0.42646966293E+02  0.00000000000E+00 0. -1.
<mgrwt>
<rscale>  0 0.20022900E+03</rscale>
<asrwt>0</asrwt>
<pdfrwt beam="1">  1        2 0.81294091E-01 0.20505598E+03</pdfrwt>
<pdfrwt beam="2">  1       -2 0.16058667E-01 0.20505598E+03</pdfrwt>
<totfact> 0.17746801E+03</totfact>
</mgrwt>
</event>
<event>
 6    1  0.1045058E-005  0.1337942E+03  0.7546771E-02  0.1234865E+00
         -4   -1    0    0    0  501 -0.00000000000E+00  0.00000000000E+00  0.26111380460E+03  0.26111380460E+03  0.00000000000E+00 0.  1.
          4   -1    0    0  501    0  0.00000000000E+00 -0.00000000000E+00 -0.66237203828E+02  0.66237203828E+02  0.00000000000E+00 0. -1.
          5    1    1    2  502    0  0.33770686171E+02  0.46100622742E+02  0.73710892483E+02  0.93386895935E+02  0.47000000000E+01 0. -1.
         -5    1    1    2    0  502  0.83321998117E+01 -0.23672140782E+02 -0.37366012072E+02  0.45255990333E+02  0.47000000000E+01 0. -1.
        -11    1    1    2    0    0  0.18977851088E+02 -0.34690789006E+01  0.10054343783E+03  0.10237761587E+03  0.00000000000E+00 0.  1.
         11    1    1    2    0    0 -0.61080737071E+02 -0.18959403059E+02  0.57988282531E+02  0.86330506290E+02  0.00000000000E+00 0. -1.
<mgrwt>
<rscale>  0 0.12513108E+03</rscale>
<asrwt>0</asrwt>
<pdfrwt beam="2">  1        4 0.10190339E-01 0.13379424E+03</pdfrwt>
<pdfrwt beam="1">  1       -4 0.40171354E-01 0.13379424E+03</pdfrwt>
<totfact> 0.73140020E+02</totfact>
</mgrwt>
</event>
<event>
 6    1  0.1045058E-005  0.3454751E+03  0.7546771E-02  0.1065650E+00
         -2   -1    0    0    0  501 -0.00000000000E+00  0.00000000000E+00  0.14991690303E+03  0.14991690303E+03  0.00000000000E+00 0.  1.
          2   -1    0    0  501    0  0.00000000000E+00 -0.00000000000E+00 -0.93010902667E+03  0.93010902667E+03  0.00000000000E+00 0. -1.
          5    1    1    2  502    0  0.30288929198E+03  0.66400533293E+02 -0.55700081554E+03  0.63751309989E+03  0.47000000000E+01 0. -1.
         -5    1    1    2    0  502  0.28280587765E+01  0.34917844733E+02 -0.61570295560E+02  0.70994683551E+02  0.47000000000E+01 0. -1.
        -11    1    1    2    0    0 -0.18216582928E+03 -0.36067451809E+02 -0.13422974864E+03  0.22913506029E+03  0.00000000000E+00 0. -1.
         11    1    1    2    0    0 -0.12355152148E+03 -0.65250926216E+02 -0.27391263900E+02  0.14238308597E+03  0.00000000000E+00 0.  1.
<mgrwt>
<rscale>  0 0.34270345E+03</rscale>
<asrwt>0</asrwt>
<pdfrwt beam="2">  1        2 0.14309370E+00 0.34547512E+03</pdfrwt>
<pdfrwt beam="1">  1       -2 0.23064138E-01 0.34547512E+03</pdfrwt>
<totfact> 0.47619889E+02</totfact>
</mgrwt>
</event>
<event>
 6    1  0.1045058E-005  0.2301852E+03  0.7546771E-02  0.1129357E+00
         -2   -1    0    0    0  501 -0.00000000000E+00  0.00000000000E+00  0.46300425820E+02  0.46300425820E+02  0.00000000000E+00 0.  1.
          2   -1    0    0  501    0  0.00000000000E+00 -0.00000000000E+00 -0.11551482190E+04  0.11551482190E+04  0.00000000000E+00 0. -1.
          5    1    1    2  502    0  0.10454788077E+03 -0.75621088287E+02 -0.46006187912E+03  0.47783661537E+03  0.47000000000E+01 0.  1.
         -5    1    1    2    0  502 -0.18812050937E+02 -0.97610233854E+02 -0.27712808735E+03  0.29445495039E+03  0.47000000000E+01 0.  1.
        -11    1    1    2    0    0 -0.38101461490E+02  0.91925397715E+02 -0.97731261911E+02  0.13947544468E+03  0.00000000000E+00 0.  1.
         11    1    1    2    0    0 -0.47634368348E+02  0.81305924426E+02 -0.27392656479E+03  0.28968163438E+03  0.00000000000E+00 0. -1.
<mgrwt>
<rscale>  0 0.22618162E+03</rscale>
<asrwt>0</asrwt>
<pdfrwt beam="2">  1        2 0.17771512E+00 0.23018518E+03</pdfrwt>
<pdfrwt beam="1">  1       -2 0.71231422E-02 0.23018518E+03</pdfrwt>
<totfact> 0.24008751E+03</totfact>
</mgrwt>
</event>
<event>
 6    1  0.1045058E-005  0.1337360E+03  0.7546771E-02  0.1234740E+00
          4   -1    0    0  501    0  0.00000000000E+00  0.00000000000E+00  0.64780026491E+02  0.64780026491E+02  0.00000000000E+00 0. -1.
         -4   -1    0    0    0  501 -0.00000000000E+00 -0.00000000000E+00 -0.21702374521E+03  0.21702374521E+03  0.00000000000E+00 0.  1.
          5    1    1    2  502    0  0.40952266146E+02 -0.80636567917E+02 -0.49543808868E+02  0.10322801551E+03  0.47000000000E+01 0. -1.
         -5    1    1    2    0  502 -0.19686023345E+02  0.38090876467E+02 -0.26209820544E+02  0.50472755801E+02  0.47000000000E+01 0. -1.
        -11    1    1    2    0    0 -0.27669192803E+02  0.55481400827E+02 -0.89362497510E+02  0.10876316486E+03  0.00000000000E+00 0.  1.
         11    1    1    2    0    0  0.64029500010E+01 -0.12935709377E+02  0.12872408202E+02  0.19339835541E+02  0.00000000000E+00 0. -1.
<mgrwt>
<rscale>  0 0.12521097E+03</rscale>
<asrwt>0</asrwt>
<pdfrwt beam="1">  1        4 0.99661582E-02 0.13373599E+03</pdfrwt>
<pdfrwt beam="2">  1       -4 0.33388267E-01 0.13373599E+03</pdfrwt>
<totfact> 0.10874116E+03</totfact>
</mgrwt>
</event>
<event>
 6    1  0.1045058E-005  0.1255300E+03  0.7546771E-02  0.1249615E+00
         -2   -1    0    0    0  501 -0.00000000000E+00  0.00000000000E+00  0.17613763798E+02  0.17613763798E+02  0.00000000000E+00 0.  1.
          2   -1    0    0  501    0  0.00000000000E+00 -0.00000000000E+00 -0.15417417840E+04  0.15417417840E+04  0.00000000000E+00 0. -1.
          5    1    1    2  502    0  0.35243869349E+02 -0.44363898385E+02 -0.34866364744E+03  0.35326861572E+03  0.47000000000E+01 0. -1.
         -5    1    1    2    0  502 -0.31970452856E+02  0.33300244512E+02 -0.10473950966E+04  0.10484224314E+04  0.47000000000E+01 0. -1.
        -11    1    1    2    0    0 -0.17195985907E+02 -0.21734486765E+02 -0.11717126548E+03  0.12040429934E+03  0.00000000000E+00 0. -1.
         11    1    1    2    0    0  0.13922569413E+02  0.32798140638E+02 -0.10898010621E+02  0.37260201340E+02  0.00000000000E+00 0.  1.
<mgrwt>
<rscale>  0 0.11613376E+03</rscale>
<asrwt>0</asrwt>
<pdfrwt beam="2">  1        2 0.23719107E+00 0.12552997E+03</pdfrwt>
<pdfrwt beam="1">  1       -2 0.27098095E-02 0.12552997E+03</pdfrwt>
<totfact> 0.62654131E+03</totfact>
</mgrwt>
</event>
<event>
 6    1  0.1045058E-005  0.1962728E+03  0.7546771E-02  0.1157019E+00
         -2   -1    0    0    0  501 -0.00000000000E+00  0.00000000000E+00  0.15025006999E+03  0.15025006999E+03  0.00000000000E+00 0.  1.
          2   -1    0    0  501    0  0.00000000000E+00 -0.00000000000E+00 -0.25869086978E+03  0.25869086978E+03  0.00000000000E+00 0. -1.
          5    1    1    2  502    0  0.33712839463E+02 -0.14407203662E+02 -0.19161507742E+02  0.41633837692E+02  0.47000000000E+01 0.  1.
         -5    1    1    2    0  502 -0.10622087930E+03 -0.11842753252E+03 -0.10126395837E+03  0.18863837075E+03  0.47000000000E+01 0.  1.
        -11    1    1    2    0    0  0.87330316662E+02  0.13719867823E+03  0.13200760292E+02  0.16316960988E+03  0.00000000000E+00 0.  1.
         11    1    1    2    0    0 -0.14822276830E+02 -0.43639420542E+01 -0.12160939742E+01  0.15499121435E+02  0.00000000000E+00 0. -1.
<mgrwt>
<rscale>  0 0.19160743E+03</rscale>
<asrwt>0</asrwt>
<pdfrwt beam="2">  1        2 0.39798595E-01 0.19627276E+03</pdfrwt>
<pdfrwt beam="1">  1       -2 0.23115395E-01 0.19627276E+03</pdfrwt>
<totfact> 0.20728111E+03</totfact>
</mgrwt>
</event>
<event>
 6    1  0.1045058E-005  0.1307189E+03  0.7546771E-02  0.1239658E+00
         -4   -1    0    0    0  501 -0.00000000000E+00  0.00000000000E+00  0.57145931049E+02  0.57145931049E+02  0.00000000000E+00 0.  1.
          4   -1    0    0  501    0  0.00000000000E+00 -0.00000000000E+00 -0.23237214313E+03  0.23237214313E+03  0.00000000000E+00 0. -1.
          5    1    1    2  502    0 -0.10734306656E+02 -0.34456772371E+02  0.37272385532E+01  0.36585199314E+02  0.47000000000E+01 0. -1.
         -5    1    1    2    0  502  0.68503625207E+01  0.72498601099E+02 -0.10940050651E+03  0.13150488756E+03  0.47000000000E+01 0. -1.
        -11    1    1    2    0    0 -0.66092699307E+01 -0.67581628029E+02 -0.43261395653E+02  0.80514018965E+02  0.00000000000E+00 0.  1.
         11    1    1    2    0    0  0.10493214066E+02  0.29539799301E+02 -0.26291548472E+02  0.40913968339E+02  0.00000000000E+00 0. -1.
<mgrwt>
<rscale>  0 0.12210893E+03</rscale>
<asrwt>0</asrwt>
<pdfrwt beam="2">  1        4 0.35749560E-01 0.13071893E+03</pdfrwt>
<pdfrwt beam="1">  1       -4 0.87916818E-02 0.13071893E+03</pdfrwt>
<totfact> 0.11704510E+03</totfact>
</mgrwt>
</event>
<event>
 6    1  0.1045058E-005  0.1286993E+03  0.7546771E-02  0.1244085E+00
          1   -1    0    0  501    0  0.00000000000E+00  0.00000000000E+00  0.80054666568E+03  0.80054666568E+03  0.00000000000E+00 0. -1.
         -1   -1    0    0    0  501 -0.00000000000E+00 -0.00000000000E+00 -0.15712009447E+02  0.15712009447E+02  0.00000000000E+00 0.  1.
          5    1    1    2  502    0 -0.47404744854E+02 -0.20700769723E+02  0.11549784827E+03  0.12663954618E+03  0.47000000000E+01 0.  1.
         -5    1    1    2    0  502  0.69755264515E+02 -0.24830798234E+00  0.31604344952E+03  0.32368412159E+03  0.47000000000E+01 0.  1.
        -11    1    1    2    0    0  0.26056785176E+02 -0.10947197644E+02  0.52677379493E+02  0.59780460857E+02  0.00000000000E+00 0.  1.
         11    1    1    2    0    0 -0.48407304837E+02  0.31896275349E+02  0.30061597896E+03  0.30615454651E+03  0.00000000000E+00 0. -1.
<mgrwt>
<rscale>  0 0.11940321E+03</rscale>
<asrwt>0</asrwt>
<pdfrwt beam="1">  1        1 0.12316099E+00 0.12869932E+03</pdfrwt>
<pdfrwt beam="2">  1       -1 0.24172328E-02 0.12869932E+03</pdfrwt>
<totfact> 0.11404978E+04</totfact>
</mgrwt>
</event>
<event>
 6    1  0.1045058E-005  0.2461295E+03  0.7546771E-02  0.1115776E+00
          2   -1    0    0  501    0  0.00000000000E+00  0.00000000000E+00  0.14766071569E+04  0.14766071569E+04  0.00000000000E+00 0. -1.
         -2   -1    0    0    0  501 -0.00000000000E+00 -0.00000000000E+00 -0.10256574701E+02  0.10256574701E+02  0.00000000000E+00 0.  1.
          5    1    1    2  502    0  0.81339795178E+01 -0.29129745166E+01  0.74505893104E+03  0.74512384727E+03  0.47000000000E+01 0. -1.
         -5    1    1    2    0  502  0.49880103851E+02  0.28347633589E+02  0.18426911545E+03  0.19305131442E+03  0.47000000000E+01 0.  1.
        -11    1    1    2    0    0 -0.36263699715E+02  0.31502282345E+02  0.17069603584E+03  0.17732621453E+03  0.00000000000E+00 0.  1.
         11    1    1    2    0    0 -0.21750383654E+02 -0.56936941417E+02  0.36632649985E+03  0.37136235536E+03  0.00000000000E+00 0. -1.
<mgrwt>
<rscale>  0 0.24612949E+03</rscale>
<asrwt>0</asrwt>
<pdfrwt beam="1">  1        2 0.22717016E+00 0.24612949E+03</pdfrwt>
<pdfrwt beam="2">  1       -2 0.15779357E-02 0.24612949E+03</pdfrwt>
<totfact> 0.15321702E+04</totfact>
</mgrwt>
</event>
<event>
 6    1  0.1045058E-005  0.1390447E+03  0.7546771E-02  0.1226075E+00
          2   -1    0    0  501    0  0.00000000000E+00  0.00000000000E+00  0.79758314247E+02  0.79758314247E+02  0.00000000000E+00 0. -1.
         -2   -1    0    0    0  501 -0.00000000000E+00 -0.00000000000E+00 -0.19621558941E+03  0.19621558941E+03  0.00000000000E+00 0.  1.
          5    1    1    2  502    0  0.36850418284E+02 -0.92856060854E+00  0.14733021734E+02  0.39974585451E+02  0.47000000000E+01 0.  1.
         -5    1    1    2    0  502 -0.42885149277E+02 -0.59666607025E+02 -0.96320883629E+02  0.12123960840E+03  0.47000000000E+01 0.  1.
        -11    1    1    2    0    0 -0.25419933755E+02  0.39114475299E+02  0.17655046660E+02  0.49878010010E+02  0.00000000000E+00 0. -1.
         11    1    1    2    0    0  0.31454664748E+02  0.21480692335E+02 -0.52524459928E+02  0.64881699795E+02  0.00000000000E+00 0.  1.
<mgrwt>
<rscale>  0 0.13093467E+03</rscale>
<asrwt>0</asrwt>
<pdfrwt beam="1">  1        2 0.12270510E-01 0.13904473E+03</pdfrwt>
<pdfrwt beam="2">  1       -2 0.30187014E-01 0.13904473E+03</pdfrwt>
<totfact> 0.47959033E+03</totfact>
</mgrwt>
</event>
<event>
 6    1  0.1045058E-005  0.2986354E+03  0.7546771E-02  0.1085925E+00
          2   -1    0    0  501    0  0.00000000000E+00  0.00000000000E+00  0.50590679187E+03  0.50590679187E+03  0.00000000000E+00 0. -1.
         -2   -1    0    0    0  501 -0.00000000000E+00 -0.00000000000E+00 -0.44070926592E+02  0.44070926592E+02  0.00000000000E+00 0.  1.
          5    1    1    2  502    0 -0.10393837679E+03  0.16639215443E+02  0.78881903052E+02  0.13162254476E+03  0.47000000000E+01 0.  1.
         -5    1    1    2    0  502  0.17003788657E+02  0.29869765177E+02  0.11033052578E+03  0.11565572454E+03  0.47000000000E+01 0.  1.
        -11    1    1    2    0    0  0.41731731478E+02 -0.33435425875E+02  0.23888961901E+03  0.24480137905E+03  0.00000000000E+00 0. -1.
         11    1    1    2    0    0  0.45202856653E+02 -0.13073554745E+02  0.33733817437E+02  0.57898070107E+02  0.00000000000E+00 0.  1.
<mgrwt>
<rscale>  0 0.29863544E+03</rscale>
<asrwt>0</asrwt>
<pdfrwt beam="1">  1        2 0.77831810E-01 0.29863544E+03</pdfrwt>
<pdfrwt beam="2">  1       -2 0.67801429E-02 0.29863544E+03</pdfrwt>
<totfact> 0.75107009E+03</totfact>
</mgrwt>
</event>
<event>
 6    1  0.1045058E-005  0.1862689E+03  0.7546771E-02  0.1166954E+00
          2   -1    0    0  501    0  0.00000000000E+00  0.00000000000E+00  0.14069966877E+04  0.14069966877E+04  0.00000000000E+00 0.  1.
         -2   -1    0    0    0  501 -0.00000000000E+00 -0.00000000000E+00 -0.26754555683E+02  0.26754555683E+02  0.00000000000E+00 0. -1.
          5    1    1    2  502    0  0.12164273658E+03 -0.51895635371E+01  0.59871668549E+03  0.61098907226E+03  0.47000000000E+01 0.  1.
         -5    1    1    2    0  502  0.42579349373E+01  0.61880489332E+02  0.42635891864E+03  0.43087276831E+03  0.47000000000E+01 0.  1.
        -11    1    1    2    0    0 -0.11543094554E+03 -0.31416663501E+02  0.19037147552E+03  0.22483907273E+03  0.00000000000E+00 0. -1.
         11    1    1    2    0    0 -0.10469725972E+02 -0.25274262294E+02  0.16479505231E+03  0.16705033003E+03  0.00000000000E+00 0.  1.
<mgrwt>
<rscale>  0 0.18088039E+03</rscale>
<asrwt>0</asrwt>
<pdfrwt beam="1">  1        2 0.21646097E+00 0.18626889E+03</pdfrwt>
<pdfrwt beam="2">  1       -2 0.41160866E-02 0.18626889E+03</pdfrwt>
<totfact> 0.40094972E+03</totfact>
</mgrwt>
</event>
<event>
 6    1  0.1045058E-005  0.1262834E+03  0.7546771E-02  0.1247801E+00
         -3   -1    0    0    0  501 -0.00000000000E+00  0.00000000000E+00  0.31530055549E+02  0.31530055549E+02  0.00000000000E+00 0.  1.
          3   -1    0    0  501    0  0.00000000000E+00 -0.00000000000E+00 -0.46391910693E+03  0.46391910693E+03  0.00000000000E+00 0. -1.
          5    1    1    2  502    0 -0.78475989545E+01 -0.99199344336E+01 -0.34589498652E+03  0.34615808759E+03  0.47000000000E+01 0. -1.
         -5    1    1    2    0  502 -0.85744124186E+01  0.18659732002E+02  0.10396296947E+01  0.21092106975E+02  0.47000000000E+01 0. -1.
        -11    1    1    2    0    0 -0.22559104321E+01  0.33563413821E+02 -0.55799491608E+01  0.34098793408E+02  0.00000000000E+00 0.  1.
         11    1    1    2    0    0  0.18677921805E+02 -0.42303211390E+02 -0.81953745399E+02  0.94100174505E+02  0.00000000000E+00 0. -1.
<mgrwt>
<rscale>  0 0.11719310E+03</rscale>
<asrwt>0</asrwt>
<pdfrwt beam="2">  1        3 0.71372164E-01 0.12628337E+03</pdfrwt>
<pdfrwt beam="1">  1       -3 0.48507782E-02 0.12628337E+03</pdfrwt>
<totfact> 0.10420003E+03</totfact>
</mgrwt>
</event>
<event>
 6    1  0.1045058E-005  0.2934940E+03  0.7546771E-02  0.1089764E+00
         -1   -1    0    0    0  501 -0.00000000000E+00  0.00000000000E+00  0.14706723718E+03  0.14706723718E+03  0.00000000000E+00 0.  1.
          1   -1    0    0  501    0  0.00000000000E+00 -0.00000000000E+00 -0.64143236831E+03  0.64143236831E+03  0.00000000000E+00 0. -1.
          5    1    1    2  502    0 -0.49526001082E+02 -0.37587157789E+02 -0.17472875991E+03  0.18552048068E+03  0.47000000000E+01 0. -1.
         -5    1    1    2    0  502 -0.66842592666E+02 -0.20110888482E+03 -0.21013041101E+03  0.29847880222E+03  0.47000000000E+01 0. -1.
        -11    1    1    2    0    0  0.76172644902E+02  0.93367835809E+02 -0.41772656551E+01  0.12057061891E+03  0.00000000000E+00 0. -1.
         11    1    1    2    0    0  0.40195948847E+02  0.14532820680E+03 -0.10532869457E+03  0.18392970368E+03  0.00000000000E+00 0.  1.
<mgrwt>
<rscale>  0 0.29112402E+03</rscale>
<asrwt>0</asrwt>
<pdfrwt beam="2">  1        1 0.98681906E-01 0.29349399E+03</pdfrwt>
<pdfrwt beam="1">  1       -1 0.22625728E-01 0.29349399E+03</pdfrwt>
<totfact> 0.52842412E+02</totfact>
</mgrwt>
</event>
<event>
 6    1  0.1045058E-005  0.1355538E+03  0.7546771E-02  0.1231727E+00
         -3   -1    0    0    0  501 -0.00000000000E+00  0.00000000000E+00  0.14491807296E+03  0.14491807296E+03  0.00000000000E+00 0.  1.
          3   -1    0    0  501    0  0.00000000000E+00 -0.00000000000E+00 -0.10200598664E+03  0.10200598664E+03  0.00000000000E+00 0. -1.
          5    1    1    2  502    0 -0.38312142420E+02 -0.12928550634E+02  0.48525384437E+02  0.63338539713E+02  0.47000000000E+01 0. -1.
         -5    1    1    2    0  502  0.73887132996E+02 -0.25601474915E+02 -0.64291549349E+01  0.78601322975E+02  0.47000000000E+01 0. -1.
        -11    1    1    2    0    0  0.26102883905E+02  0.29931767471E+02 -0.11829008970E+02  0.41439072206E+02  0.00000000000E+00 0. -1.
         11    1    1    2    0    0 -0.61677874481E+02  0.85982580774E+01  0.12644865787E+02  0.63545124701E+02  0.00000000000E+00 0.  1.
<mgrwt>
<rscale>  0 0.12716321E+03</rscale>
<asrwt>0</asrwt>
<pdfrwt beam="2">  1        3 0.15693229E-01 0.13555380E+03</pdfrwt>
<pdfrwt beam="1">  1       -3 0.22295088E-01 0.13555380E+03</pdfrwt>
<totfact> 0.14581866E+03</totfact>
</mgrwt>
</event>
<event>
 6    1  0.1045058E-005  0.3447652E+03  0.7546771E-02  0.1065970E+00
          2   -1    0    0  501    0  0.00000000000E+00  0.00000000000E+00  0.16141766335E+04  0.16141766335E+04  0.00000000000E+00 0. -1.
         -2   -1    0    0    0  501 -0.00000000000E+00 -0.00000000000E+00 -0.71277350365E+02  0.71277350365E+02  0.00000000000E+00 0.  1.
          5    1    1    2  502    0 -0.13971136537E+03 -0.46708598130E+02  0.38076056631E+03  0.40829114319E+03  0.47000000000E+01 0.  1.
         -5    1    1    2    0  502 -0.98456603494E+02 -0.16896181661E+03  0.40417603693E+03  0.44902355960E+03  0.47000000000E+01 0.  1.
        -11    1    1    2    0    0  0.72765775504E+02  0.23770000165E+02  0.12801863807E+03  0.14915978910E+03  0.00000000000E+00 0.  1.
         11    1    1    2    0    0  0.16540219336E+03  0.19190041457E+03  0.62994404180E+03  0.67897949195E+03  0.00000000000E+00 0. -1.
<mgrwt>
<rscale>  0 0.34194635E+03</rscale>
<asrwt>0</asrwt>
<pdfrwt beam="1">  1        2 0.24833484E+00 0.34476518E+03</pdfrwt>
<pdfrwt beam="2">  1       -2 0.10965747E-01 0.34476518E+03</pdfrwt>
<totfact> 0.67478187E+02</totfact>
</mgrwt>
</event>
<event>
 6    1  0.1045058E-005  0.1434390E+03  0.7546771E-02  0.1216928E+00
          1   -1    0    0  501    0  0.00000000000E+00  0.00000000000E+00  0.18509655299E+03  0.18509655299E+03  0.00000000000E+00 0. -1.
         -1   -1    0    0    0  501 -0.00000000000E+00 -0.00000000000E+00 -0.94394867856E+02  0.94394867856E+02  0.00000000000E+00 0.  1.
          5    1    1    2  502    0  0.51031714474E+02  0.43976588643E+02 -0.12715533004E+02  0.68716453709E+02  0.47000000000E+01 0. -1.
         -5    1    1    2    0  502 -0.38565093700E+02  0.32307334363E+02  0.68654920976E+02  0.85244463046E+02  0.47000000000E+01 0.  1.
        -11    1    1    2    0    0 -0.35558435296E+01 -0.94657764923E+02  0.42330445201E+02  0.10375260515E+03  0.00000000000E+00 0.  1.
         11    1    1    2    0    0 -0.89107772450E+01  0.18373841917E+02 -0.75681480366E+01  0.21777898949E+02  0.00000000000E+00 0. -1.
<mgrwt>
<rscale>  0 0.13735878E+03</rscale>
<asrwt>0</asrwt>
<pdfrwt beam="1">  1        1 0.28476393E-01 0.14343901E+03</pdfrwt>
<pdfrwt beam="2">  1       -1 0.14522287E-01 0.14343901E+03</pdfrwt>
<totfact> 0.52515923E+03</totfact>
</mgrwt>
</event>
<event>
 6    1  0.1045058E-005  0.1297200E+03  0.7546771E-02  0.1241405E+00
          2   -1    0    0  501    0  0.00000000000E+00  0.00000000000E+00  0.77339882168E+02  0.77339882168E+02  0.00000000000E+00 0. -1.
         -2   -1    0    0    0  501 -0.00000000000E+00 -0.00000000000E+00 -0.28484420067E+03  0.28484420067E+03  0.00000000000E+00 0.  1.
          5    1    1    2  502    0 -0.20745776521E+02 -0.44641273513E+02 -0.34671493491E+02  0.60393981531E+02  0.47000000000E+01 0.  1.
         -5    1    1    2    0  502  0.50939998145E+02  0.27691521482E+02  0.37781873437E+02  0.69363273664E+02  0.47000000000E+01 0.  1.
        -11    1    1    2    0    0  0.13310087421E+02  0.39490948102E+02 -0.53296832824E+02  0.67655345673E+02  0.00000000000E+00 0. -1.
         11    1    1    2    0    0 -0.43504309045E+02 -0.22541196070E+02 -0.15731786562E+03  0.16477148197E+03  0.00000000000E+00 0.  1.
<mgrwt>
<rscale>  0 0.12103137E+03</rscale>
<asrwt>0</asrwt>
<pdfrwt beam="1">  1        2 0.11898443E-01 0.12971997E+03</pdfrwt>
<pdfrwt beam="2">  1       -2 0.43822184E-01 0.12971997E+03</pdfrwt>
<totfact> 0.24774560E+03</totfact>
</mgrwt>
</event>
<event>
 6    1  0.1045058E-005  0.1296708E+03  0.7546771E-02  0.1240356E+00
         -1   -1    0    0    0  501 -0.00000000000E+00  0.00000000000E+00  0.37115765022E+02  0.37115765022E+02  0.00000000000E+00 0.  1.
          1   -1    0    0  501    0  0.00000000000E+00 -0.00000000000E+00 -0.36563302561E+03  0.36563302561E+03  0.00000000000E+00 0. -1.
          5    1    1    2  502    0 -0.54003689517E+02 -0.96186234504E-01 -0.18454292897E+03  0.19233977842E+03  0.47000000000E+01 0. -1.
         -5    1    1    2    0  502  0.47343155811E+02  0.16517657948E+02 -0.30808143929E+02  0.59037608002E+02  0.47000000000E+01 0.  1.
        -11    1    1    2    0    0 -0.13102174838E+02 -0.28602113923E+02 -0.12240676894E+03  0.12638498719E+03  0.00000000000E+00 0.  1.
         11    1    1    2    0    0  0.19762708543E+02  0.12180642209E+02  0.92405812405E+01  0.24986417015E+02  0.00000000000E+00 0. -1.
<mgrwt>
<rscale>  0 0.12167681E+03</rscale>
<asrwt>0</asrwt>
<pdfrwt beam="2">  1        1 0.56251233E-01 0.12967076E+03</pdfrwt>
<pdfrwt beam="1">  1       -1 0.57101178E-02 0.12967076E+03</pdfrwt>
<totfact> 0.92719498E+03</totfact>
</mgrwt>
</event>
<event>
 6    1  0.1045058E-005  0.2034688E+03  0.7546771E-02  0.1150509E+00
          1   -1    0    0  501    0  0.00000000000E+00  0.00000000000E+00  0.27071256361E+03  0.27071256361E+03  0.00000000000E+00 0. -1.
         -1   -1    0    0    0  501 -0.00000000000E+00 -0.00000000000E+00 -0.15648303699E+03  0.15648303699E+03  0.00000000000E+00 0.  1.
          5    1    1    2  502    0  0.12878967307E+03  0.62267239341E+02  0.11281505459E+03  0.18224520714E+03  0.47000000000E+01 0. -1.
         -5    1    1    2    0  502 -0.17164332962E+02  0.53119939798E+02  0.14842068540E+02  0.57954459093E+02  0.47000000000E+01 0. -1.
        -11    1    1    2    0    0 -0.14218285284E+02 -0.52943799572E+02  0.31091742960E+02  0.63023027774E+02  0.00000000000E+00 0. -1.
         11    1    1    2    0    0 -0.97407054820E+02 -0.62443379567E+02 -0.44519339475E+02  0.12397290659E+03  0.00000000000E+00 0.  1.
<mgrwt>
<rscale>  0 0.19909058E+03</rscale>
<asrwt>0</asrwt>
<pdfrwt beam="1">  1        1 0.41648087E-01 0.20346877E+03</pdfrwt>
<pdfrwt beam="2">  1       -1 0.24074313E-01 0.20346877E+03</pdfrwt>
<totfact> 0.14715159E+03</totfact>
</mgrwt>
</event>
<event>
 6    1  0.1045058E-005  0.2514512E+03  0.7546771E-02  0.1114914E+00
         -2   -1    0    0    0  501 -0.00000000000E+00  0.00000000000E+00  0.51063392233E+02  0.51063392233E+02  0.00000000000E+00 0.  1.
          2   -1    0    0  501    0  0.00000000000E+00 -0.00000000000E+00 -0.12118206714E+04  0.12118206714E+04  0.00000000000E+00 0. -1.
          5    1    1    2  502    0  0.10600208002E+03 -0.32167949535E+02 -0.11975042260E+03  0.16319764600E+03  0.47000000000E+01 0.  1.
         -5    1    1    2    0  502  0.11209733128E+03  0.38173226136E+02 -0.35150551306E+03  0.37094638775E+03  0.47000000000E+01 0.  1.
        -11    1    1    2    0    0 -0.35688080062E+02 -0.49681250873E+01 -0.38786481098E+02  0.52940650179E+02  0.00000000000E+00 0.  1.
         11    1    1    2    0    0 -0.18241133124E+03 -0.10371515136E+01 -0.65071486244E+03  0.67579937973E+03  0.00000000000E+00 0. -1.
<mgrwt>
<rscale>  0 0.24747044E+03</rscale>
<asrwt>0</asrwt>
<pdfrwt beam="2">  1        2 0.18643393E+00 0.25145117E+03</pdfrwt>
<pdfrwt beam="1">  1       -2 0.78559072E-02 0.25145117E+03</pdfrwt>
<totfact> 0.19139436E+03</totfact>
</mgrwt>
</event>
<event>
 6    1  0.1045058E-005  0.4124222E+03  0.7546771E-02  0.1039561E+00
          4   -1    0    0  501    0  0.00000000000E+00  0.00000000000E+00  0.17624016654E+03  0.17624016654E+03  0.00000000000E+00 0. -1.
         -4   -1    0    0    0  501 -0.00000000000E+00 -0.00000000000E+00 -0.24127886310E+03  0.24127886310E+03  0.00000000000E+00 0.  1.
          5    1    1    2  502    0 -0.94510174466E+01  0.34427125955E+02 -0.52129642079E+02  0.63357227809E+02  0.47000000000E+01 0. -1.
         -5    1    1    2    0  502  0.22638495551E+02  0.13652297230E+03  0.54598121483E+02  0.14884242781E+03  0.47000000000E+01 0. -1.
        -11    1    1    2    0    0 -0.10079058724E+02 -0.91081220356E+02  0.12192186991E+02  0.92444716182E+02  0.00000000000E+00 0. -1.
         11    1    1    2    0    0 -0.31084193810E+01 -0.79868877900E+02 -0.79699362955E+02  0.11287465784E+03  0.00000000000E+00 0.  1.
<mgrwt>
<rscale>  0 0.41242224E+03</rscale>
<asrwt>0</asrwt>
<pdfrwt beam="1">  1        4 0.27113872E-01 0.41242224E+03</pdfrwt>
<pdfrwt beam="2">  1       -4 0.37119825E-01 0.41242224E+03</pdfrwt>
<totfact> 0.17659018E+02</totfact>
</mgrwt>
</event>
<event>
 6    1  0.1045058E-005  0.1677574E+03  0.7546771E-02  0.1185871E+00
         -1   -1    0    0    0  501 -0.00000000000E+00  0.00000000000E+00  0.29773060442E+03  0.29773060442E+03  0.00000000000E+00 0.  1.
          1   -1    0    0  501    0  0.00000000000E+00 -0.00000000000E+00 -0.84255605154E+02  0.84255605154E+02  0.00000000000E+00 0. -1.
          5    1    1    2  502    0 -0.22386958802E+02  0.61746305118E+02  0.16389789398E+02  0.67856446390E+02  0.47000000000E+01 0.  1.
         -5    1    1    2    0  502  0.82833844114E+02  0.32403064833E+02  0.11368200951E+03  0.14441985192E+03  0.47000000000E+01 0.  1.
        -11    1    1    2    0    0  0.43455067617E+01 -0.30954476196E+02 -0.16134004635E+02  0.35176258061E+02  0.00000000000E+00 0. -1.
         11    1    1    2    0    0 -0.64792392074E+02 -0.63194893755E+02  0.99537204986E+02  0.13453365320E+03  0.00000000000E+00 0.  1.
<mgrwt>
<rscale>  0 0.16252913E+03</rscale>
<asrwt>0</asrwt>
<pdfrwt beam="2">  1        1 0.12962401E-01 0.16775743E+03</pdfrwt>
<pdfrwt beam="1">  1       -1 0.45804708E-01 0.16775743E+03</pdfrwt>
<totfact> 0.21425198E+03</totfact>
</mgrwt>
</event>
<event>
 6    1  0.1045058E-005  0.2346541E+03  0.7546771E-02  0.1126283E+00
         -2   -1    0    0    0  501 -0.00000000000E+00  0.00000000000E+00  0.57167077084E+02  0.57167077084E+02  0.00000000000E+00 0.  1.
          2   -1    0    0  501    0  0.00000000000E+00 -0.00000000000E+00 -0.93383299357E+03  0.93383299357E+03  0.00000000000E+00 0. -1.
          5    1    1    2  502    0  0.95363300743E+02  0.12174312512E+02 -0.11180596642E+03  0.14752978391E+03  0.47000000000E+01 0.  1.
         -5    1    1    2    0  502  0.77476233134E+02 -0.10996399949E+03 -0.24459314808E+03  0.27918192272E+03  0.47000000000E+01 0.  1.
        -11    1    1    2    0    0 -0.50072562828E+02  0.51673006316E+02 -0.94458679679E+02  0.11874259260E+03  0.00000000000E+00 0.  1.
         11    1    1    2    0    0 -0.12276697105E+03  0.46116680664E+02 -0.42580812230E+03  0.44554577142E+03  0.00000000000E+00 0. -1.
<mgrwt>
<rscale>  0 0.23050787E+03</rscale>
<asrwt>0</asrwt>
<pdfrwt beam="2">  1        2 0.14366661E+00 0.23465411E+03</pdfrwt>
<pdfrwt beam="1">  1       -2 0.87949353E-02 0.23465411E+03</pdfrwt>
<totfact> 0.23454974E+03</totfact>
</mgrwt>
</event>
<event>
 6    1  0.1045058E-005  0.2185474E+03  0.7546771E-02  0.1136675E+00
         -1   -1    0    0    0  501 -0.00000000000E+00  0.00000000000E+00  0.90937629297E+02  0.90937629297E+02  0.00000000000E+00 0.  1.
          1   -1    0    0  501    0  0.00000000000E+00 -0.00000000000E+00 -0.68204693377E+03  0.68204693377E+03  0.00000000000E+00 0. -1.
          5    1    1    2  502    0 -0.42569900923E+02  0.10367165708E+03 -0.35387289291E+03  0.37122516521E+03  0.47000000000E+01 0. -1.
         -5    1    1    2    0  502  0.43829230085E+02  0.84061219951E+02 -0.14357328651E+03  0.17211237233E+03  0.47000000000E+01 0.  1.
        -11    1    1    2    0    0 -0.25983683613E+02 -0.17581668178E+03 -0.96186102205E+02  0.20208518912E+03  0.00000000000E+00 0. -1.
         11    1    1    2    0    0  0.24724354451E+02 -0.11916195254E+02  0.25229771537E+01  0.27561836406E+02  0.00000000000E+00 0.  1.
<mgrwt>
<rscale>  0 0.21629557E+03</rscale>
<asrwt>0</asrwt>
<pdfrwt beam="2">  1        1 0.10493030E+00 0.21854743E+03</pdfrwt>
<pdfrwt beam="1">  1       -1 0.13990404E-01 0.21854743E+03</pdfrwt>
<totfact> 0.10535386E+03</totfact>
</mgrwt>
</event>
<event>
 6    1  0.1045058E-005  0.1363123E+03  0.7546771E-02  0.1228897E+00
          2   -1    0    0  501    0  0.00000000000E+00  0.00000000000E+00  0.93888614361E+02  0.93888614361E+02  0.00000000000E+00 0. -1.
         -2   -1    0    0    0  501 -0.00000000000E+00 -0.00000000000E+00 -0.21162260516E+03  0.21162260516E+03  0.00000000000E+00 0.  1.
          5    1    1    2  502    0  0.38341095258E+02 -0.16674617454E+02 -0.44692396068E+02  0.61380637982E+02  0.47000000000E+01 0. -1.
         -5    1    1    2    0  502 -0.34254082003E+02 -0.37544838370E+02  0.55436948985E+02  0.75354511045E+02  0.47000000000E+01 0. -1.
        -11    1    1    2    0    0  0.16423611282E+02  0.11758423607E+02 -0.11896887185E+03  0.12067140507E+03  0.00000000000E+00 0.  1.
         11    1    1    2    0    0 -0.20510624538E+02  0.42461032218E+02 -0.95096718629E+01  0.48104665417E+02  0.00000000000E+00 0. -1.
<mgrwt>
<rscale>  0 0.12903344E+03</rscale>
<asrwt>0</asrwt>
<pdfrwt beam="1">  1        2 0.14444402E-01 0.13631235E+03</pdfrwt>
<pdfrwt beam="2">  1       -2 0.32557323E-01 0.13631235E+03</pdfrwt>
<totfact> 0.34411562E+03</totfact>
</mgrwt>
</event>
<event>
 6    1  0.1045058E-005  0.1338756E+03  0.7546771E-02  0.1234512E+00
          1   -1    0    0  501    0  0.00000000000E+00  0.00000000000E+00  0.20531360757E+03  0.20531360757E+03  0.00000000000E+00 0. -1.
         -1   -1    0    0    0  501 -0.00000000000E+00 -0.00000000000E+00 -0.76302996188E+02  0.76302996188E+02  0.00000000000E+00 0.  1.
          5    1    1    2  502    0  0.33235388954E+01  0.83484610441E+01  0.12532719267E+03  0.12573678036E+03  0.47000000000E+01 0. -1.
         -5    1    1    2    0  502 -0.51181037470E+02 -0.55656193961E+01 -0.79547115737E+01  0.52305278434E+02  0.47000000000E+01 0. -1.
        -11    1    1    2    0    0 -0.12751021145E+02 -0.14362349225E+02 -0.25219448828E+02  0.31699940295E+02  0.00000000000E+00 0.  1.
         11    1    1    2    0    0  0.60608519720E+02  0.11579507578E+02  0.36857579116E+02  0.71874604672E+02  0.00000000000E+00 0. -1.
<mgrwt>
<rscale>  0 0.12535727E+03</rscale>
<asrwt>0</asrwt>
<pdfrwt beam="1">  1        1 0.31586709E-01 0.13387560E+03</pdfrwt>
<pdfrwt beam="2">  1       -1 0.11738923E-01 0.13387560E+03</pdfrwt>
<totfact> 0.63950357E+03</totfact>
</mgrwt>
</event>
<event>
 6    1  0.1045058E-005  0.1422403E+03  0.7546771E-02  0.1221089E+00
          1   -1    0    0  501    0  0.00000000000E+00  0.00000000000E+00  0.30469271578E+03  0.30469271578E+03  0.00000000000E+00 0. -1.
         -1   -1    0    0    0  501 -0.00000000000E+00 -0.00000000000E+00 -0.57076353031E+02  0.57076353031E+02  0.00000000000E+00 0.  1.
          5    1    1    2  502    0  0.50268343905E+02 -0.23464844236E+02  0.17049379660E+03  0.17935364505E+03  0.47000000000E+01 0. -1.
         -5    1    1    2    0  502  0.13005570055E+02  0.48025831266E+02  0.10888048864E+02  0.51149437234E+02  0.47000000000E+01 0. -1.
        -11    1    1    2    0    0 -0.71086267468E+02 -0.45971575211E+02  0.67744142554E+02  0.10842468354E+03  0.00000000000E+00 0.  1.
         11    1    1    2    0    0  0.78123535072E+01  0.21410588180E+02 -0.15096252736E+01  0.22841302984E+02  0.00000000000E+00 0. -1.
<mgrwt>
<rscale>  0 0.13438581E+03</rscale>
<asrwt>0</asrwt>
<pdfrwt beam="1">  1        1 0.46875801E-01 0.14224028E+03</pdfrwt>
<pdfrwt beam="2">  1       -1 0.87809776E-02 0.14224028E+03</pdfrwt>
<totfact> 0.61368019E+03</totfact>
</mgrwt>
</event>
<event>
 6    1  0.3339324E-005  0.2287496E+03  0.7546771E-02  0.1130583E+00
          1   -1    0    0  501    0  0.00000000000E+00  0.00000000000E+00  0.29873318529E+03  0.29873318529E+03  0.00000000000E+00 0. -1.
         -1   -1    0    0    0  501 -0.00000000000E+00 -0.00000000000E+00 -0.16487703882E+03  0.16487703882E+03  0.00000000000E+00 0.  1.
          5    1    1    2  502    0 -0.68224012386E+01  0.24841327161E+02 -0.27259521073E+02  0.37799579136E+02  0.47000000000E+01 0.  1.
         -5    1    1    2    0  502 -0.13408366603E+03  0.10495442302E+03  0.12335360412E+03  0.21031419842E+03  0.47000000000E+01 0.  1.
        -11    1    1    2    0    0  0.72543535652E+02 -0.75454458517E+02 -0.25413570769E+02  0.10771160316E+03  0.00000000000E+00 0.  1.
         11    1    1    2    0    0  0.68362531619E+02 -0.54341291666E+02  0.63175634197E+02  0.10778484339E+03  0.00000000000E+00 0. -1.
<mgrwt>
<rscale>  0 0.22448492E+03</rscale>
<asrwt>0</asrwt>
<pdfrwt beam="1">  1        1 0.45958952E-01 0.22874959E+03</pdfrwt>
<pdfrwt beam="2">  1       -1 0.25365698E-01 0.22874959E+03</pdfrwt>
<totfact> 0.11949410E+03</totfact>
</mgrwt>
</event>
<event>
 6    1  0.1045058E-005  0.1677453E+03  0.7546771E-02  0.1190945E+00
          1   -1    0    0  501    0  0.00000000000E+00  0.00000000000E+00  0.22198668014E+03  0.22198668014E+03  0.00000000000E+00 0. -1.
         -1   -1    0    0    0  501 -0.00000000000E+00 -0.00000000000E+00 -0.10196596912E+03  0.10196596912E+03  0.00000000000E+00 0.  1.
          5    1    1    2  502    0  0.10208494931E+03 -0.18653630221E+02  0.91961854979E+02  0.13873848625E+03  0.47000000000E+01 0.  1.
         -5    1    1    2    0  502 -0.97990742884E+01 -0.44580395336E+02 -0.11501521817E+02  0.47305480754E+02  0.47000000000E+01 0.  1.
        -11    1    1    2    0    0 -0.38101793069E+02  0.66597731907E+02  0.31852718863E+02  0.83075870318E+02  0.00000000000E+00 0.  1.
         11    1    1    2    0    0 -0.54184081952E+02 -0.33637063493E+01  0.77076589920E+01  0.54832811933E+02  0.00000000000E+00 0. -1.
<mgrwt>
<rscale>  0 0.15802435E+03</rscale>
<asrwt>0</asrwt>
<pdfrwt beam="1">  1        1 0.34151797E-01 0.16774532E+03</pdfrwt>
<pdfrwt beam="2">  1       -1 0.15687072E-01 0.16774532E+03</pdfrwt>
<totfact> 0.37395864E+03</totfact>
</mgrwt>
</event>
<event>
 6    1  0.1045058E-005  0.1169647E+03  0.7546771E-02  0.1259678E+00
         -2   -1    0    0    0  501 -0.00000000000E+00  0.00000000000E+00  0.36672910529E+02  0.36672910529E+02  0.00000000000E+00 0.  1.
          2   -1    0    0  501    0  0.00000000000E+00 -0.00000000000E+00 -0.30090199791E+03  0.30090199791E+03  0.00000000000E+00 0. -1.
          5    1    1    2  502    0 -0.68012218558E+02 -0.16513611330E+02 -0.12020690511E+03  0.13917669082E+03  0.47000000000E+01 0. -1.
         -5    1    1    2    0  502  0.40949812264E+02  0.44847980559E+00 -0.28949495403E+02  0.50371137992E+02  0.47000000000E+01 0.  1.
        -11    1    1    2    0    0 -0.17236394720E+02 -0.20171712796E+02 -0.99546885565E+01  0.28338791864E+02  0.00000000000E+00 0. -1.
         11    1    1    2    0    0  0.44298801014E+02  0.36236844321E+02 -0.10511799831E+03  0.11968828776E+03  0.00000000000E+00 0.  1.
<mgrwt>
<rscale>  0 0.11048299E+03</rscale>
<asrwt>0</asrwt>
<pdfrwt beam="2">  1        2 0.46292614E-01 0.11696473E+03</pdfrwt>
<pdfrwt beam="1">  1       -2 0.56419864E-02 0.11696473E+03</pdfrwt>
<totfact> 0.16405852E+04</totfact>
</mgrwt>
</event>
<event>
 6    1  0.1045058E-005  0.1317881E+03  0.7546771E-02  0.1236875E+00
         -2   -1    0    0    0  501 -0.00000000000E+00  0.00000000000E+00  0.26863446699E+02  0.26863446699E+02  0.00000000000E+00 0.  1.
          2   -1    0    0  501    0  0.00000000000E+00 -0.00000000000E+00 -0.66541998535E+03  0.66541998535E+03  0.00000000000E+00 0. -1.
          5    1    1    2  502    0 -0.74311264338E+02  0.12689550126E+01 -0.23375609487E+03  0.24533197130E+03  0.47000000000E+01 0. -1.
         -5    1    1    2    0  502  0.44932041777E+02  0.28440238069E+02 -0.28104991150E+03  0.28607495220E+03  0.47000000000E+01 0. -1.
        -11    1    1    2    0    0  0.57116751031E+01 -0.33662353978E+02 -0.13134314841E+03  0.13570851094E+03  0.00000000000E+00 0. -1.
         11    1    1    2    0    0  0.23667547457E+02  0.39531608962E+01  0.75926161325E+01  0.25167997605E+02  0.00000000000E+00 0.  1.
<mgrwt>
<rscale>  0 0.12385151E+03</rscale>
<asrwt>0</asrwt>
<pdfrwt beam="2">  1        2 0.10237231E+00 0.13178807E+03</pdfrwt>
<pdfrwt beam="1">  1       -2 0.41328377E-02 0.13178807E+03</pdfrwt>
<totfact> 0.11121573E+04</totfact>
</mgrwt>
</event>
<event>
 6    1  0.1045058E-005  0.1659083E+03  0.7546771E-02  0.1188983E+00
          1   -1    0    0  501    0  0.00000000000E+00  0.00000000000E+00  0.88389435866E+03  0.88389435866E+03  0.00000000000E+00 0. -1.
         -1   -1    0    0    0  501 -0.00000000000E+00 -0.00000000000E+00 -0.33046744138E+02  0.33046744138E+02  0.00000000000E+00 0.  1.
          5    1    1    2  502    0 -0.27199481753E+02 -0.12846849403E+02  0.14842193536E+03  0.15151242274E+03  0.47000000000E+01 0.  1.
         -5    1    1    2    0  502  0.79088639247E+02  0.10880340207E+03  0.50012441747E+03  0.51791863850E+03  0.47000000000E+01 0.  1.
        -11    1    1    2    0    0 -0.29150026420E+02 -0.81374400989E+02  0.66527981706E+02  0.10907561380E+03  0.00000000000E+00 0.  1.
         11    1    1    2    0    0 -0.22739131074E+02 -0.14582151678E+02  0.13577327999E+03  0.13843442775E+03  0.00000000000E+00 0. -1.
<mgrwt>
<rscale>  0 0.15974703E+03</rscale>
<asrwt>0</asrwt>
<pdfrwt beam="1">  1        1 0.13598373E+00 0.16590833E+03</pdfrwt>
<pdfrwt beam="2">  1       -1 0.50841151E-02 0.16590833E+03</pdfrwt>
<totfact> 0.33305358E+03</totfact>
</mgrwt>
</event>
<event>
 6    1  0.1045058E-005  0.3919343E+03  0.7546771E-02  0.1046609E+00
          2   -1    0    0  501    0  0.00000000000E+00  0.00000000000E+00  0.12997936469E+03  0.12997936469E+03  0.00000000000E+00 0. -1.
         -2   -1    0    0    0  501 -0.00000000000E+00 -0.00000000000E+00 -0.29545553672E+03  0.29545553672E+03  0.00000000000E+00 0.  1.
          5    1    1    2  502    0  0.39651669293E+02  0.98296599665E+01  0.31657187265E+02  0.51895516168E+02  0.47000000000E+01 0. -1.
         -5    1    1    2    0  502 -0.39446561719E+02  0.12420772027E+03 -0.19160304430E+02  0.13180590378E+03  0.47000000000E+01 0. -1.
        -11    1    1    2    0    0  0.41561217829E+02 -0.81318059278E+02 -0.13102160202E+03  0.15970792650E+03  0.00000000000E+00 0.  1.
         11    1    1    2    0    0 -0.41766325403E+02 -0.52719320960E+02 -0.46951452847E+02  0.82025554948E+02  0.00000000000E+00 0. -1.
<mgrwt>
<rscale>  0 0.39193430E+03</rscale>
<asrwt>0</asrwt>
<pdfrwt beam="1">  1        2 0.19996825E-01 0.39193430E+03</pdfrwt>
<pdfrwt beam="2">  1       -2 0.45454698E-01 0.39193430E+03</pdfrwt>
<totfact> 0.12987167E+03</totfact>
</mgrwt>
</event>
<event>
 6    1  0.1045058E-005  0.1311806E+03  0.7546771E-02  0.1239283E+00
         -1   -1    0    0    0  501 -0.00000000000E+00  0.00000000000E+00  0.20495646676E+02  0.20495646676E+02  0.00000000000E+00 0.  1.
          1   -1    0    0  501    0  0.00000000000E+00 -0.00000000000E+00 -0.65311803152E+03  0.65311803152E+03  0.00000000000E+00 0. -1.
          5    1    1    2  502    0 -0.29861170182E+02  0.33538159874E+02 -0.23137707857E+03  0.23574125676E+03  0.47000000000E+01 0. -1.
         -5    1    1    2    0  502  0.21435080144E+02 -0.72414913859E+02 -0.15898695981E+03  0.17607477332E+03  0.47000000000E+01 0. -1.
        -11    1    1    2    0    0 -0.82604092432E+01 -0.26756506081E+02 -0.42713428201E+02  0.51074278528E+02  0.00000000000E+00 0.  1.
         11    1    1    2    0    0  0.16686499282E+02  0.65633260065E+02 -0.19954491827E+03  0.21072336960E+03  0.00000000000E+00 0. -1.
<mgrwt>
<rscale>  0 0.12234206E+03</rscale>
<asrwt>0</asrwt>
<pdfrwt beam="2">  1        1 0.10047970E+00 0.13118064E+03</pdfrwt>
<pdfrwt beam="1">  1       -1 0.31531763E-02 0.13118064E+03</pdfrwt>
<totfact> 0.10420916E+04</totfact>
</mgrwt>
</event>
<event>
 6    1  0.1045058E-005  0.1429394E+03  0.7546771E-02  0.1219935E+00
         -1   -1    0    0    0  501 -0.00000000000E+00  0.00000000000E+00  0.19278408019E+02  0.19278408019E+02  0.00000000000E+00 0.  1.
          1   -1    0    0  501    0  0.00000000000E+00 -0.00000000000E+00 -0.91052270154E+03  0.91052270154E+03  0.00000000000E+00 0. -1.
          5    1    1    2  502    0  0.37745870356E+02 -0.35906492364E+01 -0.57609293644E+03  0.57735847176E+03  0.47000000000E+01 0.  1.
         -5    1    1    2    0  502  0.29977308028E+02 -0.11373782927E+02 -0.26223256981E+02  0.41686342384E+02  0.47000000000E+01 0.  1.
        -11    1    1    2    0    0  0.12674952499E+02  0.18409910921E+02 -0.19817707268E+02  0.29871738522E+02  0.00000000000E+00 0. -1.
         11    1    1    2    0    0 -0.80398130883E+02 -0.34454787579E+01 -0.26911039283E+03  0.28088455689E+03  0.00000000000E+00 0.  1.
<mgrwt>
<rscale>  0 0.13520154E+03</rscale>
<asrwt>0</asrwt>
<pdfrwt beam="2">  1        1 0.14008045E+00 0.14293945E+03</pdfrwt>
<pdfrwt beam="1">  1       -1 0.29659082E-02 0.14293945E+03</pdfrwt>
<totfact> 0.69816032E+03</totfact>
</mgrwt>
</event>
<event>
 6    1  0.1045058E-005  0.1554500E+03  0.7546771E-02  0.1201855E+00
         -1   -1    0    0    0  501 -0.00000000000E+00  0.00000000000E+00  0.83620330586E+02  0.83620330586E+02  0.00000000000E+00 0.  1.
          1   -1    0    0  501    0  0.00000000000E+00 -0.00000000000E+00 -0.31009644370E+03  0.31009644370E+03  0.00000000000E+00 0. -1.
          5    1    1    2  502    0 -0.63731255532E+02 -0.17328744815E+02 -0.29378447167E+02  0.72437155428E+02  0.47000000000E+01 0.  1.
         -5    1    1    2    0  502 -0.22966080933E+02  0.49336392081E+02 -0.18152219814E+03  0.18956244057E+03  0.47000000000E+01 0.  1.
        -11    1    1    2    0    0  0.52338100742E+02 -0.22908701056E+02  0.37136628666E+02  0.68141137076E+02  0.00000000000E+00 0.  1.
         11    1    1    2    0    0  0.34359235724E+02 -0.90989462105E+01 -0.52712096472E+02  0.63576041212E+02  0.00000000000E+00 0. -1.
<mgrwt>
<rscale>  0 0.14888098E+03</rscale>
<asrwt>0</asrwt>
<pdfrwt beam="2">  1        1 0.47707145E-01 0.15545001E+03</pdfrwt>
<pdfrwt beam="1">  1       -1 0.12864666E-01 0.15545001E+03</pdfrwt>
<totfact> 0.33561111E+03</totfact>
</mgrwt>
</event>
<event>
 6    1  0.1045058E-005  0.1478195E+03  0.7546771E-02  0.1212792E+00
         -1   -1    0    0    0  501 -0.00000000000E+00  0.00000000000E+00  0.47787289654E+02  0.47787289654E+02  0.00000000000E+00 0.  1.
          1   -1    0    0  501    0  0.00000000000E+00 -0.00000000000E+00 -0.39476392772E+03  0.39476392772E+03  0.00000000000E+00 0. -1.
          5    1    1    2  502    0  0.55354316342E+01 -0.28420783063E+02 -0.10742159077E+02  0.31238852331E+02  0.47000000000E+01 0.  1.
         -5    1    1    2    0  502 -0.71077748064E+02  0.72354033004E+02 -0.22759967318E+03  0.24922049192E+03  0.47000000000E+01 0.  1.
        -11    1    1    2    0    0 -0.21258848431E+02 -0.21709785048E+02 -0.22551255582E+02  0.37839298775E+02  0.00000000000E+00 0. -1.
         11    1    1    2    0    0  0.86801164861E+02 -0.22223464893E+02 -0.86083550235E+02  0.12425257436E+03  0.00000000000E+00 0.  1.
<mgrwt>
<rscale>  0 0.14039961E+03</rscale>
<asrwt>0</asrwt>
<pdfrwt beam="2">  1        1 0.60732912E-01 0.14781953E+03</pdfrwt>
<pdfrwt beam="1">  1       -1 0.73518907E-02 0.14781953E+03</pdfrwt>
<totfact> 0.58202270E+03</totfact>
</mgrwt>
</event>
<event>
 6    1  0.1045058E-005  0.1388660E+03  0.7546771E-02  0.1226062E+00
          1   -1    0    0  501    0  0.00000000000E+00  0.00000000000E+00  0.73032166750E+02  0.73032166750E+02  0.00000000000E+00 0. -1.
         -1   -1    0    0    0  501 -0.00000000000E+00 -0.00000000000E+00 -0.29002099194E+03  0.29002099194E+03  0.00000000000E+00 0.  1.
          5    1    1    2  502    0 -0.12192502516E+02  0.34470214051E+02 -0.23978374577E+02  0.43976189258E+02  0.47000000000E+01 0. -1.
         -5    1    1    2    0  502  0.40407152763E+02 -0.87975089907E+02  0.11646247085E+00  0.96925012262E+02  0.47000000000E+01 0. -1.
        -11    1    1    2    0    0 -0.18414333207E+02 -0.16636428394E+02 -0.11788539352E+02  0.27474134695E+02  0.00000000000E+00 0. -1.
         11    1    1    2    0    0 -0.98003170403E+01  0.70141304250E+02 -0.18133837373E+03  0.19467782247E+03  0.00000000000E+00 0.  1.
<mgrwt>
<rscale>  0 0.13094411E+03</rscale>
<asrwt>0</asrwt>
<pdfrwt beam="1">  1        1 0.11235718E-01 0.13886597E+03</pdfrwt>
<pdfrwt beam="2">  1       -1 0.44618614E-01 0.13886597E+03</pdfrwt>
<totfact> 0.26884175E+03</totfact>
</mgrwt>
</event>
<event>
 6    1  0.1045058E-005  0.1268779E+03  0.7546771E-02  0.1245012E+00
         -2   -1    0    0    0  501 -0.00000000000E+00  0.00000000000E+00  0.30164201177E+03  0.30164201177E+03  0.00000000000E+00 0. -1.
          2   -1    0    0  501    0  0.00000000000E+00 -0.00000000000E+00 -0.47742188835E+02  0.47742188835E+02  0.00000000000E+00 0.  1.
          5    1    1    2  502    0  0.31504420553E+02 -0.42030113146E+02  0.23021184828E+02  0.57542365926E+02  0.47000000000E+01 0.  1.
         -5    1    1    2    0  502 -0.50951636289E+02  0.51764537727E+02  0.57164921846E+02  0.92550283070E+02  0.47000000000E+01 0.  1.
        -11    1    1    2    0    0  0.25066134250E+02 -0.43831832473E+02  0.14754007873E+03  0.15594106404E+03  0.00000000000E+00 0. -1.
         11    1    1    2    0    0 -0.56189185140E+01  0.34097407893E+02  0.26173637529E+02  0.43350487561E+02  0.00000000000E+00 0.  1.
<mgrwt>
<rscale>  0 0.11884659E+03</rscale>
<asrwt>0</asrwt>
<pdfrwt beam="2">  1        2 0.73449523E-02 0.12687786E+03</pdfrwt>
<pdfrwt beam="1">  1       -2 0.46406462E-01 0.12687786E+03</pdfrwt>
<totfact> 0.40141207E+03</totfact>
</mgrwt>
</event>
<event>
 6    1  0.1045058E-005  0.1267202E+03  0.7546771E-02  0.1246750E+00
          1   -1    0    0  501    0  0.00000000000E+00  0.00000000000E+00  0.83928113902E+02  0.83928113902E+02  0.00000000000E+00 0. -1.
         -1   -1    0    0    0  501 -0.00000000000E+00 -0.00000000000E+00 -0.14704278421E+03  0.14704278421E+03  0.00000000000E+00 0.  1.
          5    1    1    2  502    0 -0.52184467497E+02 -0.22515123741E+02 -0.23388581333E+02  0.61638179579E+02  0.47000000000E+01 0.  1.
         -5    1    1    2    0  502  0.67106265776E+02  0.80348066208E+01 -0.30925863144E+01  0.67819341739E+02  0.47000000000E+01 0.  1.
        -11    1    1    2    0    0 -0.35828156971E+02  0.19006288991E+02 -0.58330746456E+02  0.71044857909E+02  0.00000000000E+00 0.  1.
         11    1    1    2    0    0  0.20906358692E+02 -0.45259718706E+01  0.21697243792E+02  0.30468518889E+02  0.00000000000E+00 0. -1.
<mgrwt>
<rscale>  0 0.11781231E+03</rscale>
<asrwt>0</asrwt>
<pdfrwt beam="1">  1        1 0.12912018E-01 0.12672015E+03</pdfrwt>
<pdfrwt beam="2">  1       -1 0.22621966E-01 0.12672015E+03</pdfrwt>
<totfact> 0.70491486E+03</totfact>
</mgrwt>
</event>
<event>
 6    1  0.1045058E-005  0.2219382E+03  0.7546771E-02  0.1135632E+00
          2   -1    0    0  501    0  0.00000000000E+00  0.00000000000E+00  0.77421711050E+03  0.77421711050E+03  0.00000000000E+00 0. -1.
         -2   -1    0    0    0  501 -0.00000000000E+00 -0.00000000000E+00 -0.60104480921E+02  0.60104480921E+02  0.00000000000E+00 0.  1.
          5    1    1    2  502    0  0.17105529862E+01  0.14590514485E+03  0.25557551812E+03  0.29433343804E+03  0.47000000000E+01 0. -1.
         -5    1    1    2    0  502 -0.70151209044E+02  0.24235855553E+02  0.17271020209E+03  0.18804114638E+03  0.47000000000E+01 0. -1.
        -11    1    1    2    0    0  0.78377491542E+02 -0.76696554890E+02  0.13107288916E+03  0.17089615264E+03  0.00000000000E+00 0.  1.
         11    1    1    2    0    0 -0.99368354843E+01 -0.93444445517E+02  0.15475402021E+03  0.18105085437E+03  0.00000000000E+00 0. -1.
<mgrwt>
<rscale>  0 0.21767028E+03</rscale>
<asrwt>0</asrwt>
<pdfrwt beam="1">  1        2 0.11911032E+00 0.22193824E+03</pdfrwt>
<pdfrwt beam="2">  1       -2 0.92468438E-02 0.22193824E+03</pdfrwt>
<totfact> 0.27646365E+03</totfact>
</mgrwt>
</event>
<event>
 6    1  0.1045058E-005  0.2742754E+03  0.7546771E-02  0.1100798E+00
         -2   -1    0    0    0  501 -0.00000000000E+00  0.00000000000E+00  0.45218704975E+03  0.45218704975E+03  0.00000000000E+00 0.  1.
          2   -1    0    0  501    0  0.00000000000E+00 -0.00000000000E+00 -0.19406165952E+03  0.19406165952E+03  0.00000000000E+00 0. -1.
          5    1    1    2  502    0  0.11158866462E+03  0.12300433921E+03 -0.13172897993E+02  0.16666647167E+03  0.47000000000E+01 0.  1.
         -5    1    1    2    0  502 -0.23716192478E+02  0.10476599251E+03  0.61918431332E+01  0.10769772465E+03  0.47000000000E+01 0.  1.
        -11    1    1    2    0    0  0.79087693952E+01 -0.48817830064E+02  0.19249775726E+02  0.53068663362E+02  0.00000000000E+00 0.  1.
         11    1    1    2    0    0 -0.95781241538E+02 -0.17895250166E+03  0.24585666937E+03  0.31881584959E+03  0.00000000000E+00 0. -1.
<mgrwt>
<rscale>  0 0.27084263E+03</rscale>
<asrwt>0</asrwt>
<pdfrwt beam="2">  1        2 0.29855640E-01 0.27427537E+03</pdfrwt>
<pdfrwt beam="1">  1       -2 0.69567238E-01 0.27427537E+03</pdfrwt>
<totfact> 0.34232338E+02</totfact>
</mgrwt>
</event>
<event>
 6    1  0.1045058E-005  0.3289697E+03  0.7546771E-02  0.1071594E+00
          1   -1    0    0  501    0  0.00000000000E+00  0.00000000000E+00  0.56296399295E+03  0.56296399295E+03  0.00000000000E+00 0. -1.
         -1   -1    0    0    0  501 -0.00000000000E+00 -0.00000000000E+00 -0.48058600867E+02  0.48058600867E+02  0.00000000000E+00 0.  1.
          5    1    1    2  502    0  0.52892283082E+02  0.12447027471E+03  0.30051881999E+03  0.32958169558E+03  0.47000000000E+01 0.  1.
         -5    1    1    2    0  502  0.93865476097E+01 -0.19592281576E+02  0.57055262331E+01  0.22947936791E+02  0.47000000000E+01 0.  1.
        -11    1    1    2    0    0 -0.33822047868E+02  0.67875053662E+01  0.29159850145E+02  0.45169658085E+02  0.00000000000E+00 0.  1.
         11    1    1    2    0    0 -0.28456782824E+02 -0.11166549850E+03  0.17952119572E+03  0.21332330336E+03  0.00000000000E+00 0. -1.
<mgrwt>
<rscale>  0 0.32896968E+03</rscale>
<asrwt>0</asrwt>
<pdfrwt beam="1">  1        1 0.86609841E-01 0.32896968E+03</pdfrwt>
<pdfrwt beam="2">  1       -1 0.73936313E-02 0.32896968E+03</pdfrwt>
<totfact> 0.37412152E+03</totfact>
</mgrwt>
</event>
<event>
 6    1  0.1045058E-005  0.1603255E+03  0.7546771E-02  0.1196374E+00
          1   -1    0    0  501    0  0.00000000000E+00  0.00000000000E+00  0.60235844375E+03  0.60235844375E+03  0.00000000000E+00 0. -1.
         -1   -1    0    0    0  501 -0.00000000000E+00 -0.00000000000E+00 -0.36497132223E+02  0.36497132223E+02  0.00000000000E+00 0.  1.
          5    1    1    2  502    0 -0.55537712764E+02  0.74233015955E+02  0.25058221795E+03  0.26722371929E+03  0.47000000000E+01 0.  1.
         -5    1    1    2    0  502 -0.33258794819E+02 -0.27388273468E+02  0.21020600052E+02  0.48168668062E+02  0.47000000000E+01 0.  1.
        -11    1    1    2    0    0  0.21557743187E+02  0.22641436783E+02  0.12179743775E+03  0.12574572276E+03  0.00000000000E+00 0.  1.
         11    1    1    2    0    0  0.67238764395E+02 -0.69486179271E+02  0.17246105577E+03  0.19771746586E+03  0.00000000000E+00 0. -1.
<mgrwt>
<rscale>  0 0.15338492E+03</rscale>
<asrwt>0</asrwt>
<pdfrwt beam="1">  1        1 0.92670523E-01 0.16032550E+03</pdfrwt>
<pdfrwt beam="2">  1       -1 0.56149439E-02 0.16032550E+03</pdfrwt>
<totfact> 0.50369117E+03</totfact>
</mgrwt>
</event>
<event>
 6    1  0.1045058E-005  0.1457495E+03  0.7546771E-02  0.1215792E+00
         -1   -1    0    0    0  501 -0.00000000000E+00  0.00000000000E+00  0.65098537744E+02  0.65098537744E+02  0.00000000000E+00 0.  1.
          1   -1    0    0  501    0  0.00000000000E+00 -0.00000000000E+00 -0.26710081094E+03  0.26710081094E+03  0.00000000000E+00 0. -1.
          5    1    1    2  502    0 -0.17245138698E+02  0.10755549554E+03 -0.74512126329E+02  0.13205955626E+03  0.47000000000E+01 0.  1.
         -5    1    1    2    0  502  0.37266644970E+01 -0.33833642183E+02 -0.43772001277E+02  0.55647834346E+02  0.47000000000E+01 0.  1.
        -11    1    1    2    0    0 -0.45835287579E+01  0.19361680671E+02 -0.33251187738E+01  0.20172749667E+02  0.00000000000E+00 0.  1.
         11    1    1    2    0    0  0.18102002959E+02 -0.93083534029E+02 -0.80393026815E+02  0.12431920841E+03  0.00000000000E+00 0. -1.
<mgrwt>
<rscale>  0 0.13818529E+03</rscale>
<asrwt>0</asrwt>
<pdfrwt beam="2">  1        1 0.41092433E-01 0.14574954E+03</pdfrwt>
<pdfrwt beam="1">  1       -1 0.10015160E-01 0.14574954E+03</pdfrwt>
<totfact> 0.59214970E+03</totfact>
</mgrwt>
</event>
<event>
 6    1  0.1045058E-005  0.1369016E+03  0.7546771E-02  0.1230632E+00
          2   -1    0    0  501    0  0.00000000000E+00  0.00000000000E+00  0.48547698108E+03  0.48547698108E+03  0.00000000000E+00 0. -1.
         -2   -1    0    0    0  501 -0.00000000000E+00 -0.00000000000E+00 -0.41418511686E+02  0.41418511686E+02  0.00000000000E+00 0.  1.
          5    1    1    2  502    0 -0.42878046851E+02  0.27981871266E+02  0.14643073303E+03  0.15519523703E+03  0.47000000000E+01 0.  1.
         -5    1    1    2    0  502  0.84884920121E+02  0.87928867998E+01  0.23508753435E+03  0.25014196634E+03  0.47000000000E+01 0.  1.
        -11    1    1    2    0    0 -0.60177861425E+02 -0.52291252077E+02  0.42335639360E+02  0.90266585232E+02  0.00000000000E+00 0.  1.
         11    1    1    2    0    0  0.18170988155E+02  0.15516494011E+02  0.20204562661E+02  0.31291704160E+02  0.00000000000E+00 0. -1.
<mgrwt>
<rscale>  0 0.12788244E+03</rscale>
<asrwt>0</asrwt>
<pdfrwt beam="1">  1        2 0.74688763E-01 0.13690164E+03</pdfrwt>
<pdfrwt beam="2">  1       -2 0.63720790E-02 0.13690164E+03</pdfrwt>
<totfact> 0.82931528E+03</totfact>
</mgrwt>
</event>
<event>
 6    1  0.1045058E-005  0.1733848E+03  0.7546771E-02  0.1180579E+00
          1   -1    0    0  501    0  0.00000000000E+00  0.00000000000E+00  0.27481971307E+03  0.27481971307E+03  0.00000000000E+00 0. -1.
         -1   -1    0    0    0  501 -0.00000000000E+00 -0.00000000000E+00 -0.99378081154E+02  0.99378081154E+02  0.00000000000E+00 0.  1.
          5    1    1    2  502    0 -0.30493963427E+02 -0.25701195758E+02 -0.83071295995E+01  0.41006483281E+02  0.47000000000E+01 0.  1.
         -5    1    1    2    0  502  0.58075286850E+02 -0.91244091599E+02  0.13863787708E+03  0.17589989811E+03  0.47000000000E+01 0.  1.
        -11    1    1    2    0    0 -0.22818602927E+02  0.22849193922E+02 -0.24177373881E+02  0.40340050944E+02  0.00000000000E+00 0.  1.
         11    1    1    2    0    0 -0.47627204956E+01  0.94096093435E+02  0.69288258317E+02  0.11695136189E+03  0.00000000000E+00 0. -1.
<mgrwt>
<rscale>  0 0.16740746E+03</rscale>
<asrwt>0</asrwt>
<pdfrwt beam="1">  1        1 0.42279956E-01 0.17338476E+03</pdfrwt>
<pdfrwt beam="2">  1       -1 0.15288936E-01 0.17338476E+03</pdfrwt>
<totfact> 0.29895433E+03</totfact>
</mgrwt>
</event>
<event>
 6    1  0.1045058E-005  0.1669905E+03  0.7546771E-02  0.1187920E+00
          1   -1    0    0  501    0  0.00000000000E+00  0.00000000000E+00  0.29328127234E+02  0.29328127234E+02  0.00000000000E+00 0. -1.
         -1   -1    0    0    0  501 -0.00000000000E+00 -0.00000000000E+00 -0.92590856304E+03  0.92590856304E+03  0.00000000000E+00 0.  1.
          5    1    1    2  502    0 -0.21370809380E+02  0.46973428959E+02 -0.20275204648E+03  0.20926943607E+03  0.47000000000E+01 0.  1.
         -5    1    1    2    0  502  0.85265754252E+02  0.43458886408E+02 -0.11496529325E+03  0.14965972173E+03  0.47000000000E+01 0.  1.
        -11    1    1    2    0    0 -0.51877283760E+02 -0.11776292433E+02 -0.13028436707E+03  0.14072650758E+03  0.00000000000E+00 0. -1.
         11    1    1    2    0    0 -0.12017661112E+02 -0.78656022934E+02 -0.44857872901E+03  0.45558102490E+03  0.00000000000E+00 0.  1.
<mgrwt>
<rscale>  0 0.16068990E+03</rscale>
<asrwt>0</asrwt>
<pdfrwt beam="1">  1        1 0.45120193E-02 0.16699052E+03</pdfrwt>
<pdfrwt beam="2">  1       -1 0.14244748E+00 0.16699052E+03</pdfrwt>
<totfact> 0.82313711E+02</totfact>
</mgrwt>
</event>
<event>
 6    1  0.1045058E-005  0.1334609E+03  0.7546771E-02  0.1236422E+00
          1   -1    0    0  501    0  0.00000000000E+00  0.00000000000E+00  0.36610551104E+03  0.36610551104E+03  0.00000000000E+00 0. -1.
         -1   -1    0    0    0  501 -0.00000000000E+00 -0.00000000000E+00 -0.38181825222E+02  0.38181825222E+02  0.00000000000E+00 0.  1.
          5    1    1    2  502    0  0.46514621437E+02  0.12259893163E+02  0.69615785314E+02  0.84748820362E+02  0.47000000000E+01 0.  1.
         -5    1    1    2    0  502 -0.63440051296E+02 -0.55872908357E+02  0.14961854935E+03  0.17191341514E+03  0.47000000000E+01 0.  1.
        -11    1    1    2    0    0  0.20237031753E+02 -0.42966072381E+01  0.95650961323E+02  0.97862682826E+02  0.00000000000E+00 0. -1.
         11    1    1    2    0    0 -0.33116018942E+01  0.47909622433E+02  0.13038389829E+02  0.49762417929E+02  0.00000000000E+00 0.  1.
<mgrwt>
<rscale>  0 0.12413828E+03</rscale>
<asrwt>0</asrwt>
<pdfrwt beam="1">  1        1 0.56323922E-01 0.13346089E+03</pdfrwt>
<pdfrwt beam="2">  1       -1 0.58741272E-02 0.13346089E+03</pdfrwt>
<totfact> 0.88940882E+03</totfact>
</mgrwt>
</event>
<event>
 6    1  0.1045058E-005  0.2776545E+03  0.7546771E-02  0.1096977E+00
          1   -1    0    0  501    0  0.00000000000E+00  0.00000000000E+00  0.11713589305E+03  0.11713589305E+03  0.00000000000E+00 0. -1.
         -1   -1    0    0    0  501 -0.00000000000E+00 -0.00000000000E+00 -0.16453547616E+03  0.16453547616E+03  0.00000000000E+00 0.  1.
          5    1    1    2  502    0 -0.67331891288E+02 -0.90208533416E+02 -0.34784848272E+01  0.11271802403E+03  0.47000000000E+01 0.  1.
         -5    1    1    2    0  502  0.23456075144E+02  0.23970666767E+02  0.10878414931E+02  0.35569793896E+02  0.47000000000E+01 0.  1.
        -11    1    1    2    0    0  0.42593498053E+02 -0.82525386777E+01 -0.47796257040E+01  0.43648084642E+02  0.00000000000E+00 0.  1.
         11    1    1    2    0    0  0.12823180907E+01  0.74490405327E+02 -0.50019887511E+02  0.89735466634E+02  0.00000000000E+00 0. -1.
<mgrwt>
<rscale>  0 0.27765453E+03</rscale>
<asrwt>0</asrwt>
<pdfrwt beam="1">  1        1 0.18020907E-01 0.27765453E+03</pdfrwt>
<pdfrwt beam="2">  1       -1 0.25313150E-01 0.27765453E+03</pdfrwt>
<totfact> 0.39683942E+03</totfact>
</mgrwt>
</event>
<event>
 6    1  0.1045058E-005  0.1379786E+03  0.7546771E-02  0.1227138E+00
          1   -1    0    0  501    0  0.00000000000E+00  0.00000000000E+00  0.47319760561E+03  0.47319760561E+03  0.00000000000E+00 0. -1.
         -1   -1    0    0    0  501 -0.00000000000E+00 -0.00000000000E+00 -0.33354365469E+02  0.33354365469E+02  0.00000000000E+00 0.  1.
          5    1    1    2  502    0 -0.24220936613E+02 -0.29887400216E+02  0.18469676263E+03  0.18871908910E+03  0.47000000000E+01 0. -1.
         -5    1    1    2    0  502  0.79229150742E+02  0.10097991353E+02  0.10362762719E+03  0.13091983377E+03  0.47000000000E+01 0. -1.
        -11    1    1    2    0    0 -0.69358717828E+02 -0.12687665105E+02  0.77233529769E+02  0.10457832809E+03  0.00000000000E+00 0.  1.
         11    1    1    2    0    0  0.14350503699E+02  0.32477073968E+02  0.74285320549E+02  0.82334720130E+02  0.00000000000E+00 0. -1.
<mgrwt>
<rscale>  0 0.13021444E+03</rscale>
<asrwt>0</asrwt>
<pdfrwt beam="1">  1        1 0.72799627E-01 0.13797858E+03</pdfrwt>
<pdfrwt beam="2">  1       -1 0.51314412E-02 0.13797858E+03</pdfrwt>
<totfact> 0.78686512E+03</totfact>
</mgrwt>
</event>
<event>
 6    1  0.1045058E-005  0.1177930E+03  0.7546771E-02  0.1258015E+00
          1   -1    0    0  501    0  0.00000000000E+00  0.00000000000E+00  0.60236846408E+03  0.60236846408E+03  0.00000000000E+00 0. -1.
         -1   -1    0    0    0  501 -0.00000000000E+00 -0.00000000000E+00 -0.19140048479E+02  0.19140048479E+02  0.00000000000E+00 0.  1.
          5    1    1    2  502    0 -0.46572270072E+02 -0.51580186092E+02  0.21972399976E+03  0.23049993060E+03  0.47000000000E+01 0. -1.
         -5    1    1    2    0  502  0.29095909261E+02  0.38061988636E+02  0.15286339646E+03  0.16026414100E+03  0.47000000000E+01 0.  1.
        -11    1    1    2    0    0  0.31975371136E+02  0.44758649260E+02  0.91851782430E+02  0.10706311680E+03  0.00000000000E+00 0.  1.
         11    1    1    2    0    0 -0.14499010325E+02 -0.31240451805E+02  0.11878923696E+03  0.12368132416E+03  0.00000000000E+00 0. -1.
<mgrwt>
<rscale>  0 0.11139113E+03</rscale>
<asrwt>0</asrwt>
<pdfrwt beam="1">  1        1 0.92672057E-01 0.11779300E+03</pdfrwt>
<pdfrwt beam="2">  1       -1 0.29446233E-02 0.11779300E+03</pdfrwt>
<totfact> 0.12763224E+04</totfact>
</mgrwt>
</event>
<event>
 6    1  0.1045058E-005  0.1306543E+03  0.7546771E-02  0.1242506E+00
         -2   -1    0    0    0  501 -0.00000000000E+00  0.00000000000E+00  0.11795725998E+02  0.11795725998E+02  0.00000000000E+00 0.  1.
          2   -1    0    0  501    0  0.00000000000E+00 -0.00000000000E+00 -0.11411796460E+04  0.11411796460E+04  0.00000000000E+00 0. -1.
          5    1    1    2  502    0 -0.36247189929E+02 -0.63085745289E+02 -0.38838756103E+03  0.39517168117E+03  0.47000000000E+01 0.  1.
         -5    1    1    2    0  502  0.49089035826E+02  0.27323441498E+02 -0.40414511825E+03  0.40805841554E+03  0.47000000000E+01 0.  1.
        -11    1    1    2    0    0  0.36437945484E+01  0.56416563124E+02 -0.29410836755E+03  0.29949263380E+03  0.00000000000E+00 0. -1.
         11    1    1    2    0    0 -0.16485640446E+02 -0.20654259333E+02 -0.42742873174E+02  0.50252641490E+02  0.00000000000E+00 0.  1.
<mgrwt>
<rscale>  0 0.12035913E+03</rscale>
<asrwt>0</asrwt>
<pdfrwt beam="2">  1        2 0.17556612E+00 0.13065428E+03</pdfrwt>
<pdfrwt beam="1">  1       -2 0.18147269E-02 0.13065428E+03</pdfrwt>
<totfact> 0.18421933E+04</totfact>
</mgrwt>
</event>
<event>
 6    1  0.1045058E-005  0.1509246E+03  0.7546771E-02  0.1208683E+00
          2   -1    0    0  501    0  0.00000000000E+00  0.00000000000E+00  0.99487043180E+03  0.99487043180E+03  0.00000000000E+00 0. -1.
         -2   -1    0    0    0  501 -0.00000000000E+00 -0.00000000000E+00 -0.19665509611E+02  0.19665509611E+02  0.00000000000E+00 0.  1.
          5    1    1    2  502    0  0.74835685291E+02  0.81147934777E+01  0.30983284419E+03  0.31888040235E+03  0.47000000000E+01 0. -1.
         -5    1    1    2    0  502 -0.35193910206E+02  0.66595159389E+02  0.32394301842E+03  0.33261794262E+03  0.47000000000E+01 0. -1.
        -11    1    1    2    0    0  0.23110894433E+02 -0.38658724255E+02  0.80340216958E+02  0.92104076258E+02  0.00000000000E+00 0.  1.
         11    1    1    2    0    0 -0.62752669519E+02 -0.36051228611E+02  0.26108884262E+03  0.27093352018E+03  0.00000000000E+00 0. -1.
<mgrwt>
<rscale>  0 0.14350957E+03</rscale>
<asrwt>0</asrwt>
<pdfrwt beam="1">  1        2 0.15305695E+00 0.15092465E+03</pdfrwt>
<pdfrwt beam="2">  1       -2 0.30254638E-02 0.15092465E+03</pdfrwt>
<totfact> 0.10718602E+04</totfact>
</mgrwt>
</event>
<event>
 6    1  0.1045058E-005  0.1328040E+03  0.7546771E-02  0.1234776E+00
          1   -1    0    0  501    0  0.00000000000E+00  0.00000000000E+00  0.58790992666E+02  0.58790992666E+02  0.00000000000E+00 0. -1.
         -1   -1    0    0    0  501 -0.00000000000E+00 -0.00000000000E+00 -0.24165793769E+03  0.24165793769E+03  0.00000000000E+00 0.  1.
          5    1    1    2  502    0 -0.14968897297E+02 -0.57423116551E+02 -0.52311722881E+02  0.79247009733E+02  0.47000000000E+01 0. -1.
         -5    1    1    2    0  502  0.57458523524E+02  0.43059596021E+02 -0.38195354703E+02  0.81465243239E+02  0.47000000000E+01 0. -1.
        -11    1    1    2    0    0 -0.36747945857E+01 -0.16454987801E+02  0.14310457102E+02  0.22114699213E+02  0.00000000000E+00 0. -1.
         11    1    1    2    0    0 -0.38814831641E+02  0.30818508332E+02 -0.10667032454E+03  0.11762197817E+03  0.00000000000E+00 0.  1.
<mgrwt>
<rscale>  0 0.12518798E+03</rscale>
<asrwt>0</asrwt>
<pdfrwt beam="1">  1        1 0.90447680E-02 0.13280398E+03</pdfrwt>
<pdfrwt beam="2">  1       -1 0.37178144E-01 0.13280398E+03</pdfrwt>
<totfact> 0.49267532E+03</totfact>
</mgrwt>
</event>
<event>
 6    1  0.1045058E-005  0.3184188E+03  0.7546771E-02  0.1076379E+00
         -1   -1    0    0    0  501 -0.00000000000E+00  0.00000000000E+00  0.21176472234E+02  0.21176472234E+02  0.00000000000E+00 0.  1.
          1   -1    0    0  501    0  0.00000000000E+00 -0.00000000000E+00 -0.11969712990E+04  0.11969712990E+04  0.00000000000E+00 0. -1.
          5    1    1    2  502    0  0.12705445480E+03 -0.23555461469E+02 -0.73482442217E+03  0.74611441192E+03  0.47000000000E+01 0.  1.
         -5    1    1    2    0  502 -0.22274735846E+02  0.56598280416E+01 -0.44583579058E+02  0.50378398467E+02  0.47000000000E+01 0.  1.
        -11    1    1    2    0    0 -0.27082103313E+02 -0.38712512711E+02 -0.11630506598E+03  0.12553472561E+03  0.00000000000E+00 0.  1.
         11    1    1    2    0    0 -0.77697615643E+02  0.56608146139E+02 -0.28008175959E+03  0.29612023527E+03  0.00000000000E+00 0. -1.
<mgrwt>
<rscale>  0 0.31841878E+03</rscale>
<asrwt>0</asrwt>
<pdfrwt beam="2">  1        1 0.18414936E+00 0.31841878E+03</pdfrwt>
<pdfrwt beam="1">  1       -1 0.32579201E-02 0.31841878E+03</pdfrwt>
<totfact> 0.38489243E+03</totfact>
</mgrwt>
</event>
<event>
 6    1  0.1045058E-005  0.1599900E+03  0.7546771E-02  0.1194422E+00
          1   -1    0    0  501    0  0.00000000000E+00  0.00000000000E+00  0.44543649544E+03  0.44543649544E+03  0.00000000000E+00 0. -1.
         -1   -1    0    0    0  501 -0.00000000000E+00 -0.00000000000E+00 -0.64004276128E+02  0.64004276128E+02  0.00000000000E+00 0.  1.
          5    1    1    2  502    0 -0.14216245526E+02 -0.11210358605E+03  0.32038385065E+03  0.33976052950E+03  0.47000000000E+01 0. -1.
         -5    1    1    2    0  502 -0.10601847485E+02  0.59960452945E+01 -0.49222003112E+01  0.13952411447E+02  0.47000000000E+01 0.  1.
        -11    1    1    2    0    0  0.11790387180E+02  0.10053885610E+03  0.14400548207E+02  0.10224700781E+03  0.00000000000E+00 0.  1.
         11    1    1    2    0    0  0.13027705832E+02  0.55686846561E+01  0.51570020758E+02  0.53480822816E+02  0.00000000000E+00 0. -1.
<mgrwt>
<rscale>  0 0.15503280E+03</rscale>
<asrwt>0</asrwt>
<pdfrwt beam="1">  1        1 0.68528690E-01 0.15998997E+03</pdfrwt>
<pdfrwt beam="2">  1       -1 0.98468120E-02 0.15998997E+03</pdfrwt>
<totfact> 0.32149258E+03</totfact>
</mgrwt>
</event>
<event>
 6    1  0.1045058E-005  0.1357394E+03  0.7546771E-02  0.1239281E+00
          1   -1    0    0  501    0  0.00000000000E+00  0.00000000000E+00  0.26067975779E+03  0.26067975779E+03  0.00000000000E+00 0. -1.
         -1   -1    0    0    0  501 -0.00000000000E+00 -0.00000000000E+00 -0.54757753732E+02  0.54757753732E+02  0.00000000000E+00 0.  1.
          5    1    1    2  502    0 -0.19371623812E+02 -0.61934230945E+02  0.46684864861E+02  0.80079181932E+02  0.47000000000E+01 0. -1.
         -5    1    1    2    0  502 -0.32226237677E+02  0.50247557717E+02  0.12655219749E+03  0.14000320046E+03  0.47000000000E+01 0. -1.
        -11    1    1    2    0    0  0.57906921252E+02 -0.39988587740E+01  0.45815997856E+02  0.73948009168E+02  0.00000000000E+00 0. -1.
         11    1    1    2    0    0 -0.63090597627E+01  0.15685532002E+02 -0.13131056148E+02  0.21407119956E+02  0.00000000000E+00 0.  1.
<mgrwt>
<rscale>  0 0.12234331E+03</rscale>
<asrwt>0</asrwt>
<pdfrwt beam="1">  1        1 0.40104577E-01 0.13573937E+03</pdfrwt>
<pdfrwt beam="2">  1       -1 0.84242700E-02 0.13573937E+03</pdfrwt>
<totfact> 0.79018323E+03</totfact>
</mgrwt>
</event>
<event>
 6    1  0.1045058E-005  0.1384135E+03  0.7546771E-02  0.1225668E+00
         -1   -1    0    0    0  501 -0.00000000000E+00  0.00000000000E+00  0.67011813276E+02  0.67011813276E+02  0.00000000000E+00 0.  1.
          1   -1    0    0  501    0  0.00000000000E+00 -0.00000000000E+00 -0.25233268299E+03  0.25233268299E+03  0.00000000000E+00 0. -1.
          5    1    1    2  502    0 -0.55074183447E+02 -0.61283686043E+02 -0.87078831357E+02  0.11997361680E+03  0.47000000000E+01 0. -1.
         -5    1    1    2    0  502  0.55654366630E+02  0.18469829659E+01 -0.58071068902E+02  0.80592548753E+02  0.47000000000E+01 0. -1.
        -11    1    1    2    0    0 -0.15935739179E+02  0.39160403303E+02 -0.68631458927E+02  0.80608697573E+02  0.00000000000E+00 0. -1.
         11    1    1    2    0    0  0.15355555995E+02  0.20276299774E+02  0.28460489477E+02  0.38169633136E+02  0.00000000000E+00 0.  1.
<mgrwt>
<rscale>  0 0.13121215E+03</rscale>
<asrwt>0</asrwt>
<pdfrwt beam="2">  1        1 0.38820412E-01 0.13841349E+03</pdfrwt>
<pdfrwt beam="1">  1       -1 0.10309510E-01 0.13841349E+03</pdfrwt>
<totfact> 0.60586400E+03</totfact>
</mgrwt>
</event>
<event>
 6    1  0.1045058E-005  0.1413318E+03  0.7546771E-02  0.1227753E+00
         -1   -1    0    0    0  501 -0.00000000000E+00  0.00000000000E+00  0.21999212254E+02  0.21999212254E+02  0.00000000000E+00 0.  1.
          1   -1    0    0  501    0  0.00000000000E+00 -0.00000000000E+00 -0.73052483112E+03  0.73052483112E+03  0.00000000000E+00 0. -1.
          5    1    1    2  502    0 -0.26486333561E+02 -0.24118703779E+02 -0.68907720891E+02  0.77804895321E+02  0.47000000000E+01 0. -1.
         -5    1    1    2    0  502  0.92429410850E+02  0.22950959355E+02 -0.45104839076E+03  0.46101700981E+03  0.47000000000E+01 0. -1.
        -11    1    1    2    0    0  0.92066732753E+01  0.82452074368E+01 -0.21023482228E+01  0.12536592301E+02  0.00000000000E+00 0.  1.
         11    1    1    2    0    0 -0.75149750564E+02 -0.70774630129E+01 -0.18646715899E+03  0.20116554594E+03  0.00000000000E+00 0. -1.
<mgrwt>
<rscale>  0 0.12979999E+03</rscale>
<asrwt>0</asrwt>
<pdfrwt beam="2">  1        1 0.11238841E+00 0.14133183E+03</pdfrwt>
<pdfrwt beam="1">  1       -1 0.33844948E-02 0.14133183E+03</pdfrwt>
<totfact> 0.80502240E+03</totfact>
</mgrwt>
</event>
<event>
 6    1  0.1045058E-005  0.2792155E+03  0.7546771E-02  0.1096118E+00
         -2   -1    0    0    0  501 -0.00000000000E+00  0.00000000000E+00  0.23881754604E+02  0.23881754604E+02  0.00000000000E+00 0.  1.
          2   -1    0    0  501    0  0.00000000000E+00 -0.00000000000E+00 -0.81611773595E+03  0.81611773595E+03  0.00000000000E+00 0. -1.
          5    1    1    2  502    0 -0.27841733844E+02  0.10047457797E+02 -0.38640924336E+02  0.48901171613E+02  0.47000000000E+01 0. -1.
         -5    1    1    2    0  502  0.42062453295E+02 -0.92707917562E+02 -0.50637874552E+03  0.51653221765E+03  0.47000000000E+01 0. -1.
        -11    1    1    2    0    0 -0.30117081763E+01  0.37566178408E+02 -0.20034584407E+02  0.42681058079E+02  0.00000000000E+00 0.  1.
         11    1    1    2    0    0 -0.11209011274E+02  0.45094281357E+02 -0.22718172709E+03  0.23188504322E+03  0.00000000000E+00 0. -1.
<mgrwt>
<rscale>  0 0.27921550E+03</rscale>
<asrwt>0</asrwt>
<pdfrwt beam="2">  1        2 0.12555655E+00 0.27921550E+03</pdfrwt>
<pdfrwt beam="1">  1       -2 0.36741169E-02 0.27921550E+03</pdfrwt>
<totfact> 0.10774760E+04</totfact>
</mgrwt>
</event>
<event>
 6    1  0.1045058E-005  0.1930025E+03  0.7546771E-02  0.1186544E+00
         -1   -1    0    0    0  501 -0.00000000000E+00  0.00000000000E+00  0.52382977981E+02  0.52382977981E+02  0.00000000000E+00 0.  1.
          1   -1    0    0  501    0  0.00000000000E+00 -0.00000000000E+00 -0.45497562234E+03  0.45497562234E+03  0.00000000000E+00 0. -1.
          5    1    1    2  502    0 -0.72627276938E+02 -0.28879083201E+02 -0.87714194807E+02  0.11757802844E+03  0.47000000000E+01 0. -1.
         -5    1    1    2    0  502  0.95147320701E+02  0.42808879859E+02 -0.25845256170E+03  0.27875693620E+03  0.47000000000E+01 0.  1.
        -11    1    1    2    0    0  0.21358864600E+02 -0.21123248356E+02  0.94982774834E+01  0.31505713660E+02  0.00000000000E+00 0.  1.
         11    1    1    2    0    0 -0.43878908362E+02  0.71934516986E+01 -0.65924165336E+02  0.79517922015E+02  0.00000000000E+00 0. -1.
<mgrwt>
<rscale>  0 0.16192153E+03</rscale>
<asrwt>0</asrwt>
<pdfrwt beam="2">  1        1 0.69996249E-01 0.19300254E+03</pdfrwt>
<pdfrwt beam="1">  1       -1 0.80589198E-02 0.19300254E+03</pdfrwt>
<totfact> 0.42798616E+03</totfact>
</mgrwt>
</event>
<event>
 6    1  0.1045058E-005  0.1398799E+03  0.7546771E-02  0.1225106E+00
          2   -1    0    0  501    0  0.00000000000E+00  0.00000000000E+00  0.28060290275E+03  0.28060290275E+03  0.00000000000E+00 0. -1.
         -2   -1    0    0    0  501 -0.00000000000E+00 -0.00000000000E+00 -0.70590445762E+02  0.70590445762E+02  0.00000000000E+00 0.  1.
          5    1    1    2  502    0  0.22605409881E+02 -0.66101666927E+02  0.11179716232E+03  0.13191334439E+03  0.47000000000E+01 0.  1.
         -5    1    1    2    0  502 -0.65746831086E+02  0.20482831466E+02  0.84103096419E+02  0.10880079508E+03  0.47000000000E+01 0.  1.
        -11    1    1    2    0    0  0.43689825698E+02  0.70620488726E+02  0.29537228420E+01  0.83094998502E+02  0.00000000000E+00 0.  1.
         11    1    1    2    0    0 -0.54840449419E+00 -0.25001653265E+02  0.11158475413E+02  0.27384210542E+02  0.00000000000E+00 0. -1.
<mgrwt>
<rscale>  0 0.13159626E+03</rscale>
<asrwt>0</asrwt>
<pdfrwt beam="1">  1        2 0.43169677E-01 0.13987990E+03</pdfrwt>
<pdfrwt beam="2">  1       -2 0.10860069E-01 0.13987990E+03</pdfrwt>
<totfact> 0.65277684E+03</totfact>
</mgrwt>
</event>
<event>
 6    1  0.1045058E-005  0.2981590E+03  0.7546771E-02  0.1086165E+00
          1   -1    0    0  501    0  0.00000000000E+00  0.00000000000E+00  0.90548302413E+03  0.90548302413E+03  0.00000000000E+00 0. -1.
         -1   -1    0    0    0  501 -0.00000000000E+00 -0.00000000000E+00 -0.24544578714E+02  0.24544578714E+02  0.00000000000E+00 0.  1.
          5    1    1    2  502    0 -0.23248810409E+02  0.12646877844E+02  0.38991748654E+02  0.47359235295E+02  0.47000000000E+01 0. -1.
         -5    1    1    2    0  502  0.36549244146E+02 -0.75788033504E+02  0.68568372683E+03  0.69084291739E+03  0.47000000000E+01 0. -1.
        -11    1    1    2    0    0 -0.47357792806E+02  0.35198135902E+02  0.52043870799E+02  0.78678038856E+02  0.00000000000E+00 0.  1.
         11    1    1    2    0    0  0.34057359069E+02  0.27943019757E+02  0.10421909913E+03  0.11314741130E+03  0.00000000000E+00 0. -1.
<mgrwt>
<rscale>  0 0.29815901E+03</rscale>
<asrwt>0</asrwt>
<pdfrwt beam="1">  1        1 0.13930506E+00 0.29815901E+03</pdfrwt>
<pdfrwt beam="2">  1       -1 0.37760897E-02 0.29815901E+03</pdfrwt>
<totfact> 0.50725477E+03</totfact>
</mgrwt>
</event>
<event>
 6    1  0.1045058E-005  0.1807487E+03  0.7546771E-02  0.1168681E+00
         -2   -1    0    0    0  501 -0.00000000000E+00  0.00000000000E+00  0.28008255514E+02  0.28008255514E+02  0.00000000000E+00 0.  1.
          2   -1    0    0  501    0  0.00000000000E+00 -0.00000000000E+00 -0.13133307124E+04  0.13133307124E+04  0.00000000000E+00 0. -1.
          5    1    1    2  502    0 -0.28293532266E+01  0.94421934712E+02 -0.38845415133E+03  0.39980273221E+03  0.47000000000E+01 0.  1.
         -5    1    1    2    0  502  0.81565993133E+02  0.97191362179E+01 -0.51842797042E+03  0.52491630129E+03  0.47000000000E+01 0.  1.
        -11    1    1    2    0    0 -0.43420355231E+02 -0.85376990822E+02 -0.36010390812E+03  0.37262498904E+03  0.00000000000E+00 0. -1.
         11    1    1    2    0    0 -0.35316284675E+02 -0.18764080107E+02 -0.18336427054E+02  0.43994945422E+02  0.00000000000E+00 0.  1.
<mgrwt>
<rscale>  0 0.17909580E+03</rscale>
<asrwt>0</asrwt>
<pdfrwt beam="2">  1        2 0.20205084E+00 0.18074874E+03</pdfrwt>
<pdfrwt beam="1">  1       -2 0.43089632E-02 0.18074874E+03</pdfrwt>
<totfact> 0.42029270E+03</totfact>
</mgrwt>
</event>
<event>
 6    1  0.1045058E-005  0.1487027E+03  0.7546771E-02  0.1211382E+00
         -2   -1    0    0    0  501 -0.00000000000E+00  0.00000000000E+00  0.33542272199E+03  0.33542272199E+03  0.00000000000E+00 0.  1.
          2   -1    0    0  501    0  0.00000000000E+00 -0.00000000000E+00 -0.57079503133E+02  0.57079503133E+02  0.00000000000E+00 0. -1.
          5    1    1    2  502    0  0.23140674538E+02 -0.30965501108E+02  0.51110496869E+02  0.64255162961E+02  0.47000000000E+01 0. -1.
         -5    1    1    2    0  502  0.84140765455E+01  0.10506243098E+03  0.59978181537E+02  0.12136055104E+03  0.47000000000E+01 0. -1.
        -11    1    1    2    0    0  0.19047336310E+02 -0.24612083997E+01  0.83265409340E+02  0.85451664465E+02  0.00000000000E+00 0.  1.
         11    1    1    2    0    0 -0.50602087394E+02 -0.71635721470E+02  0.83989131111E+02  0.12143484666E+03  0.00000000000E+00 0. -1.
<mgrwt>
<rscale>  0 0.14145696E+03</rscale>
<asrwt>0</asrwt>
<pdfrwt beam="2">  1        2 0.87814623E-02 0.14870272E+03</pdfrwt>
<pdfrwt beam="1">  1       -2 0.51603494E-01 0.14870272E+03</pdfrwt>
<totfact> 0.26291711E+03</totfact>
</mgrwt>
</event>
<event>
 6    1  0.1045058E-005  0.2211414E+03  0.7546771E-02  0.1136775E+00
          2   -1    0    0  501    0  0.00000000000E+00  0.00000000000E+00  0.12712699692E+04  0.12712699692E+04  0.00000000000E+00 0. -1.
         -2   -1    0    0    0  501 -0.00000000000E+00 -0.00000000000E+00 -0.50643772749E+02  0.50643772749E+02  0.00000000000E+00 0.  1.
          5    1    1    2  502    0 -0.14352875043E+03  0.19893107984E+02  0.94364654800E+03  0.95471835402E+03  0.47000000000E+01 0. -1.
         -5    1    1    2    0  502 -0.38307810186E+02 -0.52666664812E+01  0.50775129431E+02  0.63995545672E+02  0.47000000000E+01 0. -1.
        -11    1    1    2    0    0  0.45214930552E+02  0.33586030746E+02  0.74934310825E+02  0.93741998832E+02  0.00000000000E+00 0. -1.
         11    1    1    2    0    0  0.13662163006E+03 -0.48212472249E+02  0.15127020815E+03  0.20945784338E+03  0.00000000000E+00 0.  1.
<mgrwt>
<rscale>  0 0.21616436E+03</rscale>
<asrwt>0</asrwt>
<pdfrwt beam="1">  1        2 0.19557997E+00 0.22114144E+03</pdfrwt>
<pdfrwt beam="2">  1       -2 0.77913506E-02 0.22114144E+03</pdfrwt>
<totfact> 0.17958510E+03</totfact>
</mgrwt>
</event>
<event>
 6    1  0.1045058E-005  0.1362362E+03  0.7546771E-02  0.1235453E+00
          2   -1    0    0  501    0  0.00000000000E+00  0.00000000000E+00  0.81529999559E+03  0.81529999559E+03  0.00000000000E+00 0. -1.
         -2   -1    0    0    0  501 -0.00000000000E+00 -0.00000000000E+00 -0.16680265570E+02  0.16680265570E+02  0.00000000000E+00 0.  1.
          5    1    1    2  502    0 -0.40247422412E+02  0.46401510598E+02  0.38869310277E+03  0.39354462687E+03  0.47000000000E+01 0. -1.
         -5    1    1    2    0  502  0.13512386044E+02 -0.55869199541E+02  0.12099171350E+03  0.13403371504E+03  0.47000000000E+01 0.  1.
        -11    1    1    2    0    0  0.19611285885E+02 -0.38481230458E+02  0.18099137102E+03  0.18607332968E+03  0.00000000000E+00 0.  1.
         11    1    1    2    0    0  0.71237504823E+01  0.47948919401E+02  0.10794354273E+03  0.11832858957E+03  0.00000000000E+00 0. -1.
<mgrwt>
<rscale>  0 0.12475495E+03</rscale>
<asrwt>0</asrwt>
<pdfrwt beam="1">  1        2 0.12543074E+00 0.13623617E+03</pdfrwt>
<pdfrwt beam="2">  1       -2 0.25661954E-02 0.13623617E+03</pdfrwt>
<totfact> 0.17606279E+04</totfact>
</mgrwt>
</event>
<event>
 6    1  0.1045058E-005  0.2524979E+03  0.7546771E-02  0.1133645E+00
         -2   -1    0    0    0  501 -0.00000000000E+00  0.00000000000E+00  0.66672484906E+02  0.66672484906E+02  0.00000000000E+00 0.  1.
          2   -1    0    0  501    0  0.00000000000E+00 -0.00000000000E+00 -0.89207850890E+03  0.89207850890E+03  0.00000000000E+00 0. -1.
          5    1    1    2  502    0 -0.40011753336E+02 -0.27710780607E+02 -0.65866606950E+03  0.66047854536E+03  0.47000000000E+01 0. -1.
         -5    1    1    2    0  502 -0.69069642205E+02  0.65953395639E+02 -0.96779462698E+02  0.13604712518E+03  0.47000000000E+01 0.  1.
        -11    1    1    2    0    0  0.12200468181E+03 -0.28782620051E+02 -0.74186674779E+02  0.14566140297E+03  0.00000000000E+00 0.  1.
         11    1    1    2    0    0 -0.12923286268E+02 -0.94599949815E+01  0.42261829812E+01  0.16563920297E+02  0.00000000000E+00 0. -1.
<mgrwt>
<rscale>  0 0.22031919E+03</rscale>
<asrwt>0</asrwt>
<pdfrwt beam="2">  1        2 0.13724284E+00 0.25249790E+03</pdfrwt>
<pdfrwt beam="1">  1       -2 0.10257306E-01 0.25249790E+03</pdfrwt>
<totfact> 0.19559738E+03</totfact>
</mgrwt>
</event>
<event>
 6    1  0.1045058E-005  0.4005047E+03  0.7546771E-02  0.1043605E+00
          1   -1    0    0  501    0  0.00000000000E+00  0.00000000000E+00  0.11776636478E+04  0.11776636478E+04  0.00000000000E+00 0. -1.
         -1   -1    0    0    0  501 -0.00000000000E+00 -0.00000000000E+00 -0.34051315872E+02  0.34051315872E+02  0.00000000000E+00 0.  1.
          5    1    1    2  502    0  0.10371814089E+03  0.16686231564E+02  0.78734998423E+03  0.79434121808E+03  0.47000000000E+01 0.  1.
         -5    1    1    2    0  502 -0.31544745164E+02  0.32422574179E+02  0.24155735838E+03  0.24580142728E+03  0.47000000000E+01 0.  1.
        -11    1    1    2    0    0 -0.18051115776E+02 -0.45094330598E+02  0.45647132760E+01  0.48787068370E+02  0.00000000000E+00 0.  1.
         11    1    1    2    0    0 -0.54122279945E+02 -0.40144751441E+01  0.11014027603E+03  0.12278524994E+03  0.00000000000E+00 0. -1.
<mgrwt>
<rscale>  0 0.40050467E+03</rscale>
<asrwt>0</asrwt>
<pdfrwt beam="1">  1        1 0.18117899E+00 0.40050467E+03</pdfrwt>
<pdfrwt beam="2">  1       -1 0.52386649E-02 0.40050467E+03</pdfrwt>
<totfact> 0.19473109E+03</totfact>
</mgrwt>
</event>
<event>
 6    1  0.1045058E-005  0.1579195E+03  0.7546771E-02  0.1198613E+00
         -1   -1    0    0    0  501 -0.00000000000E+00  0.00000000000E+00  0.39543023940E+02  0.39543023940E+02  0.00000000000E+00 0.  1.
          1   -1    0    0  501    0  0.00000000000E+00 -0.00000000000E+00 -0.60468797503E+03  0.60468797503E+03  0.00000000000E+00 0. -1.
          5    1    1    2  502    0  0.68697965471E+02  0.55654737793E+02 -0.18779300712E+03  0.20761783118E+03  0.47000000000E+01 0.  1.
         -5    1    1    2    0  502 -0.52437747059E+02  0.39493374856E+02 -0.22201131868E+03  0.23156113577E+03  0.47000000000E+01 0.  1.
        -11    1    1    2    0    0 -0.33965602845E+02 -0.89909423385E+02 -0.15941241397E+03  0.18614425674E+03  0.00000000000E+00 0. -1.
         11    1    1    2    0    0  0.17705384433E+02 -0.52386892636E+01  0.40717886860E+01  0.18907775285E+02  0.00000000000E+00 0.  1.
<mgrwt>
<rscale>  0 0.15152381E+03</rscale>
<asrwt>0</asrwt>
<pdfrwt beam="2">  1        1 0.93028910E-01 0.15791954E+03</pdfrwt>
<pdfrwt beam="1">  1       -1 0.60835427E-02 0.15791954E+03</pdfrwt>
<totfact> 0.44418237E+03</totfact>
</mgrwt>
</event>
<event>
 6    1  0.1045058E-005  0.1885742E+03  0.7546771E-02  0.1172932E+00
         -1   -1    0    0    0  501 -0.00000000000E+00  0.00000000000E+00  0.64509357529E+02  0.64509357529E+02  0.00000000000E+00 0.  1.
          1   -1    0    0  501    0  0.00000000000E+00 -0.00000000000E+00 -0.51158243889E+03  0.51158243889E+03  0.00000000000E+00 0. -1.
          5    1    1    2  502    0 -0.78221375258E+02 -0.36748868747E+02 -0.16349677501E+03  0.18499283321E+03  0.47000000000E+01 0. -1.
         -5    1    1    2    0  502 -0.50302593436E+01  0.10163995301E+03 -0.21050486031E+03  0.23385972242E+03  0.47000000000E+01 0.  1.
        -11    1    1    2    0    0  0.31111304239E+02  0.81016040423E+01 -0.57951123195E+02  0.66271275219E+02  0.00000000000E+00 0. -1.
         11    1    1    2    0    0  0.52140330363E+02 -0.72992688304E+02 -0.15120322845E+02  0.90967965566E+02  0.00000000000E+00 0.  1.
<mgrwt>
<rscale>  0 0.17480114E+03</rscale>
<asrwt>0</asrwt>
<pdfrwt beam="2">  1        1 0.78704990E-01 0.18857423E+03</pdfrwt>
<pdfrwt beam="1">  1       -1 0.99245166E-02 0.18857423E+03</pdfrwt>
<totfact> 0.26664252E+03</totfact>
</mgrwt>
</event>
<event>
 6    1  0.1045058E-005  0.1313834E+03  0.7546771E-02  0.1238156E+00
          2   -1    0    0  501    0  0.00000000000E+00  0.00000000000E+00  0.10251824383E+03  0.10251824383E+03  0.00000000000E+00 0. -1.
         -2   -1    0    0    0  501 -0.00000000000E+00 -0.00000000000E+00 -0.22636637196E+03  0.22636637196E+03  0.00000000000E+00 0.  1.
          5    1    1    2  502    0 -0.77880299667E+02 -0.28813722678E+02  0.32076332159E+02  0.89143439330E+02  0.47000000000E+01 0.  1.
         -5    1    1    2    0  502  0.47122430186E+02  0.25397602961E+01  0.70738052618E+01  0.47948957547E+02  0.47000000000E+01 0.  1.
        -11    1    1    2    0    0 -0.20960543397E+02  0.54547812626E+01 -0.11849066216E+03  0.12045387514E+03  0.00000000000E+00 0.  1.
         11    1    1    2    0    0  0.51718412878E+02  0.20819181120E+02 -0.44507603393E+02  0.71338343777E+02  0.00000000000E+00 0. -1.
<mgrwt>
<rscale>  0 0.12304514E+03</rscale>
<asrwt>0</asrwt>
<pdfrwt beam="1">  1        2 0.15772037E-01 0.13138338E+03</pdfrwt>
<pdfrwt beam="2">  1       -2 0.34825596E-01 0.13138338E+03</pdfrwt>
<totfact> 0.27386560E+03</totfact>
</mgrwt>
</event>
<event>
 6    1  0.1045058E-005  0.1403573E+03  0.7546771E-02  0.1224223E+00
         -2   -1    0    0    0  501 -0.00000000000E+00  0.00000000000E+00  0.16848252699E+03  0.16848252699E+03  0.00000000000E+00 0.  1.
          2   -1    0    0  501    0  0.00000000000E+00 -0.00000000000E+00 -0.93893888502E+02  0.93893888502E+02  0.00000000000E+00 0. -1.
          5    1    1    2  502    0  0.68084667118E+02 -0.66055357486E+02  0.63026895707E+02  0.11398820874E+03  0.47000000000E+01 0.  1.
         -5    1    1    2    0  502 -0.15703931668E+02  0.29376852770E+02 -0.11464317992E+02  0.35540589972E+02  0.47000000000E+01 0.  1.
        -11    1    1    2    0    0 -0.17640598984E+02  0.57728477796E+02  0.35905010086E+02  0.70234874745E+02  0.00000000000E+00 0.  1.
         11    1    1    2    0    0 -0.34740136465E+02 -0.21049973080E+02 -0.12878949314E+02  0.42612742035E+02  0.00000000000E+00 0. -1.
<mgrwt>
<rscale>  0 0.13220280E+03</rscale>
<asrwt>0</asrwt>
<pdfrwt beam="2">  1        2 0.14445214E-01 0.14035727E+03</pdfrwt>
<pdfrwt beam="1">  1       -2 0.25920389E-01 0.14035727E+03</pdfrwt>
<totfact> 0.51837688E+03</totfact>
</mgrwt>
</event>
<event>
 6    1  0.1045058E-005  0.1257969E+03  0.7546771E-02  0.1248861E+00
         -1   -1    0    0    0  501 -0.00000000000E+00  0.00000000000E+00  0.27697650954E+03  0.27697650954E+03  0.00000000000E+00 0.  1.
          1   -1    0    0  501    0  0.00000000000E+00 -0.00000000000E+00 -0.45703457121E+02  0.45703457121E+02  0.00000000000E+00 0. -1.
          5    1    1    2  502    0 -0.22638831696E+02 -0.18353031659E+02 -0.19755596519E+02  0.35520755418E+02  0.47000000000E+01 0.  1.
         -5    1    1    2    0  502  0.36407585706E+02  0.21592549034E+02  0.11390433929E+03  0.12160608118E+03  0.47000000000E+01 0.  1.
        -11    1    1    2    0    0 -0.37998192714E+02 -0.35183953187E+02  0.65823469986E+02  0.83752626302E+02  0.00000000000E+00 0.  1.
         11    1    1    2    0    0  0.24229438703E+02  0.31944435812E+02  0.71300839661E+02  0.81800503761E+02  0.00000000000E+00 0. -1.
<mgrwt>
<rscale>  0 0.11657214E+03</rscale>
<asrwt>0</asrwt>
<pdfrwt beam="2">  1        1 0.70313013E-02 0.12579689E+03</pdfrwt>
<pdfrwt beam="1">  1       -1 0.42611770E-01 0.12579689E+03</pdfrwt>
<totfact> 0.54166859E+03</totfact>
</mgrwt>
</event>
<event>
 6    1  0.1045058E-005  0.3551698E+03  0.7546771E-02  0.1060513E+00
          2   -1    0    0  501    0  0.00000000000E+00  0.00000000000E+00  0.28387464499E+03  0.28387464499E+03  0.00000000000E+00 0.  1.
         -2   -1    0    0    0  501 -0.00000000000E+00 -0.00000000000E+00 -0.11109270233E+03  0.11109270233E+03  0.00000000000E+00 0. -1.
          5    1    1    2  502    0 -0.12271985216E+02 -0.25408963170E+01  0.23152149933E+03  0.23190806891E+03  0.47000000000E+01 0.  1.
         -5    1    1    2    0  502 -0.75723795296E+00  0.41363982889E+02  0.95561821149E+01  0.42719586917E+02  0.47000000000E+01 0.  1.
        -11    1    1    2    0    0 -0.21119180435E+02 -0.31417809390E+02  0.59136477573E+01  0.38315398457E+02  0.00000000000E+00 0.  1.
         11    1    1    2    0    0  0.34148403604E+02 -0.74052771827E+01 -0.74209386534E+02  0.82024293039E+02  0.00000000000E+00 0. -1.
<mgrwt>
<rscale>  0 0.35516983E+03</rscale>
<asrwt>0</asrwt>
<pdfrwt beam="1">  1        2 0.43673022E-01 0.35516983E+03</pdfrwt>
<pdfrwt beam="2">  1       -2 0.17091185E-01 0.35516983E+03</pdfrwt>
<totfact> 0.32053302E+03</totfact>
</mgrwt>
</event>
<event>
 6    1  0.1045058E-005  0.1275116E+03  0.7546771E-02  0.1245988E+00
          2   -1    0    0  501    0  0.00000000000E+00  0.00000000000E+00  0.35888274180E+03  0.35888274180E+03  0.00000000000E+00 0.  1.
         -2   -1    0    0    0  501 -0.00000000000E+00 -0.00000000000E+00 -0.37170855809E+02  0.37170855809E+02  0.00000000000E+00 0. -1.
          5    1    1    2  502    0  0.12561299245E+02 -0.61744995181E+02  0.58191909041E+02  0.85898887924E+02  0.47000000000E+01 0.  1.
         -5    1    1    2    0  502 -0.14661602542E+02  0.36631695538E+02  0.17939472097E+03  0.18374275392E+03  0.47000000000E+01 0.  1.
        -11    1    1    2    0    0  0.21125612310E+02  0.24012879938E+02 -0.74795137325E+01  0.32845898132E+02  0.00000000000E+00 0. -1.
         11    1    1    2    0    0 -0.19025309013E+02  0.11004197054E+01  0.91604769718E+02  0.93566057636E+02  0.00000000000E+00 0.  1.
<mgrwt>
<rscale>  0 0.11826435E+03</rscale>
<asrwt>0</asrwt>
<pdfrwt beam="1">  1        2 0.55212727E-01 0.12751160E+03</pdfrwt>
<pdfrwt beam="2">  1       -2 0.57185934E-02 0.12751160E+03</pdfrwt>
<totfact> 0.13444575E+04</totfact>
</mgrwt>
</event>
<event>
 6    1  0.1045058E-005  0.2186523E+03  0.7546771E-02  0.1138423E+00
          2   -1    0    0  501    0  0.00000000000E+00  0.00000000000E+00  0.43245174925E+03  0.43245174925E+03  0.00000000000E+00 0. -1.
         -2   -1    0    0    0  501 -0.00000000000E+00 -0.00000000000E+00 -0.10166115496E+03  0.10166115496E+03  0.00000000000E+00 0.  1.
          5    1    1    2  502    0  0.11787973929E+03 -0.30799617840E+02  0.35660454971E+02  0.12703545742E+03  0.47000000000E+01 0. -1.
         -5    1    1    2    0  502  0.42895913011E+02 -0.48801465129E+02  0.13654014640E+03  0.15128431489E+03  0.47000000000E+01 0. -1.
        -11    1    1    2    0    0 -0.26002077457E+02 -0.20141089800E+02  0.29611442903E+02  0.44256175628E+02  0.00000000000E+00 0. -1.
         11    1    1    2    0    0 -0.13477357484E+03  0.99742172769E+02  0.12897855002E+03  0.21153695627E+03  0.00000000000E+00 0.  1.
<mgrwt>
<rscale>  0 0.21401830E+03</rscale>
<asrwt>0</asrwt>
<pdfrwt beam="1">  1        2 0.66531037E-01 0.21865235E+03</pdfrwt>
<pdfrwt beam="2">  1       -2 0.15640178E-01 0.21865235E+03</pdfrwt>
<totfact> 0.23190641E+03</totfact>
</mgrwt>
</event>
<event>
 6    1  0.1045058E-005  0.1362213E+03  0.7546771E-02  0.1230388E+00
         -1   -1    0    0    0  501 -0.00000000000E+00  0.00000000000E+00  0.31130578735E+02  0.31130578735E+02  0.00000000000E+00 0.  1.
          1   -1    0    0  501    0  0.00000000000E+00 -0.00000000000E+00 -0.47252435325E+03  0.47252435325E+03  0.00000000000E+00 0. -1.
          5    1    1    2  502    0  0.15286764249E+02  0.53162466456E+02 -0.24744255322E+03  0.25359384880E+03  0.47000000000E+01 0. -1.
         -5    1    1    2    0  502  0.22748613263E+02 -0.14627908384E+02  0.15663006005E+01  0.27495788889E+02  0.47000000000E+01 0. -1.
        -11    1    1    2    0    0 -0.88012757353E+01  0.28262655395E+02 -0.32361823294E+02  0.43858040899E+02  0.00000000000E+00 0.  1.
         11    1    1    2    0    0 -0.29234101777E+02 -0.66797213467E+02 -0.16315569859E+03  0.17870725340E+03  0.00000000000E+00 0. -1.
<mgrwt>
<rscale>  0 0.12804366E+03</rscale>
<asrwt>0</asrwt>
<pdfrwt beam="2">  1        1 0.72696053E-01 0.13622134E+03</pdfrwt>
<pdfrwt beam="1">  1       -1 0.47893199E-02 0.13622134E+03</pdfrwt>
<totfact> 0.87229974E+03</totfact>
</mgrwt>
</event>
<event>
 6    1  0.1045058E-005  0.5052790E+03  0.7546771E-02  0.1047598E+00
         -2   -1    0    0    0  501 -0.00000000000E+00  0.00000000000E+00  0.98094741801E+02  0.98094741801E+02  0.00000000000E+00 0.  1.
          2   -1    0    0  501    0  0.00000000000E+00 -0.00000000000E+00 -0.11891516824E+04  0.11891516824E+04  0.00000000000E+00 0. -1.
          5    1    1    2  502    0 -0.98164163198E+02 -0.22833168800E+02 -0.86564539711E+03  0.87150536434E+03  0.47000000000E+01 0. -1.
         -5    1    1    2    0  502 -0.49457754175E+02 -0.24037548995E+02  0.58706238428E+02  0.80575341390E+02  0.47000000000E+01 0.  1.
        -11    1    1    2    0    0  0.56297542785E+02  0.59674743651E+02 -0.16732574687E+03  0.18635555779E+03  0.00000000000E+00 0. -1.
         11    1    1    2    0    0  0.91324374588E+02 -0.12804025856E+02 -0.11679203505E+03  0.14881016068E+03  0.00000000000E+00 0.  1.
<mgrwt>
<rscale>  0 0.38916332E+03</rscale>
<asrwt>0</asrwt>
<pdfrwt beam="2">  1        2 0.18294641E+00 0.50527900E+03</pdfrwt>
<pdfrwt beam="1">  1       -2 0.15091499E-01 0.50527900E+03</pdfrwt>
<totfact> 0.67881798E+02</totfact>
</mgrwt>
</event>
<event>
 6    1  0.1045058E-005  0.2575280E+03  0.7546771E-02  0.1110971E+00
         -1   -1    0    0    0  501 -0.00000000000E+00  0.00000000000E+00  0.25355444710E+02  0.25355444710E+02  0.00000000000E+00 0.  1.
          1   -1    0    0  501    0  0.00000000000E+00 -0.00000000000E+00 -0.25418743288E+04  0.25418743288E+04  0.00000000000E+00 0. -1.
          5    1    1    2  502    0 -0.36214490974E+02  0.36661728509E+02 -0.36494874904E+03  0.36859903841E+03  0.47000000000E+01 0.  1.
         -5    1    1    2    0  502  0.97397684724E+02  0.18002382666E+03 -0.11500266851E+04  0.11681088791E+04  0.47000000000E+01 0.  1.
        -11    1    1    2    0    0 -0.24916748746E+02 -0.19969403530E+03 -0.87243847887E+03  0.89534767075E+03  0.00000000000E+00 0.  1.
         11    1    1    2    0    0 -0.36266445003E+02 -0.16991519872E+02 -0.12910497111E+03  0.13517418521E+03  0.00000000000E+00 0. -1.
<mgrwt>
<rscale>  0 0.25372884E+03</rscale>
<asrwt>0</asrwt>
<pdfrwt beam="2">  1        1 0.39105754E+00 0.25752798E+03</pdfrwt>
<pdfrwt beam="1">  1       -1 0.39008381E-02 0.25752798E+03</pdfrwt>
<totfact> 0.38048248E+02</totfact>
</mgrwt>
</event>
<event>
 6    1  0.1045058E-005  0.1667993E+03  0.7546771E-02  0.1187705E+00
          2   -1    0    0  501    0  0.00000000000E+00  0.00000000000E+00  0.77168457303E+02  0.77168457303E+02  0.00000000000E+00 0. -1.
         -2   -1    0    0    0  501 -0.00000000000E+00 -0.00000000000E+00 -0.37018254508E+03  0.37018254508E+03  0.00000000000E+00 0.  1.
          5    1    1    2  502    0  0.51298480680E+02 -0.44703648975E+02 -0.10103474649E+03  0.12190184720E+03  0.47000000000E+01 0. -1.
         -5    1    1    2    0  502  0.10492337084E+02 -0.46844519591E+02  0.32783286070E+02  0.58320939625E+02  0.47000000000E+01 0. -1.
        -11    1    1    2    0    0 -0.24392378234E+02 -0.16943666666E+01 -0.42619537546E+01  0.24819815553E+02  0.00000000000E+00 0. -1.
         11    1    1    2    0    0 -0.37398439531E+02  0.93242535233E+02 -0.22050067361E+03  0.24230840001E+03  0.00000000000E+00 0.  1.
<mgrwt>
<rscale>  0 0.16088140E+03</rscale>
<asrwt>0</asrwt>
<pdfrwt beam="1">  1        2 0.11872071E-01 0.16679925E+03</pdfrwt>
<pdfrwt beam="2">  1       -2 0.56951159E-01 0.16679925E+03</pdfrwt>
<totfact> 0.14959681E+03</totfact>
</mgrwt>
</event>
<event>
 6    1  0.1045058E-005  0.1139119E+03  0.7546771E-02  0.1306169E+00
          2   -1    0    0  501    0  0.00000000000E+00  0.00000000000E+00  0.69496450699E+03  0.69496450699E+03  0.00000000000E+00 0. -1.
         -2   -1    0    0    0  501 -0.00000000000E+00 -0.00000000000E+00 -0.13988946437E+02  0.13988946437E+02  0.00000000000E+00 0.  1.
          5    1    1    2  502    0 -0.81386592341E+01 -0.68875529123E+02  0.41974378171E+03  0.42546093660E+03  0.47000000000E+01 0. -1.
         -5    1    1    2    0  502 -0.65147065246E+01  0.43231079568E+02  0.22156904664E+03  0.22589001764E+03  0.47000000000E+01 0.  1.
        -11    1    1    2    0    0  0.16973943148E+01  0.22600503450E+02  0.93879023490E+01  0.24531543249E+02  0.00000000000E+00 0. -1.
         11    1    1    2    0    0  0.12955971444E+02  0.30439461050E+01  0.30274829864E+02  0.33070955947E+02  0.00000000000E+00 0.  1.
<mgrwt>
<rscale>  0 0.88643855E+02</rscale>
<asrwt>0</asrwt>
<pdfrwt beam="1">  1        2 0.10691759E+00 0.11391190E+03</pdfrwt>
<pdfrwt beam="2">  1       -2 0.21521462E-02 0.11391190E+03</pdfrwt>
<totfact> 0.27189540E+04</totfact>
</mgrwt>
</event>
<event>
 6    1  0.1045058E-005  0.3134725E+03  0.7546771E-02  0.1078693E+00
          1   -1    0    0  501    0  0.00000000000E+00  0.00000000000E+00  0.19966940666E+03  0.19966940666E+03  0.00000000000E+00 0. -1.
         -1   -1    0    0    0  501 -0.00000000000E+00 -0.00000000000E+00 -0.12303462378E+03  0.12303462378E+03  0.00000000000E+00 0.  1.
          5    1    1    2  502    0  0.99023043472E+02  0.45665383098E+02  0.55528756870E+02  0.12245988401E+03  0.47000000000E+01 0.  1.
         -5    1    1    2    0  502 -0.17244349813E+01  0.31528643460E+01 -0.43347542081E+02  0.43749441528E+02  0.47000000000E+01 0.  1.
        -11    1    1    2    0    0 -0.86672132523E+02 -0.67288043408E+02  0.26361947471E+02  0.11284809088E+03  0.00000000000E+00 0.  1.
         11    1    1    2    0    0 -0.10626475968E+02  0.18469795964E+02  0.38091620613E+02  0.43646614019E+02  0.00000000000E+00 0. -1.
<mgrwt>
<rscale>  0 0.31347249E+03</rscale>
<asrwt>0</asrwt>
<pdfrwt beam="1">  1        1 0.30718370E-01 0.31347249E+03</pdfrwt>
<pdfrwt beam="2">  1       -1 0.18928404E-01 0.31347249E+03</pdfrwt>
<totfact> 0.32423363E+03</totfact>
</mgrwt>
</event>
<event>
 6    1  0.1045058E-005  0.3156166E+03  0.7546771E-02  0.1077685E+00
          2   -1    0    0  501    0  0.00000000000E+00  0.00000000000E+00  0.15610877706E+03  0.15610877706E+03  0.00000000000E+00 0. -1.
         -2   -1    0    0    0  501 -0.00000000000E+00 -0.00000000000E+00 -0.15952636031E+03  0.15952636031E+03  0.00000000000E+00 0.  1.
          5    1    1    2  502    0 -0.61145422966E+02  0.91971580527E+02 -0.56347309147E+02  0.12407515312E+03  0.47000000000E+01 0.  1.
         -5    1    1    2    0  502 -0.73549895787E+01 -0.24459818606E+01  0.43786598847E+02  0.44715041513E+02  0.47000000000E+01 0.  1.
        -11    1    1    2    0    0  0.22865496880E+02 -0.12618660820E+02 -0.37723065386E+02  0.45881272983E+02  0.00000000000E+00 0.  1.
         11    1    1    2    0    0  0.45634915664E+02 -0.76906937846E+02  0.46866192438E+02  0.10096366975E+03  0.00000000000E+00 0. -1.
<mgrwt>
<rscale>  0 0.31561663E+03</rscale>
<asrwt>0</asrwt>
<pdfrwt beam="1">  1        2 0.24016735E-01 0.31561663E+03</pdfrwt>
<pdfrwt beam="2">  1       -2 0.24542517E-01 0.31561663E+03</pdfrwt>
<totfact> 0.33086061E+03</totfact>
</mgrwt>
</event>
<event>
 6    1  0.1045058E-005  0.2595589E+03  0.7546771E-02  0.1107409E+00
         -1   -1    0    0    0  501 -0.00000000000E+00  0.00000000000E+00  0.13130228585E+02  0.13130228585E+02  0.00000000000E+00 0.  1.
          1   -1    0    0  501    0  0.00000000000E+00 -0.00000000000E+00 -0.12827431352E+04  0.12827431352E+04  0.00000000000E+00 0. -1.
          5    1    1    2  502    0  0.27514949501E+02  0.28394018585E+02 -0.21868752879E+03  0.22228274334E+03  0.47000000000E+01 0. -1.
         -5    1    1    2    0  502 -0.29123357527E+02 -0.99825318383E+02 -0.61417450479E+03  0.62293312360E+03  0.47000000000E+01 0. -1.
        -11    1    1    2    0    0  0.43039024192E+02  0.31792827205E+02 -0.19598929806E+03  0.20316236467E+03  0.00000000000E+00 0.  1.
         11    1    1    2    0    0 -0.41430616166E+02  0.39638472593E+02 -0.24076157496E+03  0.24749513216E+03  0.00000000000E+00 0. -1.
<mgrwt>
<rscale>  0 0.25955894E+03</rscale>
<asrwt>0</asrwt>
<pdfrwt beam="2">  1        1 0.19734509E+00 0.25955894E+03</pdfrwt>
<pdfrwt beam="1">  1       -1 0.20200353E-02 0.25955894E+03</pdfrwt>
<totfact> 0.67661070E+03</totfact>
</mgrwt>
</event>
<event>
 6    1  0.1045058E-005  0.1817896E+03  0.7546771E-02  0.1170800E+00
          3   -1    0    0  501    0  0.00000000000E+00  0.00000000000E+00  0.36237059270E+03  0.36237059270E+03  0.00000000000E+00 0. -1.
         -3   -1    0    0    0  501 -0.00000000000E+00 -0.00000000000E+00 -0.84020329657E+02  0.84020329657E+02  0.00000000000E+00 0.  1.
          5    1    1    2  502    0  0.27550316387E+02 -0.78835638584E+02  0.29978614745E+02  0.88853166438E+02  0.47000000000E+01 0.  1.
         -5    1    1    2    0  502  0.72653671734E+02 -0.70552531150E+01  0.15038089925E+03  0.16722690415E+03  0.47000000000E+01 0.  1.
        -11    1    1    2    0    0 -0.36518045877E+02  0.80674931810E+02  0.22426111855E+02  0.91350658400E+02  0.00000000000E+00 0.  1.
         11    1    1    2    0    0 -0.63685942244E+02  0.52159598889E+01  0.75564637191E+02  0.98960193365E+02  0.00000000000E+00 0. -1.
<mgrwt>
<rscale>  0 0.17693740E+03</rscale>
<asrwt>0</asrwt>
<pdfrwt beam="1">  1        3 0.55749321E-01 0.18178957E+03</pdfrwt>
<pdfrwt beam="2">  1       -3 0.12926205E-01 0.18178957E+03</pdfrwt>
<totfact> 0.37063317E+02</totfact>
</mgrwt>
</event>
<event>
 6    1  0.1045058E-005  0.2392879E+03  0.7546771E-02  0.1122899E+00
          2   -1    0    0  501    0  0.00000000000E+00  0.00000000000E+00  0.11056779841E+04  0.11056779841E+04  0.00000000000E+00 0. -1.
         -2   -1    0    0    0  501 -0.00000000000E+00 -0.00000000000E+00 -0.61356351665E+02  0.61356351665E+02  0.00000000000E+00 0.  1.
          5    1    1    2  502    0 -0.45051451107E+01 -0.11742416557E+03  0.24186033716E+03  0.26893724860E+03  0.47000000000E+01 0.  1.
         -5    1    1    2    0  502 -0.51144443035E+02 -0.78885758233E+02  0.56032578846E+03  0.56817760966E+03  0.47000000000E+01 0.  1.
        -11    1    1    2    0    0  0.34002986454E+02  0.85253312688E+01  0.36841155063E+02  0.50854253189E+02  0.00000000000E+00 0.  1.
         11    1    1    2    0    0  0.21646601692E+02  0.18778459253E+03  0.20529435170E+03  0.27906522427E+03  0.00000000000E+00 0. -1.
<mgrwt>
<rscale>  0 0.23539498E+03</rscale>
<asrwt>0</asrwt>
<pdfrwt beam="1">  1        2 0.17010429E+00 0.23928791E+03</pdfrwt>
<pdfrwt beam="2">  1       -2 0.94394396E-02 0.23928791E+03</pdfrwt>
<totfact> 0.16498522E+03</totfact>
</mgrwt>
</event>
<event>
 6    1  0.1045058E-005  0.7460286E+03  0.7546771E-02  0.1010107E+00
          2   -1    0    0  501    0  0.00000000000E+00  0.00000000000E+00  0.13963389607E+04  0.13963389607E+04  0.00000000000E+00 0. -1.
         -2   -1    0    0    0  501 -0.00000000000E+00 -0.00000000000E+00 -0.18610757452E+03  0.18610757452E+03  0.00000000000E+00 0.  1.
          5    1    1    2  502    0 -0.32206221718E+03 -0.19420603229E+03  0.49268230980E+03  0.61983707787E+03  0.47000000000E+01 0. -1.
         -5    1    1    2    0  502  0.35418717450E+03  0.57273866809E+02  0.70809341617E+03  0.79381813183E+03  0.47000000000E+01 0.  1.
        -11    1    1    2    0    0  0.28020185256E+02  0.57387904095E+02 -0.16068116616E+02  0.65853524506E+02  0.00000000000E+00 0. -1.
         11    1    1    2    0    0 -0.60145142583E+02  0.79544261390E+02  0.25523776852E+02  0.10293780103E+03  0.00000000000E+00 0.  1.
<mgrwt>
<rscale>  0 0.51432012E+03</rscale>
<asrwt>0</asrwt>
<pdfrwt beam="1">  1        2 0.21482137E+00 0.74602862E+03</pdfrwt>
<pdfrwt beam="2">  1       -2 0.28631935E-01 0.74602862E+03</pdfrwt>
<totfact> 0.16495423E+02</totfact>
</mgrwt>
</event>
<event>
 6    1  0.1045058E-005  0.1251115E+03  0.7546771E-02  0.1250013E+00
          1   -1    0    0  501    0  0.00000000000E+00  0.00000000000E+00  0.14371906720E+02  0.14371906720E+02  0.00000000000E+00 0. -1.
         -1   -1    0    0    0  501 -0.00000000000E+00 -0.00000000000E+00 -0.82247819743E+03  0.82247819743E+03  0.00000000000E+00 0.  1.
          5    1    1    2  502    0 -0.18903056190E+02 -0.52996973159E+02 -0.13557668352E+03  0.14686433131E+03  0.47000000000E+01 0.  1.
         -5    1    1    2    0  502  0.18465135088E+02  0.57682317677E+02 -0.31258646950E+03  0.31843461166E+03  0.47000000000E+01 0.  1.
        -11    1    1    2    0    0  0.38836933371E+02 -0.19134244576E+02 -0.25892077569E+03  0.26251551343E+03  0.00000000000E+00 0.  1.
         11    1    1    2    0    0 -0.38399012268E+02  0.14448900058E+02 -0.10102236201E+03  0.10903564775E+03  0.00000000000E+00 0. -1.
<mgrwt>
<rscale>  0 0.11590286E+03</rscale>
<asrwt>0</asrwt>
<pdfrwt beam="1">  1        1 0.22110630E-02 0.12511153E+03</pdfrwt>
<pdfrwt beam="2">  1       -1 0.12653508E+00 0.12511153E+03</pdfrwt>
<totfact> 0.29260893E+03</totfact>
</mgrwt>
</event>
<event>
 6    1  0.1045058E-005  0.1329603E+03  0.7546771E-02  0.1236052E+00
          2   -1    0    0  501    0  0.00000000000E+00  0.00000000000E+00  0.50480392805E+03  0.50480392805E+03  0.00000000000E+00 0. -1.
         -2   -1    0    0    0  501 -0.00000000000E+00 -0.00000000000E+00 -0.32679528548E+02  0.32679528548E+02  0.00000000000E+00 0.  1.
          5    1    1    2  502    0  0.23407136878E+00 -0.46369624348E+02  0.77336381371E+02  0.90295086993E+02  0.47000000000E+01 0. -1.
         -5    1    1    2    0  502  0.40320686764E+02  0.66498652259E+02  0.29319113213E+03  0.30336604703E+03  0.47000000000E+01 0. -1.
        -11    1    1    2    0    0 -0.15240156054E+02 -0.55919695253E+02  0.58143132052E+02  0.82096884706E+02  0.00000000000E+00 0.  1.
         11    1    1    2    0    0 -0.25314602079E+02  0.35790667342E+02  0.43453753948E+02  0.61725437863E+02  0.00000000000E+00 0. -1.
<mgrwt>
<rscale>  0 0.12437323E+03</rscale>
<asrwt>0</asrwt>
<pdfrwt beam="1">  1        2 0.77662137E-01 0.13296033E+03</pdfrwt>
<pdfrwt beam="2">  1       -2 0.50276201E-02 0.13296033E+03</pdfrwt>
<totfact> 0.11345133E+04</totfact>
</mgrwt>
</event>
<event>
 6    1  0.1045058E-005  0.1590240E+03  0.7546771E-02  0.1197857E+00
          1   -1    0    0  501    0  0.00000000000E+00  0.00000000000E+00  0.20272732047E+03  0.20272732047E+03  0.00000000000E+00 0. -1.
         -1   -1    0    0    0  501 -0.00000000000E+00 -0.00000000000E+00 -0.10539973998E+03  0.10539973998E+03  0.00000000000E+00 0.  1.
          5    1    1    2  502    0  0.16546228650E+02  0.58572859506E+02  0.27918515720E+02  0.67127424152E+02  0.47000000000E+01 0.  1.
         -5    1    1    2    0  502  0.81611672835E+02 -0.53185646514E+02  0.28436603821E+02  0.10158695081E+03  0.47000000000E+01 0.  1.
        -11    1    1    2    0    0 -0.23768006241E+01 -0.16807940519E+02  0.39443267802E+02  0.42940976009E+02  0.00000000000E+00 0. -1.
         11    1    1    2    0    0 -0.95781100861E+02  0.11420727528E+02  0.15291931471E+01  0.96471709486E+02  0.00000000000E+00 0.  1.
<mgrwt>
<rscale>  0 0.15214887E+03</rscale>
<asrwt>0</asrwt>
<pdfrwt beam="1">  1        1 0.31188819E-01 0.15902403E+03</pdfrwt>
<pdfrwt beam="2">  1       -1 0.16215345E-01 0.15902403E+03</pdfrwt>
<totfact> 0.39638237E+03</totfact>
</mgrwt>
</event>
<event>
 6    1  0.1045058E-005  0.1376896E+03  0.7546771E-02  0.1228412E+00
         -1   -1    0    0    0  501 -0.00000000000E+00  0.00000000000E+00  0.12255205311E+02  0.12255205311E+02  0.00000000000E+00 0.  1.
          1   -1    0    0  501    0  0.00000000000E+00 -0.00000000000E+00 -0.16614068505E+04  0.16614068505E+04  0.00000000000E+00 0. -1.
          5    1    1    2  502    0  0.25199520705E+02 -0.29924120784E+02 -0.12322557773E+04  0.12328855825E+04  0.47000000000E+01 0. -1.
         -5    1    1    2    0  502 -0.21941017478E+02 -0.27723141793E+02 -0.94683509242E+02  0.10117824747E+03  0.47000000000E+01 0. -1.
        -11    1    1    2    0    0  0.29090899076E+01 -0.23175700665E+02 -0.10953172336E+03  0.11199452812E+03  0.00000000000E+00 0. -1.
         11    1    1    2    0    0 -0.61675931345E+01  0.80822963242E+02 -0.21268063528E+03  0.22760369772E+03  0.00000000000E+00 0.  1.
<mgrwt>
<rscale>  0 0.12935766E+03</rscale>
<asrwt>0</asrwt>
<pdfrwt beam="2">  1        1 0.25560113E+00 0.13768962E+03</pdfrwt>
<pdfrwt beam="1">  1       -1 0.18854156E-02 0.13768962E+03</pdfrwt>
<totfact> 0.41397636E+03</totfact>
</mgrwt>
</event>
<event>
 6    1  0.1045058E-005  0.1421220E+03  0.7546771E-02  0.1220613E+00
          1   -1    0    0  501    0  0.00000000000E+00  0.00000000000E+00  0.23471776609E+03  0.23471776609E+03  0.00000000000E+00 0. -1.
         -1   -1    0    0    0  501 -0.00000000000E+00 -0.00000000000E+00 -0.83143437903E+02  0.83143437903E+02  0.00000000000E+00 0.  1.
          5    1    1    2  502    0 -0.78031879031E+02 -0.20026317859E+02  0.15723045982E+03  0.17673011924E+03  0.47000000000E+01 0.  1.
         -5    1    1    2    0  502  0.18760647482E+02 -0.12545881514E+02 -0.12407061794E+02  0.26179881957E+02  0.47000000000E+01 0.  1.
        -11    1    1    2    0    0  0.46831646887E+02  0.14282121664E+02  0.47734462070E+02  0.68379536548E+02  0.00000000000E+00 0. -1.
         11    1    1    2    0    0  0.12439584662E+02  0.18290077709E+02 -0.40983531910E+02  0.46571666246E+02  0.00000000000E+00 0.  1.
<mgrwt>
<rscale>  0 0.13472144E+03</rscale>
<asrwt>0</asrwt>
<pdfrwt beam="1">  1        1 0.36110425E-01 0.14212196E+03</pdfrwt>
<pdfrwt beam="2">  1       -1 0.12791298E-01 0.14212196E+03</pdfrwt>
<totfact> 0.47611592E+03</totfact>
</mgrwt>
</event>
<event>
 6    1  0.1045058E-005  0.1271675E+03  0.7546771E-02  0.1249416E+00
          1   -1    0    0  501    0  0.00000000000E+00  0.00000000000E+00  0.11962563962E+03  0.11962563962E+03  0.00000000000E+00 0. -1.
         -1   -1    0    0    0  501 -0.00000000000E+00 -0.00000000000E+00 -0.97962503512E+02  0.97962503512E+02  0.00000000000E+00 0.  1.
          5    1    1    2  502    0  0.12569311032E+02  0.71144131880E+02  0.19069512265E+02  0.74867959628E+02  0.47000000000E+01 0. -1.
         -5    1    1    2    0  502 -0.20401615899E+01 -0.50281746557E+02 -0.13853881084E+02  0.52406453011E+02  0.47000000000E+01 0. -1.
        -11    1    1    2    0    0 -0.26204026648E+02 -0.45564480163E+02 -0.67278569124E+01  0.52990913596E+02  0.00000000000E+00 0.  1.
         11    1    1    2    0    0  0.15674877206E+02  0.24702094839E+02  0.23175361841E+02  0.37322816900E+02  0.00000000000E+00 0. -1.
<mgrwt>
<rscale>  0 0.11624908E+03</rscale>
<asrwt>0</asrwt>
<pdfrwt beam="1">  1        1 0.18403945E-01 0.12716750E+03</pdfrwt>
<pdfrwt beam="2">  1       -1 0.15071154E-01 0.12716750E+03</pdfrwt>
<totfact> 0.85222145E+03</totfact>
</mgrwt>
</event>
<event>
 6    1  0.1045058E-005  0.1294880E+03  0.7546771E-02  0.1241793E+00
         -2   -1    0    0    0  501 -0.00000000000E+00  0.00000000000E+00  0.11384048975E+03  0.11384048975E+03  0.00000000000E+00 0.  1.
          2   -1    0    0  501    0  0.00000000000E+00 -0.00000000000E+00 -0.11830095576E+03  0.11830095576E+03  0.00000000000E+00 0. -1.
          5    1    1    2  502    0  0.56217203798E+02 -0.16630241238E+02 -0.42365489344E+02  0.72483540297E+02  0.47000000000E+01 0. -1.
         -5    1    1    2    0  502 -0.36039394241E+02  0.43772442920E+02  0.17178922031E+02  0.59431221245E+02  0.47000000000E+01 0. -1.
        -11    1    1    2    0    0 -0.53966706378E+02 -0.22910290545E+01  0.21851706208E+02  0.58267926646E+02  0.00000000000E+00 0.  1.
         11    1    1    2    0    0  0.33788896821E+02 -0.24851172628E+02 -0.11256049065E+01  0.41958757319E+02  0.00000000000E+00 0. -1.
<mgrwt>
<rscale>  0 0.12079401E+03</rscale>
<asrwt>0</asrwt>
<pdfrwt beam="2">  1        2 0.18200147E-01 0.12948800E+03</pdfrwt>
<pdfrwt beam="1">  1       -2 0.17513921E-01 0.12948800E+03</pdfrwt>
<totfact> 0.76998791E+03</totfact>
</mgrwt>
</event>
<event>
 6    1  0.1045058E-005  0.1290308E+03  0.7546771E-02  0.1245720E+00
         -2   -1    0    0    0  501 -0.00000000000E+00  0.00000000000E+00  0.13940329966E+03  0.13940329966E+03  0.00000000000E+00 0. -1.
          2   -1    0    0  501    0  0.00000000000E+00 -0.00000000000E+00 -0.14971800567E+03  0.14971800567E+03  0.00000000000E+00 0.  1.
          5    1    1    2  502    0 -0.18316917075E+02 -0.54635361670E+01  0.25528773955E+02  0.32236128462E+02  0.47000000000E+01 0. -1.
         -5    1    1    2    0  502  0.31201163187E+02 -0.23842493754E+02 -0.12377745538E+03  0.12994200842E+03  0.47000000000E+01 0. -1.
        -11    1    1    2    0    0 -0.45317025736E+02  0.20413382900E+02  0.76872666890E+02  0.91540952244E+02  0.00000000000E+00 0. -1.
         11    1    1    2    0    0  0.32432779624E+02  0.88926470214E+01  0.11061308531E+02  0.35402216196E+02  0.00000000000E+00 0.  1.
<mgrwt>
<rscale>  0 0.11842398E+03</rscale>
<asrwt>0</asrwt>
<pdfrwt beam="2">  1        2 0.23033539E-01 0.12903079E+03</pdfrwt>
<pdfrwt beam="1">  1       -2 0.21446662E-01 0.12903079E+03</pdfrwt>
<totfact> 0.41985008E+03</totfact>
</mgrwt>
</event>
<event>
 6    1  0.1045058E-005  0.1384537E+03  0.7546771E-02  0.1227198E+00
         -4   -1    0    0    0  501 -0.00000000000E+00  0.00000000000E+00  0.18691700632E+03  0.18691700632E+03  0.00000000000E+00 0. -1.
          4   -1    0    0  501    0  0.00000000000E+00 -0.00000000000E+00 -0.82827546264E+02  0.82827546264E+02  0.00000000000E+00 0.  1.
          5    1    1    2  502    0 -0.41786788055E+02 -0.79165977955E+01  0.36876502395E+02  0.56486941902E+02  0.47000000000E+01 0.  1.
         -5    1    1    2    0  502  0.60297924071E+02  0.63505722504E+02  0.36400703159E+01  0.87773324820E+02  0.47000000000E+01 0.  1.
        -11    1    1    2    0    0  0.18115067837E+02 -0.61052687796E+02  0.16867235396E+02  0.65879359436E+02  0.00000000000E+00 0.  1.
         11    1    1    2    0    0 -0.36626203853E+02  0.54635630872E+01  0.46705651953E+02  0.59604926429E+02  0.00000000000E+00 0. -1.
<mgrwt>
<rscale>  0 0.13017391E+03</rscale>
<asrwt>0</asrwt>
<pdfrwt beam="2">  1        4 0.12742699E-01 0.13845372E+03</pdfrwt>
<pdfrwt beam="1">  1       -4 0.28756462E-01 0.13845372E+03</pdfrwt>
<totfact> 0.95717407E+02</totfact>
</mgrwt>
</event>
<event>
 6    1  0.1045058E-005  0.2692159E+03  0.7546771E-02  0.1103830E+00
          2   -1    0    0  501    0  0.00000000000E+00  0.00000000000E+00  0.75746069432E+03  0.75746069432E+03  0.00000000000E+00 0. -1.
         -2   -1    0    0    0  501 -0.00000000000E+00 -0.00000000000E+00 -0.90950553546E+02  0.90950553546E+02  0.00000000000E+00 0.  1.
          5    1    1    2  502    0 -0.90695629454E+02  0.22990772211E+03  0.27111831503E+03  0.36689302069E+03  0.47000000000E+01 0.  1.
         -5    1    1    2    0  502 -0.76315005176E+01 -0.12684141350E+02  0.48884035897E+02  0.51291970205E+02  0.47000000000E+01 0.  1.
        -11    1    1    2    0    0  0.19120456713E+02 -0.27858421708E+01  0.62491485624E+01  0.20307748257E+02  0.00000000000E+00 0. -1.
         11    1    1    2    0    0  0.79206673258E+02 -0.21443773858E+03  0.34025864128E+03  0.40991850871E+03  0.00000000000E+00 0.  1.
<mgrwt>
<rscale>  0 0.26559029E+03</rscale>
<asrwt>0</asrwt>
<pdfrwt beam="1">  1        2 0.11653241E+00 0.26921587E+03</pdfrwt>
<pdfrwt beam="2">  1       -2 0.13992393E-01 0.26921587E+03</pdfrwt>
<totfact> 0.14613044E+03</totfact>
</mgrwt>
</event>
<event>
 6    1  0.1045058E-005  0.3162682E+03  0.7546771E-02  0.1077380E+00
          2   -1    0    0  501    0  0.00000000000E+00  0.00000000000E+00  0.28080635482E+03  0.28080635482E+03  0.00000000000E+00 0. -1.
         -2   -1    0    0    0  501 -0.00000000000E+00 -0.00000000000E+00 -0.89052103193E+02  0.89052103193E+02  0.00000000000E+00 0.  1.
          5    1    1    2  502    0  0.20100517228E+02  0.97031624265E+01 -0.27039853429E+02  0.35375497557E+02  0.47000000000E+01 0. -1.
         -5    1    1    2    0  502  0.82302202210E+02  0.40979001417E+02  0.14228678154E+03  0.16947138179E+03  0.47000000000E+01 0. -1.
        -11    1    1    2    0    0 -0.63129772095E+02 -0.59235062642E+02  0.97875716239E+01  0.87120361164E+02  0.00000000000E+00 0.  1.
         11    1    1    2    0    0 -0.39272947344E+02  0.85528987986E+01  0.66719751896E+02  0.77891217502E+02  0.00000000000E+00 0. -1.
<mgrwt>
<rscale>  0 0.31626822E+03</rscale>
<asrwt>0</asrwt>
<pdfrwt beam="1">  1        2 0.43200977E-01 0.31626822E+03</pdfrwt>
<pdfrwt beam="2">  1       -2 0.13700324E-01 0.31626822E+03</pdfrwt>
<totfact> 0.46734802E+03</totfact>
</mgrwt>
</event>
<event>
 6    1  0.1045058E-005  0.4038491E+03  0.7546771E-02  0.1093945E+00
         -2   -1    0    0    0  501 -0.00000000000E+00  0.00000000000E+00  0.53441373073E+02  0.53441373073E+02  0.00000000000E+00 0.  1.
          2   -1    0    0  501    0  0.00000000000E+00 -0.00000000000E+00 -0.12518623108E+04  0.12518623108E+04  0.00000000000E+00 0. -1.
          5    1    1    2  502    0 -0.10220739373E+03 -0.13740178957E+03 -0.90787237697E+03  0.92389390406E+03  0.47000000000E+01 0. -1.
         -5    1    1    2    0  502  0.67009464164E+02  0.13295040683E+03 -0.16408053185E+03  0.22160909254E+03  0.47000000000E+01 0.  1.
        -11    1    1    2    0    0  0.30161833909E+02 -0.20572716154E+02 -0.64214673367E+01  0.37070313156E+02  0.00000000000E+00 0.  1.
         11    1    1    2    0    0  0.50360956587E+01  0.25024098893E+02 -0.12004656158E+03  0.12273037413E+03  0.00000000000E+00 0. -1.
<mgrwt>
<rscale>  0 0.28321731E+03</rscale>
<asrwt>0</asrwt>
<pdfrwt beam="2">  1        2 0.19259417E+00 0.40384908E+03</pdfrwt>
<pdfrwt beam="1">  1       -2 0.82217511E-02 0.40384908E+03</pdfrwt>
<totfact> 0.16868890E+03</totfact>
</mgrwt>
</event>
<event>
 6    1  0.1045058E-005  0.3054020E+03  0.7546771E-02  0.1084098E+00
          1   -1    0    0  501    0  0.00000000000E+00  0.00000000000E+00  0.67244231415E+03  0.67244231415E+03  0.00000000000E+00 0. -1.
         -1   -1    0    0    0  501 -0.00000000000E+00 -0.00000000000E+00 -0.14181813384E+03  0.14181813384E+03  0.00000000000E+00 0.  1.
          5    1    1    2  502    0  0.26463361517E+02 -0.12289965646E+03  0.24970799473E+03  0.27960831120E+03  0.47000000000E+01 0. -1.
         -5    1    1    2    0  502 -0.37855573829E+02 -0.15551463530E+03  0.12101432446E+03  0.20070974811E+03  0.47000000000E+01 0. -1.
        -11    1    1    2    0    0 -0.36281769772E+02  0.92640133276E+02  0.36997479785E+02  0.10614789033E+03  0.00000000000E+00 0. -1.
         11    1    1    2    0    0  0.47673982085E+02  0.18577415848E+03  0.12290438134E+03  0.22779449835E+03  0.00000000000E+00 0.  1.
<mgrwt>
<rscale>  0 0.30229711E+03</rscale>
<asrwt>0</asrwt>
<pdfrwt beam="1">  1        1 0.10345266E+00 0.30540203E+03</pdfrwt>
<pdfrwt beam="2">  1       -1 0.21818175E-01 0.30540203E+03</pdfrwt>
<totfact> 0.52393793E+02</totfact>
</mgrwt>
</event>
<event>
 6    1  0.1045058E-005  0.1281858E+03  0.7546771E-02  0.1244765E+00
          2   -1    0    0  501    0  0.00000000000E+00  0.00000000000E+00  0.48833111512E+03  0.48833111512E+03  0.00000000000E+00 0. -1.
         -2   -1    0    0    0  501 -0.00000000000E+00 -0.00000000000E+00 -0.28434624643E+02  0.28434624643E+02  0.00000000000E+00 0.  1.
          5    1    1    2  502    0 -0.54860125184E+02  0.51714849609E+02  0.19645332924E+03  0.21047579332E+03  0.47000000000E+01 0. -1.
         -5    1    1    2    0  502  0.27300887290E+02 -0.44706689539E+02  0.14557895887E+03  0.15478808030E+03  0.47000000000E+01 0. -1.
        -11    1    1    2    0    0 -0.97991064452E+01  0.14764912597E+02 -0.72347941627E+01  0.19140725631E+02  0.00000000000E+00 0.  1.
         11    1    1    2    0    0  0.37358344339E+02 -0.21773072666E+02  0.12509899653E+03  0.13236114052E+03  0.00000000000E+00 0. -1.
<mgrwt>
<rscale>  0 0.11899430E+03</rscale>
<asrwt>0</asrwt>
<pdfrwt beam="1">  1        2 0.75127858E-01 0.12818585E+03</pdfrwt>
<pdfrwt beam="2">  1       -2 0.43745580E-02 0.12818585E+03</pdfrwt>
<totfact> 0.14445287E+04</totfact>
</mgrwt>
</event>
<event>
 6    1  0.1045058E-005  0.1358020E+03  0.7546771E-02  0.1231758E+00
         -1   -1    0    0    0  501 -0.00000000000E+00  0.00000000000E+00  0.77587195706E+02  0.77587195706E+02  0.00000000000E+00 0.  1.
          1   -1    0    0  501    0  0.00000000000E+00 -0.00000000000E+00 -0.18786695349E+03  0.18786695349E+03  0.00000000000E+00 0. -1.
          5    1    1    2  502    0  0.66782616030E+01 -0.42996536313E+02 -0.76195002971E+02  0.87869618132E+02  0.47000000000E+01 0. -1.
         -5    1    1    2    0  502 -0.47916316885E+02  0.95830331975E+01  0.27657565704E+02  0.56345708708E+02  0.47000000000E+01 0. -1.
        -11    1    1    2    0    0  0.55488798699E+02 -0.96151829684E+01 -0.47654966171E+02  0.73772991842E+02  0.00000000000E+00 0. -1.
         11    1    1    2    0    0 -0.14250743417E+02  0.43028686084E+02 -0.14087354348E+02  0.47465830516E+02  0.00000000000E+00 0.  1.
<mgrwt>
<rscale>  0 0.12714281E+03</rscale>
<asrwt>0</asrwt>
<pdfrwt beam="2">  1        1 0.28902608E-01 0.13580198E+03</pdfrwt>
<pdfrwt beam="1">  1       -1 0.11936492E-01 0.13580198E+03</pdfrwt>
<totfact> 0.69667707E+03</totfact>
</mgrwt>
</event>
<event>
 6    1  0.1045058E-005  0.4301599E+03  0.7546771E-02  0.1033809E+00
         -2   -1    0    0    0  501 -0.00000000000E+00  0.00000000000E+00  0.12123676454E+03  0.12123676454E+03  0.00000000000E+00 0.  1.
          2   -1    0    0  501    0  0.00000000000E+00 -0.00000000000E+00 -0.38156227581E+03  0.38156227581E+03  0.00000000000E+00 0. -1.
          5    1    1    2  502    0  0.27426046812E+02 -0.29859401616E+00 -0.18837228479E+02  0.33603695911E+02  0.47000000000E+01 0.  1.
         -5    1    1    2    0  502 -0.83973301059E+02  0.17608243280E+03 -0.12259626312E+03  0.23045275473E+03  0.47000000000E+01 0.  1.
        -11    1    1    2    0    0 -0.20334330771E+02 -0.37211981509E+02 -0.31832242146E+01  0.42524692734E+02  0.00000000000E+00 0.  1.
         11    1    1    2    0    0  0.76881585019E+02 -0.13857185728E+03 -0.11570879547E+03  0.19621789697E+03  0.00000000000E+00 0. -1.
<mgrwt>
<rscale>  0 0.43015986E+03</rscale>
<asrwt>0</asrwt>
<pdfrwt beam="2">  1        2 0.58701888E-01 0.43015986E+03</pdfrwt>
<pdfrwt beam="1">  1       -2 0.18651810E-01 0.43015986E+03</pdfrwt>
<totfact> 0.20058812E+03</totfact>
</mgrwt>
</event>
<event>
 6    1  0.1045058E-005  0.1473593E+03  0.7546771E-02  0.1213741E+00
          2   -1    0    0  501    0  0.00000000000E+00  0.00000000000E+00  0.72325018544E+03  0.72325018544E+03  0.00000000000E+00 0. -1.
         -2   -1    0    0    0  501 -0.00000000000E+00 -0.00000000000E+00 -0.25770147421E+02  0.25770147421E+02  0.00000000000E+00 0.  1.
          5    1    1    2  502    0 -0.41303660218E+01 -0.94849732375E+02  0.25006479624E+03  0.26752200653E+03  0.47000000000E+01 0.  1.
         -5    1    1    2    0  502 -0.37965524582E+02  0.29129545046E+02  0.21585457445E+03  0.22114519837E+03  0.47000000000E+01 0.  1.
        -11    1    1    2    0    0  0.96195689147E+01 -0.43109673961E+01 -0.48900003778E+01  0.11620354973E+02  0.00000000000E+00 0.  1.
         11    1    1    2    0    0  0.32476321689E+02  0.70031154726E+02  0.23645066770E+03  0.24873277299E+03  0.00000000000E+00 0. -1.
<mgrwt>
<rscale>  0 0.13969448E+03</rscale>
<asrwt>0</asrwt>
<pdfrwt beam="1">  1        2 0.11126924E+00 0.14735935E+03</pdfrwt>
<pdfrwt beam="2">  1       -2 0.39646386E-02 0.14735935E+03</pdfrwt>
<totfact> 0.10795493E+04</totfact>
</mgrwt>
</event>
<event>
 6    1  0.1045058E-005  0.1289714E+03  0.7546771E-02  0.1238480E+00
          1   -1    0    0  501    0  0.00000000000E+00  0.00000000000E+00  0.76172747178E+02  0.76172747178E+02  0.00000000000E+00 0.  1.
         -1   -1    0    0    0  501 -0.00000000000E+00 -0.00000000000E+00 -0.18161781790E+03  0.18161781790E+03  0.00000000000E+00 0. -1.
          5    1    1    2  502    0  0.38258946511E+02  0.29045256863E+02 -0.58259420417E+02  0.75654636353E+02  0.47000000000E+01 0.  1.
         -5    1    1    2    0  502 -0.30450637213E+02 -0.59835151623E+02 -0.36362892217E+01  0.67400291362E+02  0.47000000000E+01 0.  1.
        -11    1    1    2    0    0 -0.11886969718E+02 -0.20881974996E+02  0.21027569998E+02  0.31929854820E+02  0.00000000000E+00 0.  1.
         11    1    1    2    0    0  0.40786604201E+01  0.51671869756E+02 -0.64576931085E+02  0.82805782547E+02  0.00000000000E+00 0. -1.
<mgrwt>
<rscale>  0 0.12284279E+03</rscale>
<asrwt>0</asrwt>
<pdfrwt beam="1">  1        1 0.11718884E-01 0.12897144E+03</pdfrwt>
<pdfrwt beam="2">  1       -1 0.27941203E-01 0.12897144E+03</pdfrwt>
<totfact> 0.56652495E+03</totfact>
</mgrwt>
</event>
<event>
 6    1  0.1045058E-005  0.1418443E+03  0.7546771E-02  0.1225112E+00
         -1   -1    0    0    0  501 -0.00000000000E+00  0.00000000000E+00  0.19471688774E+02  0.19471688774E+02  0.00000000000E+00 0.  1.
          1   -1    0    0  501    0  0.00000000000E+00 -0.00000000000E+00 -0.80468714278E+03  0.80468714278E+03  0.00000000000E+00 0. -1.
          5    1    1    2  502    0 -0.62123816838E+02 -0.93169013377E+01 -0.13296603564E+03  0.14713337453E+03  0.47000000000E+01 0.  1.
         -5    1    1    2    0  502  0.33887220335E+02 -0.51489408649E+02 -0.38377685321E+03  0.38872389426E+03  0.47000000000E+01 0.  1.
        -11    1    1    2    0    0 -0.38294465533E+01  0.55642051863E+02 -0.82947513389E+02  0.99954952723E+02  0.00000000000E+00 0. -1.
         11    1    1    2    0    0  0.32066043057E+02  0.51642581229E+01 -0.18552505177E+03  0.18834661004E+03  0.00000000000E+00 0.  1.
<mgrwt>
<rscale>  0 0.13159256E+03</rscale>
<asrwt>0</asrwt>
<pdfrwt beam="2">  1        1 0.12379803E+00 0.14184428E+03</pdfrwt>
<pdfrwt beam="1">  1       -1 0.29956443E-02 0.14184428E+03</pdfrwt>
<totfact> 0.83375103E+03</totfact>
</mgrwt>
</event>
<event>
 6    1  0.1045058E-005  0.1647891E+03  0.7546771E-02  0.1190636E+00
         -2   -1    0    0    0  501 -0.00000000000E+00  0.00000000000E+00  0.96881774739E+02  0.96881774739E+02  0.00000000000E+00 0.  1.
          2   -1    0    0  501    0  0.00000000000E+00 -0.00000000000E+00 -0.24114421631E+03  0.24114421631E+03  0.00000000000E+00 0. -1.
          5    1    1    2  502    0 -0.52841237449E+01 -0.96831041445E+02 -0.10186153099E+03  0.14071970028E+03  0.47000000000E+01 0. -1.
         -5    1    1    2    0  502  0.43954552392E+02 -0.33391146259E+01  0.13400137312E+02  0.46312050726E+02  0.47000000000E+01 0. -1.
        -11    1    1    2    0    0 -0.37642328833E+02 -0.20775445372E+01 -0.10347022991E+02  0.39093759042E+02  0.00000000000E+00 0. -1.
         11    1    1    2    0    0 -0.10280998144E+01  0.10224770061E+03 -0.45454024903E+02  0.11190048100E+03  0.00000000000E+00 0.  1.
<mgrwt>
<rscale>  0 0.15829410E+03</rscale>
<asrwt>0</asrwt>
<pdfrwt beam="2">  1        2 0.37099110E-01 0.16478913E+03</pdfrwt>
<pdfrwt beam="1">  1       -2 0.14904889E-01 0.16478913E+03</pdfrwt>
<totfact> 0.46527526E+03</totfact>
</mgrwt>
</event>
<event>
 6    1  0.1045058E-005  0.1301832E+03  0.7546771E-02  0.1248479E+00
         -2   -1    0    0    0  501 -0.00000000000E+00  0.00000000000E+00  0.33895581837E+02  0.33895581837E+02  0.00000000000E+00 0.  1.
          2   -1    0    0  501    0  0.00000000000E+00 -0.00000000000E+00 -0.36600052784E+03  0.36600052784E+03  0.00000000000E+00 0. -1.
          5    1    1    2  502    0  0.25124846660E+02 -0.23150398660E+02 -0.19892841162E+03  0.20189552206E+03  0.47000000000E+01 0.  1.
         -5    1    1    2    0  502 -0.60375685336E+02  0.13625698514E+02 -0.52749788784E+02  0.81458659801E+02  0.47000000000E+01 0.  1.
        -11    1    1    2    0    0  0.11875984346E+02  0.36060666392E+02 -0.12516361180E+02  0.39975867245E+02  0.00000000000E+00 0.  1.
         11    1    1    2    0    0  0.23374854330E+02 -0.26535966246E+02 -0.67910384416E+02  0.76566060570E+02  0.00000000000E+00 0. -1.
<mgrwt>
<rscale>  0 0.11679579E+03</rscale>
<asrwt>0</asrwt>
<pdfrwt beam="2">  1        2 0.56307775E-01 0.13018324E+03</pdfrwt>
<pdfrwt beam="1">  1       -2 0.52147048E-02 0.13018324E+03</pdfrwt>
<totfact> 0.15156158E+04</totfact>
</mgrwt>
</event>
<event>
 6    1  0.1045058E-005  0.1371114E+03  0.7546771E-02  0.1229627E+00
         -2   -1    0    0    0  501 -0.00000000000E+00  0.00000000000E+00  0.29659931383E+02  0.29659931383E+02  0.00000000000E+00 0.  1.
          2   -1    0    0  501    0  0.00000000000E+00 -0.00000000000E+00 -0.58992705750E+03  0.58992705750E+03  0.00000000000E+00 0. -1.
          5    1    1    2  502    0 -0.24720615996E+02  0.30173958485E+02 -0.86643004829E+02  0.95135045654E+02  0.47000000000E+01 0. -1.
         -5    1    1    2    0  502  0.70447725844E+02 -0.63092650380E+02 -0.34532084340E+03  0.35806722762E+03  0.47000000000E+01 0. -1.
        -11    1    1    2    0    0 -0.19206163530E+02 -0.29917283695E+02 -0.60756095646E+02  0.70393350107E+02  0.00000000000E+00 0. -1.
         11    1    1    2    0    0 -0.26520946319E+02  0.62835975590E+02 -0.67547182240E+02  0.95991365500E+02  0.00000000000E+00 0.  1.
<mgrwt>
<rscale>  0 0.12854780E+03</rscale>
<asrwt>0</asrwt>
<pdfrwt beam="2">  1        2 0.90758003E-01 0.13711139E+03</pdfrwt>
<pdfrwt beam="1">  1       -2 0.45630667E-02 0.13711139E+03</pdfrwt>
<totfact> 0.11049564E+04</totfact>
</mgrwt>
</event>
<event>
 6    1  0.1045058E-005  0.3298635E+03  0.7546771E-02  0.1071197E+00
          2   -1    0    0  501    0  0.00000000000E+00  0.00000000000E+00  0.55419365918E+03  0.55419365918E+03  0.00000000000E+00 0. -1.
         -2   -1    0    0    0  501 -0.00000000000E+00 -0.00000000000E+00 -0.49084782773E+02  0.49084782773E+02  0.00000000000E+00 0.  1.
          5    1    1    2  502    0  0.14329954713E+02 -0.42089636695E+02  0.39406112165E+02  0.59597120695E+02  0.47000000000E+01 0. -1.
         -5    1    1    2    0  502  0.48840192272E+02  0.45596723450E+02  0.29626652816E+03  0.30374392385E+03  0.47000000000E+01 0.  1.
        -11    1    1    2    0    0  0.30811194978E+02  0.29328121318E+02 -0.10079629261E+01  0.42549787605E+02  0.00000000000E+00 0.  1.
         11    1    1    2    0    0 -0.93981341963E+02 -0.32835208073E+02  0.17044419902E+03  0.19738760980E+03  0.00000000000E+00 0. -1.
<mgrwt>
<rscale>  0 0.32986346E+03</rscale>
<asrwt>0</asrwt>
<pdfrwt beam="1">  1        2 0.85260559E-01 0.32986346E+03</pdfrwt>
<pdfrwt beam="2">  1       -2 0.75515054E-02 0.32986346E+03</pdfrwt>
<totfact> 0.57421928E+03</totfact>
</mgrwt>
</event>
<event>
 6    1  0.1045058E-005  0.1808503E+03  0.7546771E-02  0.1172527E+00
          1   -1    0    0  501    0  0.00000000000E+00  0.00000000000E+00  0.16355432052E+04  0.16355432052E+04  0.00000000000E+00 0. -1.
         -1   -1    0    0    0  501 -0.00000000000E+00 -0.00000000000E+00 -0.35173766910E+02  0.35173766910E+02  0.00000000000E+00 0.  1.
          5    1    1    2  502    0 -0.12975513150E+03  0.27399688705E+02  0.78148410392E+03  0.79267056951E+03  0.47000000000E+01 0. -1.
         -5    1    1    2    0  502  0.73862509722E+01  0.18503975536E+02  0.63262409834E+03  0.63295520664E+03  0.47000000000E+01 0. -1.
        -11    1    1    2    0    0  0.11939381403E+03 -0.23535551129E+02  0.10491576744E+03  0.16067396570E+03  0.00000000000E+00 0.  1.
         11    1    1    2    0    0  0.29750664946E+01 -0.22368113113E+02  0.81345468630E+02  0.84417230300E+02  0.00000000000E+00 0. -1.
<mgrwt>
<rscale>  0 0.17520373E+03</rscale>
<asrwt>0</asrwt>
<pdfrwt beam="1">  1        1 0.25162197E+00 0.18085034E+03</pdfrwt>
<pdfrwt beam="2">  1       -1 0.54113500E-02 0.18085034E+03</pdfrwt>
<totfact> 0.91785711E+02</totfact>
</mgrwt>
</event>
<event>
 6    1  0.1045058E-005  0.1250026E+03  0.7546771E-02  0.1251128E+00
         -2   -1    0    0    0  501 -0.00000000000E+00  0.00000000000E+00  0.36365520959E+02  0.36365520959E+02  0.00000000000E+00 0.  1.
          2   -1    0    0  501    0  0.00000000000E+00 -0.00000000000E+00 -0.31884695495E+03  0.31884695495E+03  0.00000000000E+00 0. -1.
          5    1    1    2  502    0  0.17098843097E+02 -0.26902466766E+02  0.66070211640E+01  0.32891577675E+02  0.47000000000E+01 0.  1.
         -5    1    1    2    0  502 -0.16285374918E+02  0.26539052813E+02 -0.16969254990E+03  0.17258964701E+03  0.47000000000E+01 0.  1.
        -11    1    1    2    0    0 -0.21615469635E+02  0.94581667344E+01 -0.12428735050E+03  0.12650703909E+03  0.00000000000E+00 0. -1.
         11    1    1    2    0    0  0.20802001457E+02 -0.90947527819E+01  0.48914452483E+01  0.23224212137E+02  0.00000000000E+00 0.  1.
<mgrwt>
<rscale>  0 0.11525971E+03</rscale>
<asrwt>0</asrwt>
<pdfrwt beam="2">  1        2 0.49053375E-01 0.12500258E+03</pdfrwt>
<pdfrwt beam="1">  1       -2 0.55946959E-02 0.12500258E+03</pdfrwt>
<totfact> 0.15723226E+04</totfact>
</mgrwt>
</event>
<event>
 6    1  0.1045058E-005  0.2565166E+03  0.7546771E-02  0.1109254E+00
         -2   -1    0    0    0  501 -0.00000000000E+00  0.00000000000E+00  0.68404790809E+02  0.68404790809E+02  0.00000000000E+00 0. -1.
          2   -1    0    0  501    0  0.00000000000E+00 -0.00000000000E+00 -0.24048296188E+03  0.24048296188E+03  0.00000000000E+00 0.  1.
          5    1    1    2  502    0 -0.68861327431E+02 -0.43382079769E+01 -0.16879673073E+03  0.18241471643E+03  0.47000000000E+01 0. -1.
         -5    1    1    2    0  502  0.78469861927E+01  0.88037075677E+00  0.19568381840E+02  0.21618552514E+02  0.47000000000E+01 0. -1.
        -11    1    1    2    0    0 -0.80057547556E+01 -0.25565076186E+02 -0.11384015035E+02  0.29107748589E+02  0.00000000000E+00 0.  1.
         11    1    1    2    0    0  0.69020095994E+02  0.29022913406E+02 -0.11465807146E+02  0.75746735158E+02  0.00000000000E+00 0. -1.
<mgrwt>
<rscale>  0 0.25651656E+03</rscale>
<asrwt>0</asrwt>
<pdfrwt beam="2">  1        2 0.36997379E-01 0.25651656E+03</pdfrwt>
<pdfrwt beam="1">  1       -2 0.10523814E-01 0.25651656E+03</pdfrwt>
<totfact> 0.84034559E+03</totfact>
</mgrwt>
</event>
<event>
 6    1  0.1045058E-005  0.1561109E+03  0.7546771E-02  0.1201253E+00
          1   -1    0    0  501    0  0.00000000000E+00  0.00000000000E+00  0.75623065979E+03  0.75623065979E+03  0.00000000000E+00 0. -1.
         -1   -1    0    0    0  501 -0.00000000000E+00 -0.00000000000E+00 -0.28243994419E+02  0.28243994419E+02  0.00000000000E+00 0.  1.
          5    1    1    2  502    0  0.24168556302E+02  0.44619995959E+02  0.36216243766E+03  0.36573048055E+03  0.47000000000E+01 0. -1.
         -5    1    1    2    0  502  0.67142128436E+02 -0.24399926872E+02  0.10716401760E+03  0.12887838652E+03  0.47000000000E+01 0. -1.
        -11    1    1    2    0    0 -0.22166597354E+02  0.17400242003E+01  0.10767154442E+01  0.22260840923E+02  0.00000000000E+00 0.  1.
         11    1    1    2    0    0 -0.69144087383E+02 -0.21960093287E+02  0.25758349466E+03  0.26760494622E+03  0.00000000000E+00 0. -1.
<mgrwt>
<rscale>  0 0.14936663E+03</rscale>
<asrwt>0</asrwt>
<pdfrwt beam="1">  1        1 0.11634316E+00 0.15611089E+03</pdfrwt>
<pdfrwt beam="2">  1       -1 0.43452305E-02 0.15611089E+03</pdfrwt>
<totfact> 0.53270684E+03</totfact>
</mgrwt>
</event>
<event>
 6    1  0.1045058E-005  0.1623124E+03  0.7546771E-02  0.1193187E+00
          2   -1    0    0  501    0  0.00000000000E+00  0.00000000000E+00  0.15771990778E+04  0.15771990778E+04  0.00000000000E+00 0. -1.
         -2   -1    0    0    0  501 -0.00000000000E+00 -0.00000000000E+00 -0.25682283196E+02  0.25682283196E+02  0.00000000000E+00 0.  1.
          5    1    1    2  502    0  0.68009063835E+01 -0.36063310483E+02  0.10552499826E+04  0.10558983997E+04  0.47000000000E+01 0.  1.
         -5    1    1    2    0  502  0.56066366085E+02 -0.46206556918E+02  0.28533492518E+03  0.29447681205E+03  0.47000000000E+01 0.  1.
        -11    1    1    2    0    0 -0.28127070450E+02  0.96947055123E+02  0.15864199175E+03  0.18803495722E+03  0.00000000000E+00 0. -1.
         11    1    1    2    0    0 -0.34740202019E+02 -0.14677187722E+02  0.52289895054E+02  0.64471192020E+02  0.00000000000E+00 0.  1.
<mgrwt>
<rscale>  0 0.15608667E+03</rscale>
<asrwt>0</asrwt>
<pdfrwt beam="1">  1        2 0.24264594E+00 0.16231241E+03</pdfrwt>
<pdfrwt beam="2">  1       -2 0.39511217E-02 0.16231241E+03</pdfrwt>
<totfact> 0.34600609E+03</totfact>
</mgrwt>
</event>
<event>
 6    1  0.1045058E-005  0.1517424E+03  0.7546771E-02  0.1206882E+00
          2   -1    0    0  501    0  0.00000000000E+00  0.00000000000E+00  0.37726589015E+03  0.37726589015E+03  0.00000000000E+00 0. -1.
         -2   -1    0    0    0  501 -0.00000000000E+00 -0.00000000000E+00 -0.53763165120E+02  0.53763165120E+02  0.00000000000E+00 0.  1.
          5    1    1    2  502    0  0.40817078295E+02  0.61234591706E+02  0.80772034417E+02  0.10937056572E+03  0.47000000000E+01 0. -1.
         -5    1    1    2    0  502  0.45149727655E+02 -0.58540584109E+02  0.14217913641E+03  0.16031997606E+03  0.47000000000E+01 0. -1.
        -11    1    1    2    0    0  0.15580345587E+02 -0.16964087132E+02  0.12669386992E+02  0.26287654661E+02  0.00000000000E+00 0.  1.
         11    1    1    2    0    0 -0.10154715154E+03  0.14270079535E+02  0.87882167211E+02  0.13505085882E+03  0.00000000000E+00 0. -1.
<mgrwt>
<rscale>  0 0.14490102E+03</rscale>
<asrwt>0</asrwt>
<pdfrwt beam="1">  1        2 0.58040905E-01 0.15174243E+03</pdfrwt>
<pdfrwt beam="2">  1       -2 0.82712564E-02 0.15174243E+03</pdfrwt>
<totfact> 0.73385257E+03</totfact>
</mgrwt>
</event>
<event>
 6    1  0.1045058E-005  0.1461917E+03  0.7546771E-02  0.1214730E+00
         -2   -1    0    0    0  501 -0.00000000000E+00  0.00000000000E+00  0.19171331616E+02  0.19171331616E+02  0.00000000000E+00 0.  1.
          2   -1    0    0  501    0  0.00000000000E+00 -0.00000000000E+00 -0.12209872457E+04  0.12209872457E+04  0.00000000000E+00 0. -1.
          5    1    1    2  502    0  0.38137183575E+02  0.10196683579E+03 -0.71464024024E+03  0.72290002306E+03  0.47000000000E+01 0.  1.
         -5    1    1    2    0  502  0.79120800151E+00 -0.36912246561E+02 -0.23892166920E+03  0.24180321332E+03  0.47000000000E+01 0.  1.
        -11    1    1    2    0    0 -0.62262592710E+01 -0.59802084649E+02 -0.22980956271E+03  0.23754471315E+03  0.00000000000E+00 0. -1.
         11    1    1    2    0    0 -0.32702132306E+02 -0.52525045846E+01 -0.18444441951E+02  0.37910627806E+02  0.00000000000E+00 0.  1.
<mgrwt>
<rscale>  0 0.13896395E+03</rscale>
<asrwt>0</asrwt>
<pdfrwt beam="2">  1        2 0.18784418E+00 0.14619172E+03</pdfrwt>
<pdfrwt beam="1">  1       -2 0.29494358E-02 0.14619172E+03</pdfrwt>
<totfact> 0.82395717E+03</totfact>
</mgrwt>
</event>
<event>
 6    1  0.1045058E-005  0.1771870E+03  0.7546771E-02  0.1176468E+00
          3   -1    0    0  501    0  0.00000000000E+00  0.00000000000E+00  0.39174909904E+02  0.39174909904E+02  0.00000000000E+00 0. -1.
         -3   -1    0    0    0  501 -0.00000000000E+00 -0.00000000000E+00 -0.71230190130E+03  0.71230190130E+03  0.00000000000E+00 0.  1.
          5    1    1    2  502    0  0.35819425900E+02  0.39854694346E+01 -0.10381341993E+03  0.10999196060E+03  0.47000000000E+01 0.  1.
         -5    1    1    2    0  502 -0.71085769419E+02  0.11654343209E+03 -0.21400756099E+03  0.25388360392E+03  0.47000000000E+01 0.  1.
        -11    1    1    2    0    0  0.43153805633E+02 -0.13015896859E+03 -0.34561952350E+03  0.37182853988E+03  0.00000000000E+00 0. -1.
         11    1    1    2    0    0 -0.78874621140E+01  0.96300670634E+01 -0.96864869746E+01  0.15772706811E+02  0.00000000000E+00 0.  1.
<mgrwt>
<rscale>  0 0.17132988E+03</rscale>
<asrwt>0</asrwt>
<pdfrwt beam="1">  1        3 0.60269093E-02 0.17718705E+03</pdfrwt>
<pdfrwt beam="2">  1       -3 0.10958491E+00 0.17718705E+03</pdfrwt>
<totfact> 0.29811828E+02</totfact>
</mgrwt>
</event>
<event>
 6    1  0.1045058E-005  0.1336039E+03  0.7546771E-02  0.1234103E+00
          2   -1    0    0  501    0  0.00000000000E+00  0.00000000000E+00  0.59596435258E+03  0.59596435258E+03  0.00000000000E+00 0. -1.
         -2   -1    0    0    0  501 -0.00000000000E+00 -0.00000000000E+00 -0.32258741543E+02  0.32258741543E+02  0.00000000000E+00 0.  1.
          5    1    1    2  502    0 -0.20760891283E+02 -0.96246552392E+01  0.61136515667E+01  0.24147781075E+02  0.47000000000E+01 0.  1.
         -5    1    1    2    0  502 -0.19408524596E+02 -0.15107805016E+02  0.46147116319E+03  0.46215004171E+03  0.47000000000E+01 0.  1.
        -11    1    1    2    0    0  0.59235007311E+02  0.39752309622E+02  0.42426732909E+02  0.83000360703E+02  0.00000000000E+00 0.  1.
         11    1    1    2    0    0 -0.19065591432E+02 -0.15019849366E+02  0.53694063371E+02  0.58924910632E+02  0.00000000000E+00 0. -1.
<mgrwt>
<rscale>  0 0.12562052E+03</rscale>
<asrwt>0</asrwt>
<pdfrwt beam="1">  1        2 0.91686815E-01 0.13360394E+03</pdfrwt>
<pdfrwt beam="2">  1       -2 0.49628838E-02 0.13360394E+03</pdfrwt>
<totfact> 0.96150409E+03</totfact>
</mgrwt>
</event>
<event>
 6    1  0.1045058E-005  0.1415459E+03  0.7546771E-02  0.1221755E+00
         -2   -1    0    0    0  501 -0.00000000000E+00  0.00000000000E+00  0.17935130946E+03  0.17935130946E+03  0.00000000000E+00 0.  1.
          2   -1    0    0  501    0  0.00000000000E+00 -0.00000000000E+00 -0.96432994719E+02  0.96432994719E+02  0.00000000000E+00 0. -1.
          5    1    1    2  502    0  0.68527532164E+02  0.50521627102E+02  0.19779413577E+02  0.87531552432E+02  0.47000000000E+01 0.  1.
         -5    1    1    2    0  502 -0.51976612302E+02  0.13792807170E+02 -0.77082738162E+01  0.54528132567E+02  0.47000000000E+01 0.  1.
        -11    1    1    2    0    0 -0.54484179212E+02 -0.39785759196E+02  0.50002847064E+02  0.83974502878E+02  0.00000000000E+00 0.  1.
         11    1    1    2    0    0  0.37933259350E+02 -0.24528675077E+02  0.20844327919E+02  0.49750116305E+02  0.00000000000E+00 0. -1.
<mgrwt>
<rscale>  0 0.13391849E+03</rscale>
<asrwt>0</asrwt>
<pdfrwt beam="2">  1        2 0.14835845E-01 0.14154590E+03</pdfrwt>
<pdfrwt beam="1">  1       -2 0.27592509E-01 0.14154590E+03</pdfrwt>
<totfact> 0.45010740E+03</totfact>
</mgrwt>
</event>
<event>
 6    1  0.1045058E-005  0.1273006E+03  0.7546771E-02  0.1246102E+00
          2   -1    0    0  501    0  0.00000000000E+00  0.00000000000E+00  0.56804077342E+03  0.56804077342E+03  0.00000000000E+00 0. -1.
         -2   -1    0    0    0  501 -0.00000000000E+00 -0.00000000000E+00 -0.21722695400E+02  0.21722695400E+02  0.00000000000E+00 0.  1.
          5    1    1    2  502    0 -0.15136774331E+02 -0.14084253113E+02  0.40958116134E+00  0.21207212915E+02  0.47000000000E+01 0.  1.
         -5    1    1    2    0  502  0.32203883524E+02  0.31101616047E+02  0.32692529327E+03  0.33001005744E+03  0.47000000000E+01 0.  1.
        -11    1    1    2    0    0  0.63948606114E+00 -0.52108471329E+02  0.93384596202E+02  0.10694103298E+03  0.00000000000E+00 0.  1.
         11    1    1    2    0    0 -0.17706595254E+02  0.35091108395E+02  0.12559860739E+03  0.13160516548E+03  0.00000000000E+00 0. -1.
<mgrwt>
<rscale>  0 0.11819653E+03</rscale>
<asrwt>0</asrwt>
<pdfrwt beam="1">  1        2 0.87390877E-01 0.12730063E+03</pdfrwt>
<pdfrwt beam="2">  1       -2 0.33419536E-02 0.12730063E+03</pdfrwt>
<totfact> 0.18199990E+04</totfact>
</mgrwt>
</event>
<event>
 6    1  0.1045058E-005  0.1684019E+03  0.7546771E-02  0.1187426E+00
         -1   -1    0    0    0  501 -0.00000000000E+00  0.00000000000E+00  0.10805478687E+03  0.10805478687E+03  0.00000000000E+00 0.  1.
          1   -1    0    0  501    0  0.00000000000E+00 -0.00000000000E+00 -0.22431271953E+03  0.22431271953E+03  0.00000000000E+00 0. -1.
          5    1    1    2  502    0  0.47948154906E+02 -0.35025108893E+02 -0.79330456331E+02  0.99202797912E+02  0.47000000000E+01 0. -1.
         -5    1    1    2    0  502  0.63885272442E+02  0.19781508547E+02  0.34031074827E+02  0.75185372043E+02  0.47000000000E+01 0. -1.
        -11    1    1    2    0    0 -0.10463653037E+03  0.80394925027E+01 -0.21040669568E+02  0.10703339060E+03  0.00000000000E+00 0.  1.
         11    1    1    2    0    0 -0.71968969752E+01  0.72041078436E+01 -0.49917881590E+02  0.50945945848E+02  0.00000000000E+00 0. -1.
<mgrwt>
<rscale>  0 0.16113053E+03</rscale>
<asrwt>0</asrwt>
<pdfrwt beam="2">  1        1 0.34509649E-01 0.16840190E+03</pdfrwt>
<pdfrwt beam="1">  1       -1 0.16623813E-01 0.16840190E+03</pdfrwt>
<totfact> 0.33678053E+03</totfact>
</mgrwt>
</event>
<event>
 6    1  0.1045058E-005  0.1359660E+03  0.7546771E-02  0.1228825E+00
         -3   -1    0    0    0  501 -0.00000000000E+00  0.00000000000E+00  0.64192579565E+02  0.64192579565E+02  0.00000000000E+00 0.  1.
          3   -1    0    0  501    0  0.00000000000E+00 -0.00000000000E+00 -0.23840066249E+03  0.23840066249E+03  0.00000000000E+00 0. -1.
          5    1    1    2  502    0 -0.38056370455E+02 -0.68359027163E+02 -0.11581755538E+03  0.13984648748E+03  0.47000000000E+01 0. -1.
         -5    1    1    2    0  502 -0.27426713271E+01  0.33762851850E+02  0.62593554035E+01  0.34766678604E+02  0.47000000000E+01 0. -1.
        -11    1    1    2    0    0  0.42856192295E+02  0.46837375796E+02 -0.13761604053E+01  0.63500289817E+02  0.00000000000E+00 0.  1.
         11    1    1    2    0    0 -0.20571505122E+01 -0.12241200483E+02 -0.63273722544E+02  0.64479786151E+02  0.00000000000E+00 0. -1.
<mgrwt>
<rscale>  0 0.12908168E+03</rscale>
<asrwt>0</asrwt>
<pdfrwt beam="2">  1        3 0.36677024E-01 0.13596602E+03</pdfrwt>
<pdfrwt beam="1">  1       -3 0.98757816E-02 0.13596602E+03</pdfrwt>
<totfact> 0.12735492E+03</totfact>
</mgrwt>
</event>
<event>
 6    1  0.1045058E-005  0.1392266E+03  0.7546771E-02  0.1227694E+00
          2   -1    0    0  501    0  0.00000000000E+00  0.00000000000E+00  0.15972557352E+03  0.15972557352E+03  0.00000000000E+00 0. -1.
         -2   -1    0    0    0  501 -0.00000000000E+00 -0.00000000000E+00 -0.98832717341E+02  0.98832717341E+02  0.00000000000E+00 0.  1.
          5    1    1    2  502    0  0.66518718313E+01 -0.85563317043E+02  0.36709428005E+02  0.93461225793E+02  0.47000000000E+01 0.  1.
         -5    1    1    2    0  502 -0.40327445447E+02  0.34346041952E+02  0.27230604820E+02  0.59745705226E+02  0.47000000000E+01 0.  1.
        -11    1    1    2    0    0  0.52236351178E+02  0.35623250598E+02 -0.29240904828E+02  0.69661200698E+02  0.00000000000E+00 0.  1.
         11    1    1    2    0    0 -0.18560777562E+02  0.15594024493E+02  0.26193728181E+02  0.35690159142E+02  0.00000000000E+00 0. -1.
<mgrwt>
<rscale>  0 0.12983930E+03</rscale>
<asrwt>0</asrwt>
<pdfrwt beam="1">  1        2 0.24573165E-01 0.13922656E+03</pdfrwt>
<pdfrwt beam="2">  1       -2 0.15205033E-01 0.13922656E+03</pdfrwt>
<totfact> 0.69752058E+03</totfact>
</mgrwt>
</event>
<event>
 6    1  0.1045058E-005  0.3236457E+03  0.7546771E-02  0.1073984E+00
         -1   -1    0    0    0  501 -0.00000000000E+00  0.00000000000E+00  0.11982803366E+03  0.11982803366E+03  0.00000000000E+00 0.  1.
          1   -1    0    0  501    0  0.00000000000E+00 -0.00000000000E+00 -0.21853508698E+03  0.21853508698E+03  0.00000000000E+00 0. -1.
          5    1    1    2  502    0 -0.12284739642E+02 -0.25777418752E+02  0.16381327031E+02  0.33253992555E+02  0.47000000000E+01 0. -1.
         -5    1    1    2    0  502  0.11443418104E+03 -0.23745145330E+02 -0.10627179872E+03  0.15803417011E+03  0.47000000000E+01 0. -1.
        -11    1    1    2    0    0 -0.60880520706E+02 -0.20450719572E+02  0.59815589805E+01  0.64501540914E+02  0.00000000000E+00 0. -1.
         11    1    1    2    0    0 -0.41268920693E+02  0.69973283654E+02 -0.14798140608E+02  0.82573417066E+02  0.00000000000E+00 0.  1.
<mgrwt>
<rscale>  0 0.32364567E+03</rscale>
<asrwt>0</asrwt>
<pdfrwt beam="2">  1        1 0.33620782E-01 0.32364567E+03</pdfrwt>
<pdfrwt beam="1">  1       -1 0.18435082E-01 0.32364567E+03</pdfrwt>
<totfact> 0.30209664E+03</totfact>
</mgrwt>
</event>
<event>
 6    1  0.1045058E-005  0.1304949E+03  0.7546771E-02  0.1233560E+00
          1   -1    0    0  501    0  0.00000000000E+00  0.00000000000E+00  0.28418856056E+03  0.28418856056E+03  0.00000000000E+00 0. -1.
         -1   -1    0    0    0  501 -0.00000000000E+00 -0.00000000000E+00 -0.60145137586E+02  0.60145137586E+02  0.00000000000E+00 0.  1.
          5    1    1    2  502    0 -0.67836483285E+02 -0.28454218059E+02  0.91151858335E+02  0.11722705433E+03  0.47000000000E+01 0. -1.
         -5    1    1    2    0  502  0.34113018714E+02  0.44257133646E+02  0.89803046071E+02  0.10587289081E+03  0.47000000000E+01 0. -1.
        -11    1    1    2    0    0 -0.28559276378E+02 -0.37370046532E+02  0.13118489831E+02  0.48828756082E+02  0.00000000000E+00 0.  1.
         11    1    1    2    0    0  0.62282740949E+02  0.21567130945E+02  0.29970028742E+02  0.72404996928E+02  0.00000000000E+00 0. -1.
<mgrwt>
<rscale>  0 0.12597081E+03</rscale>
<asrwt>0</asrwt>
<pdfrwt beam="1">  1        1 0.43721316E-01 0.13049486E+03</pdfrwt>
<pdfrwt beam="2">  1       -1 0.92530983E-02 0.13049486E+03</pdfrwt>
<totfact> 0.61451085E+03</totfact>
</mgrwt>
</event>
<event>
 6    1  0.1045058E-005  0.3139752E+03  0.7546771E-02  0.1078456E+00
          1   -1    0    0  501    0  0.00000000000E+00  0.00000000000E+00  0.49921256445E+03  0.49921256445E+03  0.00000000000E+00 0. -1.
         -1   -1    0    0    0  501 -0.00000000000E+00 -0.00000000000E+00 -0.49367971990E+02  0.49367971990E+02  0.00000000000E+00 0.  1.
          5    1    1    2  502    0  0.24343242404E+02 -0.10657192414E+02  0.17877286433E+03  0.18079821963E+03  0.47000000000E+01 0.  1.
         -5    1    1    2    0  502  0.31046748827E+02  0.10233294693E+03  0.12382904913E+03  0.16368156906E+03  0.47000000000E+01 0.  1.
        -11    1    1    2    0    0 -0.50279686363E+02 -0.81606472979E+00  0.49836676088E+02  0.70798355248E+02  0.00000000000E+00 0. -1.
         11    1    1    2    0    0 -0.51103048684E+01 -0.90859689789E+02  0.97406002914E+02  0.13330239251E+03  0.00000000000E+00 0.  1.
<mgrwt>
<rscale>  0 0.31397523E+03</rscale>
<asrwt>0</asrwt>
<pdfrwt beam="1">  1        1 0.76801930E-01 0.31397523E+03</pdfrwt>
<pdfrwt beam="2">  1       -1 0.75950730E-02 0.31397523E+03</pdfrwt>
<totfact> 0.42211733E+03</totfact>
</mgrwt>
</event>
<event>
 6    1  0.1194656E-005  0.1294218E+03  0.7546771E-02  0.1241572E+00
          3   -1    0    0  501    0  0.00000000000E+00  0.00000000000E+00  0.11567218502E+03  0.11567218502E+03  0.00000000000E+00 0. -1.
         -3   -1    0    0    0  501 -0.00000000000E+00 -0.00000000000E+00 -0.11317879191E+03  0.11317879191E+03  0.00000000000E+00 0.  1.
          5    1    1    2  502    0 -0.60800390933E+02 -0.12949842895E+02 -0.99132905449E+01  0.63124870677E+02  0.47000000000E+01 0. -1.
         -5    1    1    2    0  502  0.59869158919E+02 -0.20581409552E+02  0.20584204713E+02  0.66736122846E+02  0.47000000000E+01 0. -1.
        -11    1    1    2    0    0 -0.16020629917E+02  0.32719779221E+02 -0.45323696464E+02  0.58150511574E+02  0.00000000000E+00 0.  1.
         11    1    1    2    0    0  0.16951861931E+02  0.81147322588E+00  0.37146175414E+02  0.40839471833E+02  0.00000000000E+00 0. -1.
<mgrwt>
<rscale>  0 0.12092935E+03</rscale>
<asrwt>0</asrwt>
<pdfrwt beam="1">  1        3 0.17795721E-01 0.12942183E+03</pdfrwt>
<pdfrwt beam="2">  1       -3 0.17412122E-01 0.12942183E+03</pdfrwt>
<totfact> 0.17978204E+03</totfact>
</mgrwt>
</event>
<event>
 6    1  0.1045058E-005  0.2731819E+03  0.7546771E-02  0.1101435E+00
         -2   -1    0    0    0  501 -0.00000000000E+00  0.00000000000E+00  0.11376352101E+04  0.11376352101E+04  0.00000000000E+00 0.  1.
          2   -1    0    0  501    0  0.00000000000E+00 -0.00000000000E+00 -0.67343657322E+02  0.67343657322E+02  0.00000000000E+00 0. -1.
          5    1    1    2  502    0 -0.11809325227E+03 -0.55538041254E+02  0.14590928099E+03  0.19581138510E+03  0.47000000000E+01 0.  1.
         -5    1    1    2    0  502 -0.33465801088E+02 -0.13428623286E+03  0.23841853764E+03  0.27571405708E+03  0.47000000000E+01 0.  1.
        -11    1    1    2    0    0  0.94376478025E+02  0.10593789593E+03  0.26689336604E+03  0.30226118877E+03  0.00000000000E+00 0. -1.
         11    1    1    2    0    0  0.57182575333E+02  0.83886378183E+02  0.41907036810E+03  0.43119223646E+03  0.00000000000E+00 0.  1.
<mgrwt>
<rscale>  0 0.26972901E+03</rscale>
<asrwt>0</asrwt>
<pdfrwt beam="2">  1        2 0.10360564E-01 0.27318194E+03</pdfrwt>
<pdfrwt beam="1">  1       -2 0.17502079E+00 0.27318194E+03</pdfrwt>
<totfact> 0.12895061E+02</totfact>
</mgrwt>
</event>
<event>
 6    1  0.1045058E-005  0.2525323E+03  0.7546771E-02  0.1113835E+00
          1   -1    0    0  501    0  0.00000000000E+00  0.00000000000E+00  0.23257450363E+03  0.23257450363E+03  0.00000000000E+00 0. -1.
         -1   -1    0    0    0  501 -0.00000000000E+00 -0.00000000000E+00 -0.41491385966E+03  0.41491385966E+03  0.00000000000E+00 0.  1.
          5    1    1    2  502    0  0.13463948885E+02  0.11033611042E+02 -0.14645933131E+02  0.23229546907E+02  0.47000000000E+01 0. -1.
         -5    1    1    2    0  502  0.12905805594E+03 -0.17786459390E+03  0.11968794176E+03  0.25027802335E+03  0.47000000000E+01 0. -1.
        -11    1    1    2    0    0 -0.11984570727E+03  0.10898886602E+03 -0.14025027085E+03  0.21427016811E+03  0.00000000000E+00 0. -1.
         11    1    1    2    0    0 -0.22676297555E+02  0.57842116837E+02 -0.14713109381E+03  0.15971062493E+03  0.00000000000E+00 0.  1.
<mgrwt>
<rscale>  0 0.24916212E+03</rscale>
<asrwt>0</asrwt>
<pdfrwt beam="1">  1        1 0.35780694E-01 0.25253231E+03</pdfrwt>
<pdfrwt beam="2">  1       -1 0.63832900E-01 0.25253231E+03</pdfrwt>
<totfact> 0.31396518E+02</totfact>
</mgrwt>
</event>
<event>
 6    1  0.1045058E-005  0.2480213E+03  0.7546771E-02  0.1114562E+00
          2   -1    0    0  501    0  0.00000000000E+00  0.00000000000E+00  0.27630509776E+03  0.27630509776E+03  0.00000000000E+00 0. -1.
         -2   -1    0    0    0  501 -0.00000000000E+00 -0.00000000000E+00 -0.55658173529E+02  0.55658173529E+02  0.00000000000E+00 0.  1.
          5    1    1    2  502    0 -0.43917351460E+02  0.86625884049E+02  0.69928239333E+02  0.11976988855E+03  0.47000000000E+01 0.  1.
         -5    1    1    2    0  502  0.14796442095E+02 -0.33679990190E+02  0.59187962425E+02  0.69846841975E+02  0.47000000000E+01 0.  1.
        -11    1    1    2    0    0  0.35596948161E+02 -0.19049090073E+02  0.99106828039E+02  0.10701483035E+03  0.00000000000E+00 0. -1.
         11    1    1    2    0    0 -0.64760387967E+01 -0.33896803786E+02 -0.75761055657E+01  0.35331710417E+02  0.00000000000E+00 0.  1.
<mgrwt>
<rscale>  0 0.24802127E+03</rscale>
<asrwt>0</asrwt>
<pdfrwt beam="1">  1        2 0.42508476E-01 0.24802127E+03</pdfrwt>
<pdfrwt beam="2">  1       -2 0.85627961E-02 0.24802127E+03</pdfrwt>
<totfact> 0.10009140E+04</totfact>
</mgrwt>
</event>
<event>
 6    1  0.1045058E-005  0.1682416E+03  0.7546771E-02  0.1204797E+00
         -1   -1    0    0    0  501 -0.00000000000E+00  0.00000000000E+00  0.88061736791E+02  0.88061736791E+02  0.00000000000E+00 0.  1.
          1   -1    0    0  501    0  0.00000000000E+00 -0.00000000000E+00 -0.19960610379E+03  0.19960610379E+03  0.00000000000E+00 0. -1.
          5    1    1    2  502    0  0.16851548172E+02  0.60317992526E+02 -0.70052133583E+02  0.94083081995E+02  0.47000000000E+01 0. -1.
         -5    1    1    2    0  502 -0.37872025985E+02 -0.81340418434E+02 -0.45672625193E+01  0.89963903373E+02  0.47000000000E+01 0.  1.
        -11    1    1    2    0    0  0.40874303840E+02  0.27910829348E+02 -0.56352195045E+02  0.75001953279E+02  0.00000000000E+00 0. -1.
         11    1    1    2    0    0 -0.19853826027E+02 -0.68884034404E+01  0.19427224148E+02  0.28618901935E+02  0.00000000000E+00 0.  1.
<mgrwt>
<rscale>  0 0.14653443E+03</rscale>
<asrwt>0</asrwt>
<pdfrwt beam="2">  1        1 0.30708631E-01 0.16824161E+03</pdfrwt>
<pdfrwt beam="1">  1       -1 0.13547960E-01 0.16824161E+03</pdfrwt>
<totfact> 0.53779671E+03</totfact>
</mgrwt>
</event>
<event>
 6    1  0.1045058E-005  0.1790027E+03  0.7546771E-02  0.1175253E+00
          2   -1    0    0  501    0  0.00000000000E+00  0.00000000000E+00  0.51619682764E+03  0.51619682764E+03  0.00000000000E+00 0.  1.
         -2   -1    0    0    0  501 -0.00000000000E+00 -0.00000000000E+00 -0.66900851928E+02  0.66900851928E+02  0.00000000000E+00 0. -1.
          5    1    1    2  502    0  0.23855207721E+02  0.63620903825E+02  0.15675518097E+03  0.17091216195E+03  0.47000000000E+01 0. -1.
         -5    1    1    2    0  502  0.10226155510E+03 -0.40991767855E+02  0.20975579552E+03  0.23697538783E+03  0.47000000000E+01 0. -1.
        -11    1    1    2    0    0 -0.86976366743E+02  0.83830362726E+01  0.89194555243E+02  0.12486325462E+03  0.00000000000E+00 0. -1.
         11    1    1    2    0    0 -0.39140396074E+02 -0.31012172243E+02 -0.64095560189E+01  0.50346875180E+02  0.00000000000E+00 0.  1.
<mgrwt>
<rscale>  0 0.17251221E+03</rscale>
<asrwt>0</asrwt>
<pdfrwt beam="1">  1        2 0.79414894E-01 0.17900267E+03</pdfrwt>
<pdfrwt beam="2">  1       -2 0.10292439E-01 0.17900267E+03</pdfrwt>
<totfact> 0.37330840E+03</totfact>
</mgrwt>
</event>
<event>
 6    1  0.1045058E-005  0.1202744E+03  0.7546771E-02  0.1252379E+00
          1   -1    0    0  501    0  0.00000000000E+00  0.00000000000E+00  0.99147828229E+03  0.99147828229E+03  0.00000000000E+00 0. -1.
         -1   -1    0    0    0  501 -0.00000000000E+00 -0.00000000000E+00 -0.31642838572E+02  0.31642838572E+02  0.00000000000E+00 0.  1.
          5    1    1    2  502    0  0.20844420203E+02  0.67156280501E+02  0.60061179859E+03  0.60473223701E+03  0.47000000000E+01 0. -1.
         -5    1    1    2    0  502 -0.10183491168E+01 -0.48093075525E+02  0.29831177084E+03  0.30220189207E+03  0.47000000000E+01 0.  1.
        -11    1    1    2    0    0  0.32900064660E+02 -0.10622328100E+02 -0.79833536880E+00  0.34581576718E+02  0.00000000000E+00 0.  1.
         11    1    1    2    0    0 -0.52726135747E+02 -0.84408768771E+01  0.61710209654E+02  0.81605415070E+02  0.00000000000E+00 0. -1.
<mgrwt>
<rscale>  0 0.11454419E+03</rscale>
<asrwt>0</asrwt>
<pdfrwt beam="1">  1        1 0.15253510E+00 0.12027440E+03</pdfrwt>
<pdfrwt beam="2">  1       -1 0.48681298E-02 0.12027440E+03</pdfrwt>
<totfact> 0.29192264E+03</totfact>
</mgrwt>
</event>
<event>
 6    1  0.1045058E-005  0.1298252E+03  0.7546771E-02  0.1241638E+00
          4   -1    0    0  501    0  0.00000000000E+00  0.00000000000E+00  0.13608233096E+03  0.13608233096E+03  0.00000000000E+00 0. -1.
         -4   -1    0    0    0  501 -0.00000000000E+00 -0.00000000000E+00 -0.10080603591E+03  0.10080603591E+03  0.00000000000E+00 0.  1.
          5    1    1    2  502    0  0.48723380310E+02  0.65754667565E+02  0.38085166355E+02  0.90389236039E+02  0.47000000000E+01 0. -1.
         -5    1    1    2    0  502 -0.27305827824E+02 -0.37969116961E+02  0.10006250502E+02  0.48057019519E+02  0.47000000000E+01 0. -1.
        -11    1    1    2    0    0  0.12557078079E+02 -0.53558169376E+00 -0.43425898279E+02  0.45208137531E+02  0.00000000000E+00 0.  1.
         11    1    1    2    0    0 -0.33974630565E+02 -0.27249968911E+02  0.30610776478E+02  0.53233973779E+02  0.00000000000E+00 0. -1.
<mgrwt>
<rscale>  0 0.12088895E+03</rscale>
<asrwt>0</asrwt>
<pdfrwt beam="1">  1        4 0.20935743E-01 0.12982520E+03</pdfrwt>
<pdfrwt beam="2">  1       -4 0.15508621E-01 0.12982520E+03</pdfrwt>
<totfact> 0.12050656E+03</totfact>
</mgrwt>
</event>
<event>
 6    1  0.1045058E-005  0.1205092E+03  0.7546771E-02  0.1252954E+00
         -2   -1    0    0    0  501 -0.00000000000E+00  0.00000000000E+00  0.96582649407E+02  0.96582649407E+02  0.00000000000E+00 0.  1.
          2   -1    0    0  501    0  0.00000000000E+00 -0.00000000000E+00 -0.19968102216E+03  0.19968102216E+03  0.00000000000E+00 0. -1.
          5    1    1    2  502    0  0.21373766522E+02  0.54449612800E+02 -0.64705404741E+02  0.87352605182E+02  0.47000000000E+01 0. -1.
         -5    1    1    2    0  502  0.16417619131E+02 -0.59092334818E+02 -0.81859763277E+02  0.10239410674E+03  0.47000000000E+01 0.  1.
        -11    1    1    2    0    0 -0.62279298279E+02 -0.15176331380E+02  0.19720877829E+02  0.67066720888E+02  0.00000000000E+00 0.  1.
         11    1    1    2    0    0  0.24487912626E+02  0.19819053398E+02  0.23745917439E+02  0.39450238750E+02  0.00000000000E+00 0. -1.
<mgrwt>
<rscale>  0 0.11421718E+03</rscale>
<asrwt>0</asrwt>
<pdfrwt beam="2">  1        2 0.30720157E-01 0.12050920E+03</pdfrwt>
<pdfrwt beam="1">  1       -2 0.14858869E-01 0.12050920E+03</pdfrwt>
<totfact> 0.56210552E+03</totfact>
</mgrwt>
</event>
<event>
 6    1  0.1045058E-005  0.1199589E+03  0.7546771E-02  0.1255124E+00
         -2   -1    0    0    0  501 -0.00000000000E+00  0.00000000000E+00  0.17909664226E+02  0.17909664226E+02  0.00000000000E+00 0.  1.
          2   -1    0    0  501    0  0.00000000000E+00 -0.00000000000E+00 -0.12527571887E+04  0.12527571887E+04  0.00000000000E+00 0. -1.
          5    1    1    2  502    0 -0.11467670430E+01 -0.36739837306E+02 -0.10676117642E+04  0.10682546980E+04  0.47000000000E+01 0. -1.
         -5    1    1    2    0  502 -0.12035989540E+02  0.14724451251E+02 -0.29601493397E+02  0.35496660690E+02  0.47000000000E+01 0.  1.
        -11    1    1    2    0    0 -0.29735363631E+02 -0.11034894724E+01 -0.11874124586E+02  0.32037546316E+02  0.00000000000E+00 0. -1.
         11    1    1    2    0    0  0.42918120214E+02  0.23118875527E+02 -0.12576014229E+03  0.13487794793E+03  0.00000000000E+00 0.  1.
<mgrwt>
<rscale>  0 0.11299395E+03</rscale>
<asrwt>0</asrwt>
<pdfrwt beam="2">  1        2 0.19273188E+00 0.11995886E+03</pdfrwt>
<pdfrwt beam="1">  1       -2 0.27553329E-02 0.11995886E+03</pdfrwt>
<totfact> 0.86692573E+03</totfact>
</mgrwt>
</event>
<event>
 6    1  0.1045058E-005  0.3904816E+03  0.7546771E-02  0.1047126E+00
          2   -1    0    0  501    0  0.00000000000E+00  0.00000000000E+00  0.13052297616E+04  0.13052297616E+04  0.00000000000E+00 0. -1.
         -2   -1    0    0    0  501 -0.00000000000E+00 -0.00000000000E+00 -0.29204794105E+02  0.29204794105E+02  0.00000000000E+00 0.  1.
          5    1    1    2  502    0  0.32767973667E+02 -0.80148785892E+02  0.10582500137E+04  0.10617969436E+04  0.47000000000E+01 0.  1.
         -5    1    1    2    0  502 -0.44513900232E+01 -0.23163542028E+02  0.28248126285E+02  0.37100016052E+02  0.47000000000E+01 0.  1.
        -11    1    1    2    0    0 -0.36308209130E+01  0.46684463664E+02  0.16067190877E+03  0.16735615996E+03  0.00000000000E+00 0. -1.
         11    1    1    2    0    0 -0.24685762731E+02  0.56627864256E+02  0.28854918759E+02  0.68181436098E+02  0.00000000000E+00 0.  1.
<mgrwt>
<rscale>  0 0.39048158E+03</rscale>
<asrwt>0</asrwt>
<pdfrwt beam="1">  1        2 0.20080453E+00 0.39048158E+03</pdfrwt>
<pdfrwt beam="2">  1       -2 0.44930463E-02 0.39048158E+03</pdfrwt>
<totfact> 0.40283849E+03</totfact>
</mgrwt>
</event>
<event>
 6    1  0.1045058E-005  0.3304610E+03  0.7546771E-02  0.1070933E+00
         -2   -1    0    0    0  501 -0.00000000000E+00  0.00000000000E+00  0.47095075284E+02  0.47095075284E+02  0.00000000000E+00 0.  1.
          2   -1    0    0  501    0  0.00000000000E+00 -0.00000000000E+00 -0.57970227407E+03  0.57970227407E+03  0.00000000000E+00 0. -1.
          5    1    1    2  502    0 -0.35762168114E+02 -0.10925768256E+03 -0.30533227513E+03  0.32629137608E+03  0.47000000000E+01 0.  1.
         -5    1    1    2    0  502 -0.41888664249E+02  0.20345420458E+02 -0.50224708945E+02  0.68652805586E+02  0.47000000000E+01 0.  1.
        -11    1    1    2    0    0  0.63859772904E+02  0.16220295728E+02 -0.12528516562E+03  0.14155402259E+03  0.00000000000E+00 0.  1.
         11    1    1    2    0    0  0.13791059458E+02  0.72691966377E+02 -0.51765049087E+02  0.90299145089E+02  0.00000000000E+00 0. -1.
<mgrwt>
<rscale>  0 0.33046102E+03</rscale>
<asrwt>0</asrwt>
<pdfrwt beam="2">  1        2 0.89184962E-01 0.33046102E+03</pdfrwt>
<pdfrwt beam="1">  1       -2 0.72453964E-02 0.33046102E+03</pdfrwt>
<totfact> 0.58156779E+03</totfact>
</mgrwt>
</event>
<event>
 6    1  0.1045058E-005  0.1424442E+03  0.7546771E-02  0.1222783E+00
          2   -1    0    0  501    0  0.00000000000E+00  0.00000000000E+00  0.80102480237E+03  0.80102480237E+03  0.00000000000E+00 0. -1.
         -2   -1    0    0    0  501 -0.00000000000E+00 -0.00000000000E+00 -0.21712477636E+02  0.21712477636E+02  0.00000000000E+00 0.  1.
          5    1    1    2  502    0  0.53235429798E+02  0.46062927024E+02  0.49106957107E+03  0.49611210212E+03  0.47000000000E+01 0. -1.
         -5    1    1    2    0  502 -0.38575841397E+02  0.20659939793E+02  0.69428042244E+02  0.82202625880E+02  0.47000000000E+01 0. -1.
        -11    1    1    2    0    0  0.28966307102E+02 -0.24345417327E+01  0.83168223896E+02  0.88101801381E+02  0.00000000000E+00 0. -1.
         11    1    1    2    0    0 -0.43625895504E+02 -0.64288325084E+02  0.13564648752E+03  0.15632075063E+03  0.00000000000E+00 0.  1.
<mgrwt>
<rscale>  0 0.13320043E+03</rscale>
<asrwt>0</asrwt>
<pdfrwt beam="1">  1        2 0.12323456E+00 0.14244420E+03</pdfrwt>
<pdfrwt beam="2">  1       -2 0.33403818E-02 0.14244420E+03</pdfrwt>
<totfact> 0.12255107E+04</totfact>
</mgrwt>
</event>
<event>
 6    1  0.1045058E-005  0.2092537E+03  0.7546771E-02  0.1146074E+00
         -2   -1    0    0    0  501 -0.00000000000E+00  0.00000000000E+00  0.23083466742E+02  0.23083466742E+02  0.00000000000E+00 0.  1.
          2   -1    0    0  501    0  0.00000000000E+00 -0.00000000000E+00 -0.22018647843E+04  0.22018647843E+04  0.00000000000E+00 0. -1.
          5    1    1    2  502    0 -0.10919714806E+03 -0.11512606501E+01 -0.58382634855E+03  0.59397023310E+03  0.47000000000E+01 0.  1.
         -5    1    1    2    0  502 -0.44803903855E+02  0.67826336152E+02 -0.10597107874E+04  0.10628343449E+04  0.47000000000E+01 0.  1.
        -11    1    1    2    0    0  0.13298975905E+03 -0.88392069810E+02 -0.46574688611E+03  0.49236124537E+03  0.00000000000E+00 0. -1.
         11    1    1    2    0    0  0.21011292859E+02  0.21716994308E+02 -0.69497295498E+02  0.75782427719E+02  0.00000000000E+00 0.  1.
<mgrwt>
<rscale>  0 0.20440639E+03</rscale>
<asrwt>0</asrwt>
<pdfrwt beam="2">  1        2 0.33874849E+00 0.20925366E+03</pdfrwt>
<pdfrwt beam="1">  1       -2 0.35513019E-02 0.20925366E+03</pdfrwt>
<totfact> 0.19198066E+03</totfact>
</mgrwt>
</event>
<event>
 6    1  0.1045058E-005  0.2089264E+03  0.7546771E-02  0.1146458E+00
         -1   -1    0    0    0  501 -0.00000000000E+00  0.00000000000E+00  0.25442345580E+02  0.25442345580E+02  0.00000000000E+00 0.  1.
          1   -1    0    0  501    0  0.00000000000E+00 -0.00000000000E+00 -0.18462729859E+04  0.18462729859E+04  0.00000000000E+00 0. -1.
          5    1    1    2  502    0 -0.11602939835E+03 -0.89036325828E+02 -0.10179441773E+04  0.10284078601E+04  0.47000000000E+01 0.  1.
         -5    1    1    2    0  502  0.27720616603E+02 -0.53180020700E+02 -0.29701756262E+03  0.30304796599E+03  0.47000000000E+01 0.  1.
        -11    1    1    2    0    0  0.15461085028E+02  0.10399417273E+03 -0.24168102402E+03  0.26355938701E+03  0.00000000000E+00 0. -1.
         11    1    1    2    0    0  0.72847696720E+02  0.38222173797E+02 -0.26418787642E+03  0.27670011842E+03  0.00000000000E+00 0.  1.
<mgrwt>
<rscale>  0 0.20393797E+03</rscale>
<asrwt>0</asrwt>
<pdfrwt beam="2">  1        1 0.28404201E+00 0.20892640E+03</pdfrwt>
<pdfrwt beam="1">  1       -1 0.39142069E-02 0.20892640E+03</pdfrwt>
<totfact> 0.10838115E+03</totfact>
</mgrwt>
</event>
<event>
 6    1  0.1045058E-005  0.1267595E+03  0.7546771E-02  0.1250384E+00
         -2   -1    0    0    0  501 -0.00000000000E+00  0.00000000000E+00  0.92453071921E+02  0.92453071921E+02  0.00000000000E+00 0.  1.
          2   -1    0    0  501    0  0.00000000000E+00 -0.00000000000E+00 -0.12528349035E+03  0.12528349035E+03  0.00000000000E+00 0. -1.
          5    1    1    2  502    0  0.77776901518E+00 -0.43557369589E+02  0.32835669633E+02  0.54755096296E+02  0.47000000000E+01 0. -1.
         -5    1    1    2    0  502 -0.19232935733E+02  0.53673478142E+02 -0.44618218064E+02  0.72550833600E+02  0.47000000000E+01 0. -1.
        -11    1    1    2    0    0 -0.33407787890E+02 -0.12162904347E+02 -0.13265022317E+02  0.37947033493E+02  0.00000000000E+00 0. -1.
         11    1    1    2    0    0  0.51862954608E+02  0.20467957936E+01 -0.77828476809E+01  0.52483598883E+02  0.00000000000E+00 0.  1.
<mgrwt>
<rscale>  0 0.11568864E+03</rscale>
<asrwt>0</asrwt>
<pdfrwt beam="2">  1        2 0.19274383E-01 0.12675950E+03</pdfrwt>
<pdfrwt beam="1">  1       -2 0.14223550E-01 0.12675950E+03</pdfrwt>
<totfact> 0.10132567E+04</totfact>
</mgrwt>
</event>
<event>
 6    1  0.1045058E-005  0.2005238E+03  0.7546771E-02  0.1153199E+00
         -1   -1    0    0    0  501 -0.00000000000E+00  0.00000000000E+00  0.54828787325E+02  0.54828787325E+02  0.00000000000E+00 0.  1.
          1   -1    0    0  501    0  0.00000000000E+00 -0.00000000000E+00 -0.68193852773E+03  0.68193852773E+03  0.00000000000E+00 0. -1.
          5    1    1    2  502    0 -0.78041629293E+01 -0.38455780961E+02 -0.14149506608E+03  0.14691050260E+03  0.47000000000E+01 0. -1.
         -5    1    1    2    0  502  0.14821531299E+03 -0.31343038813E+02 -0.23458662189E+03  0.27929041920E+03  0.47000000000E+01 0. -1.
        -11    1    1    2    0    0 -0.12198004497E+03  0.78923252325E+02 -0.15534127796E+03  0.21269443755E+03  0.00000000000E+00 0.  1.
         11    1    1    2    0    0 -0.18431105088E+02 -0.91244325502E+01 -0.95686774474E+02  0.97871955704E+02  0.00000000000E+00 0. -1.
<mgrwt>
<rscale>  0 0.19595298E+03</rscale>
<asrwt>0</asrwt>
<pdfrwt beam="2">  1        1 0.10491363E+00 0.20052379E+03</pdfrwt>
<pdfrwt beam="1">  1       -1 0.84351976E-02 0.20052379E+03</pdfrwt>
<totfact> 0.23071829E+03</totfact>
</mgrwt>
</event>
<event>
 6    1  0.1045058E-005  0.2038350E+03  0.7546771E-02  0.1150752E+00
         -1   -1    0    0    0  501 -0.00000000000E+00  0.00000000000E+00  0.29109224967E+02  0.29109224967E+02  0.00000000000E+00 0. -1.
          1   -1    0    0  501    0  0.00000000000E+00 -0.00000000000E+00 -0.12991559571E+04  0.12991559571E+04  0.00000000000E+00 0.  1.
          5    1    1    2  502    0  0.10346761368E+02  0.13720757209E+03 -0.41237588013E+03  0.43475157254E+03  0.47000000000E+01 0.  1.
         -5    1    1    2    0  502  0.65666092424E+02  0.47251358101E+01 -0.21572414617E+03  0.22559556698E+03  0.47000000000E+01 0.  1.
        -11    1    1    2    0    0 -0.91606321300E+02 -0.85696346891E+02 -0.46324979053E+03  0.47993327703E+03  0.00000000000E+00 0.  1.
         11    1    1    2    0    0  0.15593467507E+02 -0.56236361009E+02 -0.17869691533E+03  0.18798476555E+03  0.00000000000E+00 0. -1.
<mgrwt>
<rscale>  0 0.19880355E+03</rscale>
<asrwt>0</asrwt>
<pdfrwt beam="2">  1        1 0.19987018E+00 0.20383499E+03</pdfrwt>
<pdfrwt beam="1">  1       -1 0.44783416E-02 0.20383499E+03</pdfrwt>
<totfact> 0.20279243E+03</totfact>
</mgrwt>
</event>
<event>
 6    1  0.1045058E-005  0.1986497E+03  0.7546771E-02  0.1155965E+00
          1   -1    0    0  501    0  0.00000000000E+00  0.00000000000E+00  0.10925174468E+04  0.10925174468E+04  0.00000000000E+00 0. -1.
         -1   -1    0    0    0  501 -0.00000000000E+00 -0.00000000000E+00 -0.32894290669E+02  0.32894290669E+02  0.00000000000E+00 0.  1.
          5    1    1    2  502    0  0.33825052371E+02  0.13694861743E+03  0.42844770747E+03  0.45109709157E+03  0.47000000000E+01 0. -1.
         -5    1    1    2    0  502 -0.53963211116E+02  0.16107646943E+02  0.21620839698E+03  0.22347179994E+03  0.47000000000E+01 0. -1.
        -11    1    1    2    0    0  0.51541438313E+02 -0.10287623009E+03  0.24054810166E+03  0.26665226005E+03  0.00000000000E+00 0.  1.
         11    1    1    2    0    0 -0.31403279568E+02 -0.50180034289E+02  0.17441894998E+03  0.18419058587E+03  0.00000000000E+00 0. -1.
<mgrwt>
<rscale>  0 0.19279418E+03</rscale>
<asrwt>0</asrwt>
<pdfrwt beam="1">  1        1 0.16807958E+00 0.19864968E+03</pdfrwt>
<pdfrwt beam="2">  1       -1 0.50606609E-02 0.19864968E+03</pdfrwt>
<totfact> 0.23525691E+03</totfact>
</mgrwt>
</event>
<event>
 6    1  0.1045058E-005  0.2100641E+03  0.7546771E-02  0.1145371E+00
         -1   -1    0    0    0  501 -0.00000000000E+00  0.00000000000E+00  0.29345064540E+03  0.29345064540E+03  0.00000000000E+00 0.  1.
          1   -1    0    0  501    0  0.00000000000E+00 -0.00000000000E+00 -0.14589647189E+03  0.14589647189E+03  0.00000000000E+00 0. -1.
          5    1    1    2  502    0 -0.24406978504E+02  0.19268811714E+02  0.22200880208E+02  0.38496191845E+02  0.47000000000E+01 0. -1.
         -5    1    1    2    0  502  0.13413869188E+03  0.10902949840E+03  0.17885048111E+01  0.17293324993E+03  0.47000000000E+01 0. -1.
        -11    1    1    2    0    0 -0.11981814110E+03 -0.85505831717E+02  0.10083412229E+03  0.17842408585E+03  0.00000000000E+00 0. -1.
         11    1    1    2    0    0  0.10086427716E+02 -0.42792478396E+02  0.22730666201E+02  0.49493589659E+02  0.00000000000E+00 0.  1.
<mgrwt>
<rscale>  0 0.20526498E+03</rscale>
<asrwt>0</asrwt>
<pdfrwt beam="2">  1        1 0.22445611E-01 0.21006408E+03</pdfrwt>
<pdfrwt beam="1">  1       -1 0.45146253E-01 0.21006408E+03</pdfrwt>
<totfact> 0.10864147E+03</totfact>
</mgrwt>
</event>
<event>
 6    1  0.1045058E-005  0.2452348E+03  0.7546771E-02  0.1116354E+00
          1   -1    0    0  501    0  0.00000000000E+00  0.00000000000E+00  0.32031553354E+03  0.32031553354E+03  0.00000000000E+00 0. -1.
         -1   -1    0    0    0  501 -0.00000000000E+00 -0.00000000000E+00 -0.46938171985E+02  0.46938171985E+02  0.00000000000E+00 0.  1.
          5    1    1    2  502    0 -0.45504985669E+01  0.50083363875E+01  0.20046730683E+03  0.20063654098E+03  0.47000000000E+01 0.  1.
         -5    1    1    2    0  502 -0.21605842284E+02 -0.39788426533E+02  0.78749270000E+01  0.46195625139E+02  0.47000000000E+01 0.  1.
        -11    1    1    2    0    0 -0.86361141732E+01  0.53441065198E+02  0.14032808242E+02  0.55923605255E+02  0.00000000000E+00 0.  1.
         11    1    1    2    0    0  0.34792455024E+02 -0.18660975053E+02  0.51002319488E+02  0.64497934151E+02  0.00000000000E+00 0. -1.
<mgrwt>
<rscale>  0 0.24523479E+03</rscale>
<asrwt>0</asrwt>
<pdfrwt beam="1">  1        1 0.49279311E-01 0.24523479E+03</pdfrwt>
<pdfrwt beam="2">  1       -1 0.72212574E-02 0.24523479E+03</pdfrwt>
<totfact> 0.80107348E+03</totfact>
</mgrwt>
</event>
<event>
 6    1  0.1045058E-005  0.1303541E+03  0.7546771E-02  0.1239614E+00
         -1   -1    0    0    0  501 -0.00000000000E+00  0.00000000000E+00  0.59111229424E+02  0.59111229424E+02  0.00000000000E+00 0.  1.
          1   -1    0    0  501    0  0.00000000000E+00 -0.00000000000E+00 -0.25019984634E+03  0.25019984634E+03  0.00000000000E+00 0. -1.
          5    1    1    2  502    0 -0.97223506480E+01 -0.78213008101E+02 -0.10511332871E+03  0.13146368552E+03  0.47000000000E+01 0.  1.
         -5    1    1    2    0  502 -0.12652082980E+02  0.48784402395E+02 -0.49972179916E+02  0.71128769751E+02  0.47000000000E+01 0.  1.
        -11    1    1    2    0    0  0.16453627839E+02 -0.15248373213E+02 -0.53780434185E+02  0.58271518393E+02  0.00000000000E+00 0. -1.
         11    1    1    2    0    0  0.59208057891E+01  0.44676978919E+02  0.17777325890E+02  0.48447102104E+02  0.00000000000E+00 0.  1.
<mgrwt>
<rscale>  0 0.12213611E+03</rscale>
<asrwt>0</asrwt>
<pdfrwt beam="2">  1        1 0.38492285E-01 0.13035409E+03</pdfrwt>
<pdfrwt beam="1">  1       -1 0.90940351E-02 0.13035409E+03</pdfrwt>
<totfact> 0.73823748E+03</totfact>
</mgrwt>
</event>
<event>
 6    1  0.1045058E-005  0.2972454E+03  0.7546771E-02  0.1086626E+00
         -2   -1    0    0    0  501 -0.00000000000E+00  0.00000000000E+00  0.44097924811E+03  0.44097924811E+03  0.00000000000E+00 0.  1.
          2   -1    0    0  501    0  0.00000000000E+00 -0.00000000000E+00 -0.50090124123E+02  0.50090124123E+02  0.00000000000E+00 0. -1.
          5    1    1    2  502    0 -0.68173512876E+02 -0.68304739425E+02  0.18852315389E+03  0.21184011622E+03  0.47000000000E+01 0.  1.
         -5    1    1    2    0  502 -0.18570574465E+02  0.20282557086E+02 -0.80594044565E+01  0.29039496519E+02  0.47000000000E+01 0.  1.
        -11    1    1    2    0    0  0.17043871245E+02  0.58750512769E+02  0.69380399349E+02  0.92497330294E+02  0.00000000000E+00 0. -1.
         11    1    1    2    0    0  0.69700216096E+02 -0.10728330430E+02  0.14104497520E+03  0.15769242920E+03  0.00000000000E+00 0.  1.
<mgrwt>
<rscale>  0 0.29724539E+03</rscale>
<asrwt>0</asrwt>
<pdfrwt beam="2">  1        2 0.77061732E-02 0.29724539E+03</pdfrwt>
<pdfrwt beam="1">  1       -2 0.67842959E-01 0.29724539E+03</pdfrwt>
<totfact> 0.18216988E+03</totfact>
</mgrwt>
</event>
<event>
 6    1  0.1045058E-005  0.3362602E+03  0.7546771E-02  0.1068400E+00
         -2   -1    0    0    0  501 -0.00000000000E+00  0.00000000000E+00  0.23028406111E+03  0.23028406111E+03  0.00000000000E+00 0.  1.
          2   -1    0    0  501    0  0.00000000000E+00 -0.00000000000E+00 -0.12275158958E+03  0.12275158958E+03  0.00000000000E+00 0. -1.
          5    1    1    2  502    0 -0.30349430942E+02  0.85632041817E+02  0.61480625558E+02  0.10979932542E+03  0.47000000000E+01 0. -1.
         -5    1    1    2    0  502  0.52148494308E+00  0.30075708631E+02 -0.55416942990E+02  0.63229326792E+02  0.47000000000E+01 0. -1.
        -11    1    1    2    0    0  0.50964065127E+02 -0.31277896571E+02  0.27637693844E+02  0.65874766559E+02  0.00000000000E+00 0. -1.
         11    1    1    2    0    0 -0.21136119128E+02 -0.84429853877E+02  0.73831095114E+02  0.11413223192E+03  0.00000000000E+00 0.  1.
<mgrwt>
<rscale>  0 0.33626022E+03</rscale>
<asrwt>0</asrwt>
<pdfrwt beam="2">  1        2 0.18884860E-01 0.33626022E+03</pdfrwt>
<pdfrwt beam="1">  1       -2 0.35428317E-01 0.33626022E+03</pdfrwt>
<totfact> 0.22365516E+03</totfact>
</mgrwt>
</event>
<event>
 6    1  0.1045058E-005  0.1364522E+03  0.7546771E-02  0.1229909E+00
          1   -1    0    0  501    0  0.00000000000E+00  0.00000000000E+00  0.16482600156E+03  0.16482600156E+03  0.00000000000E+00 0. -1.
         -1   -1    0    0    0  501 -0.00000000000E+00 -0.00000000000E+00 -0.92563623265E+02  0.92563623265E+02  0.00000000000E+00 0.  1.
          5    1    1    2  502    0 -0.27554529161E+02  0.15783172180E+02  0.63968457499E+02  0.71571042721E+02  0.47000000000E+01 0. -1.
         -5    1    1    2    0  502  0.78220915098E+02  0.48129732418E+01 -0.14464504845E+01  0.78522980644E+02  0.47000000000E+01 0. -1.
        -11    1    1    2    0    0 -0.50228562242E+02 -0.78107659771E+00  0.44612374561E+02  0.67184689547E+02  0.00000000000E+00 0. -1.
         11    1    1    2    0    0 -0.43782369442E+00 -0.19815068824E+02 -0.34872003278E+02  0.40110911915E+02  0.00000000000E+00 0.  1.
<mgrwt>
<rscale>  0 0.12836060E+03</rscale>
<asrwt>0</asrwt>
<pdfrwt beam="1">  1        1 0.25357846E-01 0.13645224E+03</pdfrwt>
<pdfrwt beam="2">  1       -1 0.14240557E-01 0.13645224E+03</pdfrwt>
<totfact> 0.62411761E+03</totfact>
</mgrwt>
</event>
<event>
 6    1  0.1045058E-005  0.1369289E+03  0.7546771E-02  0.1229775E+00
         -1   -1    0    0    0  501 -0.00000000000E+00  0.00000000000E+00  0.24372364675E+02  0.24372364675E+02  0.00000000000E+00 0.  1.
          1   -1    0    0  501    0  0.00000000000E+00 -0.00000000000E+00 -0.69925391552E+03  0.69925391552E+03  0.00000000000E+00 0. -1.
          5    1    1    2  502    0 -0.52752670205E+02  0.17857556591E+02 -0.15022618546E+03  0.16028641034E+03  0.47000000000E+01 0.  1.
         -5    1    1    2    0  502  0.31529928583E+02 -0.69573406216E+02 -0.35592085948E+03  0.36405541263E+03  0.47000000000E+01 0.  1.
        -11    1    1    2    0    0 -0.55251130742E+01  0.32860690418E+02 -0.16261207535E+03  0.16599108078E+03  0.00000000000E+00 0. -1.
         11    1    1    2    0    0  0.26747854697E+02  0.18855159207E+02 -0.61224305551E+01  0.33293376451E+02  0.00000000000E+00 0.  1.
<mgrwt>
<rscale>  0 0.12844919E+03</rscale>
<asrwt>0</asrwt>
<pdfrwt beam="2">  1        1 0.10757752E+00 0.13692887E+03</pdfrwt>
<pdfrwt beam="1">  1       -1 0.37495949E-02 0.13692887E+03</pdfrwt>
<totfact> 0.73667991E+03</totfact>
</mgrwt>
</event>
<event>
 6    1  0.1045058E-005  0.1898421E+03  0.7546771E-02  0.1184553E+00
          2   -1    0    0  501    0  0.00000000000E+00  0.00000000000E+00  0.31231096727E+03  0.31231096727E+03  0.00000000000E+00 0. -1.
         -2   -1    0    0    0  501 -0.00000000000E+00 -0.00000000000E+00 -0.69616401892E+02  0.69616401892E+02  0.00000000000E+00 0.  1.
          5    1    1    2  502    0 -0.23506640236E+02  0.67689322836E+02  0.10078970532E+03  0.12375403533E+03  0.47000000000E+01 0. -1.
         -5    1    1    2    0  502 -0.12775093080E+02 -0.10735453519E+03  0.52642777027E+02  0.12033931695E+03  0.47000000000E+01 0.  1.
        -11    1    1    2    0    0 -0.10332768350E+01  0.51920544231E+02  0.15379007553E+02  0.54160173999E+02  0.00000000000E+00 0. -1.
         11    1    1    2    0    0  0.37315010151E+02 -0.12255331872E+02  0.73883075481E+02  0.83673842893E+02  0.00000000000E+00 0.  1.
<mgrwt>
<rscale>  0 0.16372645E+03</rscale>
<asrwt>0</asrwt>
<pdfrwt beam="1">  1        2 0.48047840E-01 0.18984214E+03</pdfrwt>
<pdfrwt beam="2">  1       -2 0.10710216E-01 0.18984214E+03</pdfrwt>
<totfact> 0.60624062E+03</totfact>
</mgrwt>
</event>
<event>
 6    1  0.1045058E-005  0.1256508E+03  0.7546771E-02  0.1249132E+00
         -1   -1    0    0    0  501 -0.00000000000E+00  0.00000000000E+00  0.51762355985E+02  0.51762355985E+02  0.00000000000E+00 0.  1.
          1   -1    0    0  501    0  0.00000000000E+00 -0.00000000000E+00 -0.27539057874E+03  0.27539057874E+03  0.00000000000E+00 0. -1.
          5    1    1    2  502    0 -0.42848190546E+02 -0.57611638297E+01 -0.16156983135E+03  0.16732022844E+03  0.47000000000E+01 0.  1.
         -5    1    1    2    0  502  0.53858048313E+02 -0.74267418886E+00 -0.30150256934E+02  0.61906129957E+02  0.47000000000E+01 0.  1.
        -11    1    1    2    0    0 -0.50555233817E+02 -0.56665154221E+00 -0.27389497614E+02  0.57500759471E+02  0.00000000000E+00 0.  1.
         11    1    1    2    0    0  0.39545376050E+02  0.70704895608E+01 -0.45186368542E+01  0.40425816858E+02  0.00000000000E+00 0. -1.
<mgrwt>
<rscale>  0 0.11641422E+03</rscale>
<asrwt>0</asrwt>
<pdfrwt beam="2">  1        1 0.42367781E-01 0.12565083E+03</pdfrwt>
<pdfrwt beam="1">  1       -1 0.79634394E-02 0.12565083E+03</pdfrwt>
<totfact> 0.79940788E+03</totfact>
</mgrwt>
</event>
<event>
 6    1  0.1045058E-005  0.1306378E+03  0.7546771E-02  0.1241057E+00
         -4   -1    0    0    0  501 -0.00000000000E+00  0.00000000000E+00  0.35427409649E+02  0.35427409649E+02  0.00000000000E+00 0.  1.
          4   -1    0    0  501    0  0.00000000000E+00 -0.00000000000E+00 -0.51130852298E+03  0.51130852298E+03  0.00000000000E+00 0. -1.
          5    1    1    2  502    0 -0.45385472751E+02  0.40899135631E+02 -0.21624490404E+03  0.22475882398E+03  0.47000000000E+01 0. -1.
         -5    1    1    2    0  502  0.17156297081E+02 -0.66219397253E+02 -0.19174913828E+03  0.20363980243E+03  0.47000000000E+01 0. -1.
        -11    1    1    2    0    0  0.45018820791E+02  0.42338592806E+02 -0.71113079406E+02  0.94214227847E+02  0.00000000000E+00 0. -1.
         11    1    1    2    0    0 -0.16789645120E+02 -0.17018331185E+02  0.32260084059E+01  0.24123078365E+02  0.00000000000E+00 0.  1.
<mgrwt>
<rscale>  0 0.12124510E+03</rscale>
<asrwt>0</asrwt>
<pdfrwt beam="2">  1        4 0.78662845E-01 0.13063784E+03</pdfrwt>
<pdfrwt beam="1">  1       -4 0.54503711E-02 0.13063784E+03</pdfrwt>
<totfact> 0.50509438E+02</totfact>
</mgrwt>
</event>
<event>
 6    1  0.1045058E-005  0.1505169E+03  0.7546771E-02  0.1208267E+00
          2   -1    0    0  501    0  0.00000000000E+00  0.00000000000E+00  0.85325169914E+03  0.85325169914E+03  0.00000000000E+00 0. -1.
         -2   -1    0    0    0  501 -0.00000000000E+00 -0.00000000000E+00 -0.23618546801E+02  0.23618546801E+02  0.00000000000E+00 0.  1.
          5    1    1    2  502    0  0.72677933399E+02 -0.38982324602E+02  0.35848083418E+03  0.36787538937E+03  0.47000000000E+01 0. -1.
         -5    1    1    2    0  502  0.10217339173E+02  0.64483435919E+02  0.19419869147E+03  0.20493347530E+03  0.47000000000E+01 0.  1.
        -11    1    1    2    0    0 -0.27764054383E+02 -0.55250816654E+02  0.15692118029E+03  0.16866461478E+03  0.00000000000E+00 0. -1.
         11    1    1    2    0    0 -0.55131218189E+02  0.29749705337E+02  0.12003244640E+03  0.13539676649E+03  0.00000000000E+00 0.  1.
<mgrwt>
<rscale>  0 0.14382986E+03</rscale>
<asrwt>0</asrwt>
<pdfrwt beam="1">  1        2 0.13126947E+00 0.15051690E+03</pdfrwt>
<pdfrwt beam="2">  1       -2 0.36336232E-02 0.15051690E+03</pdfrwt>
<totfact> 0.10022649E+04</totfact>
</mgrwt>
</event>
<event>
 6    1  0.1045058E-005  0.2058966E+03  0.7546771E-02  0.1148334E+00
          1   -1    0    0  501    0  0.00000000000E+00  0.00000000000E+00  0.36565514682E+03  0.36565514682E+03  0.00000000000E+00 0. -1.
         -1   -1    0    0    0  501 -0.00000000000E+00 -0.00000000000E+00 -0.15031074027E+03  0.15031074027E+03  0.00000000000E+00 0.  1.
          5    1    1    2  502    0 -0.16042540055E+02 -0.18570552918E+02 -0.31783073407E+01  0.25187698678E+02  0.47000000000E+01 0.  1.
         -5    1    1    2    0  502 -0.13279763892E+03  0.86504837701E+02  0.25258062465E+03  0.29822367745E+03  0.47000000000E+01 0.  1.
        -11    1    1    2    0    0 -0.12123348883E+01  0.16326316857E+02  0.26686248113E+01  0.16587342656E+02  0.00000000000E+00 0. -1.
         11    1    1    2    0    0  0.15005251386E+03 -0.84260601640E+02 -0.36726535567E+02  0.17596716830E+03  0.00000000000E+00 0.  1.
<mgrwt>
<rscale>  0 0.20167395E+03</rscale>
<asrwt>0</asrwt>
<pdfrwt beam="1">  1        1 0.56254638E-01 0.20589658E+03</pdfrwt>
<pdfrwt beam="2">  1       -1 0.23124729E-01 0.20589658E+03</pdfrwt>
<totfact> 0.10777372E+03</totfact>
</mgrwt>
</event>
<event>
 6    1  0.1045058E-005  0.3247654E+03  0.7546771E-02  0.1073477E+00
          1   -1    0    0  501    0  0.00000000000E+00  0.00000000000E+00  0.12575086474E+04  0.12575086474E+04  0.00000000000E+00 0. -1.
         -1   -1    0    0    0  501 -0.00000000000E+00 -0.00000000000E+00 -0.20968560356E+02  0.20968560356E+02  0.00000000000E+00 0.  1.
          5    1    1    2  502    0 -0.12544287273E+03 -0.47534993277E+02  0.46552628606E+03  0.48449179861E+03  0.47000000000E+01 0. -1.
         -5    1    1    2    0  502  0.62333667807E+01  0.37885363791E+02  0.12416332346E+03  0.13004913127E+03  0.47000000000E+01 0. -1.
        -11    1    1    2    0    0  0.49868406882E+02  0.49005870137E+02  0.29990754795E+03  0.30794962352E+03  0.00000000000E+00 0.  1.
         11    1    1    2    0    0  0.69341099065E+02 -0.39356240651E+02  0.34694292958E+03  0.35598665436E+03  0.00000000000E+00 0. -1.
<mgrwt>
<rscale>  0 0.32476543E+03</rscale>
<asrwt>0</asrwt>
<pdfrwt beam="1">  1        1 0.19346281E+00 0.32476543E+03</pdfrwt>
<pdfrwt beam="2">  1       -1 0.32259334E-02 0.32476543E+03</pdfrwt>
<totfact> 0.35434689E+03</totfact>
</mgrwt>
</event>
<event>
 6    1  0.1045058E-005  0.1432581E+03  0.7546771E-02  0.1218779E+00
          1   -1    0    0  501    0  0.00000000000E+00  0.00000000000E+00  0.35100664842E+02  0.35100664842E+02  0.00000000000E+00 0. -1.
         -1   -1    0    0    0  501 -0.00000000000E+00 -0.00000000000E+00 -0.48171282346E+03  0.48171282346E+03  0.00000000000E+00 0.  1.
          5    1    1    2  502    0  0.41300397432E+02 -0.54579853620E+02 -0.11175501813E+03  0.13113335703E+03  0.47000000000E+01 0.  1.
         -5    1    1    2    0  502  0.27244656431E+02  0.68730753901E+02 -0.14805133583E+03  0.16555203375E+03  0.47000000000E+01 0.  1.
        -11    1    1    2    0    0 -0.19148319237E+02 -0.28374795175E+02 -0.15704113336E+03  0.16072866794E+03  0.00000000000E+00 0.  1.
         11    1    1    2    0    0 -0.49396734627E+02  0.14223894894E+02 -0.29764671300E+02  0.59399429587E+02  0.00000000000E+00 0. -1.
<mgrwt>
<rscale>  0 0.13602593E+03</rscale>
<asrwt>0</asrwt>
<pdfrwt beam="1">  1        1 0.54001023E-02 0.14325809E+03</pdfrwt>
<pdfrwt beam="2">  1       -1 0.74109665E-01 0.14325809E+03</pdfrwt>
<totfact> 0.27654497E+03</totfact>
</mgrwt>
</event>
<event>
 6    1  0.1045058E-005  0.1405145E+03  0.7546771E-02  0.1224383E+00
         -3   -1    0    0    0  501 -0.00000000000E+00  0.00000000000E+00  0.44152205627E+02  0.44152205627E+02  0.00000000000E+00 0.  1.
          3   -1    0    0  501    0  0.00000000000E+00 -0.00000000000E+00 -0.39274715923E+03  0.39274715923E+03  0.00000000000E+00 0. -1.
          5    1    1    2  502    0 -0.56390400035E+02  0.91328007527E+01 -0.25119179255E+03  0.25764838814E+03  0.47000000000E+01 0. -1.
         -5    1    1    2    0  502 -0.13195111269E+01 -0.37363513739E+02 -0.10070704837E+02  0.39003619889E+02  0.47000000000E+01 0. -1.
        -11    1    1    2    0    0 -0.15323301297E+02  0.33128361433E+02 -0.30850909532E+02  0.47791950293E+02  0.00000000000E+00 0. -1.
         11    1    1    2    0    0  0.73033212459E+02 -0.48976484461E+01 -0.56481546687E+02  0.92455406540E+02  0.00000000000E+00 0.  1.
<mgrwt>
<rscale>  0 0.13209300E+03</rscale>
<asrwt>0</asrwt>
<pdfrwt beam="2">  1        3 0.60422643E-01 0.14051449E+03</pdfrwt>
<pdfrwt beam="1">  1       -3 0.67926467E-02 0.14051449E+03</pdfrwt>
<totfact> 0.87785725E+02</totfact>
</mgrwt>
</event>
<event>
 6    1  0.1045058E-005  0.1378634E+03  0.7546771E-02  0.1227719E+00
          2   -1    0    0  501    0  0.00000000000E+00  0.00000000000E+00  0.62202175689E+03  0.62202175689E+03  0.00000000000E+00 0. -1.
         -2   -1    0    0    0  501 -0.00000000000E+00 -0.00000000000E+00 -0.25025940793E+02  0.25025940793E+02  0.00000000000E+00 0.  1.
          5    1    1    2  502    0  0.40872317516E+02 -0.83175429519E+02  0.29776912731E+03  0.31189299703E+03  0.47000000000E+01 0.  1.
         -5    1    1    2    0  502 -0.33743524787E+02  0.25467197948E+02  0.87296500921E+02  0.97108046574E+02  0.47000000000E+01 0.  1.
        -11    1    1    2    0    0 -0.37488567155E+02  0.33116149159E+01  0.38816474965E+02  0.54065499067E+02  0.00000000000E+00 0.  1.
         11    1    1    2    0    0  0.30359774426E+02  0.54396616656E+02  0.17311371290E+03  0.18398115501E+03  0.00000000000E+00 0. -1.
<mgrwt>
<rscale>  0 0.12982245E+03</rscale>
<asrwt>0</asrwt>
<pdfrwt beam="1">  1        2 0.95695643E-01 0.13786339E+03</pdfrwt>
<pdfrwt beam="2">  1       -2 0.38501452E-02 0.13786339E+03</pdfrwt>
<totfact> 0.13401618E+04</totfact>
</mgrwt>
</event>
<event>
 6    1  0.1045058E-005  0.1403996E+03  0.7546771E-02  0.1224653E+00
          1   -1    0    0  501    0  0.00000000000E+00  0.00000000000E+00  0.17075351056E+03  0.17075351056E+03  0.00000000000E+00 0. -1.
         -1   -1    0    0    0  501 -0.00000000000E+00 -0.00000000000E+00 -0.91402840233E+02  0.91402840233E+02  0.00000000000E+00 0.  1.
          5    1    1    2  502    0  0.71277280865E+01  0.25622648977E+02  0.73984101277E+02  0.78759519362E+02  0.47000000000E+01 0. -1.
         -5    1    1    2    0  502  0.56321092655E+02 -0.18188254575E+02 -0.32442110244E+02  0.67656918341E+02  0.47000000000E+01 0. -1.
        -11    1    1    2    0    0 -0.79857969038E+02 -0.10781002464E+02  0.72686594433E+01  0.80909570775E+02  0.00000000000E+00 0.  1.
         11    1    1    2    0    0  0.16409148296E+02  0.33466080613E+01  0.30540019855E+02  0.34830342319E+02  0.00000000000E+00 0. -1.
<mgrwt>
<rscale>  0 0.13190735E+03</rscale>
<asrwt>0</asrwt>
<pdfrwt beam="1">  1        1 0.26269771E-01 0.14039956E+03</pdfrwt>
<pdfrwt beam="2">  1       -1 0.14061975E-01 0.14039956E+03</pdfrwt>
<totfact> 0.61008340E+03</totfact>
</mgrwt>
</event>
<event>
 6    1  0.1045058E-005  0.1185029E+03  0.7546771E-02  0.1258484E+00
          1   -1    0    0  501    0  0.00000000000E+00  0.00000000000E+00  0.39102586359E+03  0.39102586359E+03  0.00000000000E+00 0. -1.
         -1   -1    0    0    0  501 -0.00000000000E+00 -0.00000000000E+00 -0.42040329771E+02  0.42040329771E+02  0.00000000000E+00 0.  1.
          5    1    1    2  502    0  0.61108368040E+02 -0.12027639927E+02  0.19581488190E+03  0.20553455851E+03  0.47000000000E+01 0. -1.
         -5    1    1    2    0  502 -0.54037495229E+02 -0.18360574054E+01  0.11702463443E+03  0.12899719788E+03  0.47000000000E+01 0.  1.
        -11    1    1    2    0    0  0.25111480227E+02  0.32597530069E+01 -0.20464616302E+02  0.32557840058E+02  0.00000000000E+00 0.  1.
         11    1    1    2    0    0 -0.32182353038E+02  0.10603944326E+02  0.56610633789E+02  0.65976596914E+02  0.00000000000E+00 0. -1.
<mgrwt>
<rscale>  0 0.11113421E+03</rscale>
<asrwt>0</asrwt>
<pdfrwt beam="1">  1        1 0.60157823E-01 0.11850288E+03</pdfrwt>
<pdfrwt beam="2">  1       -1 0.64677433E-02 0.11850288E+03</pdfrwt>
<totfact> 0.70389987E+03</totfact>
</mgrwt>
</event>
<event>
 6    1  0.1045058E-005  0.1305548E+03  0.7546771E-02  0.1242810E+00
          1   -1    0    0  501    0  0.00000000000E+00  0.00000000000E+00  0.93017137279E+02  0.93017137279E+02  0.00000000000E+00 0. -1.
         -1   -1    0    0    0  501 -0.00000000000E+00 -0.00000000000E+00 -0.14147482265E+03  0.14147482265E+03  0.00000000000E+00 0.  1.
          5    1    1    2  502    0  0.12304832524E+02 -0.36949186425E+02 -0.54518367251E+02  0.67163931158E+02  0.47000000000E+01 0. -1.
         -5    1    1    2    0  502  0.24441915858E+02  0.28604538250E+02  0.50864291263E+02  0.63442044300E+02  0.47000000000E+01 0. -1.
        -11    1    1    2    0    0 -0.31122695318E+02 -0.22638278544E+02 -0.58111792415E+02  0.69700030394E+02  0.00000000000E+00 0.  1.
         11    1    1    2    0    0 -0.56240530644E+01  0.30982926718E+02  0.13308183028E+02  0.34185954081E+02  0.00000000000E+00 0. -1.
<mgrwt>
<rscale>  0 0.12017443E+03</rscale>
<asrwt>0</asrwt>
<pdfrwt beam="1">  1        1 0.14310329E-01 0.13055485E+03</pdfrwt>
<pdfrwt beam="2">  1       -1 0.21765357E-01 0.13055485E+03</pdfrwt>
<totfact> 0.65796858E+03</totfact>
</mgrwt>
</event>
<event>
 6    1  0.1045058E-005  0.2107345E+03  0.7546771E-02  0.1146261E+00
          2   -1    0    0  501    0  0.00000000000E+00  0.00000000000E+00  0.13453942996E+03  0.13453942996E+03  0.00000000000E+00 0. -1.
         -2   -1    0    0    0  501 -0.00000000000E+00 -0.00000000000E+00 -0.29824410090E+03  0.29824410090E+03  0.00000000000E+00 0.  1.
          5    1    1    2  502    0 -0.10679579181E+02 -0.11820765137E+01 -0.52297454361E+02  0.53596310032E+02  0.47000000000E+01 0.  1.
         -5    1    1    2    0  502 -0.61600803465E+02 -0.15230628319E+03 -0.34850840070E+01  0.16439616388E+03  0.47000000000E+01 0.  1.
        -11    1    1    2    0    0  0.10183835814E+01  0.85505539468E+02 -0.35721797482E+02  0.92672979882E+02  0.00000000000E+00 0.  1.
         11    1    1    2    0    0  0.71261999065E+02  0.67982820238E+02 -0.72200335094E+02  0.12211807706E+03  0.00000000000E+00 0. -1.
<mgrwt>
<rscale>  0 0.20417861E+03</rscale>
<asrwt>0</asrwt>
<pdfrwt beam="1">  1        2 0.20698374E-01 0.21073449E+03</pdfrwt>
<pdfrwt beam="2">  1       -2 0.45883707E-01 0.21073449E+03</pdfrwt>
<totfact> 0.12082810E+03</totfact>
</mgrwt>
</event>
<event>
 6    1  0.1045058E-005  0.1528755E+03  0.7546771E-02  0.1205732E+00
         -1   -1    0    0    0  501 -0.00000000000E+00  0.00000000000E+00  0.39747113460E+02  0.39747113460E+02  0.00000000000E+00 0.  1.
          1   -1    0    0  501    0  0.00000000000E+00 -0.00000000000E+00 -0.50051805851E+03  0.50051805851E+03  0.00000000000E+00 0. -1.
          5    1    1    2  502    0 -0.37760956053E+02 -0.12125459421E+02 -0.93533726758E+01  0.41018192898E+02  0.47000000000E+01 0.  1.
         -5    1    1    2    0  502 -0.16857028344E+02 -0.56893423413E+02 -0.27979211382E+03  0.28605373270E+03  0.47000000000E+01 0.  1.
        -11    1    1    2    0    0  0.87203432916E+01 -0.10444682599E+02  0.47184148799E+01  0.14401361765E+02  0.00000000000E+00 0.  1.
         11    1    1    2    0    0  0.45897641105E+02  0.79463565433E+02 -0.17634387343E+03  0.19879188461E+03  0.00000000000E+00 0. -1.
<mgrwt>
<rscale>  0 0.14579920E+03</rscale>
<asrwt>0</asrwt>
<pdfrwt beam="2">  1        1 0.77002775E-01 0.15287554E+03</pdfrwt>
<pdfrwt beam="1">  1       -1 0.61149408E-02 0.15287554E+03</pdfrwt>
<totfact> 0.56684529E+03</totfact>
</mgrwt>
</event>
<event>
 6    1  0.1045058E-005  0.1484520E+03  0.7546771E-02  0.1216423E+00
         -4   -1    0    0    0  501 -0.00000000000E+00  0.00000000000E+00  0.12200723052E+03  0.12200723052E+03  0.00000000000E+00 0.  1.
          4   -1    0    0  501    0  0.00000000000E+00 -0.00000000000E+00 -0.15680674461E+03  0.15680674461E+03  0.00000000000E+00 0. -1.
          5    1    1    2  502    0  0.30022777305E+02 -0.50106153530E+02 -0.38602979313E+02  0.70173170019E+02  0.47000000000E+01 0.  1.
         -5    1    1    2    0  502  0.45955587271E+02  0.75422145717E+02 -0.30312583134E+02  0.93495233901E+02  0.47000000000E+01 0.  1.
        -11    1    1    2    0    0 -0.23328532270E+02 -0.39598042460E+02  0.39133571067E+02  0.60362751503E+02  0.00000000000E+00 0.  1.
         11    1    1    2    0    0 -0.52649832306E+02  0.14282050273E+02 -0.50175227103E+01  0.54782819716E+02  0.00000000000E+00 0. -1.
<mgrwt>
<rscale>  0 0.13772521E+03</rscale>
<asrwt>0</asrwt>
<pdfrwt beam="2">  1        4 0.24124114E-01 0.14845198E+03</pdfrwt>
<pdfrwt beam="1">  1       -4 0.18770343E-01 0.14845198E+03</pdfrwt>
<totfact> 0.68226503E+02</totfact>
</mgrwt>
</event>
<event>
 6    1  0.1045058E-005  0.3261676E+03  0.7546771E-02  0.1072845E+00
         -2   -1    0    0    0  501 -0.00000000000E+00  0.00000000000E+00  0.10245280281E+04  0.10245280281E+04  0.00000000000E+00 0.  1.
          2   -1    0    0  501    0  0.00000000000E+00 -0.00000000000E+00 -0.25959587613E+02  0.25959587613E+02  0.00000000000E+00 0. -1.
          5    1    1    2  502    0 -0.10824076975E+02 -0.10757862013E+02  0.20630862284E+03  0.20692566321E+03  0.47000000000E+01 0. -1.
         -5    1    1    2    0  502 -0.41626930908E+02  0.11312265688E+03  0.20153999266E+03  0.23488294003E+03  0.47000000000E+01 0. -1.
        -11    1    1    2    0    0  0.57592428761E+02 -0.15416417335E+02  0.24752317204E+03  0.25460218866E+03  0.00000000000E+00 0.  1.
         11    1    1    2    0    0 -0.51414208792E+01 -0.86948377534E+02  0.34319665298E+03  0.35407682384E+03  0.00000000000E+00 0. -1.
<mgrwt>
<rscale>  0 0.32616760E+03</rscale>
<asrwt>0</asrwt>
<pdfrwt beam="2">  1        2 0.39937835E-02 0.32616760E+03</pdfrwt>
<pdfrwt beam="1">  1       -2 0.15761967E+00 0.32616760E+03</pdfrwt>
<totfact> 0.59390823E+02</totfact>
</mgrwt>
</event>
<event>
 6    1  0.1045058E-005  0.1366347E+03  0.7546771E-02  0.1229212E+00
         -2   -1    0    0    0  501 -0.00000000000E+00  0.00000000000E+00  0.19654362735E+02  0.19654362735E+02  0.00000000000E+00 0.  1.
          2   -1    0    0  501    0  0.00000000000E+00 -0.00000000000E+00 -0.76110517200E+03  0.76110517200E+03  0.00000000000E+00 0. -1.
          5    1    1    2  502    0 -0.61177290727E+02  0.10441588420E+02 -0.21791463646E+03  0.22662869732E+03  0.47000000000E+01 0.  1.
         -5    1    1    2    0  502  0.58108036432E+02  0.44648442616E+02 -0.19994406858E+03  0.21300175559E+03  0.47000000000E+01 0.  1.
        -11    1    1    2    0    0  0.33681237299E+02 -0.45439258988E+02 -0.28671136490E+03  0.29223716185E+03  0.00000000000E+00 0. -1.
         11    1    1    2    0    0 -0.30611983004E+02 -0.96507720479E+01 -0.36880739336E+02  0.48891919971E+02  0.00000000000E+00 0.  1.
<mgrwt>
<rscale>  0 0.12882347E+03</rscale>
<asrwt>0</asrwt>
<pdfrwt beam="2">  1        2 0.11709310E+00 0.13663469E+03</pdfrwt>
<pdfrwt beam="1">  1       -2 0.30237481E-02 0.13663469E+03</pdfrwt>
<totfact> 0.15074083E+04</totfact>
</mgrwt>
</event>
<event>
 6    1  0.1045058E-005  0.1293359E+03  0.7546771E-02  0.1236641E+00
          2   -1    0    0  501    0  0.00000000000E+00  0.00000000000E+00  0.30240767259E+03  0.30240767259E+03  0.00000000000E+00 0. -1.
         -2   -1    0    0    0  501 -0.00000000000E+00 -0.00000000000E+00 -0.51285900903E+02  0.51285900903E+02  0.00000000000E+00 0.  1.
          5    1    1    2  502    0  0.16487387544E+02  0.16234186813E+02  0.18461118070E+03  0.18611491291E+03  0.47000000000E+01 0. -1.
         -5    1    1    2    0  502  0.73048486293E+01  0.39297147464E+02  0.11823221437E+01  0.40263066177E+02  0.47000000000E+01 0.  1.
        -11    1    1    2    0    0  0.96628898258E+01  0.13343082937E+02 -0.10513311127E+02  0.19543260038E+02  0.00000000000E+00 0. -1.
         11    1    1    2    0    0 -0.33455126000E+02 -0.68874417214E+02  0.75841579973E+02  0.10777233437E+03  0.00000000000E+00 0.  1.
<mgrwt>
<rscale>  0 0.12399994E+03</rscale>
<asrwt>0</asrwt>
<pdfrwt beam="1">  1        2 0.46524256E-01 0.12933586E+03</pdfrwt>
<pdfrwt beam="2">  1       -2 0.78901388E-02 0.12933586E+03</pdfrwt>
<totfact> 0.98769529E+03</totfact>
</mgrwt>
</event>
<event>
 6    1  0.1045058E-005  0.1251285E+03  0.7546771E-02  0.1249240E+00
          2   -1    0    0  501    0  0.00000000000E+00  0.00000000000E+00  0.16865949810E+03  0.16865949810E+03  0.00000000000E+00 0. -1.
         -2   -1    0    0    0  501 -0.00000000000E+00 -0.00000000000E+00 -0.72040534758E+02  0.72040534758E+02  0.00000000000E+00 0.  1.
          5    1    1    2  502    0  0.33563815786E+02  0.12310214233E+02  0.90451920436E+02  0.97374077737E+02  0.47000000000E+01 0.  1.
         -5    1    1    2    0  502 -0.39233098775E+02 -0.12733118968E+02 -0.20155316364E+02  0.46148620087E+02  0.47000000000E+01 0.  1.
        -11    1    1    2    0    0 -0.17818957047E+02  0.20662869384E+02  0.50806864667E+02  0.57669809248E+02  0.00000000000E+00 0. -1.
         11    1    1    2    0    0  0.23488240036E+02 -0.20239964649E+02 -0.24484505398E+02  0.39507525784E+02  0.00000000000E+00 0.  1.
<mgrwt>
<rscale>  0 0.11635146E+03</rscale>
<asrwt>0</asrwt>
<pdfrwt beam="1">  1        2 0.25947615E-01 0.12512854E+03</pdfrwt>
<pdfrwt beam="2">  1       -2 0.11083159E-01 0.12512854E+03</pdfrwt>
<totfact> 0.10836261E+04</totfact>
</mgrwt>
</event>
<event>
 6    1  0.1045058E-005  0.1489086E+03  0.7546771E-02  0.1209182E+00
          2   -1    0    0  501    0  0.00000000000E+00  0.00000000000E+00  0.10642887000E+04  0.10642887000E+04  0.00000000000E+00 0. -1.
         -2   -1    0    0    0  501 -0.00000000000E+00 -0.00000000000E+00 -0.72525895043E+02  0.72525895043E+02  0.00000000000E+00 0.  1.
          5    1    1    2  502    0 -0.78979395689E+02 -0.40028972745E+02  0.73355059099E+03  0.73889012928E+03  0.47000000000E+01 0. -1.
         -5    1    1    2    0  502 -0.94554359058E+01  0.54249465171E+02  0.26494862601E+03  0.27065157337E+03  0.47000000000E+01 0.  1.
        -11    1    1    2    0    0  0.32930841244E+02  0.32212566782E+01 -0.46305422379E+02  0.56912291654E+02  0.00000000000E+00 0.  1.
         11    1    1    2    0    0  0.55503990351E+02 -0.17441749105E+02  0.39569010303E+02  0.70360600715E+02  0.00000000000E+00 0. -1.
<mgrwt>
<rscale>  0 0.14312696E+03</rscale>
<asrwt>0</asrwt>
<pdfrwt beam="1">  1        2 0.16373671E+00 0.14890857E+03</pdfrwt>
<pdfrwt beam="2">  1       -2 0.11157831E-01 0.14890857E+03</pdfrwt>
<totfact> 0.13371716E+03</totfact>
</mgrwt>
</event>
<event>
 6    1  0.1045058E-005  0.1442995E+03  0.7546771E-02  0.1217996E+00
          2   -1    0    0  501    0  0.00000000000E+00  0.00000000000E+00  0.43867976467E+03  0.43867976467E+03  0.00000000000E+00 0. -1.
         -2   -1    0    0    0  501 -0.00000000000E+00 -0.00000000000E+00 -0.75028261692E+02  0.75028261692E+02  0.00000000000E+00 0.  1.
          5    1    1    2  502    0 -0.53615546266E+01  0.17225071869E+02  0.25941597375E+03  0.26008496074E+03  0.47000000000E+01 0. -1.
         -5    1    1    2    0  502  0.77064882520E+02 -0.24780431887E+02  0.11114450410E+03  0.13758000114E+03  0.47000000000E+01 0. -1.
        -11    1    1    2    0    0 -0.61554096852E+02  0.90526737814E+01 -0.44877623058E+02  0.76712833302E+02  0.00000000000E+00 0.  1.
         11    1    1    2    0    0 -0.10149231041E+02 -0.14973137640E+01  0.37968648181E+02  0.39330231170E+02  0.00000000000E+00 0. -1.
<mgrwt>
<rscale>  0 0.13658742E+03</rscale>
<asrwt>0</asrwt>
<pdfrwt beam="1">  1        2 0.67489193E-01 0.14429953E+03</pdfrwt>
<pdfrwt beam="2">  1       -2 0.11542810E-01 0.14429953E+03</pdfrwt>
<totfact> 0.36861736E+03</totfact>
</mgrwt>
</event>
<event>
 6    1  0.1045058E-005  0.3930042E+03  0.7546771E-02  0.1046229E+00
          2   -1    0    0  501    0  0.00000000000E+00  0.00000000000E+00  0.20009205502E+03  0.20009205502E+03  0.00000000000E+00 0. -1.
         -2   -1    0    0    0  501 -0.00000000000E+00 -0.00000000000E+00 -0.19297658515E+03  0.19297658515E+03  0.00000000000E+00 0.  1.
          5    1    1    2  502    0  0.17225547659E+02 -0.28481111596E+02  0.86365895263E+02  0.92677133503E+02  0.47000000000E+01 0. -1.
         -5    1    1    2    0  502 -0.97818897556E+02 -0.48279948316E+02  0.37160052738E+02  0.11533624603E+03  0.47000000000E+01 0. -1.
        -11    1    1    2    0    0  0.74856167008E+02  0.97402130955E+01 -0.72913863199E+02  0.10495117406E+03  0.00000000000E+00 0.  1.
         11    1    1    2    0    0  0.57371828885E+01  0.67020846816E+02 -0.43496614930E+02  0.80104086574E+02  0.00000000000E+00 0. -1.
<mgrwt>
<rscale>  0 0.39300423E+03</rscale>
<asrwt>0</asrwt>
<pdfrwt beam="1">  1        2 0.30783393E-01 0.39300423E+03</pdfrwt>
<pdfrwt beam="2">  1       -2 0.29688705E-01 0.39300423E+03</pdfrwt>
<totfact> 0.17883459E+03</totfact>
</mgrwt>
</event>
<event>
 6    1  0.1045058E-005  0.2555026E+03  0.7546771E-02  0.1112314E+00
          2   -1    0    0  501    0  0.00000000000E+00  0.00000000000E+00  0.13192015982E+04  0.13192015982E+04  0.00000000000E+00 0. -1.
         -2   -1    0    0    0  501 -0.00000000000E+00 -0.00000000000E+00 -0.46874330224E+02  0.46874330224E+02  0.00000000000E+00 0.  1.
          5    1    1    2  502    0  0.59821548527E+02  0.12546525336E+03  0.23314361346E+03  0.27147409078E+03  0.47000000000E+01 0.  1.
         -5    1    1    2    0  502 -0.33641839641E+02  0.95825574322E+02  0.36636293208E+03  0.38020810364E+03  0.47000000000E+01 0.  1.
        -11    1    1    2    0    0 -0.20550569398E+02 -0.16853161713E+03  0.37176893428E+03  0.40870205819E+03  0.00000000000E+00 0.  1.
         11    1    1    2    0    0 -0.56291394878E+01 -0.52759210558E+02  0.30105178818E+03  0.30569167584E+03  0.00000000000E+00 0. -1.
<mgrwt>
<rscale>  0 0.25157408E+03</rscale>
<asrwt>0</asrwt>
<pdfrwt beam="1">  1        2 0.20295406E+00 0.25550261E+03</pdfrwt>
<pdfrwt beam="2">  1       -2 0.72114364E-02 0.25550261E+03</pdfrwt>
<totfact> 0.19052320E+03</totfact>
</mgrwt>
</event>
<event>
 6    1  0.1045058E-005  0.1364080E+03  0.7546771E-02  0.1231489E+00
          1   -1    0    0  501    0  0.00000000000E+00  0.00000000000E+00  0.40557062847E+03  0.40557062847E+03  0.00000000000E+00 0. -1.
         -1   -1    0    0    0  501 -0.00000000000E+00 -0.00000000000E+00 -0.53974810308E+02  0.53974810308E+02  0.00000000000E+00 0.  1.
          5    1    1    2  502    0  0.11800112587E+02 -0.36402994521E+02  0.28569361035E+03  0.28828345367E+03  0.47000000000E+01 0. -1.
         -5    1    1    2    0  502  0.42157840756E+02  0.28040790775E+02  0.39590416458E+02  0.64444243806E+02  0.47000000000E+01 0. -1.
        -11    1    1    2    0    0 -0.46936547905E+02  0.44444598288E+02  0.62534916454E+01  0.64942035724E+02  0.00000000000E+00 0.  1.
         11    1    1    2    0    0 -0.70214054380E+01 -0.36082394542E+02  0.20058299711E+02  0.41875705576E+02  0.00000000000E+00 0. -1.
<mgrwt>
<rscale>  0 0.12731881E+03</rscale>
<asrwt>0</asrwt>
<pdfrwt beam="1">  1        1 0.62395479E-01 0.13640796E+03</pdfrwt>
<pdfrwt beam="2">  1       -1 0.83038172E-02 0.13640796E+03</pdfrwt>
<totfact> 0.46608282E+03</totfact>
</mgrwt>
</event>
<event>
 6    1  0.1045058E-005  0.1534808E+03  0.7546771E-02  0.1205164E+00
          2   -1    0    0  501    0  0.00000000000E+00  0.00000000000E+00  0.56137379597E+03  0.56137379597E+03  0.00000000000E+00 0.  1.
         -2   -1    0    0    0  501 -0.00000000000E+00 -0.00000000000E+00 -0.36135016068E+02  0.36135016068E+02  0.00000000000E+00 0. -1.
          5    1    1    2  502    0 -0.11464229332E+02 -0.60935756588E+02  0.19220240130E+03  0.20201100973E+03  0.47000000000E+01 0.  1.
         -5    1    1    2    0  502 -0.75421079000E+02  0.41502073603E+02  0.14949683717E+03  0.17257507235E+03  0.47000000000E+01 0.  1.
        -11    1    1    2    0    0  0.37441710819E+02  0.34012377947E+02  0.15699225339E+03  0.16494026551E+03  0.00000000000E+00 0.  1.
         11    1    1    2    0    0  0.49443597513E+02 -0.14578694962E+02  0.26547288038E+02  0.57982464453E+02  0.00000000000E+00 0. -1.
<mgrwt>
<rscale>  0 0.14624532E+03</rscale>
<asrwt>0</asrwt>
<pdfrwt beam="1">  1        2 0.86365193E-01 0.15348082E+03</pdfrwt>
<pdfrwt beam="2">  1       -2 0.55592336E-02 0.15348082E+03</pdfrwt>
<totfact> 0.87462234E+03</totfact>
</mgrwt>
</event>
<event>
 6    1  0.1045058E-005  0.1286754E+03  0.7546771E-02  0.1243451E+00
          2   -1    0    0  501    0  0.00000000000E+00  0.00000000000E+00  0.14612875818E+03  0.14612875818E+03  0.00000000000E+00 0. -1.
         -2   -1    0    0    0  501 -0.00000000000E+00 -0.00000000000E+00 -0.86861783738E+02  0.86861783738E+02  0.00000000000E+00 0.  1.
          5    1    1    2  502    0 -0.31970658168E+02 -0.50854857453E+02 -0.42245956660E+01  0.60400966208E+02  0.47000000000E+01 0.  1.
         -5    1    1    2    0  502  0.53711503877E+02  0.29465576883E+02  0.39419224769E+02  0.73000761305E+02  0.47000000000E+01 0.  1.
        -11    1    1    2    0    0 -0.37634124141E+02 -0.72258482296E+01 -0.21144418414E+02  0.43767871921E+02  0.00000000000E+00 0.  1.
         11    1    1    2    0    0  0.15893278432E+02  0.28615128800E+02  0.45216763753E+02  0.55820942484E+02  0.00000000000E+00 0. -1.
<mgrwt>
<rscale>  0 0.11978599E+03</rscale>
<asrwt>0</asrwt>
<pdfrwt beam="1">  1        2 0.22481347E-01 0.12867540E+03</pdfrwt>
<pdfrwt beam="2">  1       -2 0.13363351E-01 0.12867540E+03</pdfrwt>
<totfact> 0.94401519E+03</totfact>
</mgrwt>
</event>
<event>
 6    1  0.1045058E-005  0.1279798E+03  0.7546771E-02  0.1244936E+00
         -2   -1    0    0    0  501 -0.00000000000E+00  0.00000000000E+00  0.39278219017E+02  0.39278219017E+02  0.00000000000E+00 0.  1.
          2   -1    0    0  501    0  0.00000000000E+00 -0.00000000000E+00 -0.39650074746E+03  0.39650074746E+03  0.00000000000E+00 0. -1.
          5    1    1    2  502    0  0.31171956707E+02 -0.57529204803E+02 -0.26071513030E+03  0.26884153224E+03  0.47000000000E+01 0.  1.
         -5    1    1    2    0  502 -0.25987170460E+02  0.30586151895E+02 -0.35307298323E+02  0.53661355100E+02  0.47000000000E+01 0.  1.
        -11    1    1    2    0    0  0.21755533960E+02  0.27888517010E+02  0.10319283487E+02  0.36845084483E+02  0.00000000000E+00 0.  1.
         11    1    1    2    0    0 -0.26940320207E+02 -0.94546410144E+00 -0.71519383310E+02  0.76430994657E+02  0.00000000000E+00 0. -1.
<mgrwt>
<rscale>  0 0.11889205E+03</rscale>
<asrwt>0</asrwt>
<pdfrwt beam="2">  1        2 0.61000112E-01 0.12797982E+03</pdfrwt>
<pdfrwt beam="1">  1       -2 0.60428033E-02 0.12797982E+03</pdfrwt>
<totfact> 0.11128778E+04</totfact>
</mgrwt>
</event>
<event>
 6    1  0.1045058E-005  0.1355194E+03  0.7546771E-02  0.1231836E+00
          1   -1    0    0  501    0  0.00000000000E+00  0.00000000000E+00  0.17885815240E+04  0.17885815240E+04  0.00000000000E+00 0. -1.
         -1   -1    0    0    0  501 -0.00000000000E+00 -0.00000000000E+00 -0.85751130658E+01  0.85751130658E+01  0.00000000000E+00 0.  1.
          5    1    1    2  502    0  0.44849349746E+02  0.38687877821E+02  0.39054888366E+03  0.39504270224E+03  0.47000000000E+01 0. -1.
         -5    1    1    2    0  502 -0.70444181370E+02  0.69758831813E+01  0.82197741609E+03  0.82503333763E+03  0.47000000000E+01 0. -1.
        -11    1    1    2    0    0  0.25325031294E+02 -0.72989864573E+02  0.43571858226E+03  0.44251503982E+03  0.00000000000E+00 0.  1.
         11    1    1    2    0    0  0.26980032928E+00  0.27326103571E+02  0.13176152891E+03  0.13456555737E+03  0.00000000000E+00 0. -1.
<mgrwt>
<rscale>  0 0.12709184E+03</rscale>
<asrwt>0</asrwt>
<pdfrwt beam="1">  1        1 0.27516609E+00 0.13551943E+03</pdfrwt>
<pdfrwt beam="2">  1       -1 0.13192496E-02 0.13551943E+03</pdfrwt>
<totfact> 0.57335156E+03</totfact>
</mgrwt>
</event>
<event>
 6    1  0.1045058E-005  0.2630776E+03  0.7546771E-02  0.1105308E+00
         -1   -1    0    0    0  501 -0.00000000000E+00  0.00000000000E+00  0.46018391396E+02  0.46018391396E+02  0.00000000000E+00 0.  1.
          1   -1    0    0  501    0  0.00000000000E+00 -0.00000000000E+00 -0.37598994883E+03  0.37598994883E+03  0.00000000000E+00 0. -1.
          5    1    1    2  502    0 -0.18066294079E+02 -0.72924214689E+02 -0.23911282080E+03  0.25068179659E+03  0.47000000000E+01 0.  1.
         -5    1    1    2    0  502  0.71819894540E+01  0.42596366372E+01  0.13439769787E+02  0.16505844078E+02  0.47000000000E+01 0.  1.
        -11    1    1    2    0    0 -0.34463170034E+02  0.50369226531E+02 -0.36116678710E+02  0.70916736749E+02  0.00000000000E+00 0.  1.
         11    1    1    2    0    0  0.45347474659E+02  0.18295351521E+02 -0.68181827706E+02  0.83903962806E+02  0.00000000000E+00 0. -1.
<mgrwt>
<rscale>  0 0.26307758E+03</rscale>
<asrwt>0</asrwt>
<pdfrwt beam="2">  1        1 0.57844608E-01 0.26307758E+03</pdfrwt>
<pdfrwt beam="1">  1       -1 0.70797525E-02 0.26307758E+03</pdfrwt>
<totfact> 0.67585228E+03</totfact>
</mgrwt>
</event>
<event>
 6    1  0.1045058E-005  0.3471875E+03  0.7546771E-02  0.1063775E+00
          2   -1    0    0  501    0  0.00000000000E+00  0.00000000000E+00  0.93249630758E+03  0.93249630758E+03  0.00000000000E+00 0.  1.
         -2   -1    0    0    0  501 -0.00000000000E+00 -0.00000000000E+00 -0.32316256984E+02  0.32316256984E+02  0.00000000000E+00 0. -1.
          5    1    1    2  502    0 -0.48023173617E+01 -0.12059295984E+03  0.49156545460E+03  0.50618614201E+03  0.47000000000E+01 0. -1.
         -5    1    1    2    0  502  0.45547310885E+02  0.14632198096E+02  0.19184187284E+03  0.19777273049E+03  0.47000000000E+01 0. -1.
        -11    1    1    2    0    0  0.14568136486E+02  0.59239554576E+02  0.15169131168E+03  0.16349865280E+03  0.00000000000E+00 0.  1.
         11    1    1    2    0    0 -0.55313130009E+02  0.46721207164E+02  0.65081411478E+02  0.97355039265E+02  0.00000000000E+00 0. -1.
<mgrwt>
<rscale>  0 0.34718750E+03</rscale>
<asrwt>0</asrwt>
<pdfrwt beam="1">  1        2 0.14346095E+00 0.34718750E+03</pdfrwt>
<pdfrwt beam="2">  1       -2 0.49717326E-02 0.34718750E+03</pdfrwt>
<totfact> 0.57407006E+03</totfact>
</mgrwt>
</event>
<event>
 6    1  0.1045058E-005  0.1502973E+03  0.7546771E-02  0.1209706E+00
         -1   -1    0    0    0  501 -0.00000000000E+00  0.00000000000E+00  0.21526910838E+03  0.21526910838E+03  0.00000000000E+00 0.  1.
          1   -1    0    0  501    0  0.00000000000E+00 -0.00000000000E+00 -0.18605638704E+03  0.18605638704E+03  0.00000000000E+00 0. -1.
          5    1    1    2  502    0  0.47237167301E+02  0.95309949191E+00  0.28144447994E+01  0.47563320666E+02  0.47000000000E+01 0. -1.
         -5    1    1    2    0  502 -0.52947513863E+01  0.71202228442E+02 -0.13411537879E+03  0.15200926470E+03  0.47000000000E+01 0. -1.
        -11    1    1    2    0    0  0.18784648606E+02 -0.17091493424E+02  0.90349596809E+02  0.93851115146E+02  0.00000000000E+00 0.  1.
         11    1    1    2    0    0 -0.60727064521E+02 -0.55063834510E+02  0.70164058523E+02  0.10790179491E+03  0.00000000000E+00 0. -1.
<mgrwt>
<rscale>  0 0.14272689E+03</rscale>
<asrwt>0</asrwt>
<pdfrwt beam="2">  1        1 0.28624059E-01 0.15029731E+03</pdfrwt>
<pdfrwt beam="1">  1       -1 0.33118325E-01 0.15029731E+03</pdfrwt>
<totfact> 0.13666960E+03</totfact>
</mgrwt>
</event>
<event>
 6    1  0.1045058E-005  0.2603786E+03  0.7546771E-02  0.1109731E+00
         -2   -1    0    0    0  501 -0.00000000000E+00  0.00000000000E+00  0.68815798406E+02  0.68815798406E+02  0.00000000000E+00 0.  1.
          2   -1    0    0  501    0  0.00000000000E+00 -0.00000000000E+00 -0.92589415639E+03  0.92589415639E+03  0.00000000000E+00 0. -1.
          5    1    1    2  502    0  0.22574362027E+03 -0.70925389367E+02 -0.40835229296E+03  0.47197910771E+03  0.47000000000E+01 0. -1.
         -5    1    1    2    0  502 -0.48174827807E+01  0.12927162276E+02 -0.81325077392E+02  0.82620686742E+02  0.47000000000E+01 0. -1.
        -11    1    1    2    0    0 -0.53701454131E+02  0.40711293461E+02 -0.62385827143E+02  0.91832712142E+02  0.00000000000E+00 0. -1.
         11    1    1    2    0    0 -0.16722468336E+03  0.17286933630E+02 -0.30501516049E+03  0.34827744820E+03  0.00000000000E+00 0.  1.
<mgrwt>
<rscale>  0 0.25573853E+03</rscale>
<asrwt>0</asrwt>
<pdfrwt beam="2">  1        2 0.14244524E+00 0.26037858E+03</pdfrwt>
<pdfrwt beam="1">  1       -2 0.10587047E-01 0.26037858E+03</pdfrwt>
<totfact> 0.17688442E+03</totfact>
</mgrwt>
</event>
<event>
 6    1  0.1045058E-005  0.1271939E+03  0.7546771E-02  0.1246582E+00
         -1   -1    0    0    0  501 -0.00000000000E+00  0.00000000000E+00  0.94071443449E+02  0.94071443449E+02  0.00000000000E+00 0.  1.
          1   -1    0    0  501    0  0.00000000000E+00 -0.00000000000E+00 -0.13020187103E+03  0.13020187103E+03  0.00000000000E+00 0. -1.
          5    1    1    2  502    0  0.40644140999E+02 -0.28589788770E+02 -0.35656730667E+02  0.61341785606E+02  0.47000000000E+01 0.  1.
         -5    1    1    2    0  502 -0.43055585338E+02  0.52003732135E+02  0.10004526061E+02  0.68413099085E+02  0.47000000000E+01 0.  1.
        -11    1    1    2    0    0 -0.23837700131E+02 -0.47669430206E+02 -0.20963734349E+02  0.57272058472E+02  0.00000000000E+00 0. -1.
         11    1    1    2    0    0  0.26249144469E+02  0.24255486841E+02  0.10485511375E+02  0.37246371314E+02  0.00000000000E+00 0.  1.
<mgrwt>
<rscale>  0 0.11791189E+03</rscale>
<asrwt>0</asrwt>
<pdfrwt beam="2">  1        1 0.20031057E-01 0.12719392E+03</pdfrwt>
<pdfrwt beam="1">  1       -1 0.14472530E-01 0.12719392E+03</pdfrwt>
<totfact> 0.81521197E+03</totfact>
</mgrwt>
</event>
<event>
 6    1  0.1045058E-005  0.3490584E+03  0.7546771E-02  0.1063002E+00
          1   -1    0    0  501    0  0.00000000000E+00  0.00000000000E+00  0.77948799871E+03  0.77948799871E+03  0.00000000000E+00 0. -1.
         -1   -1    0    0    0  501 -0.00000000000E+00 -0.00000000000E+00 -0.39077498501E+02  0.39077498501E+02  0.00000000000E+00 0.  1.
          5    1    1    2  502    0  0.37134413618E+02  0.97777450797E+02  0.48475709339E+03  0.49593439501E+03  0.47000000000E+01 0. -1.
         -5    1    1    2    0  502 -0.23564843376E+02  0.30889572667E+02  0.40594607852E+02  0.56386875508E+02  0.47000000000E+01 0.  1.
        -11    1    1    2    0    0  0.34180643182E+02 -0.68852018275E+02  0.13590895392E+03  0.15614147605E+03  0.00000000000E+00 0. -1.
         11    1    1    2    0    0 -0.47750213424E+02 -0.59815005190E+02  0.79149845046E+02  0.11010275064E+03  0.00000000000E+00 0.  1.
<mgrwt>
<rscale>  0 0.34905840E+03</rscale>
<asrwt>0</asrwt>
<pdfrwt beam="1">  1        1 0.11992122E+00 0.34905840E+03</pdfrwt>
<pdfrwt beam="2">  1       -1 0.60119234E-02 0.34905840E+03</pdfrwt>
<totfact> 0.32043128E+03</totfact>
</mgrwt>
</event>
<event>
 6    1  0.1045058E-005  0.1362082E+03  0.7546771E-02  0.1230331E+00
          2   -1    0    0  501    0  0.00000000000E+00  0.00000000000E+00  0.45708650659E+03  0.45708650659E+03  0.00000000000E+00 0. -1.
         -2   -1    0    0    0  501 -0.00000000000E+00 -0.00000000000E+00 -0.32236857341E+02  0.32236857341E+02  0.00000000000E+00 0.  1.
          5    1    1    2  502    0 -0.31240922454E+02 -0.85929637667E+02  0.12849225332E+03  0.15777277024E+03  0.47000000000E+01 0.  1.
         -5    1    1    2    0  502  0.20883483370E+01  0.40378800745E+02  0.10398278466E+03  0.11166610163E+03  0.47000000000E+01 0.  1.
        -11    1    1    2    0    0  0.33487501279E+02 -0.19448939005E+02  0.49411411544E+02  0.62778671228E+02  0.00000000000E+00 0.  1.
         11    1    1    2    0    0 -0.43349271621E+01  0.64999775926E+02  0.14296319972E+03  0.15710582083E+03  0.00000000000E+00 0. -1.
<mgrwt>
<rscale>  0 0.12808100E+03</rscale>
<asrwt>0</asrwt>
<pdfrwt beam="1">  1        2 0.70320997E-01 0.13620816E+03</pdfrwt>
<pdfrwt beam="2">  1       -2 0.49595168E-02 0.13620816E+03</pdfrwt>
<totfact> 0.12927716E+04</totfact>
</mgrwt>
</event>
<event>
 6    1  0.1045058E-005  0.1290859E+03  0.7546771E-02  0.1242938E+00
         -2   -1    0    0    0  501 -0.00000000000E+00  0.00000000000E+00  0.14610212199E+03  0.14610212199E+03  0.00000000000E+00 0.  1.
          2   -1    0    0  501    0  0.00000000000E+00 -0.00000000000E+00 -0.87507727978E+02  0.87507727978E+02  0.00000000000E+00 0. -1.
          5    1    1    2  502    0  0.63244796000E+02  0.32342514996E+02 -0.52211562345E+00  0.71192029765E+02  0.47000000000E+01 0. -1.
         -5    1    1    2    0  502 -0.31509682587E+02 -0.37936214036E+02  0.40368163719E+02  0.63903795460E+02  0.47000000000E+01 0. -1.
        -11    1    1    2    0    0  0.31187232359E+02 -0.43172882479E+01 -0.19295195245E+01  0.31543707544E+02  0.00000000000E+00 0. -1.
         11    1    1    2    0    0 -0.62922345772E+02  0.99109872872E+01  0.20677865439E+02  0.66970317198E+02  0.00000000000E+00 0.  1.
<mgrwt>
<rscale>  0 0.12009668E+03</rscale>
<asrwt>0</asrwt>
<pdfrwt beam="2">  1        2 0.13462727E-01 0.12908592E+03</pdfrwt>
<pdfrwt beam="1">  1       -2 0.22477249E-01 0.12908592E+03</pdfrwt>
<totfact> 0.71726065E+03</totfact>
</mgrwt>
</event>
<event>
 6    1  0.1045058E-005  0.1757507E+03  0.7546771E-02  0.1177864E+00
         -1   -1    0    0    0  501 -0.00000000000E+00  0.00000000000E+00  0.32242172087E+02  0.32242172087E+02  0.00000000000E+00 0.  1.
          1   -1    0    0  501    0  0.00000000000E+00 -0.00000000000E+00 -0.84332392638E+03  0.84332392638E+03  0.00000000000E+00 0. -1.
          5    1    1    2  502    0  0.60512766327E+02 -0.93190514690E+02 -0.33069558500E+03  0.34889529497E+03  0.47000000000E+01 0. -1.
         -5    1    1    2    0  502  0.46948170154E+02  0.32244291946E+02 -0.84988358108E+02  0.10241550692E+03  0.47000000000E+01 0. -1.
        -11    1    1    2    0    0 -0.20932487499E+02  0.60154728261E+02 -0.12407918174E+03  0.13947187425E+03  0.00000000000E+00 0.  1.
         11    1    1    2    0    0 -0.86528448982E+02  0.79149448292E+00 -0.27131862944E+03  0.28478342232E+03  0.00000000000E+00 0. -1.
<mgrwt>
<rscale>  0 0.16998430E+03</rscale>
<asrwt>0</asrwt>
<pdfrwt beam="2">  1        1 0.12974214E+00 0.17575067E+03</pdfrwt>
<pdfrwt beam="1">  1       -1 0.49603344E-02 0.17575067E+03</pdfrwt>
<totfact> 0.37264133E+03</totfact>
</mgrwt>
</event>
<event>
 6    1  0.1045058E-005  0.1425126E+03  0.7546771E-02  0.1220665E+00
          2   -1    0    0  501    0  0.00000000000E+00  0.00000000000E+00  0.49742662463E+03  0.49742662463E+03  0.00000000000E+00 0. -1.
         -2   -1    0    0    0  501 -0.00000000000E+00 -0.00000000000E+00 -0.33154279020E+02  0.33154279020E+02  0.00000000000E+00 0.  1.
          5    1    1    2  502    0 -0.31760756920E+02  0.10654256975E+02 -0.26552866462E+01  0.33932276950E+02  0.47000000000E+01 0. -1.
         -5    1    1    2    0  502 -0.35017906936E+02  0.43329120667E+01  0.24218334596E+03  0.24478539784E+03  0.47000000000E+01 0. -1.
        -11    1    1    2    0    0  0.63776703215E+02 -0.48314210327E+02  0.16537008722E+03  0.18370899961E+03  0.00000000000E+00 0. -1.
         11    1    1    2    0    0  0.30019606408E+01  0.33327041285E+02  0.59374199078E+02  0.68154229250E+02  0.00000000000E+00 0.  1.
<mgrwt>
<rscale>  0 0.13468500E+03</rscale>
<asrwt>0</asrwt>
<pdfrwt beam="1">  1        2 0.76527168E-01 0.14251263E+03</pdfrwt>
<pdfrwt beam="2">  1       -2 0.51006587E-02 0.14251263E+03</pdfrwt>
<totfact> 0.11338414E+04</totfact>
</mgrwt>
</event>
<event>
 6    1  0.1045058E-005  0.2893002E+03  0.7546771E-02  0.1090715E+00
         -2   -1    0    0    0  501 -0.00000000000E+00  0.00000000000E+00  0.20989798886E+02  0.20989798886E+02  0.00000000000E+00 0.  1.
          2   -1    0    0  501    0  0.00000000000E+00 -0.00000000000E+00 -0.99684886948E+03  0.99684886948E+03  0.00000000000E+00 0. -1.
          5    1    1    2  502    0 -0.72804720750E+02 -0.79569073223E+02 -0.38120013214E+03  0.39619110984E+03  0.47000000000E+01 0.  1.
         -5    1    1    2    0  502  0.30512479296E+02  0.57988619740E+01 -0.29693520102E+03  0.29859209936E+03  0.47000000000E+01 0.  1.
        -11    1    1    2    0    0  0.10585306271E+02  0.50387195022E+02 -0.27004061498E+03  0.27490516887E+03  0.00000000000E+00 0. -1.
         11    1    1    2    0    0  0.31706935184E+02  0.23383016227E+02 -0.27683122446E+02  0.48150290289E+02  0.00000000000E+00 0.  1.
<mgrwt>
<rscale>  0 0.28930024E+03</rscale>
<asrwt>0</asrwt>
<pdfrwt beam="2">  1        2 0.15336135E+00 0.28930024E+03</pdfrwt>
<pdfrwt beam="1">  1       -2 0.32292002E-02 0.28930024E+03</pdfrwt>
<totfact> 0.10000714E+04</totfact>
</mgrwt>
</event>
<event>
 6    1  0.1045058E-005  0.2229115E+03  0.7546771E-02  0.1134976E+00
          1   -1    0    0  501    0  0.00000000000E+00  0.00000000000E+00  0.58427286548E+03  0.58427286548E+03  0.00000000000E+00 0. -1.
         -1   -1    0    0    0  501 -0.00000000000E+00 -0.00000000000E+00 -0.14989068691E+03  0.14989068691E+03  0.00000000000E+00 0.  1.
          5    1    1    2  502    0 -0.88312102932E+02 -0.11485403435E+03  0.45664380522E+03  0.47909929198E+03  0.47000000000E+01 0.  1.
         -5    1    1    2    0  502 -0.34010557421E+02 -0.23356588139E+02  0.17952827641E+02  0.45239830303E+02  0.47000000000E+01 0.  1.
        -11    1    1    2    0    0  0.10098836185E+03  0.53696778373E+02 -0.13421747789E+01  0.11438441620E+03  0.00000000000E+00 0.  1.
         11    1    1    2    0    0  0.21334298504E+02  0.84513844112E+02 -0.38872279515E+02  0.95440013904E+02  0.00000000000E+00 0. -1.
<mgrwt>
<rscale>  0 0.21854042E+03</rscale>
<asrwt>0</asrwt>
<pdfrwt beam="1">  1        1 0.89888132E-01 0.22291153E+03</pdfrwt>
<pdfrwt beam="2">  1       -1 0.23060106E-01 0.22291153E+03</pdfrwt>
<totfact> 0.58570763E+02</totfact>
</mgrwt>
</event>
<event>
 6    1  0.1045058E-005  0.1309009E+03  0.7546771E-02  0.1239603E+00
         -4   -1    0    0    0  501 -0.00000000000E+00  0.00000000000E+00  0.16541049858E+03  0.16541049858E+03  0.00000000000E+00 0.  1.
          4   -1    0    0  501    0  0.00000000000E+00 -0.00000000000E+00 -0.83630745223E+02  0.83630745223E+02  0.00000000000E+00 0. -1.
          5    1    1    2  502    0 -0.59264916623E+02  0.47044422316E+02 -0.12508102014E+02  0.76837820306E+02  0.47000000000E+01 0. -1.
         -5    1    1    2    0  502  0.42843265689E+02 -0.11820657545E+02  0.33232505532E+02  0.55693471643E+02  0.47000000000E+01 0. -1.
        -11    1    1    2    0    0 -0.15590052911E+02  0.10256473205E+02 -0.13832340222E+02  0.23228831834E+02  0.00000000000E+00 0. -1.
         11    1    1    2    0    0  0.32011703845E+02 -0.45480237977E+02  0.74887690057E+02  0.93281120017E+02  0.00000000000E+00 0.  1.
<mgrwt>
<rscale>  0 0.12214309E+03</rscale>
<asrwt>0</asrwt>
<pdfrwt beam="2">  1        4 0.12866269E-01 0.13090089E+03</pdfrwt>
<pdfrwt beam="1">  1       -4 0.25447769E-01 0.13090089E+03</pdfrwt>
<totfact> 0.11685578E+03</totfact>
</mgrwt>
</event>
<event>
 6    1  0.1045058E-005  0.1468836E+03  0.7546771E-02  0.1213513E+00
         -1   -1    0    0    0  501 -0.00000000000E+00  0.00000000000E+00  0.40598523744E+03  0.40598523744E+03  0.00000000000E+00 0.  1.
          1   -1    0    0  501    0  0.00000000000E+00 -0.00000000000E+00 -0.44285315758E+02  0.44285315758E+02  0.00000000000E+00 0. -1.
          5    1    1    2  502    0 -0.52647525082E+02 -0.13128288695E+02  0.50969549532E+02  0.74592887334E+02  0.47000000000E+01 0. -1.
         -5    1    1    2    0  502  0.22975716101E+02  0.84335661159E+02  0.16164539579E+03  0.18382521931E+03  0.47000000000E+01 0. -1.
        -11    1    1    2    0    0  0.14113055993E+02 -0.32545256527E+02 -0.16009126038E+01  0.35509646478E+02  0.00000000000E+00 0. -1.
         11    1    1    2    0    0  0.15558752989E+02 -0.38662115938E+02  0.15068588896E+03  0.15634280008E+03  0.00000000000E+00 0.  1.
<mgrwt>
<rscale>  0 0.13986324E+03</rscale>
<asrwt>0</asrwt>
<pdfrwt beam="2">  1        1 0.68131258E-02 0.14688364E+03</pdfrwt>
<pdfrwt beam="1">  1       -1 0.62459265E-01 0.14688364E+03</pdfrwt>
<totfact> 0.28237819E+03</totfact>
</mgrwt>
</event>
<event>
 6    1  0.1045058E-005  0.2413934E+03  0.7546771E-02  0.1118868E+00
         -2   -1    0    0    0  501 -0.00000000000E+00  0.00000000000E+00  0.17692333781E+03  0.17692333781E+03  0.00000000000E+00 0.  1.
          2   -1    0    0  501    0  0.00000000000E+00 -0.00000000000E+00 -0.82339007255E+02  0.82339007255E+02  0.00000000000E+00 0. -1.
          5    1    1    2  502    0 -0.83180316002E+01 -0.12938939081E+02 -0.38425092366E+02  0.41655534057E+02  0.47000000000E+01 0. -1.
         -5    1    1    2    0  502 -0.17568040583E+02  0.58119344692E+02  0.78930150098E+02  0.99692290935E+02  0.47000000000E+01 0. -1.
        -11    1    1    2    0    0 -0.21344679850E+02 -0.43184848806E+02  0.29230012517E+01  0.48260444057E+02  0.00000000000E+00 0. -1.
         11    1    1    2    0    0  0.47230752033E+02 -0.19955568056E+01  0.51156271574E+02  0.69654076018E+02  0.00000000000E+00 0.  1.
<mgrwt>
<rscale>  0 0.24139339E+03</rscale>
<asrwt>0</asrwt>
<pdfrwt beam="2">  1        2 0.12667540E-01 0.24139339E+03</pdfrwt>
<pdfrwt beam="1">  1       -2 0.27218975E-01 0.24139339E+03</pdfrwt>
<totfact> 0.57516067E+03</totfact>
</mgrwt>
</event>
<event>
 6    1  0.1045058E-005  0.1403501E+03  0.7546771E-02  0.1224411E+00
         -2   -1    0    0    0  501 -0.00000000000E+00  0.00000000000E+00  0.38652579078E+02  0.38652579078E+02  0.00000000000E+00 0.  1.
          2   -1    0    0  501    0  0.00000000000E+00 -0.00000000000E+00 -0.45204628391E+03  0.45204628391E+03  0.00000000000E+00 0. -1.
          5    1    1    2  502    0 -0.33322302910E+02  0.63241530501E+01 -0.36020965287E+02  0.49698800018E+02  0.47000000000E+01 0. -1.
         -5    1    1    2    0  502  0.90788651938E+02 -0.34131181183E+02 -0.27126059109E+03  0.28811788408E+03  0.47000000000E+01 0. -1.
        -11    1    1    2    0    0 -0.32871923672E+02  0.58307832496E+02 -0.85578014158E+02  0.10864604550E+03  0.00000000000E+00 0.  1.
         11    1    1    2    0    0 -0.24594425356E+02 -0.30500804363E+02 -0.20534134295E+02  0.44236133382E+02  0.00000000000E+00 0. -1.
<mgrwt>
<rscale>  0 0.13207385E+03</rscale>
<asrwt>0</asrwt>
<pdfrwt beam="2">  1        2 0.69545587E-01 0.14035012E+03</pdfrwt>
<pdfrwt beam="1">  1       -2 0.59465502E-02 0.14035012E+03</pdfrwt>
<totfact> 0.99714768E+03</totfact>
</mgrwt>
</event>
<event>
 6    1  0.1045058E-005  0.2373426E+03  0.7546771E-02  0.1161446E+00
          2   -1    0    0  501    0  0.00000000000E+00  0.00000000000E+00  0.10204483485E+04  0.10204483485E+04  0.00000000000E+00 0. -1.
         -2   -1    0    0    0  501 -0.00000000000E+00 -0.00000000000E+00 -0.26401268530E+02  0.26401268530E+02  0.00000000000E+00 0.  1.
          5    1    1    2  502    0 -0.31653577966E+02 -0.71524694823E+02  0.58133738320E+03  0.58659438633E+03  0.47000000000E+01 0. -1.
         -5    1    1    2    0  502  0.20939444568E+02  0.97983791323E+02  0.13601018561E+03  0.16899746830E+03  0.47000000000E+01 0.  1.
        -11    1    1    2    0    0  0.19203760714E+02  0.28553559564E+02  0.86928072486E+02  0.93491068961E+02  0.00000000000E+00 0.  1.
         11    1    1    2    0    0 -0.84896273164E+01 -0.55012656065E+02  0.18977143866E+03  0.19776669343E+03  0.00000000000E+00 0. -1.
<mgrwt>
<rscale>  0 0.18672820E+03</rscale>
<asrwt>0</asrwt>
<pdfrwt beam="1">  1        2 0.15699202E+00 0.23734261E+03</pdfrwt>
<pdfrwt beam="2">  1       -2 0.40617344E-02 0.23734261E+03</pdfrwt>
<totfact> 0.68028214E+03</totfact>
</mgrwt>
</event>
<event>
 6    1  0.1045058E-005  0.1341363E+03  0.7546771E-02  0.1233055E+00
         -1   -1    0    0    0  501 -0.00000000000E+00  0.00000000000E+00  0.94759844480E+01  0.94759844480E+01  0.00000000000E+00 0.  1.
          1   -1    0    0  501    0  0.00000000000E+00 -0.00000000000E+00 -0.17585013492E+04  0.17585013492E+04  0.00000000000E+00 0. -1.
          5    1    1    2  502    0  0.38135785345E+02  0.17956499720E+02 -0.10284799878E+04  0.10293541418E+04  0.47000000000E+01 0. -1.
         -5    1    1    2    0  502 -0.79602292765E+01 -0.56152751570E+02 -0.26378791994E+03  0.26985672766E+03  0.47000000000E+01 0. -1.
        -11    1    1    2    0    0 -0.49305470428E+02 -0.85286821270E+01 -0.15682879577E+03  0.16461785752E+03  0.00000000000E+00 0.  1.
         11    1    1    2    0    0  0.19129914359E+02  0.46724933977E+02 -0.29992866126E+03  0.30414860664E+03  0.00000000000E+00 0. -1.
<mgrwt>
<rscale>  0 0.12629801E+03</rscale>
<asrwt>0</asrwt>
<pdfrwt beam="2">  1        1 0.27053879E+00 0.13413627E+03</pdfrwt>
<pdfrwt beam="1">  1       -1 0.14578431E-02 0.13413627E+03</pdfrwt>
<totfact> 0.51913535E+03</totfact>
</mgrwt>
</event>
<event>
 6    1  0.1045058E-005  0.1524505E+03  0.7546771E-02  0.1205976E+00
         -3   -1    0    0    0  501 -0.00000000000E+00  0.00000000000E+00  0.48406179429E+03  0.48406179429E+03  0.00000000000E+00 0.  1.
          3   -1    0    0  501    0  0.00000000000E+00 -0.00000000000E+00 -0.42646688638E+02  0.42646688638E+02  0.00000000000E+00 0. -1.
          5    1    1    2  502    0  0.44698932557E+02  0.54341570636E+02  0.14447665233E+03  0.16076875922E+03  0.47000000000E+01 0.  1.
         -5    1    1    2    0  502  0.42450903848E+02 -0.49767052374E+02  0.33722530788E+02  0.73743730732E+02  0.47000000000E+01 0.  1.
        -11    1    1    2    0    0 -0.23464704901E+01  0.30940850399E+02  0.38833291121E+02  0.49707812730E+02  0.00000000000E+00 0.  1.
         11    1    1    2    0    0 -0.84803365915E+02 -0.35515368662E+02  0.22438263141E+03  0.24248818025E+03  0.00000000000E+00 0. -1.
<mgrwt>
<rscale>  0 0.14560826E+03</rscale>
<asrwt>0</asrwt>
<pdfrwt beam="2">  1        3 0.65610294E-02 0.15245051E+03</pdfrwt>
<pdfrwt beam="1">  1       -3 0.74471042E-01 0.15245051E+03</pdfrwt>
<totfact> 0.60463993E+02</totfact>
</mgrwt>
</event>
<event>
 6    1  0.1045058E-005  0.1313402E+03  0.7546771E-02  0.1240988E+00
          1   -1    0    0  501    0  0.00000000000E+00  0.00000000000E+00  0.72334287045E+02  0.72334287045E+02  0.00000000000E+00 0. -1.
         -1   -1    0    0    0  501 -0.00000000000E+00 -0.00000000000E+00 -0.22622136110E+03  0.22622136110E+03  0.00000000000E+00 0.  1.
          5    1    1    2  502    0  0.68204049291E+01 -0.69465598666E+02 -0.81396560617E+01  0.70429619638E+02  0.47000000000E+01 0.  1.
         -5    1    1    2    0  502 -0.39873508180E+02  0.46384073863E+02 -0.10022253840E+02  0.62160393618E+02  0.47000000000E+01 0.  1.
        -11    1    1    2    0    0  0.39474799146E+02  0.99400908550E+01 -0.14366655519E+03  0.14932228318E+03  0.00000000000E+00 0.  1.
         11    1    1    2    0    0 -0.64216958949E+01  0.13141433949E+02  0.79413910388E+01  0.16643351706E+02  0.00000000000E+00 0. -1.
<mgrwt>
<rscale>  0 0.12128781E+03</rscale>
<asrwt>0</asrwt>
<pdfrwt beam="1">  1        1 0.11128352E-01 0.13134023E+03</pdfrwt>
<pdfrwt beam="2">  1       -1 0.34803286E-01 0.13134023E+03</pdfrwt>
<totfact> 0.41914500E+03</totfact>
</mgrwt>
</event>
<event>
 6    1  0.1045058E-005  0.2203638E+03  0.7546771E-02  0.1159937E+00
         -4   -1    0    0    0  501 -0.00000000000E+00  0.00000000000E+00  0.65013417079E+02  0.65013417079E+02  0.00000000000E+00 0.  1.
          4   -1    0    0  501    0  0.00000000000E+00 -0.00000000000E+00 -0.45465431265E+03  0.45465431265E+03  0.00000000000E+00 0. -1.
          5    1    1    2  502    0  0.44618810634E+02  0.11764630888E+03 -0.28042813511E+03  0.30739798506E+03  0.47000000000E+01 0. -1.
         -5    1    1    2    0  502 -0.43538122770E+02 -0.41658349984E+02 -0.17031567712E+02  0.62794510560E+02  0.47000000000E+01 0.  1.
        -11    1    1    2    0    0  0.40824339402E+01 -0.95789017027E+02 -0.66702847026E+02  0.11679671165E+03  0.00000000000E+00 0.  1.
         11    1    1    2    0    0 -0.51631218043E+01  0.19801058126E+02 -0.25478345720E+02  0.32678522462E+02  0.00000000000E+00 0. -1.
<mgrwt>
<rscale>  0 0.18837301E+03</rscale>
<asrwt>0</asrwt>
<pdfrwt beam="2">  1        4 0.69946816E-01 0.22036381E+03</pdfrwt>
<pdfrwt beam="1">  1       -4 0.10002064E-01 0.22036381E+03</pdfrwt>
<totfact> 0.26146551E+02</totfact>
</mgrwt>
</event>
<event>
 6    1  0.1045058E-005  0.1294142E+03  0.7546771E-02  0.1243164E+00
         -2   -1    0    0    0  501 -0.00000000000E+00  0.00000000000E+00  0.12852704689E+02  0.12852704689E+02  0.00000000000E+00 0.  1.
          2   -1    0    0  501    0  0.00000000000E+00 -0.00000000000E+00 -0.13063865001E+04  0.13063865001E+04  0.00000000000E+00 0. -1.
          5    1    1    2  502    0 -0.48018125480E+02 -0.53545962433E+02 -0.88860243775E+03  0.89152077533E+03  0.47000000000E+01 0. -1.
         -5    1    1    2    0  502  0.31493069899E+02  0.24387641110E+02 -0.15624578228E+03  0.16131151531E+03  0.47000000000E+01 0. -1.
        -11    1    1    2    0    0  0.19448594430E+02 -0.27751981534E+02 -0.55846095254E+02  0.65323859802E+02  0.00000000000E+00 0.  1.
         11    1    1    2    0    0 -0.29235388495E+01  0.56910302857E+02 -0.19283948009E+03  0.20108305431E+03  0.00000000000E+00 0. -1.
<mgrwt>
<rscale>  0 0.11995935E+03</rscale>
<asrwt>0</asrwt>
<pdfrwt beam="2">  1        2 0.20098256E+00 0.12941418E+03</pdfrwt>
<pdfrwt beam="1">  1       -2 0.19773389E-02 0.12941418E+03</pdfrwt>
<totfact> 0.13194667E+04</totfact>
</mgrwt>
</event>
<event>
 6    1  0.1045058E-005  0.1552167E+03  0.7546771E-02  0.1207027E+00
          1   -1    0    0  501    0  0.00000000000E+00  0.00000000000E+00  0.27498805088E+03  0.27498805088E+03  0.00000000000E+00 0. -1.
         -1   -1    0    0    0  501 -0.00000000000E+00 -0.00000000000E+00 -0.85385210053E+02  0.85385210053E+02  0.00000000000E+00 0.  1.
          5    1    1    2  502    0  0.26584352763E+02 -0.93666274054E+02  0.65646225734E+02  0.11752283038E+03  0.47000000000E+01 0. -1.
         -5    1    1    2    0  502  0.26132349225E+02  0.18238946956E+02  0.12108009500E+03  0.12529181245E+03  0.47000000000E+01 0. -1.
        -11    1    1    2    0    0 -0.29545533812E+02  0.59341015261E+02 -0.31247747110E+02  0.73285171488E+02  0.00000000000E+00 0.  1.
         11    1    1    2    0    0 -0.23171168176E+02  0.16086311837E+02  0.34124267204E+02  0.44273446617E+02  0.00000000000E+00 0. -1.
<mgrwt>
<rscale>  0 0.14478881E+03</rscale>
<asrwt>0</asrwt>
<pdfrwt beam="1">  1        1 0.42305854E-01 0.15521673E+03</pdfrwt>
<pdfrwt beam="2">  1       -1 0.13136186E-01 0.15521673E+03</pdfrwt>
<totfact> 0.37715392E+03</totfact>
</mgrwt>
</event>
<event>
 6    1  0.1045058E-005  0.1381763E+03  0.7546771E-02  0.1228268E+00
         -2   -1    0    0    0  501 -0.00000000000E+00  0.00000000000E+00  0.22324362898E+03  0.22324362898E+03  0.00000000000E+00 0.  1.
          2   -1    0    0  501    0  0.00000000000E+00 -0.00000000000E+00 -0.68169103865E+02  0.68169103865E+02  0.00000000000E+00 0. -1.
          5    1    1    2  502    0 -0.24040456690E+02 -0.60349479910E+02  0.79885337974E+02  0.10307162804E+03  0.47000000000E+01 0. -1.
         -5    1    1    2    0  502 -0.30847365924E+02  0.39018394550E+02 -0.11250650512E+02  0.51211934494E+02  0.47000000000E+01 0. -1.
        -11    1    1    2    0    0  0.37060599105E+02 -0.25342836393E+01  0.98285860142E+02  0.10507150376E+03  0.00000000000E+00 0.  1.
         11    1    1    2    0    0  0.17827223508E+02  0.23865368999E+02 -0.11846022491E+02  0.32057666545E+02  0.00000000000E+00 0. -1.
<mgrwt>
<rscale>  0 0.12945423E+03</rscale>
<asrwt>0</asrwt>
<pdfrwt beam="2">  1        2 0.10487555E-01 0.13817633E+03</pdfrwt>
<pdfrwt beam="1">  1       -2 0.34345173E-01 0.13817633E+03</pdfrwt>
<totfact> 0.45834934E+03</totfact>
</mgrwt>
</event>
<event>
 6    1  0.1045058E-005  0.1652098E+03  0.7546771E-02  0.1191316E+00
         -2   -1    0    0    0  501 -0.00000000000E+00  0.00000000000E+00  0.44259267822E+03  0.44259267822E+03  0.00000000000E+00 0.  1.
          2   -1    0    0  501    0  0.00000000000E+00 -0.00000000000E+00 -0.12473600625E+03  0.12473600625E+03  0.00000000000E+00 0. -1.
          5    1    1    2  502    0  0.78633209128E+02 -0.43110592794E+02 -0.45854302915E+02  0.10082862632E+03  0.47000000000E+01 0. -1.
         -5    1    1    2    0  502 -0.51814420567E+02 -0.49843317674E+02 -0.58682216322E+01  0.72288425910E+02  0.47000000000E+01 0.  1.
        -11    1    1    2    0    0 -0.60447187417E+02  0.81844152150E+02  0.27503573811E+03  0.29325242530E+03  0.00000000000E+00 0. -1.
         11    1    1    2    0    0  0.33628398855E+02  0.11109758318E+02  0.94543458406E+02  0.10095920694E+03  0.00000000000E+00 0.  1.
<mgrwt>
<rscale>  0 0.15770199E+03</rscale>
<asrwt>0</asrwt>
<pdfrwt beam="2">  1        2 0.19190155E-01 0.16520985E+03</pdfrwt>
<pdfrwt beam="1">  1       -2 0.68091181E-01 0.16520985E+03</pdfrwt>
<totfact> 0.58639966E+02</totfact>
</mgrwt>
</event>
<event>
 6    1  0.1045058E-005  0.2176169E+03  0.7546771E-02  0.1143260E+00
         -1   -1    0    0    0  501 -0.00000000000E+00  0.00000000000E+00  0.16404483268E+03  0.16404483268E+03  0.00000000000E+00 0.  1.
          1   -1    0    0  501    0  0.00000000000E+00 -0.00000000000E+00 -0.41201371472E+03  0.41201371472E+03  0.00000000000E+00 0. -1.
          5    1    1    2  502    0  0.23193457265E+02 -0.15791833441E+03 -0.16405952326E+03  0.22894050314E+03  0.47000000000E+01 0. -1.
         -5    1    1    2    0  502  0.27941818801E+02  0.10254565468E+02 -0.15094733687E+03  0.15392559845E+03  0.47000000000E+01 0.  1.
        -11    1    1    2    0    0 -0.49609233206E+02  0.26869771831E+02  0.40657270127E+02  0.69541888612E+02  0.00000000000E+00 0.  1.
         11    1    1    2    0    0 -0.15260428607E+01  0.12079399711E+03  0.26380707965E+02  0.12365055721E+03  0.00000000000E+00 0. -1.
<mgrwt>
<rscale>  0 0.20787492E+03</rscale>
<asrwt>0</asrwt>
<pdfrwt beam="2">  1        1 0.63386725E-01 0.21761693E+03</pdfrwt>
<pdfrwt beam="1">  1       -1 0.25237667E-01 0.21761693E+03</pdfrwt>
<totfact> 0.80114477E+02</totfact>
</mgrwt>
</event>
<event>
 6    1  0.1045058E-005  0.2283722E+03  0.7546771E-02  0.1161791E+00
          2   -1    0    0  501    0  0.00000000000E+00  0.00000000000E+00  0.12454393785E+04  0.12454393785E+04  0.00000000000E+00 0. -1.
         -2   -1    0    0    0  501 -0.00000000000E+00 -0.00000000000E+00 -0.23514659215E+02  0.23514659215E+02  0.00000000000E+00 0.  1.
          5    1    1    2  502    0  0.26932848909E+02 -0.39015921081E+02  0.98243900355E+03  0.98359346589E+03  0.47000000000E+01 0. -1.
         -5    1    1    2    0  502  0.10930696093E+02  0.27536427015E+02  0.56260214002E+01  0.30520108889E+02  0.47000000000E+01 0.  1.
        -11    1    1    2    0    0 -0.15861237519E+02 -0.40032352638E+02  0.76185559988E+02  0.87512328640E+02  0.00000000000E+00 0. -1.
         11    1    1    2    0    0 -0.22002307484E+02  0.51511846704E+02  0.15767413438E+03  0.16732813433E+03  0.00000000000E+00 0.  1.
<mgrwt>
<rscale>  0 0.18635471E+03</rscale>
<asrwt>0</asrwt>
<pdfrwt beam="1">  1        2 0.19160601E+00 0.22837217E+03</pdfrwt>
<pdfrwt beam="2">  1       -2 0.36176408E-02 0.22837217E+03</pdfrwt>
<totfact> 0.59876904E+03</totfact>
</mgrwt>
</event>
<event>
 6    1  0.1045058E-005  0.1439508E+03  0.7546771E-02  0.1219104E+00
         -2   -1    0    0    0  501 -0.00000000000E+00  0.00000000000E+00  0.23015183247E+03  0.23015183247E+03  0.00000000000E+00 0.  1.
          2   -1    0    0  501    0  0.00000000000E+00 -0.00000000000E+00 -0.76120429056E+02  0.76120429056E+02  0.00000000000E+00 0. -1.
          5    1    1    2  502    0  0.50178629510E+01 -0.53259822745E+02  0.60026833381E+02  0.80542525372E+02  0.47000000000E+01 0. -1.
         -5    1    1    2    0  502  0.63471417302E+02  0.33116071082E+02 -0.87312685298E+01  0.72274615380E+02  0.47000000000E+01 0. -1.
        -11    1    1    2    0    0  0.48727505654E+01  0.30237467861E+02  0.61477113291E+02  0.68683940039E+02  0.00000000000E+00 0. -1.
         11    1    1    2    0    0 -0.73362030818E+02 -0.10093716197E+02  0.41258725273E+02  0.84771180737E+02  0.00000000000E+00 0.  1.
<mgrwt>
<rscale>  0 0.13579312E+03</rscale>
<asrwt>0</asrwt>
<pdfrwt beam="2">  1        2 0.11710835E-01 0.14395084E+03</pdfrwt>
<pdfrwt beam="1">  1       -2 0.35407974E-01 0.14395084E+03</pdfrwt>
<totfact> 0.37993309E+03</totfact>
</mgrwt>
</event>
<event>
 6    1  0.1045058E-005  0.1489103E+03  0.7546771E-02  0.1204457E+00
          1   -1    0    0  501    0  0.00000000000E+00  0.00000000000E+00  0.22682282723E+03  0.22682282723E+03  0.00000000000E+00 0. -1.
         -1   -1    0    0    0  501 -0.00000000000E+00 -0.00000000000E+00 -0.92565919942E+02  0.92565919942E+02  0.00000000000E+00 0.  1.
          5    1    1    2  502    0 -0.31022054915E+02  0.48953394284E+02 -0.25635179244E+02  0.63545693151E+02  0.47000000000E+01 0. -1.
         -5    1    1    2    0  502 -0.40680225873E+02 -0.11434724157E+02  0.88318950460E+02  0.98020205590E+02  0.47000000000E+01 0. -1.
        -11    1    1    2    0    0  0.28210283484E+02 -0.58325417802E+02  0.85837479267E+02  0.10754416443E+03  0.00000000000E+00 0.  1.
         11    1    1    2    0    0  0.43491997304E+02  0.20806747675E+02 -0.14264343194E+02  0.50278684003E+02  0.00000000000E+00 0. -1.
<mgrwt>
<rscale>  0 0.14680354E+03</rscale>
<asrwt>0</asrwt>
<pdfrwt beam="1">  1        1 0.34895820E-01 0.14891032E+03</pdfrwt>
<pdfrwt beam="2">  1       -1 0.14240911E-01 0.14891032E+03</pdfrwt>
<totfact> 0.42133262E+03</totfact>
</mgrwt>
</event>
<event>
 6    1  0.1045058E-005  0.1305252E+03  0.7546771E-02  0.1243970E+00
         -2   -1    0    0    0  501 -0.00000000000E+00  0.00000000000E+00  0.21680440888E+02  0.21680440888E+02  0.00000000000E+00 0.  1.
          2   -1    0    0  501    0  0.00000000000E+00 -0.00000000000E+00 -0.57212155271E+03  0.57212155271E+03  0.00000000000E+00 0. -1.
          5    1    1    2  502    0  0.15980268889E+02 -0.43734090501E+02 -0.11232452797E+03  0.12168372632E+03  0.47000000000E+01 0.  1.
         -5    1    1    2    0  502 -0.18530026001E+02  0.81220219640E+02 -0.23228089048E+03  0.24681286033E+03  0.47000000000E+01 0.  1.
        -11    1    1    2    0    0 -0.38593069469E+02 -0.31070177507E+02 -0.12266746306E+03  0.13229545508E+03  0.00000000000E+00 0.  1.
         11    1    1    2    0    0  0.41142826581E+02 -0.64159516308E+01 -0.83168230311E+02  0.93009951873E+02  0.00000000000E+00 0. -1.
<mgrwt>
<rscale>  0 0.11947259E+03</rscale>
<asrwt>0</asrwt>
<pdfrwt beam="2">  1        2 0.88018692E-01 0.13052525E+03</pdfrwt>
<pdfrwt beam="1">  1       -2 0.33354528E-02 0.13052525E+03</pdfrwt>
<totfact> 0.18144583E+04</totfact>
</mgrwt>
</event>
<event>
 6    1  0.1045058E-005  0.1253329E+03  0.7546771E-02  0.1245626E+00
         -2   -1    0    0    0  501 -0.00000000000E+00  0.00000000000E+00  0.41530715317E+02  0.41530715317E+02  0.00000000000E+00 0.  1.
          2   -1    0    0  501    0  0.00000000000E+00 -0.00000000000E+00 -0.30665494893E+03  0.30665494893E+03  0.00000000000E+00 0. -1.
          5    1    1    2  502    0  0.23615142365E+02  0.42817264147E+02 -0.13226977166E+03  0.14109704303E+03  0.47000000000E+01 0. -1.
         -5    1    1    2    0  502 -0.14523278043E+02 -0.42749737500E+02 -0.64385877451E+01  0.45847694310E+02  0.47000000000E+01 0. -1.
        -11    1    1    2    0    0 -0.55263712459E+01 -0.47812600948E+02 -0.40579178599E+02  0.62954390826E+02  0.00000000000E+00 0. -1.
         11    1    1    2    0    0 -0.35654930761E+01  0.47745074301E+02 -0.85836695609E+02  0.98286536077E+02  0.00000000000E+00 0.  1.
<mgrwt>
<rscale>  0 0.11847986E+03</rscale>
<asrwt>0</asrwt>
<pdfrwt beam="2">  1        2 0.47177685E-01 0.12533286E+03</pdfrwt>
<pdfrwt beam="1">  1       -2 0.63893407E-02 0.12533286E+03</pdfrwt>
<totfact> 0.13405232E+04</totfact>
</mgrwt>
</event>
<event>
 6    1  0.1045058E-005  0.1313173E+03  0.7546771E-02  0.1238999E+00
         -2   -1    0    0    0  501 -0.00000000000E+00  0.00000000000E+00  0.21521721081E+03  0.21521721081E+03  0.00000000000E+00 0.  1.
          2   -1    0    0  501    0  0.00000000000E+00 -0.00000000000E+00 -0.69522121881E+02  0.69522121881E+02  0.00000000000E+00 0. -1.
          5    1    1    2  502    0  0.70037194776E+01  0.50004031253E+02  0.23811528861E+02  0.56022621634E+02  0.47000000000E+01 0.  1.
         -5    1    1    2    0  502 -0.44157044306E+02 -0.65450371177E+02  0.11200224459E+02  0.79881979677E+02  0.47000000000E+01 0.  1.
        -11    1    1    2    0    0  0.37072235410E+02 -0.28877200456E+02  0.27151990288E+02  0.54272220528E+02  0.00000000000E+00 0. -1.
         11    1    1    2    0    0  0.81089418876E-01  0.44323540381E+02  0.83531345324E+02  0.94562510854E+02  0.00000000000E+00 0.  1.
<mgrwt>
<rscale>  0 0.12251838E+03</rscale>
<asrwt>0</asrwt>
<pdfrwt beam="2">  1        2 0.10695711E-01 0.13131732E+03</pdfrwt>
<pdfrwt beam="1">  1       -2 0.33110340E-01 0.13131732E+03</pdfrwt>
<totfact> 0.47693954E+03</totfact>
</mgrwt>
</event>
<event>
 6    1  0.1045058E-005  0.4049664E+03  0.7546771E-02  0.1042073E+00
          2   -1    0    0  501    0  0.00000000000E+00  0.00000000000E+00  0.79831596876E+03  0.79831596876E+03  0.00000000000E+00 0. -1.
         -2   -1    0    0    0  501 -0.00000000000E+00 -0.00000000000E+00 -0.51357426023E+02  0.51357426023E+02  0.00000000000E+00 0.  1.
          5    1    1    2  502    0 -0.32791662259E+01  0.29305185382E+02  0.43646290229E+02  0.52883224865E+02  0.47000000000E+01 0. -1.
         -5    1    1    2    0  502 -0.27990938791E+02 -0.95131203170E+02  0.48753939235E+03  0.49754415640E+03  0.47000000000E+01 0.  1.
        -11    1    1    2    0    0 -0.43650891805E+02  0.30781964481E+02 -0.13851159178E+02  0.55179564182E+02  0.00000000000E+00 0.  1.
         11    1    1    2    0    0  0.74920996822E+02  0.35044053307E+02  0.22962401933E+03  0.24406644934E+03  0.00000000000E+00 0. -1.
<mgrwt>
<rscale>  0 0.40496643E+03</rscale>
<asrwt>0</asrwt>
<pdfrwt beam="1">  1        2 0.12281783E+00 0.40496643E+03</pdfrwt>
<pdfrwt beam="2">  1       -2 0.79011430E-02 0.40496643E+03</pdfrwt>
<totfact> 0.34472123E+03</totfact>
</mgrwt>
</event>
<event>
 6    1  0.1045058E-005  0.1451012E+03  0.7546771E-02  0.1217000E+00
         -1   -1    0    0    0  501 -0.00000000000E+00  0.00000000000E+00  0.78215097871E+02  0.78215097871E+02  0.00000000000E+00 0.  1.
          1   -1    0    0  501    0  0.00000000000E+00 -0.00000000000E+00 -0.22080520551E+03  0.22080520551E+03  0.00000000000E+00 0. -1.
          5    1    1    2  502    0 -0.61557515780E+02 -0.87609272258E+02 -0.53140958734E+02  0.11962760480E+03  0.47000000000E+01 0.  1.
         -5    1    1    2    0  502  0.15976578449E+02  0.29712880257E+02 -0.41153095713E+02  0.53420722560E+02  0.47000000000E+01 0.  1.
        -11    1    1    2    0    0  0.67989856844E+02  0.51254937094E+02 -0.55354604094E+02  0.10155698600E+03  0.00000000000E+00 0. -1.
         11    1    1    2    0    0 -0.22408919513E+02  0.66414549075E+01  0.70585509045E+01  0.24414990024E+02  0.00000000000E+00 0.  1.
<mgrwt>
<rscale>  0 0.13730655E+03</rscale>
<asrwt>0</asrwt>
<pdfrwt beam="2">  1        1 0.33970031E-01 0.14510119E+03</pdfrwt>
<pdfrwt beam="1">  1       -1 0.12033092E-01 0.14510119E+03</pdfrwt>
<totfact> 0.56526193E+03</totfact>
</mgrwt>
</event>
<event>
 6    1  0.1045058E-005  0.1317767E+03  0.7546771E-02  0.1237086E+00
         -1   -1    0    0    0  501 -0.00000000000E+00  0.00000000000E+00  0.40455745073E+02  0.40455745073E+02  0.00000000000E+00 0.  1.
          1   -1    0    0  501    0  0.00000000000E+00 -0.00000000000E+00 -0.34995562093E+03  0.34995562093E+03  0.00000000000E+00 0. -1.
          5    1    1    2  502    0  0.46906855164E+02 -0.99885225216E+01 -0.14237530242E+03  0.15030914936E+03  0.47000000000E+01 0. -1.
         -5    1    1    2    0  502 -0.61344218931E+02 -0.33348867600E+02 -0.65728269196E+02  0.96008101419E+02  0.47000000000E+01 0. -1.
        -11    1    1    2    0    0  0.30579014139E+01  0.65589388036E+02 -0.37801799667E+02  0.75764732179E+02  0.00000000000E+00 0.  1.
         11    1    1    2    0    0  0.11379462354E+02 -0.22251997914E+02 -0.63594504575E+02  0.68329383041E+02  0.00000000000E+00 0. -1.
<mgrwt>
<rscale>  0 0.12371829E+03</rscale>
<asrwt>0</asrwt>
<pdfrwt beam="2">  1        1 0.53839326E-01 0.13177667E+03</pdfrwt>
<pdfrwt beam="1">  1       -1 0.62239608E-02 0.13177667E+03</pdfrwt>
<totfact> 0.86250586E+03</totfact>
</mgrwt>
</event>
<event>
 6    1  0.1045058E-005  0.1464125E+03  0.7546771E-02  0.1220657E+00
         -3   -1    0    0    0  501 -0.00000000000E+00  0.00000000000E+00  0.40290880116E+02  0.40290880116E+02  0.00000000000E+00 0.  1.
          3   -1    0    0  501    0  0.00000000000E+00 -0.00000000000E+00 -0.54592549324E+03  0.54592549324E+03  0.00000000000E+00 0. -1.
          5    1    1    2  502    0 -0.25467791246E+02  0.59467199139E+02 -0.80804310178E+02  0.10361651754E+03  0.47000000000E+01 0. -1.
         -5    1    1    2    0  502  0.21385178860E+02  0.16654250455E+02 -0.35623500040E+03  0.35729561352E+03  0.47000000000E+01 0. -1.
        -11    1    1    2    0    0 -0.30794087040E+01 -0.43140423967E+02 -0.78934062148E+02  0.90006472574E+02  0.00000000000E+00 0. -1.
         11    1    1    2    0    0  0.71620210894E+01 -0.32981025626E+02  0.10338759595E+02  0.35297769723E+02  0.00000000000E+00 0.  1.
<mgrwt>
<rscale>  0 0.13469059E+03</rscale>
<asrwt>0</asrwt>
<pdfrwt beam="2">  1        3 0.83988533E-01 0.14641255E+03</pdfrwt>
<pdfrwt beam="1">  1       -3 0.61985972E-02 0.14641255E+03</pdfrwt>
<totfact> 0.50810612E+02</totfact>
</mgrwt>
</event>
<event>
 6    1  0.1045058E-005  0.2326479E+03  0.7546771E-02  0.1127758E+00
         -2   -1    0    0    0  501 -0.00000000000E+00  0.00000000000E+00  0.34173833828E+02  0.34173833828E+02  0.00000000000E+00 0.  1.
          2   -1    0    0  501    0  0.00000000000E+00 -0.00000000000E+00 -0.18485610296E+04  0.18485610296E+04  0.00000000000E+00 0. -1.
          5    1    1    2  502    0 -0.58392176478E+02  0.17714250879E+03 -0.13315940786E+04  0.13446017978E+04  0.47000000000E+01 0. -1.
         -5    1    1    2    0  502 -0.19091283532E+02  0.31226682076E+01 -0.25813433981E+02  0.32598336422E+02  0.47000000000E+01 0. -1.
        -11    1    1    2    0    0  0.85705225701E+02 -0.11701231662E+03 -0.37203081219E+03  0.39930463706E+03  0.00000000000E+00 0. -1.
         11    1    1    2    0    0 -0.82217656916E+01 -0.63252860378E+02 -0.84948871000E+02  0.10623009207E+03  0.00000000000E+00 0.  1.
<mgrwt>
<rscale>  0 0.22841761E+03</rscale>
<asrwt>0</asrwt>
<pdfrwt beam="2">  1        2 0.28439405E+00 0.23264792E+03</pdfrwt>
<pdfrwt beam="1">  1       -2 0.52575121E-02 0.23264792E+03</pdfrwt>
<totfact> 0.16225065E+03</totfact>
</mgrwt>
</event>
<event>
 6    1  0.1045058E-005  0.1307754E+03  0.7546771E-02  0.1239461E+00
         -3   -1    0    0    0  501 -0.00000000000E+00  0.00000000000E+00  0.26485832202E+02  0.26485832202E+02  0.00000000000E+00 0.  1.
          3   -1    0    0  501    0  0.00000000000E+00 -0.00000000000E+00 -0.66480139634E+03  0.66480139634E+03  0.00000000000E+00 0. -1.
          5    1    1    2  502    0  0.26526641979E+02  0.11137066227E+01 -0.51581984745E+03  0.51652406343E+03  0.47000000000E+01 0.  1.
         -5    1    1    2    0  502  0.64092024955E+01  0.18708529504E+02 -0.56550348881E+01  0.21098729166E+02  0.47000000000E+01 0.  1.
        -11    1    1    2    0    0 -0.24552273156E+02 -0.50797327558E+02 -0.10548379250E+03  0.11962446691E+03  0.00000000000E+00 0. -1.
         11    1    1    2    0    0 -0.83835713180E+01  0.30975091431E+02 -0.11356889300E+02  0.34039969033E+02  0.00000000000E+00 0.  1.
<mgrwt>
<rscale>  0 0.12223134E+03</rscale>
<asrwt>0</asrwt>
<pdfrwt beam="2">  1        3 0.10227713E+00 0.13077543E+03</pdfrwt>
<pdfrwt beam="1">  1       -3 0.40747437E-02 0.13077543E+03</pdfrwt>
<totfact> 0.62574612E+02</totfact>
</mgrwt>
</event>
<event>
 6    1  0.1045058E-005  0.2505933E+03  0.7546771E-02  0.1112930E+00
          2   -1    0    0  501    0  0.00000000000E+00  0.00000000000E+00  0.17584004011E+03  0.17584004011E+03  0.00000000000E+00 0. -1.
         -2   -1    0    0    0  501 -0.00000000000E+00 -0.00000000000E+00 -0.89281451281E+02  0.89281451281E+02  0.00000000000E+00 0.  1.
          5    1    1    2  502    0  0.58017094276E+02  0.23404161303E+02  0.10379136183E+03  0.12127850092E+03  0.47000000000E+01 0.  1.
         -5    1    1    2    0  502 -0.19482305565E+02  0.18870656354E+02 -0.24984283428E+02  0.37174807596E+02  0.47000000000E+01 0.  1.
        -11    1    1    2    0    0 -0.51176641937E+01 -0.30473542548E+02  0.45429201315E+02  0.54942147887E+02  0.00000000000E+00 0. -1.
         11    1    1    2    0    0 -0.33417124518E+02 -0.11801275109E+02 -0.37677690887E+02  0.51726034990E+02  0.00000000000E+00 0.  1.
<mgrwt>
<rscale>  0 0.25059333E+03</rscale>
<asrwt>0</asrwt>
<pdfrwt beam="1">  1        2 0.27052314E-01 0.25059333E+03</pdfrwt>
<pdfrwt beam="2">  1       -2 0.13735608E-01 0.25059333E+03</pdfrwt>
<totfact> 0.76888095E+03</totfact>
</mgrwt>
</event>
<event>
 6    1  0.1045058E-005  0.1373651E+03  0.7546771E-02  0.1228125E+00
          3   -1    0    0  501    0  0.00000000000E+00  0.00000000000E+00  0.32469394068E+03  0.32469394068E+03  0.00000000000E+00 0. -1.
         -3   -1    0    0    0  501 -0.00000000000E+00 -0.00000000000E+00 -0.48142992397E+02  0.48142992397E+02  0.00000000000E+00 0.  1.
          5    1    1    2  502    0  0.40382882641E+02 -0.49526311597E+02  0.71784307428E+02  0.96222188417E+02  0.47000000000E+01 0. -1.
         -5    1    1    2    0  502  0.12525220381E+02  0.70646517512E+02  0.11515880650E+03  0.13576248486E+03  0.47000000000E+01 0. -1.
        -11    1    1    2    0    0 -0.56283160073E+02 -0.51733630895E+02  0.73699480924E+02  0.10618745765E+03  0.00000000000E+00 0. -1.
         11    1    1    2    0    0  0.33750570508E+01  0.30613424979E+02  0.15908353431E+02  0.34664802148E+02  0.00000000000E+00 0.  1.
<mgrwt>
<rscale>  0 0.12955003E+03</rscale>
<asrwt>0</asrwt>
<pdfrwt beam="1">  1        3 0.49952913E-01 0.13736506E+03</pdfrwt>
<pdfrwt beam="2">  1       -3 0.74066144E-02 0.13736506E+03</pdfrwt>
<totfact> 0.11188441E+03</totfact>
</mgrwt>
</event>
<event>
 6    1  0.1045058E-005  0.1470817E+03  0.7546771E-02  0.1213652E+00
          2   -1    0    0  501    0  0.00000000000E+00  0.00000000000E+00  0.36456356260E+03  0.36456356260E+03  0.00000000000E+00 0.  1.
         -2   -1    0    0    0  501 -0.00000000000E+00 -0.00000000000E+00 -0.61819342016E+02  0.61819342016E+02  0.00000000000E+00 0. -1.
          5    1    1    2  502    0  0.12581137651E+02 -0.43071633230E+02  0.98208470594E+01  0.46173473452E+02  0.47000000000E+01 0.  1.
         -5    1    1    2    0  502  0.18648770465E+02 -0.27905355657E+02  0.25085478656E+03  0.25313375803E+03  0.47000000000E+01 0.  1.
        -11    1    1    2    0    0 -0.37868986727E+02  0.78868218724E+02  0.39402039162E+01  0.87577287508E+02  0.00000000000E+00 0. -1.
         11    1    1    2    0    0  0.66390786116E+01 -0.78912298374E+01  0.38128383043E+02  0.39498385621E+02  0.00000000000E+00 0.  1.
<mgrwt>
<rscale>  0 0.13976006E+03</rscale>
<asrwt>0</asrwt>
<pdfrwt beam="1">  1        2 0.56086700E-01 0.14708172E+03</pdfrwt>
<pdfrwt beam="2">  1       -2 0.95106682E-02 0.14708172E+03</pdfrwt>
<totfact> 0.61105929E+03</totfact>
</mgrwt>
</event>
<event>
 6    1  0.1045058E-005  0.2628590E+03  0.7546771E-02  0.1146348E+00
          1   -1    0    0  501    0  0.00000000000E+00  0.00000000000E+00  0.99684923915E+02  0.99684923915E+02  0.00000000000E+00 0. -1.
         -1   -1    0    0    0  501 -0.00000000000E+00 -0.00000000000E+00 -0.53168947459E+03  0.53168947459E+03  0.00000000000E+00 0.  1.
          5    1    1    2  502    0  0.11879920555E+03 -0.44532659744E+02 -0.10648956363E+01  0.12696311680E+03  0.47000000000E+01 0. -1.
         -5    1    1    2    0  502 -0.99700243829E+02  0.68512267007E+02 -0.91377334942E+02  0.15167721217E+03  0.47000000000E+01 0.  1.
        -11    1    1    2    0    0  0.18570780193E+02  0.24296802659E+02 -0.16328394317E+03  0.16612301042E+03  0.00000000000E+00 0. -1.
         11    1    1    2    0    0 -0.37669741918E+02 -0.48276409922E+02 -0.17627837693E+03  0.18661105912E+03  0.00000000000E+00 0.  1.
<mgrwt>
<rscale>  0 0.20407232E+03</rscale>
<asrwt>0</asrwt>
<pdfrwt beam="1">  1        1 0.15336142E-01 0.26285902E+03</pdfrwt>
<pdfrwt beam="2">  1       -1 0.81798380E-01 0.26285902E+03</pdfrwt>
<totfact> 0.56429288E+02</totfact>
</mgrwt>
</event>
<event>
 6    1  0.1045058E-005  0.1979929E+03  0.7546771E-02  0.1159040E+00
          1   -1    0    0  501    0  0.00000000000E+00  0.00000000000E+00  0.26186101970E+03  0.26186101970E+03  0.00000000000E+00 0. -1.
         -1   -1    0    0    0  501 -0.00000000000E+00 -0.00000000000E+00 -0.13139716863E+03  0.13139716863E+03  0.00000000000E+00 0.  1.
          5    1    1    2  502    0 -0.14101286572E+02 -0.10397812528E+03 -0.11125353920E+01  0.10504106128E+03  0.47000000000E+01 0. -1.
         -5    1    1    2    0  502  0.31327299629E+01 -0.49173772699E+02  0.11068738135E+03  0.12125040333E+03  0.47000000000E+01 0. -1.
        -11    1    1    2    0    0 -0.68125524761E+01  0.76865064273E+02  0.39157485209E+02  0.86532985762E+02  0.00000000000E+00 0.  1.
         11    1    1    2    0    0  0.17781109085E+02  0.76286833706E+02 -0.18268480098E+02  0.80433737960E+02  0.00000000000E+00 0. -1.
<mgrwt>
<rscale>  0 0.18935999E+03</rscale>
<asrwt>0</asrwt>
<pdfrwt beam="1">  1        1 0.40286310E-01 0.19799288E+03</pdfrwt>
<pdfrwt beam="2">  1       -1 0.20214949E-01 0.19799288E+03</pdfrwt>
<totfact> 0.20404948E+03</totfact>
</mgrwt>
</event>
<event>
 6    1  0.1045058E-005  0.2459158E+03  0.7546771E-02  0.1115913E+00
         -2   -1    0    0    0  501 -0.00000000000E+00  0.00000000000E+00  0.78367655252E+02  0.78367655252E+02  0.00000000000E+00 0.  1.
          2   -1    0    0  501    0  0.00000000000E+00 -0.00000000000E+00 -0.19291949263E+03  0.19291949263E+03  0.00000000000E+00 0. -1.
          5    1    1    2  502    0 -0.74356231900E+01  0.65490308066E+02 -0.12090448953E+03  0.13778336086E+03  0.47000000000E+01 0. -1.
         -5    1    1    2    0  502 -0.30586601162E+01 -0.33907942718E+02 -0.68861965608E+01  0.35051586043E+02  0.47000000000E+01 0.  1.
        -11    1    1    2    0    0  0.50205738951E+02 -0.11735782588E+02 -0.17687828018E+01  0.51589469945E+02  0.00000000000E+00 0.  1.
         11    1    1    2    0    0 -0.39711455645E+02 -0.19846582760E+02  0.15007631507E+02  0.46862731036E+02  0.00000000000E+00 0. -1.
<mgrwt>
<rscale>  0 0.24591583E+03</rscale>
<asrwt>0</asrwt>
<pdfrwt beam="2">  1        2 0.29679922E-01 0.24591583E+03</pdfrwt>
<pdfrwt beam="1">  1       -2 0.12056562E-01 0.24591583E+03</pdfrwt>
<totfact> 0.85721415E+03</totfact>
</mgrwt>
</event>
<event>
 6    1  0.1045058E-005  0.1227214E+03  0.7546771E-02  0.1249357E+00
         -1   -1    0    0    0  501 -0.00000000000E+00  0.00000000000E+00  0.47353099433E+02  0.47353099433E+02  0.00000000000E+00 0.  1.
          1   -1    0    0  501    0  0.00000000000E+00 -0.00000000000E+00 -0.34888924808E+03  0.34888924808E+03  0.00000000000E+00 0. -1.
          5    1    1    2  502    0 -0.11347059018E+02 -0.40652780297E+02 -0.70484788353E+02  0.82289730121E+02  0.47000000000E+01 0. -1.
         -5    1    1    2    0  502  0.36474897489E+02  0.69454732802E+02 -0.19224356094E+03  0.20768739677E+03  0.47000000000E+01 0.  1.
        -11    1    1    2    0    0 -0.46020347336E+02  0.35377979702E+01  0.67172397826E+01  0.46642359435E+02  0.00000000000E+00 0.  1.
         11    1    1    2    0    0  0.20892508865E+02 -0.32339750476E+02 -0.45525039139E+02  0.59622861186E+02  0.00000000000E+00 0. -1.
<mgrwt>
<rscale>  0 0.11628330E+03</rscale>
<asrwt>0</asrwt>
<pdfrwt beam="2">  1        1 0.53675269E-01 0.12272143E+03</pdfrwt>
<pdfrwt beam="1">  1       -1 0.72850922E-02 0.12272143E+03</pdfrwt>
<totfact> 0.68091590E+03</totfact>
</mgrwt>
</event>
<event>
 6    1  0.1045058E-005  0.3581852E+03  0.7546771E-02  0.1060420E+00
         -1   -1    0    0    0  501 -0.00000000000E+00  0.00000000000E+00  0.28006951987E+03  0.28006951987E+03  0.00000000000E+00 0.  1.
          1   -1    0    0  501    0  0.00000000000E+00 -0.00000000000E+00 -0.46665209482E+03  0.46665209482E+03  0.00000000000E+00 0. -1.
          5    1    1    2  502    0  0.58581393257E+02  0.14282995252E+03 -0.47703664139E+02  0.16164746997E+03  0.47000000000E+01 0.  1.
         -5    1    1    2    0  502  0.15461631470E+03  0.11643390211E+03  0.35065522179E+02  0.19676061389E+03  0.47000000000E+01 0.  1.
        -11    1    1    2    0    0 -0.96070704581E+02 -0.13477690788E+03 -0.13356424612E+03  0.21268239941E+03  0.00000000000E+00 0. -1.
         11    1    1    2    0    0 -0.11712700338E+03 -0.12448694676E+03 -0.40380186872E+02  0.17563113142E+03  0.00000000000E+00 0.  1.
<mgrwt>
<rscale>  0 0.35540043E+03</rscale>
<asrwt>0</asrwt>
<pdfrwt beam="2">  1        1 0.71792629E-01 0.35818519E+03</pdfrwt>
<pdfrwt beam="1">  1       -1 0.43087619E-01 0.35818519E+03</pdfrwt>
<totfact> 0.26757686E+02</totfact>
</mgrwt>
</event>
<event>
 6    1  0.1045058E-005  0.1313627E+03  0.7546771E-02  0.1238696E+00
          2   -1    0    0  501    0  0.00000000000E+00  0.00000000000E+00  0.19382843390E+04  0.19382843390E+04  0.00000000000E+00 0. -1.
         -2   -1    0    0    0  501 -0.00000000000E+00 -0.00000000000E+00 -0.87227710047E+01  0.87227710047E+01  0.00000000000E+00 0.  1.
          5    1    1    2  502    0 -0.40143066679E+02 -0.43703304455E+02  0.81359201927E+03  0.81576682235E+03  0.47000000000E+01 0. -1.
         -5    1    1    2    0  502  0.90033642321E+01  0.69445110689E+02  0.69581112325E+03  0.69934175708E+03  0.47000000000E+01 0. -1.
        -11    1    1    2    0    0 -0.67984216998E+01 -0.52875221492E+02  0.21641746744E+03  0.22288680490E+03  0.00000000000E+00 0.  1.
         11    1    1    2    0    0  0.37938124147E+02  0.27133415258E+02  0.20374095808E+03  0.20901172572E+03  0.00000000000E+00 0. -1.
<mgrwt>
<rscale>  0 0.12270765E+03</rscale>
<asrwt>0</asrwt>
<pdfrwt beam="1">  1        2 0.29819725E+00 0.13136271E+03</pdfrwt>
<pdfrwt beam="2">  1       -2 0.13419663E-02 0.13136271E+03</pdfrwt>
<totfact> 0.10887839E+04</totfact>
</mgrwt>
</event>
<event>
 6    1  0.1045058E-005  0.1273886E+03  0.7546771E-02  0.1245985E+00
          1   -1    0    0  501    0  0.00000000000E+00  0.00000000000E+00  0.86838643132E+03  0.86838643132E+03  0.00000000000E+00 0. -1.
         -1   -1    0    0    0  501 -0.00000000000E+00 -0.00000000000E+00 -0.15092378613E+02  0.15092378613E+02  0.00000000000E+00 0.  1.
          5    1    1    2  502    0  0.45227751324E+02  0.26434680258E+02  0.23205557178E+03  0.23794163193E+03  0.47000000000E+01 0.  1.
         -5    1    1    2    0  502 -0.57079384130E+02 -0.47913144959E+02  0.36060359655E+03  0.36825367533E+03  0.47000000000E+01 0.  1.
        -11    1    1    2    0    0 -0.29713895452E+02 -0.15698873147E+02  0.57179621028E+02  0.66324047388E+02  0.00000000000E+00 0.  1.
         11    1    1    2    0    0  0.41565528257E+02  0.37177337849E+02  0.20345526335E+03  0.21095945528E+03  0.00000000000E+00 0. -1.
<mgrwt>
<rscale>  0 0.11826597E+03</rscale>
<asrwt>0</asrwt>
<pdfrwt beam="1">  1        1 0.13359787E+00 0.12738862E+03</pdfrwt>
<pdfrwt beam="2">  1       -1 0.23219051E-02 0.12738862E+03</pdfrwt>
<totfact> 0.10664865E+04</totfact>
</mgrwt>
</event>
<event>
 6    1  0.1045058E-005  0.2337063E+03  0.7546771E-02  0.1127677E+00
          1   -1    0    0  501    0  0.00000000000E+00  0.00000000000E+00  0.23559368003E+04  0.23559368003E+04  0.00000000000E+00 0. -1.
         -1   -1    0    0    0  501 -0.00000000000E+00 -0.00000000000E+00 -0.24327107984E+02  0.24327107984E+02  0.00000000000E+00 0.  1.
          5    1    1    2  502    0 -0.43516844646E+02  0.29263896827E+02  0.37971334889E+03  0.38334633003E+03  0.47000000000E+01 0.  1.
         -5    1    1    2    0  502  0.71605903515E+02  0.16619320634E+03  0.12552291664E+04  0.12682152568E+04  0.47000000000E+01 0.  1.
        -11    1    1    2    0    0 -0.39039093662E+02 -0.19005677994E+03  0.68449264925E+03  0.71146034135E+03  0.00000000000E+00 0. -1.
         11    1    1    2    0    0  0.10950034792E+02 -0.54003232242E+01  0.12174527740E+02  0.17241980123E+02  0.00000000000E+00 0.  1.
<mgrwt>
<rscale>  0 0.22853205E+03</rscale>
<asrwt>0</asrwt>
<pdfrwt beam="1">  1        1 0.36245164E+00 0.23370633E+03</pdfrwt>
<pdfrwt beam="2">  1       -1 0.37426339E-02 0.23370633E+03</pdfrwt>
<totfact> 0.53943812E+02</totfact>
</mgrwt>
</event>
<event>
 6    1  0.1045058E-005  0.2472645E+03  0.7546771E-02  0.1116540E+00
          2   -1    0    0  501    0  0.00000000000E+00  0.00000000000E+00  0.16994270461E+04  0.16994270461E+04  0.00000000000E+00 0. -1.
         -2   -1    0    0    0  501 -0.00000000000E+00 -0.00000000000E+00 -0.38296543046E+02  0.38296543046E+02  0.00000000000E+00 0.  1.
          5    1    1    2  502    0  0.31021906659E+02 -0.19493949798E+02  0.26204745432E+03  0.26463811345E+03  0.47000000000E+01 0. -1.
         -5    1    1    2    0  502 -0.87610233473E+02 -0.18620803843E+03  0.85038932770E+03  0.87494747571E+03  0.47000000000E+01 0. -1.
        -11    1    1    2    0    0  0.50117501211E+02  0.95170060038E+02  0.15148991778E+03  0.18579101013E+03  0.00000000000E+00 0.  1.
         11    1    1    2    0    0  0.64708256040E+01  0.11053192819E+03  0.39720380329E+03  0.41234698990E+03  0.00000000000E+00 0. -1.
<mgrwt>
<rscale>  0 0.24494764E+03</rscale>
<asrwt>0</asrwt>
<pdfrwt beam="1">  1        2 0.26145026E+00 0.24726448E+03</pdfrwt>
<pdfrwt beam="2">  1       -2 0.58917772E-02 0.24726448E+03</pdfrwt>
<totfact> 0.16298276E+03</totfact>
</mgrwt>
</event>
<event>
 6    1  0.1045058E-005  0.1267148E+03  0.7546771E-02  0.1246937E+00
          2   -1    0    0  501    0  0.00000000000E+00  0.00000000000E+00  0.96389670237E+03  0.96389670237E+03  0.00000000000E+00 0. -1.
         -2   -1    0    0    0  501 -0.00000000000E+00 -0.00000000000E+00 -0.15112435438E+02  0.15112435438E+02  0.00000000000E+00 0.  1.
          5    1    1    2  502    0  0.46970027790E+02 -0.18510652658E+02  0.14487261549E+03  0.15348938886E+03  0.47000000000E+01 0. -1.
         -5    1    1    2    0  502 -0.36849519242E+02  0.36699894529E+02  0.58270147464E+03  0.58503663806E+03  0.47000000000E+01 0. -1.
        -11    1    1    2    0    0  0.38743814030E+02  0.51427321314E+01  0.75091091254E+02  0.84653427604E+02  0.00000000000E+00 0. -1.
         11    1    1    2    0    0 -0.48864322578E+02 -0.23331974002E+02  0.14611908554E+03  0.15582968328E+03  0.00000000000E+00 0.  1.
<mgrwt>
<rscale>  0 0.11770181E+03</rscale>
<asrwt>0</asrwt>
<pdfrwt beam="1">  1        2 0.14829175E+00 0.12671478E+03</pdfrwt>
<pdfrwt beam="2">  1       -2 0.23249908E-02 0.12671478E+03</pdfrwt>
<totfact> 0.16278037E+04</totfact>
</mgrwt>
</event>
<event>
 6    1  0.1045058E-005  0.1387642E+03  0.7546771E-02  0.1225534E+00
         -1   -1    0    0    0  501 -0.00000000000E+00  0.00000000000E+00  0.80290534688E+02  0.80290534688E+02  0.00000000000E+00 0.  1.
          1   -1    0    0  501    0  0.00000000000E+00 -0.00000000000E+00 -0.21184524391E+03  0.21184524391E+03  0.00000000000E+00 0. -1.
          5    1    1    2  502    0  0.56021299257E+02 -0.61493021201E+01 -0.35656488224E+02  0.66855628331E+02  0.47000000000E+01 0. -1.
         -5    1    1    2    0  502 -0.60312058188E+02 -0.53972879479E+02 -0.78193199452E+02  0.11263606227E+03  0.47000000000E+01 0. -1.
        -11    1    1    2    0    0  0.14179721055E+02  0.60918888590E+01  0.33918648480E+02  0.37264598666E+02  0.00000000000E+00 0.  1.
         11    1    1    2    0    0 -0.98889621241E+01  0.54030292740E+02 -0.51623670024E+02  0.75379489334E+02  0.00000000000E+00 0. -1.
<mgrwt>
<rscale>  0 0.13130380E+03</rscale>
<asrwt>0</asrwt>
<pdfrwt beam="2">  1        1 0.32591576E-01 0.13876424E+03</pdfrwt>
<pdfrwt beam="1">  1       -1 0.12352390E-01 0.13876424E+03</pdfrwt>
<totfact> 0.56991090E+03</totfact>
</mgrwt>
</event>
<event>
 6    1  0.1096106E-005  0.1287669E+03  0.7546771E-02  0.1242995E+00
         -1   -1    0    0    0  501 -0.00000000000E+00  0.00000000000E+00  0.23731703137E+02  0.23731703137E+02  0.00000000000E+00 0.  1.
          1   -1    0    0  501    0  0.00000000000E+00 -0.00000000000E+00 -0.55851689718E+03  0.55851689718E+03  0.00000000000E+00 0. -1.
          5    1    1    2  502    0  0.16448836341E+02 -0.77279752551E+02 -0.20022832402E+03  0.21530489105E+03  0.47000000000E+01 0. -1.
         -5    1    1    2    0  502 -0.14292428793E+02  0.46436820995E+02 -0.15765418086E+03  0.16503812470E+03  0.47000000000E+01 0. -1.
        -11    1    1    2    0    0 -0.30271527315E+02  0.21034691808E+02 -0.19482697178E+02  0.41694113670E+02  0.00000000000E+00 0.  1.
         11    1    1    2    0    0  0.28115119767E+02  0.98082397479E+01 -0.15741999199E+03  0.16021147089E+03  0.00000000000E+00 0. -1.
<mgrwt>
<rscale>  0 0.12006170E+03</rscale>
<asrwt>0</asrwt>
<pdfrwt beam="2">  1        1 0.85925670E-01 0.12876693E+03</pdfrwt>
<pdfrwt beam="1">  1       -1 0.36510315E-02 0.12876693E+03</pdfrwt>
<totfact> 0.10399037E+04</totfact>
</mgrwt>
</event>
<event>
 6    1  0.1045058E-005  0.2084502E+03  0.7546771E-02  0.1146742E+00
          2   -1    0    0  501    0  0.00000000000E+00  0.00000000000E+00  0.77537957399E+03  0.77537957399E+03  0.00000000000E+00 0.  1.
         -2   -1    0    0    0  501 -0.00000000000E+00 -0.00000000000E+00 -0.51140510441E+02  0.51140510441E+02  0.00000000000E+00 0. -1.
          5    1    1    2  502    0  0.77511082322E+02 -0.17905183773E+02  0.12070381114E+03  0.14463769741E+03  0.47000000000E+01 0. -1.
         -5    1    1    2    0  502  0.60973382169E+02  0.11090157389E+03  0.26864138968E+03  0.29699696745E+03  0.47000000000E+01 0. -1.
        -11    1    1    2    0    0 -0.42666129290E+02 -0.76402939808E+02  0.20264358284E+03  0.22073112483E+03  0.00000000000E+00 0.  1.
         11    1    1    2    0    0 -0.95818335201E+02 -0.16593450304E+02  0.13225027989E+03  0.16415429475E+03  0.00000000000E+00 0. -1.
<mgrwt>
<rscale>  0 0.20359343E+03</rscale>
<asrwt>0</asrwt>
<pdfrwt beam="1">  1        2 0.11928916E+00 0.20845021E+03</pdfrwt>
<pdfrwt beam="2">  1       -2 0.78677714E-02 0.20845021E+03</pdfrwt>
<totfact> 0.35496298E+03</totfact>
</mgrwt>
</event>
<event>
 6    1  0.1045058E-005  0.1259102E+03  0.7546771E-02  0.1248539E+00
         -2   -1    0    0    0  501 -0.00000000000E+00  0.00000000000E+00  0.41063827026E+02  0.41063827026E+02  0.00000000000E+00 0.  1.
          2   -1    0    0  501    0  0.00000000000E+00 -0.00000000000E+00 -0.29969146867E+03  0.29969146867E+03  0.00000000000E+00 0. -1.
          5    1    1    2  502    0 -0.12330099402E+01 -0.36492134768E+02 -0.16630062691E+03  0.17032669997E+03  0.47000000000E+01 0.  1.
         -5    1    1    2    0  502 -0.12689704219E+02  0.42374019121E+02 -0.88016155913E+01  0.45344729866E+02  0.47000000000E+01 0.  1.
        -11    1    1    2    0    0 -0.51870718688E+01  0.37709076350E+02 -0.62214217431E+02  0.72934827101E+02  0.00000000000E+00 0. -1.
         11    1    1    2    0    0  0.19109786028E+02 -0.43590960703E+02 -0.21311181712E+02  0.52149038754E+02  0.00000000000E+00 0.  1.
<mgrwt>
<rscale>  0 0.11676018E+03</rscale>
<asrwt>0</asrwt>
<pdfrwt beam="2">  1        2 0.46106382E-01 0.12591017E+03</pdfrwt>
<pdfrwt beam="1">  1       -2 0.63175115E-02 0.12591017E+03</pdfrwt>
<totfact> 0.13977851E+04</totfact>
</mgrwt>
</event>
<event>
 6    1  0.1045058E-005  0.1339842E+03  0.7546771E-02  0.1234638E+00
         -1   -1    0    0    0  501 -0.00000000000E+00  0.00000000000E+00  0.94140760917E+02  0.94140760917E+02  0.00000000000E+00 0. -1.
          1   -1    0    0  501    0  0.00000000000E+00 -0.00000000000E+00 -0.18319394559E+03  0.18319394559E+03  0.00000000000E+00 0.  1.
          5    1    1    2  502    0 -0.59724378647E+02 -0.41344345671E+02 -0.12420158889E+03  0.14395999794E+03  0.47000000000E+01 0.  1.
         -5    1    1    2    0  502  0.20577128516E+02  0.13175561660E+02  0.14856519859E+02  0.28979645018E+02  0.47000000000E+01 0.  1.
        -11    1    1    2    0    0 -0.21979524256E+02  0.54184836464E+01 -0.17858504052E+02  0.28833758314E+02  0.00000000000E+00 0.  1.
         11    1    1    2    0    0  0.61126774387E+02  0.22750300365E+02  0.38150388408E+02  0.75561305238E+02  0.00000000000E+00 0. -1.
<mgrwt>
<rscale>  0 0.12527646E+03</rscale>
<asrwt>0</asrwt>
<pdfrwt beam="2">  1        1 0.28183684E-01 0.13398424E+03</pdfrwt>
<pdfrwt beam="1">  1       -1 0.14483194E-01 0.13398424E+03</pdfrwt>
<totfact> 0.53201487E+03</totfact>
</mgrwt>
</event>
<event>
 6    1  0.1045058E-005  0.3467265E+03  0.7546771E-02  0.1063967E+00
         -1   -1    0    0    0  501 -0.00000000000E+00  0.00000000000E+00  0.21425378379E+03  0.21425378379E+03  0.00000000000E+00 0.  1.
          1   -1    0    0  501    0  0.00000000000E+00 -0.00000000000E+00 -0.14027669034E+03  0.14027669034E+03  0.00000000000E+00 0. -1.
          5    1    1    2  502    0  0.47650453499E+01 -0.77514879574E+01 -0.46130738485E+02  0.47253849113E+02  0.47000000000E+01 0.  1.
         -5    1    1    2    0  502 -0.11723382656E+03  0.43462004001E+02  0.19724414971E+02  0.12666435342E+03  0.47000000000E+01 0.  1.
        -11    1    1    2    0    0  0.76359376870E+02 -0.65939950562E+02  0.82177935609E+02  0.13012319016E+03  0.00000000000E+00 0.  1.
         11    1    1    2    0    0  0.36109404339E+02  0.30229434518E+02  0.18205481360E+02  0.50489081439E+02  0.00000000000E+00 0. -1.
<mgrwt>
<rscale>  0 0.34672647E+03</rscale>
<asrwt>0</asrwt>
<pdfrwt beam="2">  1        1 0.21581029E-01 0.34672647E+03</pdfrwt>
<pdfrwt beam="1">  1       -1 0.32962121E-01 0.34672647E+03</pdfrwt>
<totfact> 0.20156003E+03</totfact>
</mgrwt>
</event>
<event>
 6    1  0.1045058E-005  0.3949124E+03  0.7546771E-02  0.1045556E+00
          1   -1    0    0  501    0  0.00000000000E+00  0.00000000000E+00  0.15796725439E+03  0.15796725439E+03  0.00000000000E+00 0. -1.
         -1   -1    0    0    0  501 -0.00000000000E+00 -0.00000000000E+00 -0.24681670109E+03  0.24681670109E+03  0.00000000000E+00 0.  1.
          5    1    1    2  502    0  0.57657960350E+01  0.25144521895E+02 -0.82342543237E+01  0.27484256030E+02  0.47000000000E+01 0.  1.
         -5    1    1    2    0  502 -0.15451429512E+03 -0.80676509963E+02  0.87656871961E+01  0.17459179227E+03  0.47000000000E+01 0.  1.
        -11    1    1    2    0    0  0.60887088738E+02  0.50507739065E+02 -0.26587681100E+01  0.79153890165E+02  0.00000000000E+00 0. -1.
         11    1    1    2    0    0  0.87861410346E+02  0.50242490032E+01 -0.86722111459E+02  0.12355401702E+03  0.00000000000E+00 0.  1.
<mgrwt>
<rscale>  0 0.39491243E+03</rscale>
<asrwt>0</asrwt>
<pdfrwt beam="1">  1        1 0.24302654E-01 0.39491243E+03</pdfrwt>
<pdfrwt beam="2">  1       -1 0.37971800E-01 0.39491243E+03</pdfrwt>
<totfact> 0.13505331E+03</totfact>
</mgrwt>
</event>
