<event>
 8    1  0.3708258E-009  0.9043360E+02  0.7561462E-02  0.1301805E+00
          1   -1    0    0  501    0  0.00000000000E+00  0.00000000000E+00  0.29455540695E+03  0.29455540695E+03  0.00000000000E+00 0. -1.
         -1   -1    0    0    0  501 -0.00000000000E+00 -0.00000000000E+00 -0.49322469839E+02  0.49322469839E+02  0.00000000000E+00 0.  1.
         25    2    1    2    0    0  0.47933247174E+02 -0.92871879578E+01  0.13757678410E+03  0.19224610948E+03  0.12508935624E+03 0.  0.
         23    2    1    2    0    0 -0.47933247174E+02  0.92871879578E+01  0.10765615301E+03  0.15163176731E+03  0.94965770306E+02 0.  0.
          5    1    3    3  502    0  0.14783574224E+02  0.27622078517E+02  0.13889157857E+03  0.14244253679E+03  0.41800000000E+01 0. -1.
         -5    1    3    3    0  502  0.33149672950E+02 -0.36909266475E+02 -0.13147944761E+01  0.49803572692E+02  0.41800000000E+01 0. -1.
        -11    1    4    4    0    0 -0.63563491258E+02  0.32577053018E+02  0.49009248165E+02  0.86622677227E+02  0.00000000000E+00 0. -1.
         11    1    4    4    0    0  0.15630244083E+02 -0.23289865061E+02  0.58646904848E+02  0.65009090079E+02  0.00000000000E+00 0.  1.
</event>
<event>
 8    1  0.3708258E-009  0.1372863E+03  0.7561462E-02  0.1217028E+00
          1   -1    0    0  501    0  0.00000000000E+00  0.00000000000E+00  0.13542887305E+03  0.13542887305E+03  0.00000000000E+00 0. -1.
         -1   -1    0    0    0  501 -0.00000000000E+00 -0.00000000000E+00 -0.19417669847E+03  0.19417669847E+03  0.00000000000E+00 0.  1.
         25    2    1    2    0    0 -0.80665815406E+02 -0.56010014597E+02  0.40814329927E+02  0.16418768143E+03  0.12509072586E+03 0.  0.
         23    2    1    2    0    0  0.80665815406E+02  0.56010014597E+02 -0.99562155352E+02  0.16541789009E+03  0.88353608142E+02 0.  0.
          5    1    3    3  502    0 -0.10538795083E+03 -0.60703424451E+02  0.56577780705E+02  0.13420150368E+03  0.41800000000E+01 0.  1.
         -5    1    3    3    0  502  0.24722135422E+02  0.46934098534E+01 -0.15763450777E+02  0.29986177754E+02  0.41800000000E+01 0.  1.
        -11    1    4    4    0    0  0.55560157191E+02  0.76789904807E+02 -0.91726958670E+02  0.13189941431E+03  0.00000000000E+00 0. -1.
         11    1    4    4    0    0  0.25105658215E+02 -0.20779890210E+02 -0.78351966817E+01  0.33518475779E+02  0.00000000000E+00 0.  1.
</event>
<event>
 8    1  0.3708258E-009  0.9832039E+02  0.7561462E-02  0.1283868E+00
          1   -1    0    0  501    0  0.00000000000E+00  0.00000000000E+00  0.55264757031E+03  0.55264757031E+03  0.00000000000E+00 0. -1.
         -1   -1    0    0    0  501 -0.00000000000E+00 -0.00000000000E+00 -0.25188181800E+02  0.25188181800E+02  0.00000000000E+00 0.  1.
         25    2    1    2    0    0 -0.22898190188E+02  0.33128977611E+02  0.27991497838E+03  0.30922812572E+03  0.12509109620E+03 0.  0.
         23    2    1    2    0    0  0.22898190188E+02 -0.33128977611E+02  0.24754441013E+03  0.26860762639E+03  0.96176741952E+02 0.  0.
          5    1    3    3  502    0 -0.78580311490E+01  0.69313147663E+02  0.25046663479E+03  0.26003282223E+03  0.41800000000E+01 0. -1.
         -5    1    3    3    0  502 -0.15040159039E+02 -0.36184170052E+02  0.29448343587E+02  0.49195303498E+02  0.41800000000E+01 0. -1.
        -11    1    4    4    0    0 -0.22876961695E+02  0.95271526536E+01  0.17842546305E+02  0.30536510487E+02  0.00000000000E+00 0.  1.
         11    1    4    4    0    0  0.45775151882E+02 -0.42656130265E+02  0.22970186383E+03  0.23807111590E+03  0.00000000000E+00 0. -1.
</event>
<event>
 8    1  0.3708258E-009  0.1141492E+03  0.7561462E-02  0.1253074E+00
         -2   -1    0    0    0  501 -0.00000000000E+00  0.00000000000E+00  0.82256855738E+02  0.82256855738E+02  0.00000000000E+00 0.  1.
          2   -1    0    0  501    0  0.00000000000E+00 -0.00000000000E+00 -0.26618648783E+03  0.26618648783E+03  0.00000000000E+00 0. -1.
         25    2    1    2    0    0 -0.20579192489E+02 -0.76359622232E+02 -0.27495005605E+02  0.15052224939E+03  0.12508667858E+03 0.  0.
         23    2    1    2    0    0  0.20579192489E+02  0.76359622232E+02 -0.15643462649E+03  0.19792109418E+03  0.91905778298E+02 0.  0.
          5    1    3    3  502    0 -0.11391772062E+02  0.30709942070E+02  0.13165370767E+02  0.35548170137E+02  0.41800000000E+01 0. -1.
         -5    1    3    3    0  502 -0.91874204267E+01 -0.10706956430E+03 -0.40660376372E+02  0.11497407926E+03  0.41800000000E+01 0. -1.
        -11    1    4    4    0    0 -0.37770880911E+01  0.55607275475E+02 -0.22313985837E+02  0.60036234426E+02  0.00000000000E+00 0.  1.
         11    1    4    4    0    0  0.24356280580E+02  0.20752346757E+02 -0.13412064065E+03  0.13788485975E+03  0.00000000000E+00 0. -1.
</event>
<event>
 8    1  0.3708258E-009  0.1460146E+03  0.7561462E-02  0.1205458E+00
         -2   -1    0    0    0  501 -0.00000000000E+00  0.00000000000E+00  0.25875083306E+02  0.25875083306E+02  0.00000000000E+00 0.  1.
          2   -1    0    0  501    0  0.00000000000E+00 -0.00000000000E+00 -0.88739541444E+03  0.88739541444E+03  0.00000000000E+00 0. -1.
         25    2    1    2    0    0 -0.86599830292E+02  0.53398476294E+02 -0.38253393473E+03  0.41512800699E+03  0.12509245817E+03 0.  0.
         23    2    1    2    0    0  0.86599830292E+02 -0.53398476294E+02 -0.47898639640E+03  0.49814249075E+03  0.91471554479E+02 0.  0.
          5    1    3    3  502    0 -0.10539964116E+03  0.76587436271E+02 -0.32519765474E+03  0.35035083388E+03  0.41800000000E+01 0.  1.
         -5    1    3    3    0  502  0.18799810865E+02 -0.23188959977E+02 -0.57336279994E+02  0.64777173117E+02  0.41800000000E+01 0.  1.
        -11    1    4    4    0    0  0.66768758200E+02  0.77787056812E+01 -0.17586413762E+03  0.18827312669E+03  0.00000000000E+00 0. -1.
         11    1    4    4    0    0  0.19831072092E+02 -0.61177181975E+02 -0.30312225878E+03  0.30986936406E+03  0.00000000000E+00 0.  1.
</event>
<event>
 8    1  0.3708258E-009  0.1685471E+03  0.7561462E-02  0.1179372E+00
          3   -1    0    0  501    0  0.00000000000E+00  0.00000000000E+00  0.90598264389E+02  0.90598264389E+02  0.00000000000E+00 0. -1.
         -3   -1    0    0    0  501 -0.00000000000E+00 -0.00000000000E+00 -0.34219286580E+03  0.34219286580E+03  0.00000000000E+00 0.  1.
         25    2    1    2    0    0  0.12887517109E+03 -0.51098782766E+02 -0.14701900155E+03  0.23766049075E+03  0.12509207298E+03 0.  0.
         23    2    1    2    0    0 -0.12887517109E+03  0.51098782766E+02 -0.10457559986E+03  0.19513063944E+03  0.88994466339E+02 0.  0.
          5    1    3    3  502    0 -0.87580127580E+01 -0.47019911143E+02 -0.48922965036E+02  0.68545632533E+02  0.41800000000E+01 0. -1.
         -5    1    3    3    0  502  0.13763318385E+03 -0.40788716230E+01 -0.98096036516E+02  0.16911485822E+03  0.41800000000E+01 0. -1.
        -11    1    4    4    0    0 -0.66041884640E+02 -0.61446769594E+01 -0.85279126143E+01  0.66873110255E+02  0.00000000000E+00 0.  1.
         11    1    4    4    0    0 -0.62833286450E+02  0.57243459726E+02 -0.96047687247E+02  0.12825752919E+03  0.00000000000E+00 0. -1.
</event>
<event>
 8    1  0.3708258E-009  0.1017557E+03  0.7561462E-02  0.1276647E+00
          2   -1    0    0  501    0  0.00000000000E+00  0.00000000000E+00  0.56180269728E+03  0.56180269728E+03  0.00000000000E+00 0.  1.
         -2   -1    0    0    0  501 -0.00000000000E+00 -0.00000000000E+00 -0.32339140726E+02  0.32339140726E+02  0.00000000000E+00 0. -1.
         25    2    1    2    0    0  0.40620751397E+02  0.57128313062E+02  0.20919620459E+03  0.25362287430E+03  0.12509124973E+03 0.  0.
         23    2    1    2    0    0 -0.40620751397E+02 -0.57128313062E+02  0.32026735197E+03  0.34051896370E+03  0.92023357403E+02 0.  0.
          5    1    3    3  502    0  0.12929969232E+02  0.58366137326E+02  0.21227854675E+02  0.63575815408E+02  0.41800000000E+01 0.  1.
         -5    1    3    3    0  502  0.27690782165E+02 -0.12378242638E+01  0.18796834991E+03  0.19004705889E+03  0.41800000000E+01 0.  1.
        -11    1    4    4    0    0 -0.43883935072E+02  0.12671215767E+02  0.11883969649E+03  0.12731548581E+03  0.00000000000E+00 0.  1.
         11    1    4    4    0    0  0.32631836752E+01 -0.69799528829E+02  0.20142765548E+03  0.21320347789E+03  0.00000000000E+00 0. -1.
</event>
<event>
 8    1  0.3708258E-009  0.1618973E+03  0.7561462E-02  0.1186571E+00
          2   -1    0    0  501    0  0.00000000000E+00  0.00000000000E+00  0.83495039944E+03  0.83495039944E+03  0.00000000000E+00 0. -1.
         -2   -1    0    0    0  501 -0.00000000000E+00 -0.00000000000E+00 -0.49381188891E+02  0.49381188891E+02  0.00000000000E+00 0.  1.
         25    2    1    2    0    0  0.12496784495E+03 -0.61401811890E+02  0.61318108106E+03  0.64111174449E+03  0.12508431544E+03 0.  0.
         23    2    1    2    0    0 -0.12496784495E+03  0.61401811890E+02  0.17238812949E+03  0.24321984385E+03  0.10025507707E+03 0.  0.
          5    1    3    3  502    0  0.12514570735E+03 -0.84509988172E+02  0.41680577303E+03  0.44333724297E+03  0.41800000000E+01 0.  1.
         -5    1    3    3    0  502 -0.17786240457E+00  0.23108176283E+02  0.19637530803E+03  0.19777450152E+03  0.41800000000E+01 0.  1.
        -11    1    4    4    0    0 -0.56634114129E+01  0.23338363376E+02 -0.64767768573E+01  0.24873722527E+02  0.00000000000E+00 0.  1.
         11    1    4    4    0    0 -0.11930443354E+03  0.38063448514E+02  0.17886490635E+03  0.21834612132E+03  0.00000000000E+00 0. -1.
</event>
<event>
 8    1  0.3708258E-009  0.9240615E+02  0.7561462E-02  0.1297127E+00
          2   -1    0    0  501    0  0.00000000000E+00  0.00000000000E+00  0.10717677252E+03  0.10717677252E+03  0.00000000000E+00 0. -1.
         -2   -1    0    0    0  501 -0.00000000000E+00 -0.00000000000E+00 -0.11052908730E+03  0.11052908730E+03  0.00000000000E+00 0.  1.
         25    2    1    2    0    0  0.78348424103E+01 -0.74341803519E+01  0.16395485697E+01  0.12556456752E+03  0.12508845152E+03 0.  0.
         23    2    1    2    0    0 -0.78348424103E+01  0.74341803519E+01 -0.49918633414E+01  0.92141292299E+02  0.91369837768E+02 0.  0.
          5    1    3    3  502    0 -0.29868399472E+02  0.45555651678E+02 -0.17963265356E+02  0.57511650898E+02  0.41800000000E+01 0. -1.
         -5    1    3    3    0  502  0.37703241882E+02 -0.52989832030E+02  0.19602813926E+02  0.68052916622E+02  0.41800000000E+01 0. -1.
        -11    1    4    4    0    0  0.18008502790E+02 -0.20275839743E+02 -0.34666376498E+02  0.44013333316E+02  0.00000000000E+00 0.  1.
         11    1    4    4    0    0 -0.25843345200E+02  0.27710020095E+02  0.29674513157E+02  0.48127958983E+02  0.00000000000E+00 0. -1.
</event>
<event>
 8    1  0.3708258E-009  0.1171719E+03  0.7561462E-02  0.1247837E+00
         -2   -1    0    0    0  501 -0.00000000000E+00  0.00000000000E+00  0.16607922567E+02  0.16607922567E+02  0.00000000000E+00 0.  1.
          2   -1    0    0  501    0  0.00000000000E+00 -0.00000000000E+00 -0.11520189164E+04  0.11520189164E+04  0.00000000000E+00 0. -1.
         25    2    1    2    0    0  0.72018270055E+02  0.35966018483E+01 -0.82430015282E+03  0.83685038916E+03  0.12509302594E+03 0.  0.
         23    2    1    2    0    0 -0.72018270055E+02 -0.35966018483E+01 -0.31111084105E+03  0.33177644984E+03  0.89922691696E+02 0.  0.
          5    1    3    3  502    0  0.73989749682E+02  0.41017727178E+02 -0.73571275497E+03  0.74057252665E+03  0.41800000000E+01 0. -1.
         -5    1    3    3    0  502 -0.19714796266E+01 -0.37421125330E+02 -0.88587397844E+02  0.96277862510E+02  0.41800000000E+01 0. -1.
        -11    1    4    4    0    0 -0.63131380951E+02 -0.39818885970E+02 -0.16706332022E+03  0.18297887283E+03  0.00000000000E+00 0. -1.
         11    1    4    4    0    0 -0.88868891036E+01  0.36222284122E+02 -0.14404752083E+03  0.14879757701E+03  0.00000000000E+00 0.  1.
</event>
<event>
 8    1  0.3708258E-009  0.1119321E+03  0.7561462E-02  0.1257033E+00
          2   -1    0    0  501    0  0.00000000000E+00  0.00000000000E+00  0.12250578741E+03  0.12250578741E+03  0.00000000000E+00 0. -1.
         -2   -1    0    0    0  501 -0.00000000000E+00 -0.00000000000E+00 -0.15244075785E+03  0.15244075785E+03  0.00000000000E+00 0.  1.
         25    2    1    2    0    0  0.20020129332E+02 -0.68268012418E+02  0.25671382284E+02  0.14617129284E+03  0.12508277213E+03 0.  0.
         23    2    1    2    0    0 -0.20020129332E+02  0.68268012418E+02 -0.55606352723E+02  0.12877525243E+03  0.91813245650E+02 0.  0.
          5    1    3    3  502    0  0.63388237662E+02 -0.52868130439E+02 -0.15725383936E+02  0.84130065909E+02  0.41800000000E+01 0. -1.
         -5    1    3    3    0  502 -0.43368108330E+02 -0.15399881979E+02  0.41396766220E+02  0.62041226927E+02  0.41800000000E+01 0. -1.
        -11    1    4    4    0    0 -0.29293536230E+02  0.34131092241E+01 -0.55964574906E+02  0.63259736198E+02  0.00000000000E+00 0.  1.
         11    1    4    4    0    0  0.92734068983E+01  0.64854903193E+02  0.35822218285E+00  0.65515516230E+02  0.00000000000E+00 0. -1.
</event>
<event>
 8    1  0.3708258E-009  0.1352027E+03  0.7561462E-02  0.1219934E+00
          2   -1    0    0  501    0  0.00000000000E+00  0.00000000000E+00  0.63898665987E+03  0.63898665987E+03  0.00000000000E+00 0. -1.
         -2   -1    0    0    0  501 -0.00000000000E+00 -0.00000000000E+00 -0.37183874660E+02  0.37183874660E+02  0.00000000000E+00 0.  1.
         25    2    1    2    0    0 -0.10156392217E+03  0.33403749019E+02  0.36827759543E+03  0.40336863753E+03  0.12508728838E+03 0.  0.
         23    2    1    2    0    0  0.10156392217E+03 -0.33403749019E+02  0.23352518978E+03  0.27280189700E+03  0.91955532772E+02 0.  0.
          5    1    3    3  502    0 -0.39068789102E+01  0.34206215735E+02  0.23791077380E+03  0.24042532643E+03  0.41800000000E+01 0. -1.
         -5    1    3    3    0  502 -0.97657043263E+02 -0.80246671643E+00  0.13036682162E+03  0.16294331110E+03  0.41800000000E+01 0. -1.
        -11    1    4    4    0    0 -0.92259819993E+01 -0.25252343828E+02  0.71169089372E+02  0.76077847595E+02  0.00000000000E+00 0. -1.
         11    1    4    4    0    0  0.11078990417E+03 -0.81514051906E+01  0.16235610041E+03  0.19672404940E+03  0.00000000000E+00 0.  1.
</event>
<event>
 8    1  0.3708258E-009  0.9468791E+02  0.7561462E-02  0.1291881E+00
          2   -1    0    0  501    0  0.00000000000E+00  0.00000000000E+00  0.43392000390E+02  0.43392000390E+02  0.00000000000E+00 0. -1.
         -2   -1    0    0    0  501 -0.00000000000E+00 -0.00000000000E+00 -0.28105495754E+03  0.28105495754E+03  0.00000000000E+00 0.  1.
         25    2    1    2    0    0  0.14854842322E+02 -0.15574343798E+02 -0.11180184116E+03  0.16914951641E+03  0.12509468690E+03 0.  0.
         23    2    1    2    0    0 -0.14854842322E+02  0.15574343798E+02 -0.12586111600E+03  0.15529744152E+03  0.88391449242E+02 0.  0.
          5    1    3    3  502    0  0.56528144109E+02  0.50843436780E+01 -0.10827010949E+03  0.12231586421E+03  0.41800000000E+01 0.  1.
         -5    1    3    3    0  502 -0.41673301787E+02 -0.20658687476E+02 -0.35317316641E+01  0.46833652203E+02  0.41800000000E+01 0.  1.
        -11    1    4    4    0    0 -0.23663991779E+02 -0.30642698074E+02 -0.31708787701E+02  0.50044047294E+02  0.00000000000E+00 0. -1.
         11    1    4    4    0    0  0.88091494565E+01  0.46217041872E+02 -0.94152328296E+02  0.10525339423E+03  0.00000000000E+00 0.  1.
</event>
<event>
 8    1  0.3708258E-009  0.9217236E+02  0.7561462E-02  0.1297675E+00
         -4   -1    0    0    0  501 -0.00000000000E+00  0.00000000000E+00  0.27135342987E+03  0.27135342987E+03  0.00000000000E+00 0. -1.
          4   -1    0    0  501    0  0.00000000000E+00 -0.00000000000E+00 -0.55583051364E+02  0.55583051364E+02  0.00000000000E+00 0.  1.
         25    2    1    2    0    0  0.22089801167E+02  0.19401242654E+02  0.59003637624E+02  0.14139916493E+03  0.12509167461E+03 0.  0.
         23    2    1    2    0    0 -0.22089801167E+02 -0.19401242654E+02  0.15676674088E+03  0.18553731631E+03  0.94783527914E+02 0.  0.
          5    1    3    3  502    0  0.55964185624E+02  0.46562829850E+02  0.64601740597E+02  0.97421478558E+02  0.41800000000E+01 0.  1.
         -5    1    3    3    0  502 -0.33874384457E+02 -0.27161587196E+02 -0.55981029732E+01  0.43977686368E+02  0.41800000000E+01 0.  1.
        -11    1    4    4    0    0  0.21115918191E+02 -0.10921817326E+02  0.11384651419E+01  0.23800508348E+02  0.00000000000E+00 0.  1.
         11    1    4    4    0    0 -0.43205719358E+02 -0.84794253279E+01  0.15562827574E+03  0.16173680796E+03  0.00000000000E+00 0. -1.
</event>
<event>
 8    1  0.3708258E-009  0.9730884E+02  0.7561462E-02  0.1286059E+00
          1   -1    0    0  501    0  0.00000000000E+00  0.00000000000E+00  0.32875465111E+03  0.32875465111E+03  0.00000000000E+00 0. -1.
         -1   -1    0    0    0  501 -0.00000000000E+00 -0.00000000000E+00 -0.51892869734E+02  0.51892869734E+02  0.00000000000E+00 0.  1.
         25    2    1    2    0    0  0.17458745626E+02  0.30464623150E+02  0.59985233358E+02  0.14310544171E+03  0.12509211871E+03 0.  0.
         23    2    1    2    0    0 -0.17458745626E+02 -0.30464623150E+02  0.21687654802E+03  0.23754207914E+03  0.90321100622E+02 0.  0.
          5    1    3    3  502    0  0.19533205786E+02 -0.34315467934E+02  0.66894489852E+02  0.77791019021E+02  0.41800000000E+01 0. -1.
         -5    1    3    3    0  502 -0.20744601604E+01  0.64780091084E+02 -0.69092564938E+01  0.65314422688E+02  0.41800000000E+01 0. -1.
        -11    1    4    4    0    0  0.27412518081E+02 -0.35454397376E+02  0.63948254991E+02  0.78088665998E+02  0.00000000000E+00 0.  1.
         11    1    4    4    0    0 -0.44871263706E+02  0.49897742259E+01  0.15292829303E+03  0.15945341314E+03  0.00000000000E+00 0. -1.
</event>
<event>
 8    1  0.3708258E-009  0.1150544E+03  0.7561462E-02  0.1251486E+00
         -2   -1    0    0    0  501 -0.00000000000E+00  0.00000000000E+00  0.23435278133E+03  0.23435278133E+03  0.00000000000E+00 0.  1.
          2   -1    0    0  501    0  0.00000000000E+00 -0.00000000000E+00 -0.69844765746E+02  0.69844765746E+02  0.00000000000E+00 0. -1.
         25    2    1    2    0    0 -0.43641777336E+02 -0.43681356061E+02  0.12642777062E+03  0.18826550252E+03  0.12508897896E+03 0.  0.
         23    2    1    2    0    0  0.43641777336E+02  0.43681356061E+02  0.38080244966E+02  0.11593204456E+03  0.90429355316E+02 0.  0.
          5    1    3    3  502    0  0.28659163687E+02 -0.49292830641E+02  0.22435888272E+02  0.61416384609E+02  0.41800000000E+01 0. -1.
         -5    1    3    3    0  502 -0.72300941023E+02  0.56114745797E+01  0.10399188235E+03  0.12684911791E+03  0.41800000000E+01 0. -1.
        -11    1    4    4    0    0  0.38232774267E+02  0.66576232786E+02  0.47844252609E+02  0.90461109366E+02  0.00000000000E+00 0.  1.
         11    1    4    4    0    0  0.54090030693E+01 -0.22894876724E+02 -0.97640076430E+01  0.25470935194E+02  0.00000000000E+00 0. -1.
</event>
<event>
 8    1  0.3708258E-009  0.1109260E+03  0.7561462E-02  0.1258865E+00
         -2   -1    0    0    0  501 -0.00000000000E+00  0.00000000000E+00  0.57268853770E+02  0.57268853770E+02  0.00000000000E+00 0.  1.
          2   -1    0    0  501    0  0.00000000000E+00 -0.00000000000E+00 -0.22977095370E+03  0.22977095370E+03  0.00000000000E+00 0. -1.
         25    2    1    2    0    0 -0.38319853981E+02  0.10008301227E+02 -0.10469697101E+03  0.16786084141E+03  0.12508888455E+03 0.  0.
         23    2    1    2    0    0  0.38319853981E+02 -0.10008301227E+02 -0.67805128920E+02  0.11917896606E+03  0.89652178675E+02 0.  0.
          5    1    3    3  502    0 -0.83778987312E+02 -0.15569130062E+01 -0.62363015711E+02  0.10453688737E+03  0.41800000000E+01 0. -1.
         -5    1    3    3    0  502  0.45459133331E+02  0.11565214233E+02 -0.42333955303E+02  0.63323954038E+02  0.41800000000E+01 0. -1.
        -11    1    4    4    0    0  0.33642542468E+02 -0.44649800839E+02 -0.62445762618E+02  0.83814668452E+02  0.00000000000E+00 0.  1.
         11    1    4    4    0    0  0.46773115127E+01  0.34641499611E+02 -0.53593663015E+01  0.35364297610E+02  0.00000000000E+00 0. -1.
</event>
<event>
 8    1  0.3708258E-009  0.1107461E+03  0.7561462E-02  0.1259194E+00
         -1   -1    0    0    0  501 -0.00000000000E+00  0.00000000000E+00  0.47033899983E+02  0.47033899983E+02  0.00000000000E+00 0.  1.
          1   -1    0    0  501    0  0.00000000000E+00 -0.00000000000E+00 -0.30031218631E+03  0.30031218631E+03  0.00000000000E+00 0. -1.
         25    2    1    2    0    0 -0.30834428137E+02 -0.36542740231E+02 -0.14626067978E+03  0.19830965562E+03  0.12509356194E+03 0.  0.
         23    2    1    2    0    0  0.30834428137E+02  0.36542740231E+02 -0.10701760655E+03  0.14903643067E+03  0.92048659603E+02 0.  0.
          5    1    3    3  502    0 -0.49555205234E+02 -0.67643661244E+02 -0.13689195791E+03  0.16058724673E+03  0.41800000000E+01 0.  1.
         -5    1    3    3    0  502  0.18720777097E+02  0.31100921014E+02 -0.93687218754E+01  0.37722408892E+02  0.41800000000E+01 0.  1.
        -11    1    4    4    0    0 -0.28806658619E+02 -0.37041002203E+01 -0.16489979097E+02  0.33398553110E+02  0.00000000000E+00 0.  1.
         11    1    4    4    0    0  0.59641086756E+02  0.40246840451E+02 -0.90527627449E+02  0.11563787756E+03  0.00000000000E+00 0. -1.
</event>
<event>
 8    1  0.3708258E-009  0.1172534E+03  0.7561462E-02  0.1247698E+00
          2   -1    0    0  501    0  0.00000000000E+00  0.00000000000E+00  0.20151391207E+03  0.20151391207E+03  0.00000000000E+00 0. -1.
         -2   -1    0    0    0  501 -0.00000000000E+00 -0.00000000000E+00 -0.13348321065E+03  0.13348321065E+03  0.00000000000E+00 0.  1.
         25    2    1    2    0    0 -0.75364739859E+02  0.56394505997E+02 -0.42324264666E+02  0.16217011684E+03  0.12509044366E+03 0.  0.
         23    2    1    2    0    0  0.75364739859E+02 -0.56394505997E+02  0.11035496608E+03  0.17282700588E+03  0.93972182607E+02 0.  0.
          5    1    3    3  502    0 -0.23120893100E+02  0.40613645832E+02 -0.82063710643E+02  0.94530254046E+02  0.41800000000E+01 0. -1.
         -5    1    3    3    0  502 -0.52243846759E+02  0.15780860166E+02  0.39739445978E+02  0.67639862791E+02  0.41800000000E+01 0. -1.
        -11    1    4    4    0    0  0.14250077761E+02 -0.68995027591E+02  0.62689630497E+02  0.94304656939E+02  0.00000000000E+00 0.  1.
         11    1    4    4    0    0  0.61114662098E+02  0.12600521594E+02  0.47665335583E+02  0.78522348946E+02  0.00000000000E+00 0. -1.
</event>
<event>
 8    1  0.3708258E-009  0.1444932E+03  0.7561462E-02  0.1207408E+00
         -2   -1    0    0    0  501 -0.00000000000E+00  0.00000000000E+00  0.12190404544E+03  0.12190404544E+03  0.00000000000E+00 0. -1.
          2   -1    0    0  501    0  0.00000000000E+00 -0.00000000000E+00 -0.31475297111E+03  0.31475297111E+03  0.00000000000E+00 0.  1.
         25    2    1    2    0    0  0.10758738230E+03  0.72252513972E+02  0.89342967769E+01  0.18034108290E+03  0.12509042295E+03 0.  0.
         23    2    1    2    0    0 -0.10758738230E+03 -0.72252513972E+02 -0.20178322245E+03  0.25631593366E+03  0.90476065223E+02 0.  0.
          5    1    3    3  502    0  0.12000338241E+03  0.78466228828E+02 -0.22996453679E+02  0.14527239978E+03  0.41800000000E+01 0. -1.
         -5    1    3    3    0  502 -0.12416000103E+02 -0.62137148563E+01  0.31930750456E+02  0.35068683117E+02  0.41800000000E+01 0. -1.
        -11    1    4    4    0    0 -0.63337522273E+02 -0.53800063274E+02 -0.18935472488E+03  0.20678805665E+03  0.00000000000E+00 0.  1.
         11    1    4    4    0    0 -0.44249860030E+02 -0.18452450698E+02 -0.12428497566E+02  0.49527877011E+02  0.00000000000E+00 0. -1.
</event>
<event>
 8    1  0.3708258E-009  0.9069938E+02  0.7561462E-02  0.1301167E+00
          1   -1    0    0  501    0  0.00000000000E+00  0.00000000000E+00  0.45539331561E+02  0.45539331561E+02  0.00000000000E+00 0. -1.
         -1   -1    0    0    0  501 -0.00000000000E+00 -0.00000000000E+00 -0.34907571350E+03  0.34907571350E+03  0.00000000000E+00 0.  1.
         25    2    1    2    0    0 -0.41814146052E+02  0.41103995827E+02 -0.22017239816E+03  0.25992154510E+03  0.12508142713E+03 0.  0.
         23    2    1    2    0    0  0.41814146052E+02 -0.41103995827E+02 -0.83363983782E+02  0.13469349996E+03  0.88061477715E+02 0.  0.
          5    1    3    3  502    0 -0.14008692329E+02 -0.10170308362E+02  0.11356670742E+02  0.21121671414E+02  0.41800000000E+01 0. -1.
         -5    1    3    3    0  502 -0.27805453722E+02  0.51274304189E+02 -0.23152906890E+03  0.23879987368E+03  0.41800000000E+01 0. -1.
        -11    1    4    4    0    0  0.46783860898E+02  0.14737247497E+02 -0.46565545431E+02  0.67633321119E+02  0.00000000000E+00 0.  1.
         11    1    4    4    0    0 -0.49697148460E+01 -0.55841243323E+02 -0.36798438351E+02  0.67060178845E+02  0.00000000000E+00 0. -1.
</event>
<event>
 8    1  0.3708258E-009  0.1151181E+03  0.7561462E-02  0.1251375E+00
          1   -1    0    0  501    0  0.00000000000E+00  0.00000000000E+00  0.28433876955E+03  0.28433876955E+03  0.00000000000E+00 0. -1.
         -1   -1    0    0    0  501 -0.00000000000E+00 -0.00000000000E+00 -0.67241790759E+02  0.67241790759E+02  0.00000000000E+00 0.  1.
         25    2    1    2    0    0  0.83271699969E+02 -0.80092540426E+01  0.12476877750E+03  0.19548397030E+03  0.12509360751E+03 0.  0.
         23    2    1    2    0    0 -0.83271699969E+02  0.80092540426E+01  0.92328201292E+02  0.15609659001E+03  0.94038951994E+02 0.  0.
          5    1    3    3  502    0  0.63924928959E+02  0.27801014553E+02  0.62637756796E+01  0.70114194272E+02  0.41800000000E+01 0.  1.
         -5    1    3    3    0  502  0.19346771010E+02 -0.35810268596E+02  0.11850500182E+03  0.12536977603E+03  0.41800000000E+01 0.  1.
        -11    1    4    4    0    0 -0.99899783945E+02 -0.22910494105E+01  0.93025077614E+02  0.13652428650E+03  0.00000000000E+00 0. -1.
         11    1    4    4    0    0  0.16628083976E+02  0.10300303453E+02 -0.69687632159E+00  0.19572303506E+02  0.00000000000E+00 0.  1.
</event>
<event>
 8    1  0.3708258E-009  0.1280785E+03  0.7561462E-02  0.1230335E+00
         -2   -1    0    0    0  501 -0.00000000000E+00  0.00000000000E+00  0.55301653696E+02  0.55301653696E+02  0.00000000000E+00 0.  1.
          2   -1    0    0  501    0  0.00000000000E+00 -0.00000000000E+00 -0.32729952081E+03  0.32729952081E+03  0.00000000000E+00 0. -1.
         25    2    1    2    0    0  0.69132551654E+02  0.20866531562E+02 -0.10924156310E+03  0.18109445567E+03  0.12508701342E+03 0.  0.
         23    2    1    2    0    0 -0.69132551654E+02 -0.20866531562E+02 -0.16275630401E+03  0.20150671884E+03  0.94343104698E+02 0.  0.
          5    1    3    3  502    0  0.53236514953E+02  0.69942014318E+02 -0.45743313635E+02  0.99176282616E+02  0.41800000000E+01 0. -1.
         -5    1    3    3    0  502  0.15896036701E+02 -0.49075482757E+02 -0.63498249468E+02  0.81918173051E+02  0.41800000000E+01 0. -1.
        -11    1    4    4    0    0 -0.32140443929E+01 -0.45811862374E+02 -0.84624196874E+02  0.96282456928E+02  0.00000000000E+00 0.  1.
         11    1    4    4    0    0 -0.65918507261E+02  0.24945330812E+02 -0.78132107134E+02  0.10522426191E+03  0.00000000000E+00 0. -1.
</event>
<event>
 8    1  0.3708258E-009  0.1354776E+03  0.7561462E-02  0.1219547E+00
         -2   -1    0    0    0  501 -0.00000000000E+00  0.00000000000E+00  0.10786458899E+03  0.10786458899E+03  0.00000000000E+00 0.  1.
          2   -1    0    0  501    0  0.00000000000E+00 -0.00000000000E+00 -0.22117447911E+03  0.22117447911E+03  0.00000000000E+00 0. -1.
         25    2    1    2    0    0  0.77815143647E+02  0.76953640608E+02 -0.71049536898E+02  0.18075420186E+03  0.12508791074E+03 0.  0.
         23    2    1    2    0    0 -0.77815143647E+02 -0.76953640608E+02 -0.42260353222E+02  0.14828486625E+03  0.90694017002E+02 0.  0.
          5    1    3    3  502    0  0.77563275096E+02  0.10058819761E+03 -0.85092571382E+02  0.15294530149E+03  0.41800000000E+01 0.  1.
         -5    1    3    3    0  502  0.25186855084E+00 -0.23634557002E+02  0.14043034484E+02  0.27808900373E+02  0.41800000000E+01 0.  1.
        -11    1    4    4    0    0 -0.46414416115E+02 -0.12344012918E+02 -0.57428892533E+02  0.74864880790E+02  0.00000000000E+00 0. -1.
         11    1    4    4    0    0 -0.31400727532E+02 -0.64609627690E+02  0.15168539310E+02  0.73419985458E+02  0.00000000000E+00 0.  1.
</event>
<event>
 8    1  0.3708258E-009  0.1041947E+03  0.7561462E-02  0.1271714E+00
          1   -1    0    0  501    0  0.00000000000E+00  0.00000000000E+00  0.11479898865E+03  0.11479898865E+03  0.00000000000E+00 0. -1.
         -1   -1    0    0    0  501 -0.00000000000E+00 -0.00000000000E+00 -0.11520095885E+03  0.11520095885E+03  0.00000000000E+00 0.  1.
         25    2    1    2    0    0 -0.13010837975E+02  0.67369564202E+01  0.35087081194E+02  0.13074284536E+03  0.12509164584E+03 0.  0.
         23    2    1    2    0    0  0.13010837975E+02 -0.67369564202E+01 -0.35489051386E+02  0.99257102139E+02  0.91530492571E+02 0.  0.
          5    1    3    3  502    0  0.49245194330E+02  0.18235050387E+02  0.41375577635E+02  0.66985200245E+02  0.41800000000E+01 0.  1.
         -5    1    3    3    0  502 -0.62256032305E+02 -0.11498093967E+02 -0.62884964407E+01  0.63757645116E+02  0.41800000000E+01 0.  1.
        -11    1    4    4    0    0  0.51045779122E+02  0.76157430844E+01 -0.15079680497E+02  0.53768651395E+02  0.00000000000E+00 0.  1.
         11    1    4    4    0    0 -0.38034941147E+02 -0.14352699505E+02 -0.20409370889E+02  0.45488450745E+02  0.00000000000E+00 0. -1.
</event>
<event>
 8    1  0.3708258E-009  0.1140472E+03  0.7561462E-02  0.1253253E+00
         -1   -1    0    0    0  501 -0.00000000000E+00  0.00000000000E+00  0.37311807599E+02  0.37311807599E+02  0.00000000000E+00 0.  1.
          1   -1    0    0  501    0  0.00000000000E+00 -0.00000000000E+00 -0.36820566355E+03  0.36820566355E+03  0.00000000000E+00 0. -1.
         25    2    1    2    0    0 -0.46854485361E+02  0.22127624523E+02 -0.17034528231E+03  0.21759944907E+03  0.12508809082E+03 0.  0.
         23    2    1    2    0    0  0.46854485361E+02 -0.22127624523E+02 -0.16054857364E+03  0.18791802208E+03  0.82779006750E+02 0.  0.
          5    1    3    3  502    0 -0.25621973692E+02  0.73887286875E+02 -0.86161720221E+02  0.11643509406E+03  0.41800000000E+01 0. -1.
         -5    1    3    3    0  502 -0.21232511669E+02 -0.51759662352E+02 -0.84183562091E+02  0.10116435501E+03  0.41800000000E+01 0. -1.
        -11    1    4    4    0    0  0.66040588154E+02 -0.30501370051E+02 -0.14363496990E+03  0.16100527146E+03  0.00000000000E+00 0.  1.
         11    1    4    4    0    0 -0.19186102793E+02  0.83737455281E+01 -0.16913603741E+02  0.26912750622E+02  0.00000000000E+00 0. -1.
</event>
<event>
 8    1  0.3708258E-009  0.9377045E+02  0.7561462E-02  0.1293970E+00
         -2   -1    0    0    0  501 -0.00000000000E+00  0.00000000000E+00  0.21443807021E+02  0.21443807021E+02  0.00000000000E+00 0.  1.
          2   -1    0    0  501    0  0.00000000000E+00 -0.00000000000E+00 -0.83600627272E+03  0.83600627272E+03  0.00000000000E+00 0. -1.
         25    2    1    2    0    0  0.14561798541E+01  0.87714987330E+01 -0.67658328033E+03  0.68810725152E+03  0.12509034625E+03 0.  0.
         23    2    1    2    0    0 -0.14561798541E+01 -0.87714987330E+01 -0.13797918537E+03  0.16934282822E+03  0.97773606995E+02 0.  0.
          5    1    3    3  502    0 -0.17299957529E+02 -0.51368500951E+02 -0.19618806006E+03  0.20358103726E+03  0.41800000000E+01 0. -1.
         -5    1    3    3    0  502  0.18756137383E+02  0.60139999684E+02 -0.48039522027E+03  0.48452621426E+03  0.41800000000E+01 0. -1.
        -11    1    4    4    0    0  0.30639016346E+02 -0.19361563408E+02 -0.12953045241E+03  0.13450560420E+03  0.00000000000E+00 0. -1.
         11    1    4    4    0    0 -0.32095196200E+02  0.10590064675E+02 -0.84487329650E+01  0.34837224024E+02  0.00000000000E+00 0.  1.
</event>
<event>
 8    1  0.3708258E-009  0.1100244E+03  0.7561462E-02  0.1260525E+00
          4   -1    0    0  501    0  0.00000000000E+00  0.00000000000E+00  0.23362213642E+03  0.23362213642E+03  0.00000000000E+00 0. -1.
         -4   -1    0    0    0  501 -0.00000000000E+00 -0.00000000000E+00 -0.12547271398E+03  0.12547271398E+03  0.00000000000E+00 0.  1.
         25    2    1    2    0    0  0.18556814005E+02 -0.73781890864E+02  0.17133010202E+03  0.22536524645E+03  0.12508943873E+03 0.  0.
         23    2    1    2    0    0 -0.18556814005E+02  0.73781890864E+02 -0.63180679583E+02  0.13372960396E+03  0.90020475096E+02 0.  0.
          5    1    3    3  502    0 -0.48051828471E+02 -0.54659737188E+02  0.61214260723E+02  0.95190982791E+02  0.41800000000E+01 0.  1.
         -5    1    3    3    0  502  0.66608642476E+02 -0.19122153676E+02  0.11011584130E+03  0.13017426366E+03  0.41800000000E+01 0.  1.
        -11    1    4    4    0    0 -0.93425000833E+01  0.62333616577E+02 -0.85977664934E+02  0.10660638316E+03  0.00000000000E+00 0.  1.
         11    1    4    4    0    0 -0.92143139214E+01  0.11448274287E+02  0.22796985351E+02  0.27123220795E+02  0.00000000000E+00 0. -1.
</event>
<event>
 8    1  0.3708258E-009  0.2203280E+03  0.7561462E-02  0.1133639E+00
          2   -1    0    0  501    0  0.00000000000E+00  0.00000000000E+00  0.90558017277E+02  0.90558017277E+02  0.00000000000E+00 0. -1.
         -2   -1    0    0    0  501 -0.00000000000E+00 -0.00000000000E+00 -0.62502570546E+03  0.62502570546E+03  0.00000000000E+00 0.  1.
         25    2    1    2    0    0  0.11153441561E+02  0.21036819122E+03 -0.24904240539E+03  0.34935566498E+03  0.12509230927E+03 0.  0.
         23    2    1    2    0    0 -0.11153441561E+02 -0.21036819122E+03 -0.28542528279E+03  0.36622805775E+03  0.90973749474E+02 0.  0.
          5    1    3    3  502    0  0.34467764693E+02  0.99988377232E+02 -0.42668209883E+02  0.11412164965E+03  0.41800000000E+01 0.  1.
         -5    1    3    3    0  502 -0.23314323132E+02  0.11037981399E+03 -0.20637419550E+03  0.23523401533E+03  0.41800000000E+01 0.  1.
        -11    1    4    4    0    0 -0.40410696991E+02 -0.10324638228E+03 -0.18919176567E+03  0.21928603257E+03  0.00000000000E+00 0. -1.
         11    1    4    4    0    0  0.29257255430E+02 -0.10712180894E+03 -0.96233517124E+02  0.14694202518E+03  0.00000000000E+00 0.  1.
</event>
<event>
 8    1  0.3708258E-009  0.1189522E+03  0.7561462E-02  0.1244836E+00
          1   -1    0    0  501    0  0.00000000000E+00  0.00000000000E+00  0.10573236044E+04  0.10573236044E+04  0.00000000000E+00 0. -1.
         -1   -1    0    0    0  501 -0.00000000000E+00 -0.00000000000E+00 -0.16417158741E+02  0.16417158741E+02  0.00000000000E+00 0.  1.
         25    2    1    2    0    0 -0.67812800261E+02  0.30577363123E+02  0.59221353927E+03  0.60983357481E+03  0.12508621770E+03 0.  0.
         23    2    1    2    0    0  0.67812800261E+02 -0.30577363123E+02  0.44869290639E+03  0.46390718832E+03  0.91383828571E+02 0.  0.
          5    1    3    3  502    0 -0.68363494211E+02 -0.19440570655E+02  0.16531987697E+03  0.17999899236E+03  0.41800000000E+01 0.  1.
         -5    1    3    3    0  502  0.55069395026E+00  0.50017933777E+02  0.42689366229E+03  0.42983458245E+03  0.41800000000E+01 0.  1.
        -11    1    4    4    0    0  0.66310030619E+02  0.17365266705E+02  0.22899512681E+03  0.23903418323E+03  0.00000000000E+00 0.  1.
         11    1    4    4    0    0  0.15027696424E+01 -0.47942629828E+02  0.21969777958E+03  0.22487300510E+03  0.00000000000E+00 0. -1.
</event>
<event>
 8    1  0.3708258E-009  0.1809605E+03  0.7561462E-02  0.1166877E+00
          2   -1    0    0  501    0  0.00000000000E+00  0.00000000000E+00  0.50538624305E+03  0.50538624305E+03  0.00000000000E+00 0. -1.
         -2   -1    0    0    0  501 -0.00000000000E+00 -0.00000000000E+00 -0.71826595150E+02  0.71826595150E+02  0.00000000000E+00 0.  1.
         25    2    1    2    0    0  0.81916461428E+02  0.12916785828E+03  0.18374161560E+03  0.26981959354E+03  0.12508792703E+03 0.  0.
         23    2    1    2    0    0 -0.81916461428E+02 -0.12916785828E+03  0.24981803230E+03  0.30739324466E+03  0.93203622973E+02 0.  0.
          5    1    3    3  502    0  0.74787086671E+02  0.10235625448E+02  0.49916445133E+02  0.90592495582E+02  0.41800000000E+01 0. -1.
         -5    1    3    3    0  502  0.71293747565E+01  0.11893223283E+03  0.13382517047E+03  0.17922709796E+03  0.41800000000E+01 0. -1.
        -11    1    4    4    0    0 -0.59763746503E+02 -0.32703095665E+02  0.15934657405E+03  0.17329895707E+03  0.00000000000E+00 0.  1.
         11    1    4    4    0    0 -0.22152714925E+02 -0.96464762616E+02  0.90471458249E+02  0.13409428758E+03  0.00000000000E+00 0. -1.
</event>
<event>
 8    1  0.3708258E-009  0.1052443E+03  0.7561462E-02  0.1269639E+00
         -2   -1    0    0    0  501 -0.00000000000E+00  0.00000000000E+00  0.36755937062E+02  0.36755937062E+02  0.00000000000E+00 0.  1.
          2   -1    0    0  501    0  0.00000000000E+00 -0.00000000000E+00 -0.36176364835E+03  0.36176364835E+03  0.00000000000E+00 0. -1.
         25    2    1    2    0    0  0.19460085890E+02 -0.90745183478E+01 -0.12688932125E+03  0.17947053499E+03  0.12509089198E+03 0.  0.
         23    2    1    2    0    0 -0.19460085890E+02  0.90745183478E+01 -0.19811839004E+03  0.21904905042E+03  0.90942554359E+02 0.  0.
          5    1    3    3  502    0 -0.43983959274E+02  0.28853127558E+02 -0.56617842828E+02  0.77396021666E+02  0.41800000000E+01 0. -1.
         -5    1    3    3    0  502  0.63444045164E+02 -0.37927645905E+02 -0.70271478423E+02  0.10207451332E+03  0.41800000000E+01 0. -1.
        -11    1    4    4    0    0  0.19271510891E+02  0.32959995078E+02 -0.43526595773E+02  0.57899196430E+02  0.00000000000E+00 0.  1.
         11    1    4    4    0    0 -0.38731596781E+02 -0.23885476730E+02 -0.15459179426E+03  0.16114985399E+03  0.00000000000E+00 0. -1.
</event>
<event>
 8    1  0.3708258E-009  0.1397501E+03  0.7561462E-02  0.1213666E+00
          4   -1    0    0  501    0  0.00000000000E+00  0.00000000000E+00  0.12230952211E+04  0.12230952211E+04  0.00000000000E+00 0. -1.
         -4   -1    0    0    0  501 -0.00000000000E+00 -0.00000000000E+00 -0.20784999281E+02  0.20784999281E+02  0.00000000000E+00 0.  1.
         25    2    1    2    0    0 -0.56730632267E+01 -0.10760109406E+03  0.81964587792E+03  0.83610698494E+03  0.12508135742E+03 0.  0.
         23    2    1    2    0    0  0.56730632267E+01  0.10760109406E+03  0.38266434387E+03  0.40777323542E+03  0.90756996229E+02 0.  0.
          5    1    3    3  502    0 -0.25073639857E+02 -0.11856877596E+03  0.78742421096E+03  0.79670672298E+03  0.41800000000E+01 0. -1.
         -5    1    3    3    0  502  0.19400576631E+02  0.10967681898E+02  0.32221666965E+02  0.39400261951E+02  0.41800000000E+01 0. -1.
        -11    1    4    4    0    0 -0.36803368587E+02  0.68831935353E+02  0.27307278317E+03  0.28400892270E+03  0.00000000000E+00 0. -1.
         11    1    4    4    0    0  0.42476431814E+02  0.38769158705E+02  0.10959156070E+03  0.12376431272E+03  0.00000000000E+00 0.  1.
</event>
<event>
 8    1  0.3708258E-009  0.9830570E+02  0.7561462E-02  0.1283900E+00
         -1   -1    0    0    0  501 -0.00000000000E+00  0.00000000000E+00  0.51525184301E+02  0.51525184301E+02  0.00000000000E+00 0.  1.
          1   -1    0    0  501    0  0.00000000000E+00 -0.00000000000E+00 -0.29058935731E+03  0.29058935731E+03  0.00000000000E+00 0. -1.
         25    2    1    2    0    0  0.47577997396E+02 -0.17157033052E+02 -0.18296680250E+03  0.22733720294E+03  0.12508926175E+03 0.  0.
         23    2    1    2    0    0 -0.47577997396E+02  0.17157033052E+02 -0.56097370512E+02  0.11477733867E+03  0.86422756695E+02 0.  0.
          5    1    3    3  502    0 -0.14923689212E+02  0.39505302661E+02 -0.27987273937E+02  0.50834489675E+02  0.41800000000E+01 0.  1.
         -5    1    3    3    0  502  0.62501686608E+02 -0.56662335712E+02 -0.15497952856E+03  0.17650271326E+03  0.41800000000E+01 0.  1.
        -11    1    4    4    0    0 -0.51721113767E+02 -0.34560958928E+00  0.41634283524E+01  0.51889567265E+02  0.00000000000E+00 0.  1.
         11    1    4    4    0    0  0.41431163708E+01  0.17502642641E+02 -0.60260798864E+02  0.62887771406E+02  0.00000000000E+00 0. -1.
</event>
<event>
 8    1  0.3708258E-009  0.7556701E+02  0.7561462E-02  0.1342124E+00
         -3   -1    0    0    0  501 -0.00000000000E+00  0.00000000000E+00  0.13985929536E+03  0.13985929536E+03  0.00000000000E+00 0.  1.
          3   -1    0    0  501    0  0.00000000000E+00 -0.00000000000E+00 -0.10830117613E+03  0.10830117613E+03  0.00000000000E+00 0. -1.
         25    2    1    2    0    0  0.51482883745E+02 -0.86183931026E+01  0.43901916815E+02  0.14248115406E+03  0.12509491174E+03 0.  0.
         23    2    1    2    0    0 -0.51482883745E+02  0.86183931026E+01 -0.12343797585E+02  0.10567931744E+03  0.91054844889E+02 0.  0.
          5    1    3    3  502    0  0.72941834457E+02 -0.17833823168E+02 -0.17014894229E+02  0.77107298542E+02  0.41800000000E+01 0. -1.
         -5    1    3    3    0  502 -0.21458950712E+02  0.92154300657E+01  0.60916811044E+02  0.65373855513E+02  0.41800000000E+01 0. -1.
        -11    1    4    4    0    0 -0.40312161820E+02  0.65135001834E+01 -0.51030280588E+02  0.65357368461E+02  0.00000000000E+00 0. -1.
         11    1    4    4    0    0 -0.11170721925E+02  0.21048929192E+01  0.38686483003E+02  0.40321948981E+02  0.00000000000E+00 0.  1.
</event>
<event>
 8    1  0.3708258E-009  0.1728800E+03  0.7561462E-02  0.1174877E+00
         -1   -1    0    0    0  501 -0.00000000000E+00  0.00000000000E+00  0.30024248843E+03  0.30024248843E+03  0.00000000000E+00 0.  1.
          1   -1    0    0  501    0  0.00000000000E+00 -0.00000000000E+00 -0.13046976708E+03  0.13046976708E+03  0.00000000000E+00 0. -1.
         25    2    1    2    0    0 -0.12942787685E+03 -0.81739155956E+02  0.21708775773E+02  0.19887667474E+03  0.12509115031E+03 0.  0.
         23    2    1    2    0    0  0.12942787685E+03  0.81739155956E+02  0.14806394558E+03  0.23183558077E+03  0.91607530303E+02 0.  0.
          5    1    3    3  502    0 -0.13546116581E+03 -0.67524518909E+02 -0.21376397649E+02  0.15291733346E+03  0.41800000000E+01 0.  1.
         -5    1    3    3    0  502  0.60332889517E+01 -0.14214637047E+02  0.43085173423E+02  0.45959341279E+02  0.41800000000E+01 0.  1.
        -11    1    4    4    0    0  0.56149786261E+02 -0.13916636250E+02  0.45506315297E+02  0.73602282530E+02  0.00000000000E+00 0.  1.
         11    1    4    4    0    0  0.73278090593E+02  0.95655792207E+02  0.10255763028E+03  0.15823329824E+03  0.00000000000E+00 0. -1.
</event>
<event>
 8    1  0.3708258E-009  0.1162343E+03  0.7561462E-02  0.1249442E+00
          2   -1    0    0  501    0  0.00000000000E+00  0.00000000000E+00  0.11361727057E+04  0.11361727057E+04  0.00000000000E+00 0. -1.
         -2   -1    0    0    0  501 -0.00000000000E+00 -0.00000000000E+00 -0.13984197497E+02  0.13984197497E+02  0.00000000000E+00 0.  1.
         25    2    1    2    0    0 -0.29749730089E+02 -0.46574729770E+02  0.77827593266E+03  0.79019923320E+03  0.12508856422E+03 0.  0.
         23    2    1    2    0    0  0.29749730089E+02  0.46574729770E+02  0.34391257553E+03  0.35995766999E+03  0.90771210634E+02 0.  0.
          5    1    3    3  502    0 -0.64873980492E+02  0.60453143306E+01  0.52781122663E+03  0.53183394263E+03  0.41800000000E+01 0. -1.
         -5    1    3    3    0  502  0.35124250404E+02 -0.52620044100E+02  0.25046470603E+03  0.25836529057E+03  0.41800000000E+01 0. -1.
        -11    1    4    4    0    0  0.61167230527E+02  0.33562992796E+02  0.19195245580E+03  0.20423919767E+03  0.00000000000E+00 0.  1.
         11    1    4    4    0    0 -0.31417500438E+02  0.13011736973E+02  0.15196011973E+03  0.15571847232E+03  0.00000000000E+00 0. -1.
</event>
<event>
 8    1  0.3708258E-009  0.1925726E+03  0.7561462E-02  0.1156161E+00
         -2   -1    0    0    0  501 -0.00000000000E+00  0.00000000000E+00  0.83381682247E+02  0.83381682247E+02  0.00000000000E+00 0.  1.
          2   -1    0    0  501    0  0.00000000000E+00 -0.00000000000E+00 -0.53692101105E+03  0.53692101105E+03  0.00000000000E+00 0. -1.
         25    2    1    2    0    0 -0.95993791059E+02 -0.15374483407E+03 -0.20746217677E+03  0.30255415782E+03  0.12508469810E+03 0.  0.
         23    2    1    2    0    0  0.95993791059E+02  0.15374483407E+03 -0.24607715203E+03  0.31774853548E+03  0.86936097910E+02 0.  0.
          5    1    3    3  502    0 -0.60831614789E+01 -0.41838984203E+02  0.83775388260E+01  0.43303129326E+02  0.41800000000E+01 0. -1.
         -5    1    3    3    0  502 -0.89910629580E+02 -0.11190584987E+03 -0.21583971560E+03  0.25925102849E+03  0.41800000000E+01 0. -1.
        -11    1    4    4    0    0  0.11120664518E+03  0.13573966861E+03 -0.20055335073E+03  0.26648418725E+03  0.00000000000E+00 0.  1.
         11    1    4    4    0    0 -0.15212854121E+02  0.18005165460E+02 -0.45523801305E+02  0.51264348226E+02  0.00000000000E+00 0. -1.
</event>
<event>
 8    1  0.3708258E-009  0.1863111E+03  0.7561462E-02  0.1161831E+00
         -1   -1    0    0    0  501 -0.00000000000E+00  0.00000000000E+00  0.18508910176E+03  0.18508910176E+03  0.00000000000E+00 0.  1.
          1   -1    0    0  501    0  0.00000000000E+00 -0.00000000000E+00 -0.19315085606E+03  0.19315085606E+03  0.00000000000E+00 0. -1.
         25    2    1    2    0    0  0.55457448937E+02  0.14313776960E+03  0.13125142263E+02  0.19845389957E+03  0.12509089162E+03 0.  0.
         23    2    1    2    0    0 -0.55457448937E+02 -0.14313776960E+03 -0.21186896564E+02  0.17978605825E+03  0.91160256852E+02 0.  0.
          5    1    3    3  502    0  0.76756508661E+02  0.32549170974E+02 -0.77569083222E+01  0.83837057317E+02  0.41800000000E+01 0.  1.
         -5    1    3    3    0  502 -0.21299059724E+02  0.11058859862E+03  0.20882050585E+02  0.11461684225E+03  0.41800000000E+01 0.  1.
        -11    1    4    4    0    0 -0.34033150710E+02 -0.15010704429E+03 -0.27577604892E+02  0.15636784959E+03  0.00000000000E+00 0. -1.
         11    1    4    4    0    0 -0.21424298227E+02  0.69692746942E+01  0.63907083280E+01  0.23418208668E+02  0.00000000000E+00 0.  1.
</event>
<event>
 8    1  0.3708258E-009  0.1208288E+03  0.7561462E-02  0.1241736E+00
          2   -1    0    0  501    0  0.00000000000E+00  0.00000000000E+00  0.18341635301E+03  0.18341635301E+03  0.00000000000E+00 0. -1.
         -2   -1    0    0    0  501 -0.00000000000E+00 -0.00000000000E+00 -0.10191044576E+03  0.10191044576E+03  0.00000000000E+00 0.  1.
         25    2    1    2    0    0 -0.65041029166E+02  0.13957313325E+02 -0.82264271100E+01  0.14192128678E+03  0.12509530554E+03 0.  0.
         23    2    1    2    0    0  0.65041029166E+02 -0.13957313325E+02  0.89732334355E+02  0.14340551199E+03  0.89933903345E+02 0.  0.
          5    1    3    3  502    0  0.13290782089E+02 -0.37120890490E+02  0.19649669891E+02  0.44251410442E+02  0.41800000000E+01 0. -1.
         -5    1    3    3    0  502 -0.78331811255E+02  0.51078203816E+02 -0.27876097001E+02  0.97669876336E+02  0.41800000000E+01 0. -1.
        -11    1    4    4    0    0  0.53549044008E+02  0.31083731665E+02  0.68395143507E+02  0.92258301218E+02  0.00000000000E+00 0.  1.
         11    1    4    4    0    0  0.11491985158E+02 -0.45041044991E+02  0.21337190849E+02  0.51147210775E+02  0.00000000000E+00 0. -1.
</event>
<event>
 8    1  0.3708258E-009  0.8135193E+02  0.7561462E-02  0.1325258E+00
          2   -1    0    0  501    0  0.00000000000E+00  0.00000000000E+00  0.70282165022E+02  0.70282165022E+02  0.00000000000E+00 0. -1.
         -2   -1    0    0    0  501 -0.00000000000E+00 -0.00000000000E+00 -0.18488502834E+03  0.18488502834E+03  0.00000000000E+00 0.  1.
         25    2    1    2    0    0  0.21969558234E+02  0.16315407962E+02 -0.85396281137E+02  0.15390814792E+03  0.12508532743E+03 0.  0.
         23    2    1    2    0    0 -0.21969558234E+02 -0.16315407962E+02 -0.29206582179E+02  0.10125904544E+03  0.93013524900E+02 0.  0.
          5    1    3    3  502    0 -0.22183516973E+02  0.33262825640E+01  0.25229706474E+02  0.34017393635E+02  0.41800000000E+01 0. -1.
         -5    1    3    3    0  502  0.44153075207E+02  0.12989125398E+02 -0.11062598761E+03  0.11989075429E+03  0.41800000000E+01 0. -1.
        -11    1    4    4    0    0 -0.56127344200E+02 -0.74184717582E+00 -0.44881324584E+01  0.56311388165E+02  0.00000000000E+00 0.  1.
         11    1    4    4    0    0  0.34157785966E+02 -0.15573560786E+02 -0.24718449720E+02  0.44947657272E+02  0.00000000000E+00 0. -1.
</event>
<event>
 8    1  0.3708258E-009  0.1089145E+03  0.7561462E-02  0.1262593E+00
          1   -1    0    0  501    0  0.00000000000E+00  0.00000000000E+00  0.38618038635E+03  0.38618038635E+03  0.00000000000E+00 0. -1.
         -1   -1    0    0    0  501 -0.00000000000E+00 -0.00000000000E+00 -0.40025752988E+02  0.40025752988E+02  0.00000000000E+00 0.  1.
         25    2    1    2    0    0 -0.43362834886E+02  0.18338436894E+02  0.12896769646E+03  0.18573274679E+03  0.12508937918E+03 0.  0.
         23    2    1    2    0    0  0.43362834886E+02 -0.18338436894E+02  0.21718693690E+03  0.24047339254E+03  0.91873027835E+02 0.  0.
          5    1    3    3  502    0 -0.38226607195E+02 -0.42318424056E+02  0.19510744666E+02  0.60417415285E+02  0.41800000000E+01 0. -1.
         -5    1    3    3    0  502 -0.51362276908E+01  0.60656860951E+02  0.10945695179E+03  0.12531533151E+03  0.41800000000E+01 0. -1.
        -11    1    4    4    0    0  0.67980481327E+02  0.15277722448E+01  0.11604115668E+03  0.13449620803E+03  0.00000000000E+00 0.  1.
         11    1    4    4    0    0 -0.24617646441E+02 -0.19866209139E+02  0.10114578022E+03  0.10597718451E+03  0.00000000000E+00 0. -1.
</event>
<event>
 8    1  0.3708258E-009  0.6663375E+02  0.7561462E-02  0.1371929E+00
          3   -1    0    0  501    0  0.00000000000E+00  0.00000000000E+00  0.34205621072E+03  0.34205621072E+03  0.00000000000E+00 0. -1.
         -3   -1    0    0    0  501 -0.00000000000E+00 -0.00000000000E+00 -0.61875373677E+02  0.61875373677E+02  0.00000000000E+00 0.  1.
         25    2    1    2    0    0  0.84107069251E+01  0.17430230804E+02  0.28406749056E+03  0.31099274563E+03  0.12509035016E+03 0.  0.
         23    2    1    2    0    0 -0.84107069251E+01 -0.17430230804E+02 -0.38866535163E+01  0.92938838771E+02  0.90818328215E+02 0.  0.
          5    1    3    3  502    0  0.22035494418E+00  0.48469606841E+02  0.35250075606E+02  0.60078212139E+02  0.41800000000E+01 0. -1.
         -5    1    3    3    0  502  0.81903519810E+01 -0.31039376037E+02  0.24881741496E+03  0.25091453349E+03  0.41800000000E+01 0. -1.
        -11    1    4    4    0    0  0.14711876597E+02 -0.24050224502E+02 -0.40370450717E+02  0.49240490479E+02  0.00000000000E+00 0.  1.
         11    1    4    4    0    0 -0.23122583522E+02  0.66199936977E+01  0.36483797200E+02  0.43698348292E+02  0.00000000000E+00 0. -1.
</event>
<event>
 8    1  0.3708258E-009  0.1215565E+03  0.7561462E-02  0.1240551E+00
         -2   -1    0    0    0  501 -0.00000000000E+00  0.00000000000E+00  0.14754451338E+02  0.14754451338E+02  0.00000000000E+00 0.  1.
          2   -1    0    0  501    0  0.00000000000E+00 -0.00000000000E+00 -0.10287812348E+04  0.10287812348E+04  0.00000000000E+00 0. -1.
         25    2    1    2    0    0  0.23817710025E+02  0.49602382644E+02 -0.59193422151E+03  0.60750399246E+03  0.12508916258E+03 0.  0.
         23    2    1    2    0    0 -0.23817710025E+02 -0.49602382644E+02 -0.42209256194E+03  0.43603169365E+03  0.94518925901E+02 0.  0.
          5    1    3    3  502    0 -0.18169258308E+02  0.81010805401E+02 -0.32720822657E+03  0.33760267842E+03  0.41800000000E+01 0.  1.
         -5    1    3    3    0  502  0.41986968333E+02 -0.31408422757E+02 -0.26472599493E+03  0.26990131405E+03  0.41800000000E+01 0.  1.
        -11    1    4    4    0    0  0.20121785292E+02  0.17839207481E+02 -0.14553356904E+03  0.14799710566E+03  0.00000000000E+00 0. -1.
         11    1    4    4    0    0 -0.43939495317E+02 -0.67441590126E+02 -0.27655899290E+03  0.28803458799E+03  0.00000000000E+00 0.  1.
</event>
<event>
 8    1  0.3708258E-009  0.1652768E+03  0.7561462E-02  0.1182865E+00
          3   -1    0    0  501    0  0.00000000000E+00  0.00000000000E+00  0.50535001300E+03  0.50535001300E+03  0.00000000000E+00 0. -1.
         -3   -1    0    0    0  501 -0.00000000000E+00 -0.00000000000E+00 -0.75765056422E+02  0.75765056422E+02  0.00000000000E+00 0.  1.
         25    2    1    2    0    0  0.12338787097E+03  0.10549886870E+03  0.24056236893E+03  0.31602976995E+03  0.12509989668E+03 0.  0.
         23    2    1    2    0    0 -0.12338787097E+03 -0.10549886870E+03  0.18902258764E+03  0.26508529946E+03  0.90477065357E+02 0.  0.
          5    1    3    3  502    0 -0.18303161648E+01  0.16308597484E+01 -0.13482684275E+02  0.14327070044E+02  0.41800000000E+01 0.  1.
         -5    1    3    3    0  502  0.12521818713E+03  0.10386800895E+03  0.25404505321E+03  0.30170269991E+03  0.41800000000E+01 0.  1.
        -11    1    4    4    0    0 -0.15160912102E+02 -0.19669511155E+02 -0.65203703930E+01  0.25676022957E+02  0.00000000000E+00 0.  1.
         11    1    4    4    0    0 -0.10822695887E+03 -0.85829357542E+02  0.19554295803E+03  0.23940927651E+03  0.00000000000E+00 0. -1.
</event>
<event>
 8    1  0.3708258E-009  0.1085585E+03  0.7561462E-02  0.1263263E+00
          3   -1    0    0  501    0  0.00000000000E+00  0.00000000000E+00  0.81371961138E+02  0.81371961138E+02  0.00000000000E+00 0. -1.
         -3   -1    0    0    0  501 -0.00000000000E+00 -0.00000000000E+00 -0.16144307852E+03  0.16144307852E+03  0.00000000000E+00 0.  1.
         25    2    1    2    0    0  0.28680721773E+01 -0.39081668713E+02 -0.49103494596E+02  0.13997733308E+03  0.12508756104E+03 0.  0.
         23    2    1    2    0    0 -0.28680721773E+01  0.39081668713E+02 -0.30967622791E+02  0.10283770658E+03  0.89894368937E+02 0.  0.
          5    1    3    3  502    0 -0.13556125460E+01 -0.79343056516E+02 -0.44923556917E+01  0.79591531977E+02  0.41800000000E+01 0.  1.
         -5    1    3    3    0  502  0.42236847233E+01  0.40261387804E+02 -0.44611138904E+02  0.60385801103E+02  0.41800000000E+01 0.  1.
        -11    1    4    4    0    0  0.20181557793E+02  0.61545090794E+02 -0.13295982985E+02  0.66120168174E+02  0.00000000000E+00 0. -1.
         11    1    4    4    0    0 -0.23049629970E+02 -0.22463422081E+02 -0.17671639806E+02  0.36717538409E+02  0.00000000000E+00 0.  1.
</event>
<event>
 8    1  0.3708258E-009  0.1293069E+03  0.7561462E-02  0.1228488E+00
         -2   -1    0    0    0  501 -0.00000000000E+00  0.00000000000E+00  0.18943554826E+02  0.18943554826E+02  0.00000000000E+00 0.  1.
          2   -1    0    0  501    0  0.00000000000E+00 -0.00000000000E+00 -0.96874799641E+03  0.96874799641E+03  0.00000000000E+00 0. -1.
         25    2    1    2    0    0 -0.47237671576E+02 -0.61140607038E+02 -0.42907695891E+03  0.45356728374E+03  0.12508666104E+03 0.  0.
         23    2    1    2    0    0  0.47237671576E+02  0.61140607038E+02 -0.52072748268E+03  0.53412426750E+03  0.90344067135E+02 0.  0.
          5    1    3    3  502    0  0.33638192670E+02 -0.48816180709E+02 -0.24467430578E+03  0.25178867292E+03  0.41800000000E+01 0. -1.
         -5    1    3    3    0  502 -0.80875864246E+02 -0.12324426329E+02 -0.18440265313E+03  0.20177861081E+03  0.41800000000E+01 0. -1.
        -11    1    4    4    0    0 -0.22199790647E+02  0.38119290581E+02 -0.15514359458E+03  0.16129304374E+03  0.00000000000E+00 0.  1.
         11    1    4    4    0    0  0.69437462223E+02  0.23021316457E+02 -0.36558388809E+03  0.37283122375E+03  0.00000000000E+00 0. -1.
</event>
<event>
 8    1  0.3708258E-009  0.1268552E+03  0.7561462E-02  0.1232198E+00
          1   -1    0    0  501    0  0.00000000000E+00  0.00000000000E+00  0.29425993166E+03  0.29425993166E+03  0.00000000000E+00 0. -1.
         -1   -1    0    0    0  501 -0.00000000000E+00 -0.00000000000E+00 -0.10068087023E+03  0.10068087023E+03  0.00000000000E+00 0.  1.
         25    2    1    2    0    0  0.42148929645E+02 -0.11103272494E+03  0.36018510833E+02  0.17620894214E+03  0.12508980730E+03 0.  0.
         23    2    1    2    0    0 -0.42148929645E+02  0.11103272494E+03  0.15756055060E+03  0.21873185975E+03  0.94411339814E+02 0.  0.
          5    1    3    3  502    0 -0.13353810940E+02 -0.32313238191E+02 -0.40104529334E+02  0.53369610286E+02  0.41800000000E+01 0. -1.
         -5    1    3    3    0  502  0.55502740585E+02 -0.78719486751E+02  0.76123040167E+02  0.12283933186E+03  0.41800000000E+01 0. -1.
        -11    1    4    4    0    0 -0.29650153235E+02  0.39063586919E+02  0.46400952961E+01  0.49260794697E+02  0.00000000000E+00 0.  1.
         11    1    4    4    0    0 -0.12498776410E+02  0.71969138022E+02  0.15292045530E+03  0.16947106505E+03  0.00000000000E+00 0. -1.
</event>
<event>
 8    1  0.3708258E-009  0.1388065E+03  0.7561462E-02  0.1214944E+00
          2   -1    0    0  501    0  0.00000000000E+00  0.00000000000E+00  0.14495366413E+03  0.14495366413E+03  0.00000000000E+00 0. -1.
         -2   -1    0    0    0  501 -0.00000000000E+00 -0.00000000000E+00 -0.15777804781E+03  0.15777804781E+03  0.00000000000E+00 0.  1.
         25    2    1    2    0    0 -0.81934335825E+02 -0.59375562949E+02 -0.38504133134E+02  0.16543456247E+03  0.12508930141E+03 0.  0.
         23    2    1    2    0    0  0.81934335825E+02  0.59375562949E+02  0.25679749457E+02  0.13729714948E+03  0.89176032990E+02 0.  0.
          5    1    3    3  502    0 -0.10631022465E+03 -0.13853782325E+02 -0.37381308055E+02  0.11361613328E+03  0.41800000000E+01 0. -1.
         -5    1    3    3    0  502  0.24375888825E+02 -0.45521780624E+02 -0.11228250786E+01  0.51818429186E+02  0.41800000000E+01 0. -1.
        -11    1    4    4    0    0  0.35543350493E+01  0.36770174158E+02 -0.21816483422E+02  0.42902656726E+02  0.00000000000E+00 0.  1.
         11    1    4    4    0    0  0.78380000776E+02  0.22605388790E+02  0.47496232879E+02  0.94394492751E+02  0.00000000000E+00 0. -1.
</event>
<event>
 8    1  0.3708258E-009  0.1304282E+03  0.7561462E-02  0.1226822E+00
          2   -1    0    0  501    0  0.00000000000E+00  0.00000000000E+00  0.40818405935E+03  0.40818405935E+03  0.00000000000E+00 0. -1.
         -2   -1    0    0    0  501 -0.00000000000E+00 -0.00000000000E+00 -0.64506020599E+02  0.64506020599E+02  0.00000000000E+00 0.  1.
         25    2    1    2    0    0 -0.10397912172E+03  0.14614374969E+02  0.26996392811E+03  0.31552026720E+03  0.12508908357E+03 0.  0.
         23    2    1    2    0    0  0.10397912172E+03 -0.14614374969E+02  0.73714110647E+02  0.15716981275E+03  0.90792853354E+02 0.  0.
          5    1    3    3  502    0 -0.84224106750E+02  0.48320691650E+02  0.93958370031E+02  0.13518223662E+03  0.41800000000E+01 0. -1.
         -5    1    3    3    0  502 -0.19755014973E+02 -0.33706316680E+02  0.17600555807E+03  0.18033803058E+03  0.41800000000E+01 0.  1.
        -11    1    4    4    0    0  0.56473387381E+02 -0.41227786169E+02  0.58570477445E+01  0.70166080431E+02  0.00000000000E+00 0.  1.
         11    1    4    4    0    0  0.47505734342E+02  0.26613411200E+02  0.67857062903E+02  0.87003732316E+02  0.00000000000E+00 0. -1.
</event>
<event>
 8    1  0.3708258E-009  0.1581445E+03  0.7561462E-02  0.1190808E+00
         -1   -1    0    0    0  501 -0.00000000000E+00  0.00000000000E+00  0.94478340498E+02  0.94478340498E+02  0.00000000000E+00 0.  1.
          1   -1    0    0  501    0  0.00000000000E+00 -0.00000000000E+00 -0.33944484461E+03  0.33944484461E+03  0.00000000000E+00 0. -1.
         25    2    1    2    0    0  0.43265163802E+02  0.11464917435E+03 -0.21720616891E+03  0.27900476285E+03  0.12509528489E+03 0.  0.
         23    2    1    2    0    0 -0.43265163802E+02 -0.11464917435E+03 -0.27760335207E+02  0.15491842226E+03  0.90624355260E+02 0.  0.
          5    1    3    3  502    0 -0.26475605487E+02 -0.57625255201E+01 -0.96090150045E+01  0.29051161003E+02  0.41800000000E+01 0. -1.
         -5    1    3    3    0  502  0.69740769289E+02  0.12041169987E+03 -0.20759715390E+03  0.24995360185E+03  0.41800000000E+01 0. -1.
        -11    1    4    4    0    0  0.18581030104E+02  0.89777065217E+00  0.60647511547E+01  0.19566345557E+02  0.00000000000E+00 0.  1.
         11    1    4    4    0    0 -0.61846193906E+02 -0.11554694501E+03 -0.33825086362E+02  0.13535207670E+03  0.00000000000E+00 0. -1.
</event>
<event>
 8    1  0.3708258E-009  0.9756519E+02  0.7561462E-02  0.1285501E+00
         -2   -1    0    0    0  501 -0.00000000000E+00  0.00000000000E+00  0.20777815956E+02  0.20777815956E+02  0.00000000000E+00 0.  1.
          2   -1    0    0  501    0  0.00000000000E+00 -0.00000000000E+00 -0.60668886784E+03  0.60668886784E+03  0.00000000000E+00 0. -1.
         25    2    1    2    0    0 -0.21818516507E+02  0.26324461019E+02 -0.30505996756E+03  0.33147882912E+03  0.12509038907E+03 0.  0.
         23    2    1    2    0    0  0.21818516507E+02 -0.26324461019E+02 -0.28085108432E+03  0.29598785467E+03  0.86962369086E+02 0.  0.
          5    1    3    3  502    0  0.52094571281E+02  0.14346206090E+02 -0.11395525028E+03  0.12618609057E+03  0.41800000000E+01 0. -1.
         -5    1    3    3    0  502 -0.73913087788E+02  0.11978254929E+02 -0.19110471727E+03  0.20529273855E+03  0.41800000000E+01 0. -1.
        -11    1    4    4    0    0  0.13264971688E+01  0.17506377157E+02 -0.87458826594E+01  0.19614364618E+02  0.00000000000E+00 0.  1.
         11    1    4    4    0    0  0.20492019338E+02 -0.43830838176E+02 -0.27210520167E+03  0.27637349005E+03  0.00000000000E+00 0. -1.
</event>
<event>
 8    1  0.3708258E-009  0.1095474E+03  0.7561462E-02  0.1261410E+00
          1   -1    0    0  501    0  0.00000000000E+00  0.00000000000E+00  0.22998701676E+02  0.22998701676E+02  0.00000000000E+00 0.  1.
         -1   -1    0    0    0  501 -0.00000000000E+00 -0.00000000000E+00 -0.56989511369E+03  0.56989511369E+03  0.00000000000E+00 0. -1.
         25    2    1    2    0    0 -0.29890628795E+02 -0.22096470966E+02 -0.32282583857E+03  0.34820306936E+03  0.12508857559E+03 0.  0.
         23    2    1    2    0    0  0.29890628795E+02  0.22096470966E+02 -0.22407057344E+03  0.24469074601E+03  0.91017776174E+02 0.  0.
          5    1    3    3  502    0 -0.73377210824E+02  0.12652059643E+02 -0.17798280326E+03  0.19297575065E+03  0.41800000000E+01 0. -1.
         -5    1    3    3    0  502  0.43486582029E+02 -0.34748530609E+02 -0.14484303531E+03  0.15522731871E+03  0.41800000000E+01 0. -1.
        -11    1    4    4    0    0 -0.24766472608E+02  0.23331175532E+02 -0.39207298342E+02  0.51912755277E+02  0.00000000000E+00 0.  1.
         11    1    4    4    0    0  0.54657101403E+02 -0.12347045653E+01 -0.18486327510E+03  0.19277799073E+03  0.00000000000E+00 0. -1.
</event>
<event>
 8    1  0.3708258E-009  0.1066822E+03  0.7561462E-02  0.1266840E+00
          1   -1    0    0  501    0  0.00000000000E+00  0.00000000000E+00  0.40490529010E+02  0.40490529010E+02  0.00000000000E+00 0. -1.
         -1   -1    0    0    0  501 -0.00000000000E+00 -0.00000000000E+00 -0.33638184287E+03  0.33638184287E+03  0.00000000000E+00 0.  1.
         25    2    1    2    0    0 -0.37597306305E+02 -0.25326709668E+02 -0.17163443806E+03  0.21716436965E+03  0.12508790291E+03 0.  0.
         23    2    1    2    0    0  0.37597306305E+02  0.25326709668E+02 -0.12425687581E+03  0.15970800223E+03  0.89509078464E+02 0.  0.
          5    1    3    3  502    0 -0.18201694299E+02  0.49136512759E+02 -0.46375275308E+02  0.70098766903E+02  0.41800000000E+01 0.  1.
         -5    1    3    3    0  502 -0.19395612007E+02 -0.74463222426E+02 -0.12525916275E+03  0.14706560275E+03  0.41800000000E+01 0.  1.
        -11    1    4    4    0    0 -0.20739087705E+02  0.11770441454E+02 -0.24479293508E+01  0.23971762742E+02  0.00000000000E+00 0. -1.
         11    1    4    4    0    0  0.58336394010E+02  0.13556268214E+02 -0.12180894645E+03  0.13573623949E+03  0.00000000000E+00 0.  1.
</event>
<event>
 8    1  0.3708258E-009  0.1308208E+03  0.7561462E-02  0.1226243E+00
          1   -1    0    0  501    0  0.00000000000E+00  0.00000000000E+00  0.26100738018E+03  0.26100738018E+03  0.00000000000E+00 0. -1.
         -1   -1    0    0    0  501 -0.00000000000E+00 -0.00000000000E+00 -0.98594326056E+02  0.98594326056E+02  0.00000000000E+00 0.  1.
         25    2    1    2    0    0 -0.79637346780E+02  0.85204755798E+02  0.67575181136E+02  0.18389736615E+03  0.12509947545E+03 0.  0.
         23    2    1    2    0    0  0.79637346780E+02 -0.85204755798E+02  0.94837872992E+02  0.17570434009E+03  0.90971619528E+02 0.  0.
          5    1    3    3  502    0 -0.35270290962E+02 -0.10541194123E+02 -0.23976550436E+02  0.44130007579E+02  0.41800000000E+01 0. -1.
         -5    1    3    3    0  502 -0.44367055818E+02  0.95745949921E+02  0.91551731572E+02  0.13976735857E+03  0.41800000000E+01 0. -1.
        -11    1    4    4    0    0  0.60159916457E+02 -0.47895970400E+02  0.10711863297E+03  0.13186220481E+03  0.00000000000E+00 0. -1.
         11    1    4    4    0    0  0.19477430323E+02 -0.37308785398E+02 -0.12280759979E+02  0.43842135275E+02  0.00000000000E+00 0.  1.
</event>
<event>
 8    1  0.3708258E-009  0.8147093E+02  0.7561462E-02  0.1324928E+00
         -2   -1    0    0    0  501 -0.00000000000E+00  0.00000000000E+00  0.35697796659E+02  0.35697796659E+02  0.00000000000E+00 0.  1.
          2   -1    0    0  501    0  0.00000000000E+00 -0.00000000000E+00 -0.45176635575E+03  0.45176635575E+03  0.00000000000E+00 0. -1.
         25    2    1    2    0    0  0.65579521790E+02  0.92463017714E+01 -0.23989326848E+03  0.27853476600E+03  0.12508664132E+03 0.  0.
         23    2    1    2    0    0 -0.65579521790E+02 -0.92463017714E+01 -0.17617529061E+03  0.20892938641E+03  0.90706051109E+02 0.  0.
          5    1    3    3  502    0 -0.20419689835E+01  0.14203531547E+02 -0.19833917808E+03  0.19890151308E+03  0.41800000000E+01 0.  1.
         -5    1    3    3    0  502  0.67621490773E+02 -0.49572297756E+01 -0.41554090399E+02  0.79633252918E+02  0.41800000000E+01 0.  1.
        -11    1    4    4    0    0 -0.47297045613E+02  0.15071630043E+02 -0.17101142459E+03  0.17807041275E+03  0.00000000000E+00 0. -1.
         11    1    4    4    0    0 -0.18282476176E+02 -0.24317931815E+02 -0.51638660197E+01  0.30858973657E+02  0.00000000000E+00 0.  1.
</event>
<event>
 8    1  0.3708258E-009  0.1077837E+03  0.7561462E-02  0.1264730E+00
         -1   -1    0    0    0  501 -0.00000000000E+00  0.00000000000E+00  0.17890973738E+02  0.17890973738E+02  0.00000000000E+00 0.  1.
          1   -1    0    0  501    0  0.00000000000E+00 -0.00000000000E+00 -0.10067505330E+04  0.10067505330E+04  0.00000000000E+00 0. -1.
         25    2    1    2    0    0  0.64878736824E+02 -0.16926725916E+02 -0.69925738476E+03  0.71351509799E+03  0.12508853017E+03 0.  0.
         23    2    1    2    0    0 -0.64878736824E+02  0.16926725916E+02 -0.28960217450E+03  0.31112640874E+03  0.91839306406E+02 0.  0.
          5    1    3    3  502    0  0.39930274899E+02  0.29964168002E+02 -0.99542003145E+02  0.11143770012E+03  0.41800000000E+01 0.  1.
         -5    1    3    3    0  502  0.24948461925E+02 -0.46890893918E+02 -0.59971538161E+03  0.60207739787E+03  0.41800000000E+01 0.  1.
        -11    1    4    4    0    0  0.18090131367E+02 -0.14789838150E+02 -0.41829864130E+02  0.47913773578E+02  0.00000000000E+00 0.  1.
         11    1    4    4    0    0 -0.82968868191E+02  0.31716564066E+02 -0.24777231037E+03  0.26321263517E+03  0.00000000000E+00 0. -1.
</event>
<event>
 8    1  0.3708258E-009  0.6663034E+02  0.7561462E-02  0.1371942E+00
          1   -1    0    0  501    0  0.00000000000E+00  0.00000000000E+00  0.64327653484E+03  0.64327653484E+03  0.00000000000E+00 0. -1.
         -1   -1    0    0    0  501 -0.00000000000E+00 -0.00000000000E+00 -0.28015981025E+02  0.28015981025E+02  0.00000000000E+00 0.  1.
         25    2    1    2    0    0 -0.28740507698E+01  0.62777561001E+02  0.45913788230E+03  0.48000531750E+03  0.12509287565E+03 0.  0.
         23    2    1    2    0    0  0.28740507698E+01 -0.62777561001E+02  0.15612267152E+03  0.19128719837E+03  0.90924261681E+02 0.  0.
          5    1    3    3  502    0 -0.89900881884E+01  0.58974707935E+02  0.75675511452E+02  0.96452544265E+02  0.41800000000E+01 0. -1.
         -5    1    3    3    0  502  0.61160374186E+01  0.38028530664E+01  0.38346237084E+03  0.38355277324E+03  0.41800000000E+01 0. -1.
        -11    1    4    4    0    0 -0.72378346483E+01 -0.25737556167E+02 -0.36336677330E+01  0.26981689885E+02  0.00000000000E+00 0.  1.
         11    1    4    4    0    0  0.10111885418E+02 -0.37040004834E+02  0.15975633926E+03  0.16430550848E+03  0.00000000000E+00 0. -1.
</event>
<event>
 8    1  0.3708258E-009  0.9929291E+02  0.7561462E-02  0.1281790E+00
         -2   -1    0    0    0  501 -0.00000000000E+00  0.00000000000E+00  0.70474831910E+03  0.70474831910E+03  0.00000000000E+00 0.  1.
          2   -1    0    0  501    0  0.00000000000E+00 -0.00000000000E+00 -0.18459558238E+02  0.18459558238E+02  0.00000000000E+00 0. -1.
         25    2    1    2    0    0 -0.14772700133E+02  0.13401137621E+02  0.48399569456E+03  0.50029311406E+03  0.12507415587E+03 0.  0.
         23    2    1    2    0    0  0.14772700133E+02 -0.13401137621E+02  0.20229306631E+03  0.22291476328E+03  0.91491441424E+02 0.  0.
          5    1    3    3  502    0 -0.42893106019E+02  0.57406270593E+02  0.32702395584E+03  0.33480955563E+03  0.41800000000E+01 0.  1.
         -5    1    3    3    0  502  0.28120405886E+02 -0.44005132972E+02  0.15697173872E+03  0.16548355843E+03  0.41800000000E+01 0.  1.
        -11    1    4    4    0    0 -0.28142054826E+02 -0.14134665871E+02  0.24183215136E+02  0.39706320950E+02  0.00000000000E+00 0. -1.
         11    1    4    4    0    0  0.42914754959E+02  0.73352824999E+00  0.17810985117E+03  0.18320844233E+03  0.00000000000E+00 0.  1.
</event>
<event>
 8    1  0.3708258E-009  0.1154401E+03  0.7561462E-02  0.1250815E+00
         -1   -1    0    0    0  501 -0.00000000000E+00  0.00000000000E+00  0.14269438272E+03  0.14269438272E+03  0.00000000000E+00 0.  1.
          1   -1    0    0  501    0  0.00000000000E+00 -0.00000000000E+00 -0.10548902422E+03  0.10548902422E+03  0.00000000000E+00 0. -1.
         25    2    1    2    0    0  0.43264740878E+02  0.29206616087E+02 -0.80043790047E+01  0.13578158578E+03  0.12509078595E+03 0.  0.
         23    2    1    2    0    0 -0.43264740878E+02 -0.29206616087E+02  0.45209737507E+02  0.11240182116E+03  0.88687004735E+02 0.  0.
          5    1    3    3  502    0 -0.39853855179E+02 -0.13820695685E+01 -0.22437878663E+02  0.45947477491E+02  0.41800000000E+01 0.  1.
         -5    1    3    3    0  502  0.83118596056E+02  0.30588685655E+02  0.14433499658E+02  0.89834108294E+02  0.41800000000E+01 0.  1.
        -11    1    4    4    0    0  0.25148997090E+02  0.49794491925E+01  0.17573888145E+02  0.31082286168E+02  0.00000000000E+00 0.  1.
         11    1    4    4    0    0 -0.68413737967E+02 -0.34186065279E+02  0.27635849361E+02  0.81319534995E+02  0.00000000000E+00 0. -1.
</event>
<event>
 8    1  0.3708258E-009  0.1077029E+03  0.7561462E-02  0.1264884E+00
          1   -1    0    0  501    0  0.00000000000E+00  0.00000000000E+00  0.44388628358E+02  0.44388628358E+02  0.00000000000E+00 0. -1.
         -1   -1    0    0    0  501 -0.00000000000E+00 -0.00000000000E+00 -0.30326979394E+03  0.30326979394E+03  0.00000000000E+00 0.  1.
         25    2    1    2    0    0 -0.37481453950E+02  0.23522598894E+01 -0.17856924311E+03  0.22123520258E+03  0.12509055823E+03 0.  0.
         23    2    1    2    0    0  0.37481453950E+02 -0.23522598894E+01 -0.80311922473E+02  0.12642321972E+03  0.90124542029E+02 0.  0.
          5    1    3    3  502    0  0.41824924780E+02 -0.76237136211E+01 -0.10149340448E+03  0.11011734148E+03  0.41800000000E+01 0. -1.
         -5    1    3    3    0  502 -0.79306378730E+02  0.99759735105E+01 -0.77075838634E+02  0.11111786110E+03  0.41800000000E+01 0. -1.
        -11    1    4    4    0    0 -0.16856237151E+02  0.26283844319E+02 -0.93995978399E+01  0.32608674347E+02  0.00000000000E+00 0. -1.
         11    1    4    4    0    0  0.54337691101E+02 -0.28636104209E+02 -0.70912324633E+02  0.93814545372E+02  0.00000000000E+00 0.  1.
</event>
<event>
 8    1  0.3708258E-009  0.1121850E+03  0.7561462E-02  0.1256576E+00
         -2   -1    0    0    0  501 -0.00000000000E+00  0.00000000000E+00  0.56667438632E+02  0.56667438632E+02  0.00000000000E+00 0.  1.
          2   -1    0    0  501    0  0.00000000000E+00 -0.00000000000E+00 -0.26202129330E+03  0.26202129330E+03  0.00000000000E+00 0. -1.
         25    2    1    2    0    0  0.49987962438E+02 -0.18939413591E+02 -0.13267197609E+03  0.19001229659E+03  0.12508126095E+03 0.  0.
         23    2    1    2    0    0 -0.49987962438E+02  0.18939413591E+02 -0.72681878584E+02  0.12867643534E+03  0.91746780665E+02 0.  0.
          5    1    3    3  502    0  0.64364573387E+02  0.39378866418E+02 -0.79473125760E+02  0.10966742245E+03  0.41800000000E+01 0.  1.
         -5    1    3    3    0  502 -0.14376610948E+02 -0.58318280009E+02 -0.53198850328E+02  0.80344874147E+02  0.41800000000E+01 0.  1.
        -11    1    4    4    0    0 -0.16529355520E+02  0.43859258336E+02 -0.73239934551E+02  0.86953678178E+02  0.00000000000E+00 0. -1.
         11    1    4    4    0    0 -0.33458606919E+02 -0.24919844745E+02  0.55805596739E+00  0.41722757166E+02  0.00000000000E+00 0.  1.
</event>
<event>
 8    1  0.3708258E-009  0.7828276E+02  0.7561462E-02  0.1333997E+00
         -2   -1    0    0    0  501 -0.00000000000E+00  0.00000000000E+00  0.47278991649E+02  0.47278991649E+02  0.00000000000E+00 0.  1.
          2   -1    0    0  501    0  0.00000000000E+00 -0.00000000000E+00 -0.36111333764E+03  0.36111333764E+03  0.00000000000E+00 0. -1.
         25    2    1    2    0    0 -0.40851110111E+02  0.28321655801E+02 -0.91545133833E+02  0.16278839760E+03  0.12509445024E+03 0.  0.
         23    2    1    2    0    0  0.40851110111E+02 -0.28321655801E+02 -0.22228921216E+03  0.24560393168E+03  0.91857868645E+02 0.  0.
          5    1    3    3  502    0 -0.38051379271E+02  0.21763074383E+02 -0.12280138386E+03  0.13045762204E+03  0.41800000000E+01 0. -1.
         -5    1    3    3    0  502 -0.27997308395E+01  0.65585814173E+01  0.31256250025E+02  0.32330775564E+02  0.41800000000E+01 0. -1.
        -11    1    4    4    0    0 -0.24103077125E+02  0.12897041080E+02 -0.64801775179E+02  0.70331799791E+02  0.00000000000E+00 0. -1.
         11    1    4    4    0    0  0.64954187235E+02 -0.41218696881E+02 -0.15748743698E+03  0.17527213189E+03  0.00000000000E+00 0.  1.
</event>
<event>
 8    1  0.3708258E-009  0.2310302E+03  0.7561462E-02  0.1125917E+00
          1   -1    0    0  501    0  0.00000000000E+00  0.00000000000E+00  0.12570223924E+04  0.12570223924E+04  0.00000000000E+00 0. -1.
         -1   -1    0    0    0  501 -0.00000000000E+00 -0.00000000000E+00 -0.49194341219E+02  0.49194341219E+02  0.00000000000E+00 0.  1.
         25    2    1    2    0    0  0.48600724543E+02  0.21652487286E+03  0.66188084962E+03  0.70920972200E+03  0.12508844743E+03 0.  0.
         23    2    1    2    0    0 -0.48600724543E+02 -0.21652487286E+03  0.54594720159E+03  0.59700701166E+03  0.95467135970E+02 0.  0.
          5    1    3    3  502    0 -0.15701410783E+02  0.23725839769E+01  0.14626424382E+03  0.14718309983E+03  0.41800000000E+01 0.  1.
         -5    1    3    3    0  502  0.64302135325E+02  0.21415228888E+03  0.51561660581E+03  0.56202662217E+03  0.41800000000E+01 0.  1.
        -11    1    4    4    0    0 -0.41093562487E+02 -0.17136522948E+03  0.50749779364E+03  0.53722316899E+03  0.00000000000E+00 0. -1.
         11    1    4    4    0    0 -0.75071620554E+01 -0.45159643378E+02  0.38449407956E+02  0.59783842670E+02  0.00000000000E+00 0.  1.
</event>
<event>
 8    1  0.3708258E-009  0.1092268E+03  0.7561462E-02  0.1262008E+00
          1   -1    0    0  501    0  0.00000000000E+00  0.00000000000E+00  0.22502635306E+03  0.22502635306E+03  0.00000000000E+00 0. -1.
         -1   -1    0    0    0  501 -0.00000000000E+00 -0.00000000000E+00 -0.56459012793E+02  0.56459012793E+02  0.00000000000E+00 0.  1.
         25    2    1    2    0    0 -0.13267156497E+02 -0.21415962146E+02  0.94659526330E+02  0.15887957275E+03  0.12509049458E+03 0.  0.
         23    2    1    2    0    0  0.13267156497E+02  0.21415962146E+02  0.73907813940E+02  0.12260579311E+03  0.94525947054E+02 0.  0.
          5    1    3    3  502    0 -0.18662102669E+02  0.47964420489E+02  0.16642410321E+02  0.54252206685E+02  0.41800000000E+01 0. -1.
         -5    1    3    3    0  502  0.53949461717E+01 -0.69380382635E+02  0.78017116009E+02  0.10462736606E+03  0.41800000000E+01 0. -1.
        -11    1    4    4    0    0  0.44846007066E+02 -0.16475411653E+02  0.43814655923E+02  0.64825362417E+02  0.00000000000E+00 0.  1.
         11    1    4    4    0    0 -0.31578850568E+02  0.37891373799E+02  0.30093158017E+02  0.57780430693E+02  0.00000000000E+00 0. -1.
</event>
<event>
 8    1  0.3708258E-009  0.1255715E+03  0.7561462E-02  0.1234179E+00
          1   -1    0    0  501    0  0.00000000000E+00  0.00000000000E+00  0.13314537022E+03  0.13314537022E+03  0.00000000000E+00 0. -1.
         -1   -1    0    0    0  501 -0.00000000000E+00 -0.00000000000E+00 -0.15918929172E+03  0.15918929172E+03  0.00000000000E+00 0.  1.
         25    2    1    2    0    0  0.82113729742E+02 -0.18461910802E+02 -0.62717946240E+02  0.16329339347E+03  0.12509070632E+03 0.  0.
         23    2    1    2    0    0 -0.82113729742E+02  0.18461910802E+02  0.36674024741E+02  0.12904126847E+03  0.90681630521E+02 0.  0.
          5    1    3    3  502    0  0.11081056832E+03 -0.85895512084E+01 -0.70503942556E+02  0.13168538551E+03  0.41800000000E+01 0.  1.
         -5    1    3    3    0  502 -0.28696838580E+02 -0.98723595934E+01  0.77859963162E+01  0.31608007958E+02  0.41800000000E+01 0.  1.
        -11    1    4    4    0    0 -0.84252748098E+02 -0.62488891943E+01  0.52641821418E+02  0.99542631774E+02  0.00000000000E+00 0. -1.
         11    1    4    4    0    0  0.21390183553E+01  0.24710799996E+02 -0.15967796677E+02  0.29498636692E+02  0.00000000000E+00 0.  1.
</event>
<event>
 8    1  0.3708258E-009  0.1126648E+03  0.7561462E-02  0.1255713E+00
          2   -1    0    0  501    0  0.00000000000E+00  0.00000000000E+00  0.28690528679E+03  0.28690528679E+03  0.00000000000E+00 0. -1.
         -2   -1    0    0    0  501 -0.00000000000E+00 -0.00000000000E+00 -0.66861043703E+02  0.66861043703E+02  0.00000000000E+00 0.  1.
         25    2    1    2    0    0 -0.73228364749E+02 -0.47319211466E+02  0.11775833201E+03  0.19265350583E+03  0.12508735897E+03 0.  0.
         23    2    1    2    0    0  0.73228364749E+02  0.47319211466E+02  0.10228591107E+03  0.16111282466E+03  0.88844996973E+02 0.  0.
          5    1    3    3  502    0 -0.75266241536E+02 -0.25933963295E+02  0.14021753002E+03  0.16129477887E+03  0.41800000000E+01 0. -1.
         -5    1    3    3    0  502  0.20378767865E+01 -0.21385248171E+02 -0.22459198010E+02  0.31358726958E+02  0.41800000000E+01 0. -1.
        -11    1    4    4    0    0  0.30697455712E+01 -0.23699082156E+02  0.27142998877E+02  0.36163686496E+02  0.00000000000E+00 0. -1.
         11    1    4    4    0    0  0.70158619178E+02  0.71018293622E+02  0.75142912194E+02  0.12494913816E+03  0.00000000000E+00 0.  1.
</event>
<event>
 8    1  0.3708258E-009  0.7909879E+02  0.7561462E-02  0.1331629E+00
          3   -1    0    0  501    0  0.00000000000E+00  0.00000000000E+00  0.79534907363E+02  0.79534907363E+02  0.00000000000E+00 0. -1.
         -3   -1    0    0    0  501 -0.00000000000E+00 -0.00000000000E+00 -0.20709509173E+03  0.20709509173E+03  0.00000000000E+00 0.  1.
         25    2    1    2    0    0 -0.38676181544E+02 -0.55826547592E+02 -0.82348742607E+02  0.16444190714E+03  0.12508946790E+03 0.  0.
         23    2    1    2    0    0  0.38676181544E+02  0.55826547592E+02 -0.45211441757E+02  0.12218809195E+03  0.90958259182E+02 0.  0.
          5    1    3    3  502    0  0.35471716059E+01 -0.15801852862E+02  0.31982064031E+02  0.36091630609E+02  0.41800000000E+01 0.  1.
         -5    1    3    3    0  502 -0.42223353150E+02 -0.40024694729E+02 -0.11433080664E+03  0.12835027653E+03  0.41800000000E+01 0.  1.
        -11    1    4    4    0    0  0.53861440826E+01  0.48829196395E+02  0.16415817241E+02  0.51795559890E+02  0.00000000000E+00 0. -1.
         11    1    4    4    0    0  0.33290037462E+02  0.69973511970E+01 -0.61627258998E+02  0.70392532059E+02  0.00000000000E+00 0.  1.
</event>
<event>
 8    1  0.3708258E-009  0.1086548E+03  0.7561462E-02  0.1263082E+00
          1   -1    0    0  501    0  0.00000000000E+00  0.00000000000E+00  0.78873152372E+02  0.78873152372E+02  0.00000000000E+00 0. -1.
         -1   -1    0    0    0  501 -0.00000000000E+00 -0.00000000000E+00 -0.27118107401E+03  0.27118107401E+03  0.00000000000E+00 0.  1.
         25    2    1    2    0    0  0.53150655732E+02  0.60878015510E+02 -0.17293477227E+03  0.22822175513E+03  0.12509040362E+03 0.  0.
         23    2    1    2    0    0 -0.53150655732E+02 -0.60878015510E+02 -0.19373149368E+02  0.12183247125E+03  0.89088198752E+02 0.  0.
          5    1    3    3  502    0 -0.67475288332E+01  0.43578175070E+02  0.52051943889E-01  0.44295164490E+02  0.41800000000E+01 0.  1.
         -5    1    3    3    0  502  0.59898184566E+02  0.17299840440E+02 -0.17298682422E+03  0.18392659064E+03  0.41800000000E+01 0.  1.
        -11    1    4    4    0    0 -0.67205642540E+02 -0.67269238487E+02 -0.33587583704E+02  0.10084579622E+03  0.00000000000E+00 0.  1.
         11    1    4    4    0    0  0.14054986808E+02  0.63912229771E+01  0.14214434336E+02  0.20986675030E+02  0.00000000000E+00 0. -1.
</event>
<event>
 8    1  0.3708258E-009  0.1448088E+03  0.7561462E-02  0.1207001E+00
         -1   -1    0    0    0  501 -0.00000000000E+00  0.00000000000E+00  0.55395125794E+02  0.55395125794E+02  0.00000000000E+00 0. -1.
          1   -1    0    0  501    0  0.00000000000E+00 -0.00000000000E+00 -0.45703479342E+03  0.45703479342E+03  0.00000000000E+00 0.  1.
         25    2    1    2    0    0 -0.78916079527E+02  0.78258434297E+02 -0.16697409492E+03  0.23639054448E+03  0.12509201013E+03 0.  0.
         23    2    1    2    0    0  0.78916079527E+02 -0.78258434297E+02 -0.23466557271E+03  0.27603937474E+03  0.93689248273E+02 0.  0.
          5    1    3    3  502    0  0.27109408253E+01  0.84397461365E+02 -0.73055273232E+02  0.11173551822E+03  0.41800000000E+01 0. -1.
         -5    1    3    3    0  502 -0.81627020353E+02 -0.61390270679E+01 -0.93918821686E+02  0.12465502626E+03  0.41800000000E+01 0. -1.
        -11    1    4    4    0    0  0.36479604594E+02 -0.28636844004E+01 -0.14279234071E+02  0.39279240895E+02  0.00000000000E+00 0. -1.
         11    1    4    4    0    0  0.42436474933E+02 -0.75394749897E+02 -0.22038633864E+03  0.23676013384E+03  0.00000000000E+00 0.  1.
</event>
<event>
 8    1  0.3708258E-009  0.1697747E+03  0.7561462E-02  0.1178083E+00
         -1   -1    0    0    0  501 -0.00000000000E+00  0.00000000000E+00  0.86133012300E+03  0.86133012300E+03  0.00000000000E+00 0.  1.
          1   -1    0    0  501    0  0.00000000000E+00 -0.00000000000E+00 -0.39314367395E+02  0.39314367395E+02  0.00000000000E+00 0. -1.
         25    2    1    2    0    0 -0.11272889577E+03 -0.94641298709E+02  0.45822679274E+03  0.49727795430E+03  0.12509512736E+03 0.  0.
         23    2    1    2    0    0  0.11272889577E+03  0.94641298709E+02  0.36378896287E+03  0.40336653609E+03  0.93259710344E+02 0.  0.
          5    1    3    3  502    0 -0.36512064746E+02 -0.10664827814E+03  0.22701275386E+03  0.25349408063E+03  0.41800000000E+01 0.  1.
         -5    1    3    3    0  502 -0.76216831020E+02  0.12006979429E+02  0.23121403888E+03  0.24378387367E+03  0.41800000000E+01 0.  1.
        -11    1    4    4    0    0  0.94792546131E+02  0.65370256354E+02  0.34609122332E+03  0.36474378964E+03  0.00000000000E+00 0.  1.
         11    1    4    4    0    0  0.17936349635E+02  0.29271042355E+02  0.17697739544E+02  0.38622746455E+02  0.00000000000E+00 0. -1.
</event>
<event>
 8    1  0.3708258E-009  0.9933244E+02  0.7561462E-02  0.1281706E+00
         -3   -1    0    0    0  501 -0.00000000000E+00  0.00000000000E+00  0.19146487862E+03  0.19146487862E+03  0.00000000000E+00 0.  1.
          3   -1    0    0  501    0  0.00000000000E+00 -0.00000000000E+00 -0.77159013628E+02  0.77159013628E+02  0.00000000000E+00 0. -1.
         25    2    1    2    0    0  0.48801700965E+02  0.75349333009E+01  0.89678831889E+02  0.16164102259E+03  0.12508855287E+03 0.  0.
         23    2    1    2    0    0 -0.48801700965E+02 -0.75349333009E+01  0.24627033099E+02  0.10698286965E+03  0.91654036479E+02 0.  0.
          5    1    3    3  502    0  0.31003255837E+02 -0.46928888458E+02  0.87558625735E+02  0.10415136958E+03  0.41800000000E+01 0.  1.
         -5    1    3    3    0  502  0.17798445128E+02  0.54463821759E+02  0.21202061539E+01  0.57489653014E+02  0.41800000000E+01 0.  1.
        -11    1    4    4    0    0 -0.40812912845E+01 -0.33067317734E+02 -0.19983225335E+02  0.38851431576E+02  0.00000000000E+00 0. -1.
         11    1    4    4    0    0 -0.44720409680E+02  0.25532384433E+02  0.44610258434E+02  0.68131438077E+02  0.00000000000E+00 0.  1.
</event>
<event>
 8    1  0.3708258E-009  0.9066623E+02  0.7561462E-02  0.1301246E+00
         -2   -1    0    0    0  501 -0.00000000000E+00  0.00000000000E+00  0.17106385211E+03  0.17106385211E+03  0.00000000000E+00 0.  1.
          2   -1    0    0  501    0  0.00000000000E+00 -0.00000000000E+00 -0.86068144447E+02  0.86068144447E+02  0.00000000000E+00 0. -1.
         25    2    1    2    0    0 -0.50976519540E+02 -0.46174969661E+01  0.69813501479E+02  0.15212151240E+03  0.12508837965E+03 0.  0.
         23    2    1    2    0    0  0.50976519540E+02  0.46174969661E+01  0.15182206185E+02  0.10501048416E+03  0.90425525023E+02 0.  0.
          5    1    3    3  502    0  0.76872848970E+01 -0.47508884531E+02  0.62457362579E+02  0.78959375623E+02  0.41800000000E+01 0.  1.
         -5    1    3    3    0  502 -0.58663804437E+02  0.42891387565E+02  0.73561389000E+01  0.73162136777E+02  0.41800000000E+01 0.  1.
        -11    1    4    4    0    0  0.33114258547E+02  0.18206551086E+02 -0.34073404328E+02  0.50882506857E+02  0.00000000000E+00 0. -1.
         11    1    4    4    0    0  0.17862260993E+02 -0.13589054120E+02  0.49255610513E+02  0.54127977300E+02  0.00000000000E+00 0.  1.
</event>
<event>
 8    1  0.3708258E-009  0.9750061E+02  0.7561462E-02  0.1285641E+00
         -1   -1    0    0    0  501 -0.00000000000E+00  0.00000000000E+00  0.30912536145E+03  0.30912536145E+03  0.00000000000E+00 0.  1.
          1   -1    0    0  501    0  0.00000000000E+00 -0.00000000000E+00 -0.38851269569E+02  0.38851269569E+02  0.00000000000E+00 0. -1.
         25    2    1    2    0    0 -0.12124971163E+02 -0.11425781820E+02  0.15542108599E+03  0.20020073473E+03  0.12508819609E+03 0.  0.
         23    2    1    2    0    0  0.12124971163E+02  0.11425781820E+02  0.11485300590E+03  0.14777589629E+03  0.91481906111E+02 0.  0.
          5    1    3    3  502    0 -0.55943570168E+02 -0.16300925267E+02  0.14258896388E+03  0.15409246649E+03  0.41800000000E+01 0.  1.
         -5    1    3    3    0  502  0.43818599005E+02  0.48751434467E+01  0.12832122106E+02  0.46108268240E+02  0.41800000000E+01 0.  1.
        -11    1    4    4    0    0  0.67632156643E+01  0.51460261559E+02  0.73409818017E+02  0.89904955298E+02  0.00000000000E+00 0.  1.
         11    1    4    4    0    0  0.53617554991E+01 -0.40034479739E+02  0.41443187879E+02  0.57870940995E+02  0.00000000000E+00 0. -1.
</event>
<event>
 8    1  0.3708258E-009  0.1330729E+03  0.7561462E-02  0.1222966E+00
          2   -1    0    0  501    0  0.00000000000E+00  0.00000000000E+00  0.26946677187E+03  0.26946677187E+03  0.00000000000E+00 0. -1.
         -2   -1    0    0    0  501 -0.00000000000E+00 -0.00000000000E+00 -0.88331925988E+02  0.88331925988E+02  0.00000000000E+00 0.  1.
         25    2    1    2    0    0 -0.31192556320E+02 -0.10281545575E+03  0.85769743916E+02  0.18587163493E+03  0.12509125545E+03 0.  0.
         23    2    1    2    0    0  0.31192556320E+02  0.10281545575E+03  0.95365101962E+02  0.17192706292E+03  0.94447968654E+02 0.  0.
          5    1    3    3  502    0 -0.13773088548E+02 -0.11275397755E+03  0.10718566411E+03  0.15623506781E+03  0.41800000000E+01 0.  1.
         -5    1    3    3    0  502 -0.17419467772E+02  0.99385218058E+01 -0.21415920193E+02  0.29636567123E+02  0.41800000000E+01 0.  1.
        -11    1    4    4    0    0 -0.23106651243E+02  0.54933521910E+02  0.76760976875E+02  0.97179507777E+02  0.00000000000E+00 0. -1.
         11    1    4    4    0    0  0.54299207563E+02  0.47881933837E+02  0.18604125087E+02  0.74747555145E+02  0.00000000000E+00 0.  1.
</event>
<event>
 8    1  0.3708258E-009  0.1282833E+03  0.7561462E-02  0.1230026E+00
          1   -1    0    0  501    0  0.00000000000E+00  0.00000000000E+00  0.21054208223E+03  0.21054208223E+03  0.00000000000E+00 0. -1.
         -1   -1    0    0    0  501 -0.00000000000E+00 -0.00000000000E+00 -0.13361785231E+03  0.13361785231E+03  0.00000000000E+00 0.  1.
         25    2    1    2    0    0  0.75913858587E+02 -0.37032267698E+02  0.13893866753E+03  0.20514689861E+03  0.12508794465E+03 0.  0.
         23    2    1    2    0    0 -0.75913858587E+02  0.37032267698E+02 -0.62014437613E+02  0.13901303593E+03  0.91348403977E+02 0.  0.
          5    1    3    3  502    0 -0.25291378374E+02  0.17169935234E+02  0.99546164443E+01  0.32419550962E+02  0.41800000000E+01 0.  1.
         -5    1    3    3    0  502  0.10120523696E+03 -0.54202202931E+02  0.12898405109E+03  0.17272734765E+03  0.41800000000E+01 0.  1.
        -11    1    4    4    0    0 -0.90185580908E+02  0.31636978382E+02 -0.72956756346E+02  0.12023737232E+03  0.00000000000E+00 0.  1.
         11    1    4    4    0    0  0.14271722321E+02  0.53952893158E+01  0.10942318733E+02  0.18775663612E+02  0.00000000000E+00 0. -1.
</event>
<event>
 8    1  0.3708258E-009  0.9285665E+02  0.7561462E-02  0.1296078E+00
         -1   -1    0    0    0  501 -0.00000000000E+00  0.00000000000E+00  0.16036871542E+03  0.16036871542E+03  0.00000000000E+00 0.  1.
          1   -1    0    0  501    0  0.00000000000E+00 -0.00000000000E+00 -0.86200935094E+02  0.86200935094E+02  0.00000000000E+00 0. -1.
         25    2    1    2    0    0 -0.10154537573E+02 -0.85601126585E+01  0.83321564061E+02  0.15088412904E+03  0.12508855742E+03 0.  0.
         23    2    1    2    0    0  0.10154537573E+02  0.85601126585E+01 -0.91537837321E+01  0.95685521472E+02  0.94316155036E+02 0.  0.
          5    1    3    3  502    0  0.43036081334E+01 -0.48245056106E+02 -0.88448355253E+01  0.49414673904E+02  0.41800000000E+01 0.  1.
         -5    1    3    3    0  502 -0.14458145706E+02  0.39684943447E+02  0.92166399586E+02  0.10146945514E+03  0.41800000000E+01 0.  1.
        -11    1    4    4    0    0  0.82091041159E+01 -0.42636766717E+02 -0.95160848232E+01  0.44450412111E+02  0.00000000000E+00 0.  1.
         11    1    4    4    0    0  0.19454334571E+01  0.51196879376E+02  0.36230109110E+00  0.51235109361E+02  0.00000000000E+00 0. -1.
</event>
<event>
 8    1  0.3708258E-009  0.1125627E+03  0.7561462E-02  0.1255896E+00
          1   -1    0    0  501    0  0.00000000000E+00  0.00000000000E+00  0.47688087090E+03  0.47688087090E+03  0.00000000000E+00 0. -1.
         -1   -1    0    0    0  501 -0.00000000000E+00 -0.00000000000E+00 -0.59473270545E+02  0.59473270545E+02  0.00000000000E+00 0.  1.
         25    2    1    2    0    0 -0.10069976493E+02  0.98345615346E+02  0.90121511773E+02  0.18314265540E+03  0.12508429501E+03 0.  0.
         23    2    1    2    0    0  0.10069976493E+02 -0.98345615346E+02  0.32728608858E+03  0.35321148604E+03  0.88706852102E+02 0.  0.
          5    1    3    3  502    0  0.40779307627E+01  0.24368087265E+01 -0.28895937161E+02  0.29580654835E+02  0.41800000000E+01 0.  1.
         -5    1    3    3    0  502 -0.14147907256E+02  0.95908806619E+02  0.11901744893E+03  0.15356200057E+03  0.41800000000E+01 0.  1.
        -11    1    4    4    0    0  0.38227201296E+02 -0.32602463768E+02  0.20926406480E+03  0.21521079986E+03  0.00000000000E+00 0. -1.
         11    1    4    4    0    0 -0.28157224803E+02 -0.65743151578E+02  0.11802202379E+03  0.13800068618E+03  0.00000000000E+00 0.  1.
</event>
<event>
 8    1  0.3708258E-009  0.9566687E+02  0.7561462E-02  0.1289681E+00
          2   -1    0    0  501    0  0.00000000000E+00  0.00000000000E+00  0.43415364052E+03  0.43415364052E+03  0.00000000000E+00 0. -1.
         -2   -1    0    0    0  501 -0.00000000000E+00 -0.00000000000E+00 -0.52222188254E+02  0.52222188254E+02  0.00000000000E+00 0.  1.
         25    2    1    2    0    0  0.16956149062E+02 -0.52822059883E+02  0.34988573985E+03  0.37569273552E+03  0.12508924643E+03 0.  0.
         23    2    1    2    0    0 -0.16956149062E+02  0.52822059883E+02  0.32045712415E+02  0.11068309325E+03  0.90255960725E+02 0.  0.
          5    1    3    3  502    0 -0.26529575447E+02  0.29834669483E+02  0.71112378155E+02  0.81660079619E+02  0.41800000000E+01 0.  1.
         -5    1    3    3    0  502  0.43485724509E+02 -0.82656729366E+02  0.27877336170E+03  0.29403265591E+03  0.41800000000E+01 0.  1.
        -11    1    4    4    0    0 -0.45312648211E+01  0.38390341808E+02 -0.27972621896E+02  0.47716017026E+02  0.00000000000E+00 0.  1.
         11    1    4    4    0    0 -0.12424884241E+02  0.14431718074E+02  0.60018334312E+02  0.62967076227E+02  0.00000000000E+00 0. -1.
</event>
<event>
 8    1  0.3708258E-009  0.7915880E+02  0.7561462E-02  0.1331456E+00
          2   -1    0    0  501    0  0.00000000000E+00  0.00000000000E+00  0.20864896372E+03  0.20864896372E+03  0.00000000000E+00 0. -1.
         -2   -1    0    0    0  501 -0.00000000000E+00 -0.00000000000E+00 -0.68238888211E+02  0.68238888211E+02  0.00000000000E+00 0.  1.
         25    2    1    2    0    0 -0.31734944213E+02  0.28277618212E+02  0.74313960497E+02  0.15158084008E+03  0.12508979167E+03 0.  0.
         23    2    1    2    0    0  0.31734944213E+02 -0.28277618212E+02  0.66096115007E+02  0.12530701184E+03  0.97603383251E+02 0.  0.
          5    1    3    3  502    0  0.14888242210E+02  0.50289196848E+02  0.83842510565E+02  0.98983342303E+02  0.41800000000E+01 0. -1.
         -5    1    3    3    0  502 -0.46623186422E+02 -0.22011578636E+02 -0.95285500676E+01  0.52597497779E+02  0.41800000000E+01 0. -1.
        -11    1    4    4    0    0  0.19709209846E+02 -0.35023821750E+02  0.89519306392E+02  0.98126587934E+02  0.00000000000E+00 0. -1.
         11    1    4    4    0    0  0.12025734366E+02  0.67462035376E+01 -0.23423191385E+02  0.27180423909E+02  0.00000000000E+00 0.  1.
</event>
<event>
 8    1  0.3708258E-009  0.1070951E+03  0.7561462E-02  0.1266046E+00
          1   -1    0    0  501    0  0.00000000000E+00  0.00000000000E+00  0.47989053424E+03  0.47989053424E+03  0.00000000000E+00 0. -1.
         -1   -1    0    0    0  501 -0.00000000000E+00 -0.00000000000E+00 -0.50583139653E+02  0.50583139653E+02  0.00000000000E+00 0.  1.
         25    2    1    2    0    0 -0.24420919390E+02 -0.54406730497E+02  0.70200756258E+02  0.15534522662E+03  0.12509004607E+03 0.  0.
         23    2    1    2    0    0  0.24420919390E+02  0.54406730497E+02  0.35910663833E+03  0.37512844728E+03  0.90594153441E+02 0.  0.
          5    1    3    3  502    0 -0.28698056758E+02  0.19493774974E+02 -0.18661661387E+02  0.39614589865E+02  0.41800000000E+01 0.  1.
         -5    1    3    3    0  502  0.42771373689E+01 -0.73900505471E+02  0.88862417645E+02  0.11573063675E+03  0.41800000000E+01 0.  1.
        -11    1    4    4    0    0  0.47254461929E+02  0.12723495810E+01  0.11652992495E+03  0.12575303756E+03  0.00000000000E+00 0.  1.
         11    1    4    4    0    0 -0.22833542539E+02  0.53134380916E+02  0.24257671338E+03  0.24937540972E+03  0.00000000000E+00 0. -1.
</event>
<event>
 8    1  0.3708258E-009  0.1398413E+03  0.7561462E-02  0.1213543E+00
          1   -1    0    0  501    0  0.00000000000E+00  0.00000000000E+00  0.22561479887E+03  0.22561479887E+03  0.00000000000E+00 0. -1.
         -1   -1    0    0    0  501 -0.00000000000E+00 -0.00000000000E+00 -0.93639521076E+02  0.93639521076E+02  0.00000000000E+00 0.  1.
         25    2    1    2    0    0  0.59058876388E+02  0.75825107206E+02  0.63979113336E+02  0.17022898252E+03  0.12508869566E+03 0.  0.
         23    2    1    2    0    0 -0.59058876388E+02 -0.75825107206E+02  0.67996164460E+02  0.14902533743E+03  0.91365611978E+02 0.  0.
          5    1    3    3  502    0  0.48702791145E+02 -0.18383849804E+02  0.53532061147E+02  0.74786909078E+02  0.41800000000E+01 0.  1.
         -5    1    3    3    0  502  0.10356085244E+02  0.94208957011E+02  0.10447052189E+02  0.95442073437E+02  0.41800000000E+01 0.  1.
        -11    1    4    4    0    0 -0.39083248806E+02  0.13276124783E+02  0.19997728672E+02  0.45865727712E+02  0.00000000000E+00 0.  1.
         11    1    4    4    0    0 -0.19975627582E+02 -0.89101231989E+02  0.47998435789E+02  0.10315960972E+03  0.00000000000E+00 0. -1.
</event>
<event>
 8    1  0.3708258E-009  0.6725200E+02  0.7561462E-02  0.1369695E+00
          2   -1    0    0  501    0  0.00000000000E+00  0.00000000000E+00  0.10078768518E+03  0.10078768518E+03  0.00000000000E+00 0. -1.
         -2   -1    0    0    0  501 -0.00000000000E+00 -0.00000000000E+00 -0.16303239014E+03  0.16303239014E+03  0.00000000000E+00 0.  1.
         25    2    1    2    0    0 -0.11700706898E+02 -0.22254771081E+02 -0.97493170733E+02  0.16057392035E+03  0.12508750608E+03 0.  0.
         23    2    1    2    0    0  0.11700706898E+02  0.22254771081E+02  0.35248465770E+02  0.10324615498E+03  0.93729039259E+02 0.  0.
          5    1    3    3  502    0 -0.50817864285E+02 -0.37633302048E+02 -0.99856665261E+02  0.11826895937E+03  0.41800000000E+01 0.  1.
         -5    1    3    3    0  502  0.39117157387E+02  0.15378530967E+02  0.23634945284E+01  0.42304960975E+02  0.41800000000E+01 0.  1.
        -11    1    4    4    0    0  0.13614216075E+02  0.11076920825E+02 -0.31221044575E+02  0.35816179006E+02  0.00000000000E+00 0.  1.
         11    1    4    4    0    0 -0.19135091766E+01  0.11177850256E+02  0.66469510345E+02  0.67429975969E+02  0.00000000000E+00 0. -1.
</event>
<event>
 8    1  0.3708258E-009  0.1659973E+03  0.7561462E-02  0.1182088E+00
         -1   -1    0    0    0  501 -0.00000000000E+00  0.00000000000E+00  0.22791691549E+02  0.22791691549E+02  0.00000000000E+00 0.  1.
          1   -1    0    0  501    0  0.00000000000E+00 -0.00000000000E+00 -0.15474567099E+04  0.15474567099E+04  0.00000000000E+00 0. -1.
         25    2    1    2    0    0  0.11857764165E+03  0.82758695135E+02 -0.10113226520E+04  0.10292380038E+04  0.12509077982E+03 0.  0.
         23    2    1    2    0    0 -0.11857764165E+03 -0.82758695135E+02 -0.51334236628E+03  0.54101039762E+03  0.90896680921E+02 0.  0.
          5    1    3    3  502    0 -0.15103451559E+02  0.28261547539E+02 -0.39063759850E+03  0.39197198252E+03  0.41800000000E+01 0.  1.
         -5    1    3    3    0  502  0.13368109321E+03  0.54497147595E+02 -0.62068505354E+03  0.63726602127E+03  0.41800000000E+01 0.  1.
        -11    1    4    4    0    0 -0.67087321242E+02 -0.12648918502E+02 -0.11903871420E+03  0.13722579673E+03  0.00000000000E+00 0. -1.
         11    1    4    4    0    0 -0.51490320412E+02 -0.70109776632E+02 -0.39430365208E+03  0.40378460089E+03  0.00000000000E+00 0.  1.
</event>
<event>
 8    1  0.3708258E-009  0.8763474E+02  0.7561462E-02  0.1308683E+00
          1   -1    0    0  501    0  0.00000000000E+00  0.00000000000E+00  0.48142253500E+03  0.48142253500E+03  0.00000000000E+00 0. -1.
         -1   -1    0    0    0  501 -0.00000000000E+00 -0.00000000000E+00 -0.29428536604E+02  0.29428536604E+02  0.00000000000E+00 0.  1.
         25    2    1    2    0    0 -0.40345855633E+02  0.23136414718E+02  0.28993370827E+03  0.31917433215E+03  0.12509043671E+03 0.  0.
         23    2    1    2    0    0  0.40345855633E+02 -0.23136414718E+02  0.16206029012E+03  0.19167673946E+03  0.91177590785E+02 0.  0.
          5    1    3    3  502    0  0.26898811303E+02  0.21897355054E+02  0.21732200559E+03  0.22011216850E+03  0.41800000000E+01 0. -1.
         -5    1    3    3    0  502 -0.67244666936E+02  0.12390596632E+01  0.72611702683E+02  0.99062163648E+02  0.41800000000E+01 0. -1.
        -11    1    4    4    0    0 -0.52127468600E+01  0.13509158876E+02 -0.44914217022E+01  0.15160572953E+02  0.00000000000E+00 0.  1.
         11    1    4    4    0    0  0.45558602493E+02 -0.36645573594E+02  0.16655171183E+03  0.17651616650E+03  0.00000000000E+00 0. -1.
</event>
<event>
 8    1  0.3708258E-009  0.1236289E+03  0.7561462E-02  0.1237228E+00
         -1   -1    0    0    0  501 -0.00000000000E+00  0.00000000000E+00  0.17201726127E+03  0.17201726127E+03  0.00000000000E+00 0.  1.
          1   -1    0    0  501    0  0.00000000000E+00 -0.00000000000E+00 -0.10046243028E+03  0.10046243028E+03  0.00000000000E+00 0. -1.
         25    2    1    2    0    0 -0.61782070043E+02  0.42302066912E+02  0.37059217474E+02  0.15042433095E+03  0.12509038611E+03 0.  0.
         23    2    1    2    0    0  0.61782070043E+02 -0.42302066912E+02  0.34495613513E+02  0.12205536060E+03  0.90005970108E+02 0.  0.
          5    1    3    3  502    0 -0.19679630618E+01  0.74027853566E+02  0.36313694695E+02  0.82584216437E+02  0.41800000000E+01 0.  1.
         -5    1    3    3    0  502 -0.59814106981E+02 -0.31725786654E+02  0.74552277910E+00  0.67840114512E+02  0.41800000000E+01 0.  1.
        -11    1    4    4    0    0  0.79016296028E+02 -0.36742030920E+02  0.47980625779E+02  0.99477094470E+02  0.00000000000E+00 0.  1.
         11    1    4    4    0    0 -0.17234225985E+02 -0.55600359919E+01 -0.13485012266E+02  0.22578266128E+02  0.00000000000E+00 0. -1.
</event>
<event>
 8    1  0.3708258E-009  0.6823688E+02  0.7561462E-02  0.1366193E+00
         -1   -1    0    0    0  501 -0.00000000000E+00  0.00000000000E+00  0.56772177610E+02  0.56772177610E+02  0.00000000000E+00 0. -1.
          1   -1    0    0  501    0  0.00000000000E+00 -0.00000000000E+00 -0.23026153826E+03  0.23026153826E+03  0.00000000000E+00 0.  1.
         25    2    1    2    0    0 -0.21332982317E+02  0.60737363635E+01 -0.13001912930E+03  0.18177942825E+03  0.12508717018E+03 0.  0.
         23    2    1    2    0    0  0.21332982317E+02 -0.60737363635E+01 -0.43470231348E+02  0.10525428762E+03  0.93256729732E+02 0.  0.
          5    1    3    3  502    0  0.27000694553E+00  0.16082139155E+02  0.22156183084E+02  0.27696154109E+02  0.41800000000E+01 0.  1.
         -5    1    3    3    0  502 -0.21602989262E+02 -0.10008402791E+02 -0.15217531238E+03  0.15408327414E+03  0.41800000000E+01 0.  1.
        -11    1    4    4    0    0 -0.30650926378E+02 -0.25817408626E+02 -0.21366150787E+02  0.45415088632E+02  0.00000000000E+00 0.  1.
         11    1    4    4    0    0  0.51983908695E+02  0.19743672262E+02 -0.22104080561E+02  0.59839198984E+02  0.00000000000E+00 0. -1.
</event>
<event>
 8    1  0.3708258E-009  0.2132242E+03  0.7561462E-02  0.1139038E+00
         -1   -1    0    0    0  501 -0.00000000000E+00  0.00000000000E+00  0.26831978327E+02  0.26831978327E+02  0.00000000000E+00 0.  1.
          1   -1    0    0  501    0  0.00000000000E+00 -0.00000000000E+00 -0.36570118255E+04  0.36570118255E+04  0.00000000000E+00 0. -1.
         25    2    1    2    0    0  0.17066323572E+03  0.71252717520E+02 -0.31949499326E+04  0.32027420235E+04  0.12509399401E+03 0.  0.
         23    2    1    2    0    0 -0.17066323572E+03 -0.71252717520E+02 -0.43522991455E+03  0.48110178032E+03  0.88492681809E+02 0.  0.
          5    1    3    3  502    0  0.16710029694E+03  0.99201632066E+02 -0.28476773749E+04  0.28543033085E+04  0.41800000000E+01 0. -1.
         -5    1    3    3    0  502  0.35629387782E+01 -0.27948914546E+02 -0.34727255773E+03  0.34843871500E+03  0.41800000000E+01 0. -1.
        -11    1    4    4    0    0 -0.14974958149E+03 -0.90664936541E+02 -0.35221694744E+03  0.39332155540E+03  0.00000000000E+00 0.  1.
         11    1    4    4    0    0 -0.20913654229E+02  0.19412219021E+02 -0.83012967108E+02  0.87780224929E+02  0.00000000000E+00 0. -1.
</event>
<event>
 8    1  0.3708258E-009  0.1764187E+03  0.7561462E-02  0.1171315E+00
          1   -1    0    0  501    0  0.00000000000E+00  0.00000000000E+00  0.32209173092E+03  0.32209173092E+03  0.00000000000E+00 0. -1.
         -1   -1    0    0    0  501 -0.00000000000E+00 -0.00000000000E+00 -0.10360586839E+03  0.10360586839E+03  0.00000000000E+00 0.  1.
         25    2    1    2    0    0 -0.48371883781E+02 -0.13708760496E+03  0.93037472453E+02  0.21315833990E+03  0.12509059123E+03 0.  0.
         23    2    1    2    0    0  0.48371883781E+02  0.13708760496E+03  0.12544839008E+03  0.21253925941E+03  0.91119633687E+02 0.  0.
          5    1    3    3  502    0 -0.83278442796E+02 -0.90417039315E+02  0.28801413710E+02  0.12632313274E+03  0.41800000000E+01 0. -1.
         -5    1    3    3    0  502  0.34906559016E+02 -0.46670565648E+02  0.64236058743E+02  0.86835207163E+02  0.41800000000E+01 0. -1.
        -11    1    4    4    0    0  0.26959913607E+01  0.12381733797E+03  0.94657289396E+02  0.15587817033E+03  0.00000000000E+00 0.  1.
         11    1    4    4    0    0  0.45675892420E+02  0.13270266998E+02  0.30791100685E+02  0.56661089082E+02  0.00000000000E+00 0. -1.
</event>
<event>
 8    1  0.3708258E-009  0.9985570E+02  0.7561462E-02  0.1280600E+00
         -2   -1    0    0    0  501 -0.00000000000E+00  0.00000000000E+00  0.10313377391E+03  0.10313377391E+03  0.00000000000E+00 0.  1.
          2   -1    0    0  501    0  0.00000000000E+00 -0.00000000000E+00 -0.23618015734E+03  0.23618015734E+03  0.00000000000E+00 0. -1.
         25    2    1    2    0    0  0.78183530509E+02  0.26634409463E+02 -0.15389735330E+03  0.21483328619E+03  0.12508752652E+03 0.  0.
         23    2    1    2    0    0 -0.78183530509E+02 -0.26634409463E+02  0.20850969877E+02  0.12448064506E+03  0.90766799216E+02 0.  0.
          5    1    3    3  502    0  0.95090599705E+02  0.15490958869E+02 -0.49478739281E+02  0.10838731476E+03  0.41800000000E+01 0. -1.
         -5    1    3    3    0  502 -0.16907069196E+02  0.11143450594E+02 -0.10441861402E+03  0.10644597143E+03  0.41800000000E+01 0. -1.
        -11    1    4    4    0    0 -0.24061272135E+02 -0.77600136910E+01  0.53028967635E+02  0.58747204509E+02  0.00000000000E+00 0.  1.
         11    1    4    4    0    0 -0.54122258374E+02 -0.18874395772E+02 -0.32177997758E+02  0.65733440553E+02  0.00000000000E+00 0. -1.
</event>
<event>
 8    1  0.3708258E-009  0.2197719E+03  0.7561462E-02  0.1134053E+00
         -2   -1    0    0    0  501 -0.00000000000E+00  0.00000000000E+00  0.61566749735E+02  0.61566749735E+02  0.00000000000E+00 0. -1.
          2   -1    0    0  501    0  0.00000000000E+00 -0.00000000000E+00 -0.90188269820E+03  0.90188269820E+03  0.00000000000E+00 0.  1.
         25    2    1    2    0    0 -0.16242269178E+02 -0.20736707653E+03 -0.38234035729E+03  0.45287491720E+03  0.12508647441E+03 0.  0.
         23    2    1    2    0    0  0.16242269178E+02  0.20736707653E+03 -0.45797559118E+03  0.51057453074E+03  0.87634431520E+02 0.  0.
          5    1    3    3  502    0  0.13473659692E+02  0.18845516025E+01  0.18649463682E+01  0.14354144530E+02  0.41800000000E+01 0. -1.
         -5    1    3    3    0  502 -0.29715928870E+02 -0.20925162813E+03 -0.38420530365E+03  0.43852077267E+03  0.41800000000E+01 0. -1.
        -11    1    4    4    0    0 -0.15147071400E+02  0.12250021147E+03 -0.34122598654E+03  0.36286486393E+03  0.00000000000E+00 0.  1.
         11    1    4    4    0    0  0.31389340577E+02  0.84866865054E+02 -0.11674960464E+03  0.14770966681E+03  0.00000000000E+00 0. -1.
</event>
<event>
 8    1  0.3708258E-009  0.1493910E+03  0.7561462E-02  0.1201223E+00
         -2   -1    0    0    0  501 -0.00000000000E+00  0.00000000000E+00  0.27068100662E+02  0.27068100662E+02  0.00000000000E+00 0.  1.
          2   -1    0    0  501    0  0.00000000000E+00 -0.00000000000E+00 -0.12091501386E+04  0.12091501386E+04  0.00000000000E+00 0. -1.
         25    2    1    2    0    0  0.83734682987E+02 -0.91360610793E+02 -0.37076376815E+03  0.41045405618E+03  0.12509397316E+03 0.  0.
         23    2    1    2    0    0 -0.83734682987E+02  0.91360610793E+02 -0.81131826980E+03  0.82576418309E+03  0.91054339998E+02 0.  0.
          5    1    3    3  502    0  0.99516762009E+02 -0.81083407597E+02 -0.36942694754E+03  0.39111615523E+03  0.41800000000E+01 0. -1.
         -5    1    3    3    0  502 -0.15782079022E+02 -0.10277203197E+02 -0.13368206046E+01  0.19337900950E+02  0.41800000000E+01 0. -1.
        -11    1    4    4    0    0 -0.69716643830E+02  0.10846639662E+03 -0.73813833258E+03  0.74931539931E+03  0.00000000000E+00 0. -1.
         11    1    4    4    0    0 -0.14018039157E+02 -0.17105785824E+02 -0.73179937221E+02  0.76448783785E+02  0.00000000000E+00 0.  1.
</event>
<event>
 8    1  0.3708258E-009  0.3864148E+03  0.7561462E-02  0.1048588E+00
         -2   -1    0    0    0  501 -0.00000000000E+00  0.00000000000E+00  0.11726318895E+03  0.11726318895E+03  0.00000000000E+00 0.  1.
          2   -1    0    0  501    0  0.00000000000E+00 -0.00000000000E+00 -0.16865521401E+04  0.16865521401E+04  0.00000000000E+00 0. -1.
         25    2    1    2    0    0 -0.21353680717E+03  0.31565494277E+03 -0.38448576586E+03  0.55561919970E+03  0.12508948801E+03 0.  0.
         23    2    1    2    0    0  0.21353680717E+03 -0.31565494277E+03 -0.11848031852E+04  0.12481961293E+04  0.94862946157E+02 0.  0.
          5    1    3    3  502    0 -0.17664846277E+03  0.18905006367E+03 -0.31107472665E+03  0.40463509973E+03  0.41800000000E+01 0.  1.
         -5    1    3    3    0  502 -0.36888344404E+02  0.12660487911E+03 -0.73411039207E+02  0.15098409997E+03  0.41800000000E+01 0.  1.
        -11    1    4    4    0    0  0.80140046034E+02 -0.14317500553E+03 -0.37051201967E+03  0.40521681346E+03  0.00000000000E+00 0.  1.
         11    1    4    4    0    0  0.13339676114E+03 -0.17247993725E+03 -0.81429116557E+03  0.84297931585E+03  0.00000000000E+00 0. -1.
</event>
<event>
 8    1  0.3708258E-009  0.2333249E+03  0.7561462E-02  0.1124321E+00
          2   -1    0    0  501    0  0.00000000000E+00  0.00000000000E+00  0.32693541671E+03  0.32693541671E+03  0.00000000000E+00 0. -1.
         -2   -1    0    0    0  501 -0.00000000000E+00 -0.00000000000E+00 -0.23048061081E+03  0.23048061081E+03  0.00000000000E+00 0.  1.
         25    2    1    2    0    0  0.96783655075E+02  0.20186573711E+03 -0.68311143065E+02  0.26539104463E+03  0.12509653310E+03 0.  0.
         23    2    1    2    0    0 -0.96783655075E+02 -0.20186573711E+03  0.16476594897E+03  0.29202498289E+03  0.89520505951E+02 0.  0.
          5    1    3    3  502    0  0.21392350942E+02  0.14891254517E+03 -0.83210040834E+02  0.17197081754E+03  0.41800000000E+01 0. -1.
         -5    1    3    3    0  502  0.75391304133E+02  0.52953191935E+02  0.14898897769E+02  0.93420227091E+02  0.41800000000E+01 0. -1.
        -11    1    4    4    0    0 -0.65911478505E+02 -0.13188402873E+03  0.53168973727E+02  0.15673117048E+03  0.00000000000E+00 0. -1.
         11    1    4    4    0    0 -0.30872176570E+02 -0.69981708377E+02  0.11159697525E+03  0.13529381241E+03  0.00000000000E+00 0.  1.
</event>
<event>
 8    1  0.3708258E-009  0.6913222E+02  0.7561462E-02  0.1363069E+00
         -1   -1    0    0    0  501 -0.00000000000E+00  0.00000000000E+00  0.15728216404E+03  0.15728216404E+03  0.00000000000E+00 0.  1.
          1   -1    0    0  501    0  0.00000000000E+00 -0.00000000000E+00 -0.12113475313E+03  0.12113475313E+03  0.00000000000E+00 0. -1.
         25    2    1    2    0    0 -0.20001926127E+02  0.32053095808E+02 -0.54988865399E+02  0.14176853682E+03  0.12508822772E+03 0.  0.
         23    2    1    2    0    0  0.20001926127E+02 -0.32053095808E+02  0.91136276315E+02  0.13664838035E+03  0.94548828618E+02 0.  0.
          5    1    3    3  502    0 -0.22209867387E+02  0.22763275578E+02  0.37127140909E+02  0.49064670756E+02  0.41800000000E+01 0.  1.
         -5    1    3    3    0  502  0.22079412599E+01  0.92898202304E+01 -0.92116006308E+02  0.92703866061E+02  0.41800000000E+01 0.  1.
        -11    1    4    4    0    0  0.54136198274E+02 -0.97978258437E+01  0.74553051965E+02  0.92654643230E+02  0.00000000000E+00 0.  1.
         11    1    4    4    0    0 -0.34134272147E+02 -0.22255269965E+02  0.16583224350E+02  0.43993737123E+02  0.00000000000E+00 0. -1.
</event>
<event>
 8    1  0.3708258E-009  0.1218751E+03  0.7561462E-02  0.1240035E+00
         -4   -1    0    0    0  501 -0.00000000000E+00  0.00000000000E+00  0.54914997432E+02  0.54914997432E+02  0.00000000000E+00 0.  1.
          4   -1    0    0  501    0  0.00000000000E+00 -0.00000000000E+00 -0.32374513518E+03  0.32374513518E+03  0.00000000000E+00 0. -1.
         25    2    1    2    0    0 -0.68243994323E+02  0.76769259074E+01 -0.19931663842E+03  0.24513371257E+03  0.12508891532E+03 0.  0.
         23    2    1    2    0    0  0.68243994323E+02 -0.76769259074E+01 -0.69513499332E+02  0.13352642004E+03  0.91000001687E+02 0.  0.
          5    1    3    3  502    0 -0.33304755680E+02 -0.56707500103E+02 -0.67886116807E+02  0.94609431740E+02  0.41800000000E+01 0.  1.
         -5    1    3    3    0  502 -0.34939238643E+02  0.64384426011E+02 -0.13143052161E+03  0.15052428083E+03  0.41800000000E+01 0.  1.
        -11    1    4    4    0    0 -0.11292394504E+02 -0.20992570699E+02 -0.42047322160E+02  0.48334082168E+02  0.00000000000E+00 0. -1.
         11    1    4    4    0    0  0.79536388827E+02  0.13315644792E+02 -0.27466177172E+02  0.85192337873E+02  0.00000000000E+00 0.  1.
</event>
<event>
 8    1  0.3708258E-009  0.7866116E+02  0.7561462E-02  0.1332894E+00
          1   -1    0    0  501    0  0.00000000000E+00  0.00000000000E+00  0.38552461116E+03  0.38552461116E+03  0.00000000000E+00 0. -1.
         -1   -1    0    0    0  501 -0.00000000000E+00 -0.00000000000E+00 -0.36410881977E+02  0.36410881977E+02  0.00000000000E+00 0.  1.
         25    2    1    2    0    0 -0.38963913684E+02 -0.33921348636E+02  0.18357802097E+03  0.22806212128E+03  0.12507036785E+03 0.  0.
         23    2    1    2    0    0  0.38963913684E+02  0.33921348636E+02  0.16553570821E+03  0.19387337186E+03  0.86694689342E+02 0.  0.
          5    1    3    3  502    0 -0.43290804040E+02 -0.46936389324E+02  0.19778428323E+03  0.20787788110E+03  0.41800000000E+01 0. -1.
         -5    1    3    3    0  502  0.43268903553E+01  0.13015040688E+02 -0.14206262258E+02  0.20184240179E+02  0.41800000000E+01 0. -1.
        -11    1    4    4    0    0  0.16602229154E+02 -0.16765418201E+02  0.50970997221E+01  0.24139048986E+02  0.00000000000E+00 0.  1.
         11    1    4    4    0    0  0.22361684530E+02  0.50686766837E+02  0.16043860849E+03  0.16973432287E+03  0.00000000000E+00 0. -1.
</event>
<event>
 8    1  0.3708258E-009  0.1187559E+03  0.7561462E-02  0.1245164E+00
         -2   -1    0    0    0  501 -0.00000000000E+00  0.00000000000E+00  0.67918249814E+02  0.67918249814E+02  0.00000000000E+00 0.  1.
          2   -1    0    0  501    0  0.00000000000E+00 -0.00000000000E+00 -0.24764685539E+03  0.24764685539E+03  0.00000000000E+00 0. -1.
         25    2    1    2    0    0  0.59222830264E+02  0.34025077334E+02 -0.12281384990E+03  0.18813821390E+03  0.12509075222E+03 0.  0.
         23    2    1    2    0    0 -0.59222830264E+02 -0.34025077334E+02 -0.56914755678E+02  0.12742689130E+03  0.91286766295E+02 0.  0.
          5    1    3    3  502    0 -0.30553041632E+02 -0.67630807140E+01 -0.68639264348E+02  0.75551628863E+02  0.41800000000E+01 0. -1.
         -5    1    3    3    0  502  0.89775871895E+02  0.40788158048E+02 -0.54174585550E+02  0.11258658504E+03  0.41800000000E+01 0. -1.
        -11    1    4    4    0    0 -0.15819706950E+02  0.27634171910E+02  0.17503673909E+01  0.31890035609E+02  0.00000000000E+00 0.  1.
         11    1    4    4    0    0 -0.43403123314E+02 -0.61659249244E+02 -0.58665123069E+02  0.95536855691E+02  0.00000000000E+00 0. -1.
</event>
<event>
 8    1  0.3708258E-009  0.6839040E+02  0.7561462E-02  0.1365654E+00
          1   -1    0    0  501    0  0.00000000000E+00  0.00000000000E+00  0.63331824583E+02  0.63331824583E+02  0.00000000000E+00 0. -1.
         -1   -1    0    0    0  501 -0.00000000000E+00 -0.00000000000E+00 -0.24444074521E+03  0.24444074521E+03  0.00000000000E+00 0.  1.
         25    2    1    2    0    0 -0.56673249356E+01 -0.31773942312E+02 -0.37855057031E+02  0.13461862826E+03  0.12508983871E+03 0.  0.
         23    2    1    2    0    0  0.56673249356E+01  0.31773942312E+02 -0.14325386360E+03  0.17315394154E+03  0.91754651395E+02 0.  0.
          5    1    3    3  502    0 -0.29854351612E+02 -0.45739905477E+01  0.38984108471E+02  0.49491785308E+02  0.41800000000E+01 0.  1.
         -5    1    3    3    0  502  0.24187026676E+02 -0.27199951764E+02 -0.76839165502E+02  0.85126842949E+02  0.41800000000E+01 0.  1.
        -11    1    4    4    0    0  0.32133332331E+02  0.59585863336E+01 -0.89932595483E+01  0.33895936557E+02  0.00000000000E+00 0. -1.
         11    1    4    4    0    0 -0.26466007395E+02  0.25815355978E+02 -0.13426060405E+03  0.13925800498E+03  0.00000000000E+00 0.  1.
</event>
<event>
 8    1  0.3708258E-009  0.1453483E+03  0.7561462E-02  0.1206308E+00
         -2   -1    0    0    0  501 -0.00000000000E+00  0.00000000000E+00  0.36382568265E+02  0.36382568265E+02  0.00000000000E+00 0.  1.
          2   -1    0    0  501    0  0.00000000000E+00 -0.00000000000E+00 -0.63122144496E+03  0.63122144496E+03  0.00000000000E+00 0. -1.
         25    2    1    2    0    0 -0.90365778210E+02 -0.53074637308E+02 -0.33490303947E+03  0.37254594853E+03  0.12509015518E+03 0.  0.
         23    2    1    2    0    0  0.90365778210E+02  0.53074637308E+02 -0.25993583723E+03  0.29505806470E+03  0.92248203613E+02 0.  0.
          5    1    3    3  502    0  0.27844760000E+02  0.90066655102E+01 -0.57562819093E+02  0.64710132321E+02  0.41800000000E+01 0.  1.
         -5    1    3    3    0  502 -0.11821053821E+03 -0.62081302818E+02 -0.27734022038E+03  0.30783581621E+03  0.41800000000E+01 0.  1.
        -11    1    4    4    0    0  0.88263575136E+02  0.15136852242E+02 -0.11805421637E+03  0.14817685715E+03  0.00000000000E+00 0.  1.
         11    1    4    4    0    0  0.21022030736E+01  0.37937785066E+02 -0.14188162086E+03  0.14688120755E+03  0.00000000000E+00 0. -1.
</event>
<event>
 8    1  0.3708258E-009  0.1333677E+03  0.7561462E-02  0.1222542E+00
          1   -1    0    0  501    0  0.00000000000E+00  0.00000000000E+00  0.24029719564E+02  0.24029719564E+02  0.00000000000E+00 0. -1.
         -1   -1    0    0    0  501 -0.00000000000E+00 -0.00000000000E+00 -0.86931246754E+03  0.86931246754E+03  0.00000000000E+00 0.  1.
         25    2    1    2    0    0 -0.87004500082E+02  0.18614373973E+02 -0.35563536717E+03  0.38735124073E+03  0.12509273107E+03 0.  0.
         23    2    1    2    0    0  0.87004500082E+02 -0.18614373973E+02 -0.48964738081E+03  0.50599094637E+03  0.91411171758E+02 0.  0.
          5    1    3    3  502    0 -0.14635862928E+02 -0.43037007400E+02 -0.19821393723E+03  0.20340262978E+03  0.41800000000E+01 0.  1.
         -5    1    3    3    0  502 -0.72368637154E+02  0.61651381373E+02 -0.15742142994E+03  0.18394861096E+03  0.41800000000E+01 0.  1.
        -11    1    4    4    0    0  0.29725062694E+02 -0.51802976690E+02 -0.19220121747E+03  0.20126707566E+03  0.00000000000E+00 0. -1.
         11    1    4    4    0    0  0.57279437388E+02  0.33188602717E+02 -0.29744616334E+03  0.30472387072E+03  0.00000000000E+00 0.  1.
</event>
<event>
 8    1  0.3708258E-009  0.6755801E+02  0.7561462E-02  0.1368600E+00
          1   -1    0    0  501    0  0.00000000000E+00  0.00000000000E+00  0.23473350108E+03  0.23473350108E+03  0.00000000000E+00 0. -1.
         -1   -1    0    0    0  501 -0.00000000000E+00 -0.00000000000E+00 -0.53957271983E+02  0.53957271983E+02  0.00000000000E+00 0.  1.
         25    2    1    2    0    0  0.23418222720E+02  0.15320312098E+02  0.85604196363E+02  0.15413791160E+03  0.12508913718E+03 0.  0.
         23    2    1    2    0    0 -0.23418222720E+02 -0.15320312098E+02  0.95172032732E+02  0.13455286146E+03  0.90904519106E+02 0.  0.
          5    1    3    3  502    0  0.49742568337E+01  0.23091619579E+02 -0.29050438312E+02  0.37674480646E+02  0.41800000000E+01 0. -1.
         -5    1    3    3    0  502  0.18443965886E+02 -0.77713074812E+01  0.11465463468E+03  0.11646343096E+03  0.41800000000E+01 0. -1.
        -11    1    4    4    0    0 -0.54181150263E+02 -0.23178542231E+02  0.80003203506E+02  0.99364754491E+02  0.00000000000E+00 0. -1.
         11    1    4    4    0    0  0.30762927543E+02  0.78582301327E+01  0.15168829226E+02  0.35188106967E+02  0.00000000000E+00 0.  1.
</event>
<event>
 8    1  0.3708258E-009  0.8000892E+02  0.7561462E-02  0.1329026E+00
          2   -1    0    0  501    0  0.00000000000E+00  0.00000000000E+00  0.22844157119E+03  0.22844157119E+03  0.00000000000E+00 0. -1.
         -2   -1    0    0    0  501 -0.00000000000E+00 -0.00000000000E+00 -0.70970668702E+02  0.70970668702E+02  0.00000000000E+00 0.  1.
         25    2    1    2    0    0  0.49319913716E+02 -0.56960516045E+01  0.36159747999E+02  0.13935317230E+03  0.12508749083E+03 0.  0.
         23    2    1    2    0    0 -0.49319913716E+02  0.56960516045E+01  0.12131115449E+03  0.16005906760E+03  0.91856464241E+02 0.  0.
          5    1    3    3  502    0  0.60822042661E+02 -0.16952966995E+02  0.74390184614E+02  0.97663175918E+02  0.41800000000E+01 0.  1.
         -5    1    3    3    0  502 -0.11502128945E+02  0.11256915391E+02 -0.38230436615E+02  0.41689996380E+02  0.41800000000E+01 0.  1.
        -11    1    4    4    0    0  0.15053137687E+02  0.45578869593E+01  0.84385119303E+02  0.85838334371E+02  0.00000000000E+00 0. -1.
         11    1    4    4    0    0 -0.64373051403E+02  0.11381646452E+01  0.36926035187E+02  0.74220733225E+02  0.00000000000E+00 0.  1.
</event>
<event>
 8    1  0.3708258E-009  0.9189504E+02  0.7561462E-02  0.1298326E+00
         -1   -1    0    0    0  501 -0.00000000000E+00  0.00000000000E+00  0.11366871978E+03  0.11366871978E+03  0.00000000000E+00 0.  1.
          1   -1    0    0  501    0  0.00000000000E+00 -0.00000000000E+00 -0.16280086315E+03  0.16280086315E+03  0.00000000000E+00 0. -1.
         25    2    1    2    0    0  0.59170676478E+02 -0.40921524708E+02  0.12339122210E+02  0.14482347234E+03  0.12508334847E+03 0.  0.
         23    2    1    2    0    0 -0.59170676478E+02  0.40921524708E+02 -0.61471265578E+02  0.13164611059E+03  0.91521810522E+02 0.  0.
          5    1    3    3  502    0  0.82246252070E+01 -0.33943980779E+02 -0.51735145978E+02  0.62560658726E+02  0.41800000000E+01 0.  1.
         -5    1    3    3    0  502  0.50946051271E+02 -0.69775439287E+01  0.64074268188E+02  0.82262813611E+02  0.41800000000E+01 0.  1.
        -11    1    4    4    0    0 -0.18879942429E+02  0.51930214960E+02  0.24257037430E+01  0.55308982006E+02  0.00000000000E+00 0.  1.
         11    1    4    4    0    0 -0.40290734050E+02 -0.11008690252E+02 -0.63896969321E+02  0.76337128579E+02  0.00000000000E+00 0. -1.
</event>
<event>
 8    1  0.3708258E-009  0.7846954E+02  0.7561462E-02  0.1333452E+00
          1   -1    0    0  501    0  0.00000000000E+00  0.00000000000E+00  0.26412007407E+03  0.26412007407E+03  0.00000000000E+00 0. -1.
         -1   -1    0    0    0  501 -0.00000000000E+00 -0.00000000000E+00 -0.66906631050E+02  0.66906631050E+02  0.00000000000E+00 0.  1.
         25    2    1    2    0    0 -0.25548640127E+01 -0.29464352613E+02  0.19655356367E+03  0.23485259052E+03  0.12509100877E+03 0.  0.
         23    2    1    2    0    0  0.25548640127E+01  0.29464352613E+02  0.65987934652E+00  0.96174114600E+02  0.91511471813E+02 0.  0.
          5    1    3    3  502    0  0.23172755798E+02 -0.58736401102E+02  0.43325446931E+02  0.76690991501E+02  0.41800000000E+01 0. -1.
         -5    1    3    3    0  502 -0.25727619811E+02  0.29272048489E+02  0.15322811674E+03  0.15816159902E+03  0.41800000000E+01 0. -1.
        -11    1    4    4    0    0  0.23601201943E+02  0.21608441060E+02 -0.39089024147E+02  0.50516267350E+02  0.00000000000E+00 0.  1.
         11    1    4    4    0    0 -0.21046337930E+02  0.78559115529E+01  0.39748903493E+02  0.45657847250E+02  0.00000000000E+00 0. -1.
</event>
<event>
 8    1  0.3708258E-009  0.8424621E+02  0.7561462E-02  0.1317416E+00
          2   -1    0    0  501    0  0.00000000000E+00  0.00000000000E+00  0.10212101666E+03  0.10212101666E+03  0.00000000000E+00 0. -1.
         -2   -1    0    0    0  501 -0.00000000000E+00 -0.00000000000E+00 -0.14450649111E+03  0.14450649111E+03  0.00000000000E+00 0.  1.
         25    2    1    2    0    0  0.44082772253E+02  0.28921949095E+02 -0.27265135868E+02  0.13845768094E+03  0.12508945530E+03 0.  0.
         23    2    1    2    0    0 -0.44082772253E+02 -0.28921949095E+02 -0.15120338574E+02  0.10816982683E+03  0.93232595424E+02 0.  0.
          5    1    3    3  502    0  0.10677191427E+02 -0.71154328802E+01 -0.71164734735E+02  0.72432890815E+02  0.41800000000E+01 0.  1.
         -5    1    3    3    0  502  0.33405580826E+02  0.36037381976E+02  0.43899598868E+02  0.66024790123E+02  0.41800000000E+01 0.  1.
        -11    1    4    4    0    0 -0.91151035720E+01  0.33181316084E+02 -0.13252724962E+02  0.36874375508E+02  0.00000000000E+00 0.  1.
         11    1    4    4    0    0 -0.34967668681E+02 -0.62103265179E+02 -0.18676136116E+01  0.71295451325E+02  0.00000000000E+00 0. -1.
</event>
<event>
 8    1  0.3708258E-009  0.1555694E+03  0.7561462E-02  0.1193792E+00
          1   -1    0    0  501    0  0.00000000000E+00  0.00000000000E+00  0.66611870778E+03  0.66611870778E+03  0.00000000000E+00 0. -1.
         -1   -1    0    0    0  501 -0.00000000000E+00 -0.00000000000E+00 -0.63555689705E+02  0.63555689705E+02  0.00000000000E+00 0.  1.
         25    2    1    2    0    0 -0.12924764612E+03 -0.83710679254E+02  0.16984260872E+03  0.26116222434E+03  0.12508702505E+03 0.  0.
         23    2    1    2    0    0  0.12924764612E+03  0.83710679254E+02  0.43272040936E+03  0.46851217315E+03  0.92435230652E+02 0.  0.
          5    1    3    3  502    0 -0.55564695193E+02 -0.41906277192E+02 -0.17584539630E+01  0.69743357965E+02  0.41800000000E+01 0. -1.
         -5    1    3    3    0  502 -0.73682950930E+02 -0.41804402062E+02  0.17160106268E+03  0.19141886637E+03  0.41800000000E+01 0. -1.
        -11    1    4    4    0    0  0.68637372602E+02  0.27520049246E+02  0.32178805030E+03  0.33017569769E+03  0.00000000000E+00 0. -1.
         11    1    4    4    0    0  0.60610273520E+02  0.56190630008E+02  0.11093235906E+03  0.13833647546E+03  0.00000000000E+00 0.  1.
</event>
<event>
 8    1  0.3708258E-009  0.1814015E+03  0.7561462E-02  0.1166454E+00
         -2   -1    0    0    0  501 -0.00000000000E+00  0.00000000000E+00  0.93897562382E+02  0.93897562382E+02  0.00000000000E+00 0.  1.
          2   -1    0    0  501    0  0.00000000000E+00 -0.00000000000E+00 -0.41729526709E+03  0.41729526709E+03  0.00000000000E+00 0. -1.
         25    2    1    2    0    0 -0.13984843616E+03  0.87106242483E+02 -0.18642040507E+03  0.27846895131E+03  0.12508919554E+03 0.  0.
         23    2    1    2    0    0  0.13984843616E+03 -0.87106242483E+02 -0.13697729964E+03  0.23272387816E+03  0.90843493282E+02 0.  0.
          5    1    3    3  502    0 -0.23384593159E+02  0.75335204594E+02 -0.33396507409E+02  0.85761479439E+02  0.41800000000E+01 0.  1.
         -5    1    3    3    0  502 -0.11646384301E+03  0.11771037889E+02 -0.15302389766E+03  0.19270747187E+03  0.41800000000E+01 0.  1.
        -11    1    4    4    0    0  0.38856348735E+02 -0.11501633151E+02  0.71862317597E+01  0.41155137335E+02  0.00000000000E+00 0.  1.
         11    1    4    4    0    0  0.10099208743E+03 -0.75604609331E+02 -0.14416353140E+03  0.19156874082E+03  0.00000000000E+00 0. -1.
</event>
<event>
 8    1  0.3708258E-009  0.8896595E+02  0.7561462E-02  0.1305375E+00
          1   -1    0    0  501    0  0.00000000000E+00  0.00000000000E+00  0.49250851313E+03  0.49250851313E+03  0.00000000000E+00 0. -1.
         -1   -1    0    0    0  501 -0.00000000000E+00 -0.00000000000E+00 -0.27624936917E+02  0.27624936917E+02  0.00000000000E+00 0.  1.
         25    2    1    2    0    0 -0.33610150602E+02 -0.44767330966E+01  0.19962710405E+03  0.23800848328E+03  0.12508946430E+03 0.  0.
         23    2    1    2    0    0  0.33610150602E+02  0.44767330966E+01  0.26525647216E+03  0.28212496677E+03  0.89910052203E+02 0.  0.
          5    1    3    3  502    0 -0.70028640768E+02 -0.73159698694E+01  0.56905271683E+02  0.90626796745E+02  0.41800000000E+01 0.  1.
         -5    1    3    3    0  502  0.36418490166E+02  0.28392367728E+01  0.14272183237E+03  0.14738168654E+03  0.41800000000E+01 0.  1.
        -11    1    4    4    0    0 -0.82235933516E+01 -0.20375070223E+02  0.13672633975E+02  0.25878792360E+02  0.00000000000E+00 0.  1.
         11    1    4    4    0    0  0.41833743953E+02  0.24851803320E+02  0.25158383819E+03  0.25624617441E+03  0.00000000000E+00 0. -1.
</event>
<event>
 8    1  0.3708258E-009  0.1493474E+03  0.7561462E-02  0.1201277E+00
          1   -1    0    0  501    0  0.00000000000E+00  0.00000000000E+00  0.23216368611E+03  0.23216368611E+03  0.00000000000E+00 0. -1.
         -1   -1    0    0    0  501 -0.00000000000E+00 -0.00000000000E+00 -0.97870936396E+02  0.97870936396E+02  0.00000000000E+00 0.  1.
         25    2    1    2    0    0 -0.90797736909E+01 -0.10152370405E+03  0.85537894483E+02  0.18263041008E+03  0.12509048931E+03 0.  0.
         23    2    1    2    0    0  0.90797736909E+01  0.10152370405E+03  0.48754855229E+02  0.14740421243E+03  0.94664994363E+02 0.  0.
          5    1    3    3  502    0  0.50312969226E+02 -0.95316003041E+01  0.33398741626E+02  0.61279642777E+02  0.41800000000E+01 0. -1.
         -5    1    3    3    0  502 -0.59392742917E+02 -0.91992103750E+02  0.52139152858E+02  0.12135076730E+03  0.41800000000E+01 0. -1.
        -11    1    4    4    0    0 -0.38622191876E+02  0.71812599101E+02  0.18629185048E+02  0.83640717539E+02  0.00000000000E+00 0.  1.
         11    1    4    4    0    0  0.47701965567E+02  0.29711104953E+02  0.30125670181E+02  0.63763494888E+02  0.00000000000E+00 0. -1.
</event>
<event>
 8    1  0.3708258E-009  0.7252889E+02  0.7561462E-02  0.1351699E+00
         -2   -1    0    0    0  501 -0.00000000000E+00  0.00000000000E+00  0.17915593097E+02  0.17915593097E+02  0.00000000000E+00 0.  1.
          2   -1    0    0  501    0  0.00000000000E+00 -0.00000000000E+00 -0.15127064876E+04  0.15127064876E+04  0.00000000000E+00 0. -1.
         25    2    1    2    0    0  0.13042777513E+02  0.18813082768E+02 -0.13650330485E+04  0.13709436625E+04  0.12508899231E+03 0.  0.
         23    2    1    2    0    0 -0.13042777513E+02 -0.18813082768E+02 -0.12975784596E+03  0.15967841820E+03  0.90200069414E+02 0.  0.
          5    1    3    3  502    0  0.21076826617E+02  0.61122582089E+02 -0.11368458530E+04  0.11386905500E+04  0.41800000000E+01 0. -1.
         -5    1    3    3    0  502 -0.80340491044E+01 -0.42309499321E+02 -0.22818719551E+03  0.23225311251E+03  0.41800000000E+01 0. -1.
        -11    1    4    4    0    0 -0.21854952037E+02 -0.85365533070E+01 -0.14046959406E+03  0.14241565408E+03  0.00000000000E+00 0. -1.
         11    1    4    4    0    0  0.88121745243E+01 -0.10276529461E+02  0.10711748104E+02  0.17262764120E+02  0.00000000000E+00 0.  1.
</event>
<event>
 8    1  0.3708258E-009  0.7207513E+02  0.7561462E-02  0.1353175E+00
         -1   -1    0    0    0  501 -0.00000000000E+00  0.00000000000E+00  0.12728876851E+03  0.12728876851E+03  0.00000000000E+00 0.  1.
          1   -1    0    0  501    0  0.00000000000E+00 -0.00000000000E+00 -0.98730502114E+02  0.98730502114E+02  0.00000000000E+00 0. -1.
         25    2    1    2    0    0 -0.30153055595E+02 -0.55101611268E+01  0.18698210776E+02  0.13013862050E+03  0.12508744471E+03 0.  0.
         23    2    1    2    0    0  0.30153055595E+02  0.55101611268E+01  0.98600556205E+01  0.95880650120E+02  0.90312290045E+02 0.  0.
          5    1    3    3  502    0 -0.53745552101E+02  0.44931184442E+01  0.60357175987E+02  0.81050808615E+02  0.41800000000E+01 0. -1.
         -5    1    3    3    0  502  0.23592496506E+02 -0.10003279571E+02 -0.41658965211E+02  0.49087811889E+02  0.41800000000E+01 0. -1.
        -11    1    4    4    0    0  0.20153166685E+02  0.30850150689E+02  0.40584982980E+02  0.54818087968E+02  0.00000000000E+00 0.  1.
         11    1    4    4    0    0  0.99998889101E+01 -0.25339989562E+02 -0.30724927360E+02  0.41062562152E+02  0.00000000000E+00 0. -1.
</event>
<event>
 8    1  0.3708258E-009  0.8909427E+02  0.7561462E-02  0.1305060E+00
         -1   -1    0    0    0  501 -0.00000000000E+00  0.00000000000E+00  0.11573520017E+03  0.11573520017E+03  0.00000000000E+00 0.  1.
          1   -1    0    0  501    0  0.00000000000E+00 -0.00000000000E+00 -0.10656705621E+03  0.10656705621E+03  0.00000000000E+00 0. -1.
         25    2    1    2    0    0  0.57757106927E+01  0.26202417984E+02  0.18339040404E+02  0.12924279872E+03  0.12508978806E+03 0.  0.
         23    2    1    2    0    0 -0.57757106927E+01 -0.26202417984E+02 -0.91708964430E+01  0.93059457655E+02  0.88634258475E+02 0.  0.
          5    1    3    3  502    0  0.20541843953E+01 -0.44321868234E+02  0.34875395772E+02  0.56589869301E+02  0.41800000000E+01 0.  1.
         -5    1    3    3    0  502  0.37215262974E+01  0.70524286218E+02 -0.16536355368E+02  0.72652929420E+02  0.41800000000E+01 0.  1.
        -11    1    4    4    0    0 -0.12695298511E+02  0.15822415717E+02  0.29319485252E+02  0.35653213864E+02  0.00000000000E+00 0.  1.
         11    1    4    4    0    0  0.69195878188E+01 -0.42024833701E+02 -0.38490381695E+02  0.57406243791E+02  0.00000000000E+00 0. -1.
</event>
<event>
 8    1  0.3708258E-009  0.1281379E+03  0.7561462E-02  0.1230245E+00
         -3   -1    0    0    0  501 -0.00000000000E+00  0.00000000000E+00  0.50265816974E+03  0.50265816974E+03  0.00000000000E+00 0.  1.
          3   -1    0    0  501    0  0.00000000000E+00 -0.00000000000E+00 -0.54239948901E+02  0.54239948901E+02  0.00000000000E+00 0. -1.
         25    2    1    2    0    0 -0.84358212136E+02  0.75609315989E+02  0.32729949358E+03  0.36824638331E+03  0.12508942283E+03 0.  0.
         23    2    1    2    0    0  0.84358212136E+02 -0.75609315989E+02  0.12111872725E+03  0.18865173532E+03  0.89925827939E+02 0.  0.
          5    1    3    3  502    0 -0.64300179052E+02  0.90857095255E+02  0.13853019788E+03  0.17775717400E+03  0.41800000000E+01 0.  1.
         -5    1    3    3    0  502 -0.20058033084E+02 -0.15247779266E+02  0.18876929571E+03  0.19048920931E+03  0.41800000000E+01 0.  1.
        -11    1    4    4    0    0  0.46808214078E+02 -0.17114100970E+02  0.10655155149E+03  0.11763134991E+03  0.00000000000E+00 0.  1.
         11    1    4    4    0    0  0.37549998058E+02 -0.58495215018E+02  0.14567175761E+02  0.71020385410E+02  0.00000000000E+00 0. -1.
</event>
<event>
 8    1  0.3708258E-009  0.9057385E+02  0.7561462E-02  0.1301468E+00
          2   -1    0    0  501    0  0.00000000000E+00  0.00000000000E+00  0.88225071398E+03  0.88225071398E+03  0.00000000000E+00 0.  1.
         -2   -1    0    0    0  501 -0.00000000000E+00 -0.00000000000E+00 -0.18712377242E+02  0.18712377242E+02  0.00000000000E+00 0. -1.
         25    2    1    2    0    0 -0.50244946974E+02  0.43147988888E+02  0.40641493249E+03  0.43035702473E+03  0.12509103782E+03 0.  0.
         23    2    1    2    0    0  0.50244946974E+02 -0.43147988888E+02  0.45712340425E+03  0.47060606649E+03  0.90121914448E+02 0.  0.
          5    1    3    3  502    0 -0.38684773520E+02  0.42831389748E+02  0.58707742899E+02  0.82432464032E+02  0.41800000000E+01 0. -1.
         -5    1    3    3    0  502 -0.11560173454E+02  0.31659914008E+00  0.34770718959E+03  0.34792456070E+03  0.41800000000E+01 0. -1.
        -11    1    4    4    0    0  0.32552472656E+02  0.24703271661E+02  0.14119083890E+03  0.14698560507E+03  0.00000000000E+00 0.  1.
         11    1    4    4    0    0  0.17692474317E+02 -0.67851260549E+02  0.31593256535E+03  0.32362046143E+03  0.00000000000E+00 0. -1.
</event>
<event>
 8    1  0.3708258E-009  0.8388218E+02  0.7561462E-02  0.1318382E+00
         -2   -1    0    0    0  501 -0.00000000000E+00  0.00000000000E+00  0.88691429938E+02  0.88691429938E+02  0.00000000000E+00 0.  1.
          2   -1    0    0  501    0  0.00000000000E+00 -0.00000000000E+00 -0.13321532558E+03  0.13321532558E+03  0.00000000000E+00 0. -1.
         25    2    1    2    0    0 -0.43114975379E+01  0.62031213996E+01 -0.92642409401E+01  0.12566095189E+03  0.12509109059E+03 0.  0.
         23    2    1    2    0    0  0.43114975379E+01 -0.62031213996E+01 -0.35259654706E+02  0.96245803627E+02  0.89235327869E+02 0.  0.
          5    1    3    3  502    0  0.14190643788E+02 -0.50535457488E+02 -0.32050144788E+02  0.61643256043E+02  0.41800000000E+01 0. -1.
         -5    1    3    3    0  502 -0.18502141326E+02  0.56738578888E+02  0.22785903848E+02  0.64017695851E+02  0.41800000000E+01 0. -1.
        -11    1    4    4    0    0 -0.22291423071E+02 -0.15446126799E+02  0.20353634188E+02  0.33908122925E+02  0.00000000000E+00 0.  1.
         11    1    4    4    0    0  0.26602920609E+02  0.92430053992E+01 -0.55613288894E+02  0.62337680702E+02  0.00000000000E+00 0. -1.
</event>
<event>
 8    1  0.3708258E-009  0.1356952E+03  0.7561462E-02  0.1219242E+00
         -2   -1    0    0    0  501 -0.00000000000E+00  0.00000000000E+00  0.51433457440E+02  0.51433457440E+02  0.00000000000E+00 0.  1.
          2   -1    0    0  501    0  0.00000000000E+00 -0.00000000000E+00 -0.50609628279E+03  0.50609628279E+03  0.00000000000E+00 0. -1.
         25    2    1    2    0    0 -0.11256389250E+03  0.30835296192E+02 -0.28833675468E+03  0.33527244141E+03  0.12509228787E+03 0.  0.
         23    2    1    2    0    0  0.11256389250E+03 -0.30835296192E+02 -0.16632607067E+03  0.22225729882E+03  0.90069416059E+02 0.  0.
          5    1    3    3  502    0 -0.77328830538E+02  0.42159839734E+02 -0.28447576463E+03  0.29782735465E+03  0.41800000000E+01 0.  1.
         -5    1    3    3    0  502 -0.35235061960E+02 -0.11324543542E+02 -0.38609900457E+01  0.37445086752E+02  0.41800000000E+01 0.  1.
        -11    1    4    4    0    0  0.91986918112E+02 -0.60331257090E+02 -0.13798010054E+03  0.17646518589E+03  0.00000000000E+00 0.  1.
         11    1    4    4    0    0  0.20576974386E+02  0.29495960898E+02 -0.28345970134E+02  0.45792112935E+02  0.00000000000E+00 0. -1.
</event>
<event>
 8    1  0.3708258E-009  0.1894282E+03  0.7561462E-02  0.1158978E+00
         -1   -1    0    0    0  501 -0.00000000000E+00  0.00000000000E+00  0.20604129135E+03  0.20604129135E+03  0.00000000000E+00 0.  1.
          1   -1    0    0  501    0  0.00000000000E+00 -0.00000000000E+00 -0.18951312584E+03  0.18951312584E+03  0.00000000000E+00 0. -1.
         25    2    1    2    0    0 -0.11376586683E+02  0.16411898179E+03 -0.15735254634E+01  0.20667246075E+03  0.12508622282E+03 0.  0.
         23    2    1    2    0    0  0.11376586683E+02 -0.16411898179E+03  0.18101690978E+02  0.18888195645E+03  0.91017884752E+02 0.  0.
          5    1    3    3  502    0 -0.16236168041E+02 -0.10119509504E+02 -0.23893594648E+02  0.30893266103E+02  0.41800000000E+01 0.  1.
         -5    1    3    3    0  502  0.48595813580E+01  0.17423849130E+03  0.22320069185E+02  0.17577919464E+03  0.41800000000E+01 0.  1.
        -11    1    4    4    0    0 -0.32928395250E+02 -0.33435679877E+02  0.19670469046E+02  0.50883703237E+02  0.00000000000E+00 0.  1.
         11    1    4    4    0    0  0.44304981933E+02 -0.13068330192E+03 -0.15687780687E+01  0.13799825321E+03  0.00000000000E+00 0. -1.
</event>
<event>
 8    1  0.3708258E-009  0.8718643E+02  0.7561462E-02  0.1309812E+00
         -2   -1    0    0    0  501 -0.00000000000E+00  0.00000000000E+00  0.29199948706E+03  0.29199948706E+03  0.00000000000E+00 0.  1.
          2   -1    0    0  501    0  0.00000000000E+00 -0.00000000000E+00 -0.49516346107E+02  0.49516346107E+02  0.00000000000E+00 0. -1.
         25    2    1    2    0    0 -0.22575552521E+02  0.17574274615E+02  0.17575157146E+03  0.21761272755E+03  0.12509266014E+03 0.  0.
         23    2    1    2    0    0  0.22575552521E+02 -0.17574274615E+02  0.66731569496E+02  0.12390310562E+03  0.10040102846E+03 0.  0.
          5    1    3    3  502    0 -0.74323396855E+02  0.10468875998E+02  0.91828643331E+02  0.11867407813E+03  0.41800000000E+01 0.  1.
         -5    1    3    3    0  502  0.51747844333E+02  0.71053986166E+01  0.83922928127E+02  0.98938649415E+02  0.41800000000E+01 0.  1.
        -11    1    4    4    0    0 -0.10214912054E+02 -0.16531443374E+01 -0.23993190268E+02  0.26129494708E+02  0.00000000000E+00 0. -1.
         11    1    4    4    0    0  0.32790464576E+02 -0.15921130277E+02  0.90724759764E+02  0.97773610911E+02  0.00000000000E+00 0.  1.
</event>
<event>
 8    1  0.3708258E-009  0.1155432E+03  0.7561462E-02  0.1250636E+00
         -2   -1    0    0    0  501 -0.00000000000E+00  0.00000000000E+00  0.22671656586E+02  0.22671656586E+02  0.00000000000E+00 0.  1.
          2   -1    0    0  501    0  0.00000000000E+00 -0.00000000000E+00 -0.69671419289E+03  0.69671419289E+03  0.00000000000E+00 0. -1.
         25    2    1    2    0    0  0.24842298265E+02 -0.32185970416E+02 -0.50546552625E+03  0.52229945886E+03  0.12509296552E+03 0.  0.
         23    2    1    2    0    0 -0.24842298265E+02  0.32185970416E+02 -0.16857701006E+03  0.19708639062E+03  0.93657677596E+02 0.  0.
          5    1    3    3  502    0 -0.50908132712E+02 -0.79738389930E+01 -0.21323136936E+03  0.21940900019E+03  0.41800000000E+01 0.  1.
         -5    1    3    3    0  502  0.75750430977E+02 -0.24212131422E+02 -0.29223415689E+03  0.30289045867E+03  0.41800000000E+01 0.  1.
        -11    1    4    4    0    0 -0.57945036657E+02  0.32916792543E+02 -0.91480386082E+02  0.11318040264E+03  0.00000000000E+00 0.  1.
         11    1    4    4    0    0  0.33102738392E+02 -0.73082212737E+00 -0.77096623974E+02  0.83905987976E+02  0.00000000000E+00 0. -1.
</event>
<event>
 8    1  0.3708258E-009  0.1167339E+03  0.7561462E-02  0.1248584E+00
          1   -1    0    0  501    0  0.00000000000E+00  0.00000000000E+00  0.52010907244E+02  0.52010907244E+02  0.00000000000E+00 0. -1.
         -1   -1    0    0    0  501 -0.00000000000E+00 -0.00000000000E+00 -0.40987847453E+03  0.40987847453E+03  0.00000000000E+00 0.  1.
         25    2    1    2    0    0  0.18103632676E+00  0.97098438172E+02 -0.19926910909E+03  0.25452676045E+03  0.12509018537E+03 0.  0.
         23    2    1    2    0    0 -0.18103632676E+00 -0.97098438172E+02 -0.15859845819E+03  0.20736262132E+03  0.91747731911E+02 0.  0.
          5    1    3    3  502    0  0.22452343720E+02  0.18504849770E+02 -0.16199306571E+03  0.16463827909E+03  0.41800000000E+01 0.  1.
         -5    1    3    3    0  502 -0.22271307393E+02  0.78593588402E+02 -0.37276043381E+02  0.89888481359E+02  0.41800000000E+01 0.  1.
        -11    1    4    4    0    0 -0.34749203750E+02 -0.26601000555E+02 -0.20102439615E+02  0.48158368642E+02  0.00000000000E+00 0. -1.
         11    1    4    4    0    0  0.34568167423E+02 -0.70497437617E+02 -0.13849601858E+03  0.15920425268E+03  0.00000000000E+00 0.  1.
</event>
<event>
 8    1  0.3708258E-009  0.5352955E+02  0.7561462E-02  0.1427183E+00
         -4   -1    0    0    0  501 -0.00000000000E+00  0.00000000000E+00  0.40264653790E+02  0.40264653790E+02  0.00000000000E+00 0.  1.
          4   -1    0    0  501    0  0.00000000000E+00 -0.00000000000E+00 -0.38791301167E+03  0.38791301167E+03  0.00000000000E+00 0. -1.
         25    2    1    2    0    0  0.16168147156E+02 -0.49336485708E+00 -0.29813946469E+03  0.32372329157E+03  0.12509187307E+03 0.  0.
         23    2    1    2    0    0 -0.16168147156E+02  0.49336485708E+00 -0.49508893194E+02  0.10445437389E+03  0.90542439381E+02 0.  0.
          5    1    3    3  502    0  0.18245413065E+02  0.47533364182E+00  0.59113489346E+01  0.19635108510E+02  0.41800000000E+01 0. -1.
         -5    1    3    3    0  502 -0.20772659090E+01 -0.96869849891E+00 -0.30405081362E+03  0.30408818306E+03  0.41800000000E+01 0. -1.
        -11    1    4    4    0    0  0.33653208131E+02 -0.17218489652E+01  0.67615648044E+00  0.33704011170E+02  0.00000000000E+00 0.  1.
         11    1    4    4    0    0 -0.49821355287E+02  0.22152138222E+01 -0.50185049674E+02  0.70750362725E+02  0.00000000000E+00 0. -1.
</event>
<event>
 8    1  0.3708258E-009  0.2439553E+03  0.7561462E-02  0.1117186E+00
          2   -1    0    0  501    0  0.00000000000E+00  0.00000000000E+00  0.14228032732E+03  0.14228032732E+03  0.00000000000E+00 0. -1.
         -2   -1    0    0    0  501 -0.00000000000E+00 -0.00000000000E+00 -0.48073054560E+03  0.48073054560E+03  0.00000000000E+00 0.  1.
         25    2    1    2    0    0 -0.12277070354E+03  0.20291410102E+03 -0.19039200461E+03  0.32885126455E+03  0.12508901124E+03 0.  0.
         23    2    1    2    0    0  0.12277070354E+03 -0.20291410102E+03 -0.14805821367E+03  0.29415960837E+03  0.91443220187E+02 0.  0.
          5    1    3    3  502    0 -0.11050051594E+03  0.14814954257E+03 -0.73173132807E+02  0.19882261127E+03  0.41800000000E+01 0. -1.
         -5    1    3    3    0  502 -0.12270187603E+02  0.54764558445E+02 -0.11721887180E+03  0.13002865327E+03  0.41800000000E+01 0. -1.
        -11    1    4    4    0    0  0.78227293475E+02 -0.64592096287E+02 -0.96367702812E+02  0.13992277332E+03  0.00000000000E+00 0. -1.
         11    1    4    4    0    0  0.44543410068E+02 -0.13832200473E+03 -0.51690510858E+02  0.15423683505E+03  0.00000000000E+00 0.  1.
</event>
<event>
 8    1  0.3708258E-009  0.1751429E+03  0.7561462E-02  0.1172588E+00
         -1   -1    0    0    0  501 -0.00000000000E+00  0.00000000000E+00  0.14557434407E+03  0.14557434407E+03  0.00000000000E+00 0.  1.
          1   -1    0    0  501    0  0.00000000000E+00 -0.00000000000E+00 -0.22921707210E+03  0.22921707210E+03  0.00000000000E+00 0. -1.
         25    2    1    2    0    0  0.37754042540E+02 -0.13294003689E+03  0.69587624239E+01  0.18653845221E+03  0.12509895540E+03 0.  0.
         23    2    1    2    0    0 -0.37754042540E+02  0.13294003689E+03 -0.90601490455E+02  0.18825296395E+03  0.90178307965E+02 0.  0.
          5    1    3    3  502    0 -0.42634834759E+02 -0.21735291219E+02 -0.70145397041E+01  0.48547174857E+02  0.41800000000E+01 0.  1.
         -5    1    3    3    0  502  0.80388877299E+02 -0.11120474568E+03  0.13973302128E+02  0.13799127736E+03  0.41800000000E+01 0.  1.
        -11    1    4    4    0    0 -0.55099983886E+02  0.34500524137E+02 -0.33428477914E+02  0.73101009060E+02  0.00000000000E+00 0.  1.
         11    1    4    4    0    0  0.17345941345E+02  0.98439512757E+02 -0.57173012541E+02  0.11515195489E+03  0.00000000000E+00 0. -1.
</event>
<event>
 8    1  0.3708258E-009  0.9967680E+02  0.7561462E-02  0.1280977E+00
         -1   -1    0    0    0  501 -0.00000000000E+00  0.00000000000E+00  0.22411457262E+02  0.22411457262E+02  0.00000000000E+00 0.  1.
          1   -1    0    0  501    0  0.00000000000E+00 -0.00000000000E+00 -0.12544195442E+04  0.12544195442E+04  0.00000000000E+00 0. -1.
         25    2    1    2    0    0  0.77478569370E+02  0.12424806124E+02 -0.10371211698E+04  0.10475799621E+04  0.12508457796E+03 0.  0.
         23    2    1    2    0    0 -0.77478569370E+02 -0.12424806124E+02 -0.19488691714E+03  0.22925103935E+03  0.91748700559E+02 0.  0.
          5    1    3    3  502    0  0.51418029548E+02 -0.18590240206E+02 -0.15314460206E+03  0.16266576878E+03  0.41800000000E+01 0. -1.
         -5    1    3    3    0  502  0.26060539822E+02  0.31015046330E+02 -0.88397656772E+03  0.88491419331E+03  0.41800000000E+01 0. -1.
        -11    1    4    4    0    0 -0.81247805701E+02  0.92685597329E+01 -0.88039466332E+02  0.12015847770E+03  0.00000000000E+00 0.  1.
         11    1    4    4    0    0  0.37692363314E+01 -0.21693365857E+02 -0.10684745081E+03  0.10909256166E+03  0.00000000000E+00 0. -1.
</event>
<event>
 8    1  0.3708258E-009  0.8511799E+02  0.7561462E-02  0.1315124E+00
         -2   -1    0    0    0  501 -0.00000000000E+00  0.00000000000E+00  0.17454779903E+03  0.17454779903E+03  0.00000000000E+00 0. -1.
          2   -1    0    0  501    0  0.00000000000E+00 -0.00000000000E+00 -0.11618722712E+03  0.11618722712E+03  0.00000000000E+00 0.  1.
         25    2    1    2    0    0  0.56860182289E+02 -0.31517435856E+01 -0.33618249497E+02  0.14149285715E+03  0.12508808139E+03 0.  0.
         23    2    1    2    0    0 -0.56860182289E+02  0.31517435856E+01  0.91978821409E+02  0.14924216901E+03  0.10281102861E+03 0.  0.
          5    1    3    3  502    0  0.14846829283E+02  0.18065625396E+02 -0.75006184564E+02  0.78677794094E+02  0.41800000000E+01 0. -1.
         -5    1    3    3    0  502  0.42013353006E+02 -0.21217368981E+02  0.41387935067E+02  0.62815063054E+02  0.41800000000E+01 0. -1.
        -11    1    4    4    0    0  0.71677692019E+01 -0.27374164927E+02  0.69167566789E+02  0.74732015337E+02  0.00000000000E+00 0. -1.
         11    1    4    4    0    0 -0.64027951491E+02  0.30525908513E+02  0.22811254619E+02  0.74510153670E+02  0.00000000000E+00 0.  1.
</event>
<event>
 8    1  0.3708258E-009  0.7041871E+02  0.7561462E-02  0.1358675E+00
         -1   -1    0    0    0  501 -0.00000000000E+00  0.00000000000E+00  0.17363876041E+03  0.17363876041E+03  0.00000000000E+00 0.  1.
          1   -1    0    0  501    0  0.00000000000E+00 -0.00000000000E+00 -0.76753751821E+02  0.76753751821E+02  0.00000000000E+00 0. -1.
         25    2    1    2    0    0  0.22532168830E+02  0.29119336824E+02  0.54858130007E+02  0.14146251658E+03  0.12508634921E+03 0.  0.
         23    2    1    2    0    0 -0.22532168830E+02 -0.29119336824E+02  0.42026878582E+02  0.10892999565E+03  0.93508561214E+02 0.  0.
          5    1    3    3  502    0  0.47553599414E+02  0.32775590530E+02  0.84398484047E+02  0.10235311750E+03  0.41800000000E+01 0. -1.
         -5    1    3    3    0  502 -0.25021430585E+02 -0.36562537053E+01 -0.29540354040E+02  0.39109399081E+02  0.41800000000E+01 0. -1.
        -11    1    4    4    0    0 -0.12702776437E+02  0.10500293488E+02  0.61523217025E+02  0.63692408697E+02  0.00000000000E+00 0.  1.
         11    1    4    4    0    0 -0.98293923928E+01 -0.39619630313E+02 -0.19496338442E+02  0.45237586956E+02  0.00000000000E+00 0. -1.
</event>
<event>
 8    1  0.3708258E-009  0.1139669E+03  0.7561462E-02  0.1253395E+00
          2   -1    0    0  501    0  0.00000000000E+00  0.00000000000E+00  0.34946905193E+03  0.34946905193E+03  0.00000000000E+00 0. -1.
         -2   -1    0    0    0  501 -0.00000000000E+00 -0.00000000000E+00 -0.52894920612E+02  0.52894920612E+02  0.00000000000E+00 0.  1.
         25    2    1    2    0    0 -0.55237164562E+02  0.46833607021E+02  0.21569658913E+03  0.25964872925E+03  0.12509161820E+03 0.  0.
         23    2    1    2    0    0  0.55237164562E+02 -0.46833607021E+02  0.80877542192E+02  0.14271524329E+03  0.92638721613E+02 0.  0.
          5    1    3    3  502    0  0.20561111129E+02  0.23281179520E+02  0.15889254812E+03  0.16195396525E+03  0.41800000000E+01 0.  1.
         -5    1    3    3    0  502 -0.75798275691E+02  0.23552427500E+02  0.56804041005E+02  0.97694764002E+02  0.41800000000E+01 0.  1.
        -11    1    4    4    0    0  0.48647117053E+02  0.18053440572E+02  0.29498634531E+02  0.59687839241E+02  0.00000000000E+00 0. -1.
         11    1    4    4    0    0  0.65900475090E+01 -0.64887047592E+02  0.51378907660E+02  0.83027404053E+02  0.00000000000E+00 0.  1.
</event>
<event>
 8    1  0.3708258E-009  0.1134069E+03  0.7561462E-02  0.1254388E+00
          4   -1    0    0  501    0  0.00000000000E+00  0.00000000000E+00  0.21624906756E+03  0.21624906756E+03  0.00000000000E+00 0. -1.
         -4   -1    0    0    0  501 -0.00000000000E+00 -0.00000000000E+00 -0.77212778632E+02  0.77212778632E+02  0.00000000000E+00 0.  1.
         25    2    1    2    0    0  0.54822163285E+02  0.43151881301E+02  0.61513751046E+02  0.15588314644E+03  0.12509220331E+03 0.  0.
         23    2    1    2    0    0 -0.54822163285E+02 -0.43151881301E+02  0.77522537877E+02  0.13757869975E+03  0.89725137496E+02 0.  0.
          5    1    3    3  502    0  0.55418982991E+02 -0.21689371740E+02  0.68141688408E+02  0.90567403747E+02  0.41800000000E+01 0.  1.
         -5    1    3    3    0  502 -0.59681970675E+00  0.64841253042E+02 -0.66279373621E+01  0.65315742692E+02  0.41800000000E+01 0.  1.
        -11    1    4    4    0    0  0.14788901364E+02  0.70186029484E+01 -0.63794757662E+01  0.17569009703E+02  0.00000000000E+00 0. -1.
         11    1    4    4    0    0 -0.69611064649E+02 -0.50170484250E+02  0.83902013643E+02  0.12000969005E+03  0.00000000000E+00 0.  1.
</event>
<event>
 8    1  0.3708258E-009  0.1188568E+03  0.7561462E-02  0.1244995E+00
         -2   -1    0    0    0  501 -0.00000000000E+00  0.00000000000E+00  0.40772105474E+02  0.40772105474E+02  0.00000000000E+00 0.  1.
          2   -1    0    0  501    0  0.00000000000E+00 -0.00000000000E+00 -0.74233582753E+03  0.74233582753E+03  0.00000000000E+00 0. -1.
         25    2    1    2    0    0 -0.10596534025E+03  0.20029346933E+02 -0.55645460937E+03  0.58044701637E+03  0.12508868234E+03 0.  0.
         23    2    1    2    0    0  0.10596534025E+03 -0.20029346933E+02 -0.14510911269E+03  0.20266091663E+03  0.91569451637E+02 0.  0.
          5    1    3    3  502    0 -0.73593840710E+02 -0.13993241766E+02 -0.50545340855E+03  0.51099166806E+03  0.41800000000E+01 0.  1.
         -5    1    3    3    0  502 -0.32371499542E+02  0.34022588699E+02 -0.51001200814E+02  0.69455348310E+02  0.41800000000E+01 0.  1.
        -11    1    4    4    0    0  0.65265099742E+02  0.85242186713E+01 -0.13739733456E+03  0.15234901736E+03  0.00000000000E+00 0. -1.
         11    1    4    4    0    0  0.40700240511E+02 -0.28553565604E+02 -0.77117781295E+01  0.50311899271E+02  0.00000000000E+00 0.  1.
</event>
<event>
 8    1  0.3708258E-009  0.1797622E+03  0.7561462E-02  0.1168033E+00
          2   -1    0    0  501    0  0.00000000000E+00  0.00000000000E+00  0.32957012893E+03  0.32957012893E+03  0.00000000000E+00 0. -1.
         -2   -1    0    0    0  501 -0.00000000000E+00 -0.00000000000E+00 -0.13558528722E+03  0.13558528722E+03  0.00000000000E+00 0.  1.
         25    2    1    2    0    0  0.10178571716E+03  0.12962331449E+03  0.17736140524E+02  0.20766457712E+03  0.12508984783E+03 0.  0.
         23    2    1    2    0    0 -0.10178571716E+03 -0.12962331449E+03  0.17624870119E+03  0.25749083904E+03  0.89863182904E+02 0.  0.
          5    1    3    3  502    0  0.10561954192E+03  0.12810646885E+03  0.51115413702E+02  0.17377287738E+03  0.41800000000E+01 0. -1.
         -5    1    3    3    0  502 -0.38338247565E+01  0.15168456457E+01 -0.33379273178E+02  0.33891699735E+02  0.41800000000E+01 0. -1.
        -11    1    4    4    0    0 -0.10329324661E+03 -0.63129421748E+02  0.11862809975E+03  0.16949172469E+03  0.00000000000E+00 0. -1.
         11    1    4    4    0    0  0.15075294536E+01 -0.66493892745E+02  0.57620601431E+02  0.87999114352E+02  0.00000000000E+00 0.  1.
</event>
<event>
 8    1  0.3708258E-009  0.1622393E+03  0.7561462E-02  0.1186192E+00
          1   -1    0    0  501    0  0.00000000000E+00  0.00000000000E+00  0.10655717848E+03  0.10655717848E+03  0.00000000000E+00 0. -1.
         -1   -1    0    0    0  501 -0.00000000000E+00 -0.00000000000E+00 -0.42704681009E+03  0.42704681009E+03  0.00000000000E+00 0.  1.
         25    2    1    2    0    0  0.43188109822E+02  0.14055481698E+03 -0.29618020401E+02  0.19530314884E+03  0.12508086747E+03 0.  0.
         23    2    1    2    0    0 -0.43188109822E+02 -0.14055481698E+03 -0.29087161120E+03  0.33830083973E+03  0.90665840060E+02 0.  0.
          5    1    3    3  502    0  0.74530722903E+02  0.11321683584E+03 -0.55068026878E+02  0.14636543498E+03  0.41800000000E+01 0. -1.
         -5    1    3    3    0  502 -0.31342613082E+02  0.27337981145E+02  0.25450006477E+02  0.48937713857E+02  0.41800000000E+01 0. -1.
        -11    1    4    4    0    0 -0.14525783724E+02 -0.42787125005E+02 -0.20978492596E+02  0.49818004884E+02  0.00000000000E+00 0. -1.
         11    1    4    4    0    0 -0.28662326098E+02 -0.97767691977E+02 -0.26989311860E+03  0.28848283485E+03  0.00000000000E+00 0.  1.
</event>
<event>
 8    1  0.3708258E-009  0.1713701E+03  0.7561462E-02  0.1176427E+00
         -2   -1    0    0    0  501 -0.00000000000E+00  0.00000000000E+00  0.87523485482E+02  0.87523485482E+02  0.00000000000E+00 0. -1.
          2   -1    0    0  501    0  0.00000000000E+00 -0.00000000000E+00 -0.36229373024E+03  0.36229373024E+03  0.00000000000E+00 0.  1.
         25    2    1    2    0    0  0.22016156498E+02  0.13879073396E+03 -0.15019798562E+03  0.24073707558E+03  0.12508927090E+03 0.  0.
         23    2    1    2    0    0 -0.22016156498E+02 -0.13879073396E+03 -0.12457225914E+03  0.20908014014E+03  0.91916692030E+02 0.  0.
          5    1    3    3  502    0 -0.25797917968E+02  0.13678367367E+03 -0.10141822047E+03  0.17227429813E+03  0.41800000000E+01 0.  1.
         -5    1    3    3    0  502  0.47814074466E+02  0.20070602932E+01 -0.48779765152E+02  0.68462777451E+02  0.41800000000E+01 0.  1.
        -11    1    4    4    0    0 -0.41174664750E+02 -0.50797912536E+02 -0.92926993928E+02  0.11362749287E+03  0.00000000000E+00 0.  1.
         11    1    4    4    0    0  0.19158508252E+02 -0.87992821427E+02 -0.31645265214E+02  0.95452647274E+02  0.00000000000E+00 0. -1.
</event>
<event>
 8    1  0.3708258E-009  0.1232781E+03  0.7561462E-02  0.1237785E+00
         -2   -1    0    0    0  501 -0.00000000000E+00  0.00000000000E+00  0.15348607724E+03  0.15348607724E+03  0.00000000000E+00 0.  1.
          2   -1    0    0  501    0  0.00000000000E+00 -0.00000000000E+00 -0.12404721552E+03  0.12404721552E+03  0.00000000000E+00 0. -1.
         25    2    1    2    0    0  0.73827230420E+01 -0.77250870756E+02 -0.20237225429E+02  0.14859015818E+03  0.12508912096E+03 0.  0.
         23    2    1    2    0    0 -0.73827230420E+01  0.77250870756E+02  0.49676087147E+02  0.12894313458E+03  0.90202088056E+02 0.  0.
          5    1    3    3  502    0 -0.50152286127E+02 -0.43236403116E+02  0.21422948612E+02  0.69721255621E+02  0.41800000000E+01 0.  1.
         -5    1    3    3    0  502  0.57535009169E+02 -0.34014467640E+02 -0.41660174041E+02  0.78868902554E+02  0.41800000000E+01 0.  1.
        -11    1    4    4    0    0  0.36246345422E+02  0.50154425069E+02  0.72061049596E+01  0.62299212347E+02  0.00000000000E+00 0.  1.
         11    1    4    4    0    0 -0.43629068464E+02  0.27096445688E+02  0.42469982187E+02  0.66643922235E+02  0.00000000000E+00 0. -1.
</event>
<event>
 8    1  0.3708258E-009  0.2092947E+03  0.7561462E-02  0.1142126E+00
          2   -1    0    0  501    0  0.00000000000E+00  0.00000000000E+00  0.66614772292E+03  0.66614772292E+03  0.00000000000E+00 0. -1.
         -2   -1    0    0    0  501 -0.00000000000E+00 -0.00000000000E+00 -0.92835154304E+02  0.92835154304E+02  0.00000000000E+00 0.  1.
         25    2    1    2    0    0 -0.58838370371E+02 -0.16865547890E+03  0.91023875729E+02  0.23630474560E+03  0.12509181607E+03 0.  0.
         23    2    1    2    0    0  0.58838370371E+02  0.16865547890E+03  0.48228869288E+03  0.52267813162E+03  0.93184878619E+02 0.  0.
          5    1    3    3  502    0 -0.85539779125E+02 -0.56519675272E+02  0.39067688132E+02  0.10979655806E+03  0.41800000000E+01 0. -1.
         -5    1    3    3    0  502  0.26701408755E+02 -0.11213580363E+03  0.51956187597E+02  0.12650818754E+03  0.41800000000E+01 0. -1.
        -11    1    4    4    0    0  0.56340667205E+02  0.33694147393E+02  0.13614149849E+03  0.15114256171E+03  0.00000000000E+00 0.  1.
         11    1    4    4    0    0  0.24977031656E+01  0.13496133151E+03  0.34614719439E+03  0.37153556991E+03  0.00000000000E+00 0. -1.
</event>
<event>
 8    1  0.3708258E-009  0.6382252E+02  0.7561462E-02  0.1382456E+00
         -1   -1    0    0    0  501 -0.00000000000E+00  0.00000000000E+00  0.10499911084E+03  0.10499911084E+03  0.00000000000E+00 0.  1.
          1   -1    0    0  501    0  0.00000000000E+00 -0.00000000000E+00 -0.12346514313E+03  0.12346514313E+03  0.00000000000E+00 0. -1.
         25    2    1    2    0    0  0.11665974005E+02 -0.39755762866E+01 -0.37230903590E+02  0.13109008492E+03  0.12508625035E+03 0.  0.
         23    2    1    2    0    0 -0.11665974005E+02  0.39755762866E+01  0.18764871306E+02  0.97374169048E+02  0.94750769106E+02 0.  0.
          5    1    3    3  502    0 -0.14148063885E+02  0.16435640728E+02 -0.76535032494E+02  0.79657903542E+02  0.41800000000E+01 0. -1.
         -5    1    3    3    0  502  0.25814037891E+02 -0.20411217014E+02  0.39304128904E+02  0.51432181377E+02  0.41800000000E+01 0. -1.
        -11    1    4    4    0    0  0.25630945705E+02  0.19278768861E+02 -0.22892133260E+02  0.39403883967E+02  0.00000000000E+00 0. -1.
         11    1    4    4    0    0 -0.37296919710E+02 -0.15303192575E+02  0.41657004566E+02  0.57970285080E+02  0.00000000000E+00 0.  1.
</event>
<event>
 8    1  0.3708258E-009  0.9728457E+02  0.7561462E-02  0.1286112E+00
          2   -1    0    0  501    0  0.00000000000E+00  0.00000000000E+00  0.22058190999E+03  0.22058190999E+03  0.00000000000E+00 0. -1.
         -2   -1    0    0    0  501 -0.00000000000E+00 -0.00000000000E+00 -0.65625987216E+02  0.65625987216E+02  0.00000000000E+00 0.  1.
         25    2    1    2    0    0  0.26772202928E+01  0.11509798581E+02  0.26630103049E+02  0.12843560963E+03  0.12508757117E+03 0.  0.
         23    2    1    2    0    0 -0.26772202928E+01 -0.11509798581E+02  0.12832581973E+03  0.15777228758E+03  0.91021622412E+02 0.  0.
          5    1    3    3  502    0 -0.31648482732E+02 -0.33718264741E+02  0.48779968862E+02  0.67346162463E+02  0.41800000000E+01 0.  1.
         -5    1    3    3    0  502  0.34325703024E+02  0.45228063322E+02 -0.22149865812E+02  0.61089447169E+02  0.41800000000E+01 0.  1.
        -11    1    4    4    0    0  0.38520317811E+02 -0.27161219838E+02  0.75153284338E+02  0.88710556836E+02  0.00000000000E+00 0.  1.
         11    1    4    4    0    0 -0.41197538104E+02  0.15651421257E+02  0.53172535388E+02  0.69061730740E+02  0.00000000000E+00 0. -1.
</event>
<event>
 8    1  0.3708258E-009  0.1224123E+03  0.7561462E-02  0.1239170E+00
         -3   -1    0    0    0  501 -0.00000000000E+00  0.00000000000E+00  0.56009372457E+02  0.56009372457E+02  0.00000000000E+00 0.  1.
          3   -1    0    0  501    0  0.00000000000E+00 -0.00000000000E+00 -0.51940762063E+03  0.51940762063E+03  0.00000000000E+00 0. -1.
         25    2    1    2    0    0  0.85914871525E+02 -0.49499116273E+02 -0.37657791666E+03  0.40900923217E+03  0.12508435963E+03 0.  0.
         23    2    1    2    0    0 -0.85914871525E+02  0.49499116273E+02 -0.86820331520E+02  0.16640776092E+03  0.10159845112E+03 0.  0.
          5    1    3    3  502    0  0.33567818662E+02  0.32230486520E+02 -0.21871344056E+03  0.22364848354E+03  0.41800000000E+01 0.  1.
         -5    1    3    3    0  502  0.52347052862E+02 -0.81729602793E+02 -0.15786447610E+03  0.18536074862E+03  0.41800000000E+01 0.  1.
        -11    1    4    4    0    0 -0.52124110714E+02  0.40436551770E+02  0.69390872586E+01  0.66333917182E+02  0.00000000000E+00 0.  1.
         11    1    4    4    0    0 -0.33790760811E+02  0.90625645036E+01 -0.93759418779E+02  0.10007384374E+03  0.00000000000E+00 0. -1.
</event>
<event>
 8    1  0.3708258E-009  0.1168061E+03  0.7561462E-02  0.1248461E+00
         -1   -1    0    0    0  501 -0.00000000000E+00  0.00000000000E+00  0.28504413543E+03  0.28504413543E+03  0.00000000000E+00 0.  1.
          1   -1    0    0  501    0  0.00000000000E+00 -0.00000000000E+00 -0.59891001373E+02  0.59891001373E+02  0.00000000000E+00 0. -1.
         25    2    1    2    0    0  0.57829087045E+00  0.46387012477E+02  0.19675878366E+03  0.23772742409E+03  0.12509284499E+03 0.  0.
         23    2    1    2    0    0 -0.57829087045E+00 -0.46387012477E+02  0.28394350402E+02  0.10720771272E+03  0.92385957728E+02 0.  0.
          5    1    3    3  502    0 -0.60441190634E+02  0.25013073603E+02  0.12432594969E+03  0.14054609757E+03  0.41800000000E+01 0. -1.
         -5    1    3    3    0  502  0.61019481505E+02  0.21373938874E+02  0.72432833974E+02  0.97181326517E+02  0.41800000000E+01 0. -1.
        -11    1    4    4    0    0  0.45843297614E+02 -0.22360693564E+02  0.11637460032E+02  0.52316718444E+02  0.00000000000E+00 0. -1.
         11    1    4    4    0    0 -0.46421588484E+02 -0.24026318913E+02  0.16756890370E+02  0.54890994277E+02  0.00000000000E+00 0.  1.
</event>
<event>
 8    1  0.3708258E-009  0.9000965E+02  0.7561462E-02  0.1302828E+00
         -2   -1    0    0    0  501 -0.00000000000E+00  0.00000000000E+00  0.10472297895E+03  0.10472297895E+03  0.00000000000E+00 0. -1.
          2   -1    0    0  501    0  0.00000000000E+00 -0.00000000000E+00 -0.23583376804E+03  0.23583376804E+03  0.00000000000E+00 0.  1.
         25    2    1    2    0    0 -0.46895842113E+01  0.46625651120E+02  0.41687069965E+02  0.13993197088E+03  0.12508877300E+03 0.  0.
         23    2    1    2    0    0  0.46895842113E+01 -0.46625651120E+02 -0.17279785906E+03  0.20062477610E+03  0.90527659573E+02 0.  0.
          5    1    3    3  502    0  0.44966528548E+02  0.18719481099E+02 -0.22669741395E+02  0.53886893000E+02  0.41800000000E+01 0. -1.
         -5    1    3    3    0  502 -0.49656112759E+02  0.27906170020E+02  0.64356811360E+02  0.86045077884E+02  0.41800000000E+01 0. -1.
        -11    1    4    4    0    0  0.29627629150E+02 -0.36729483720E+02 -0.16651036161E+03  0.17306805571E+03  0.00000000000E+00 0.  1.
         11    1    4    4    0    0 -0.24938044938E+02 -0.98961673993E+01 -0.62874974476E+01  0.27556720391E+02  0.00000000000E+00 0. -1.
</event>
<event>
 8    1  0.3708258E-009  0.1150271E+03  0.7561462E-02  0.1251534E+00
         -2   -1    0    0    0  501 -0.00000000000E+00  0.00000000000E+00  0.18141707384E+02  0.18141707384E+02  0.00000000000E+00 0.  1.
          2   -1    0    0  501    0  0.00000000000E+00 -0.00000000000E+00 -0.10334729306E+04  0.10334729306E+04  0.00000000000E+00 0. -1.
         25    2    1    2    0    0 -0.79581007818E+02  0.72515546853E+01 -0.68656771071E+03  0.70243101306E+03  0.12509350452E+03 0.  0.
         23    2    1    2    0    0  0.79581007818E+02 -0.72515546853E+01 -0.32876351252E+03  0.34918362493E+03  0.86359914927E+02 0.  0.
          5    1    3    3  502    0 -0.34983364771E+02  0.53937725285E+02 -0.16949234384E+03  0.18132358104E+03  0.41800000000E+01 0. -1.
         -5    1    3    3    0  502 -0.44597643047E+02 -0.46686170600E+02 -0.51707536686E+03  0.52110743202E+03  0.41800000000E+01 0. -1.
        -11    1    4    4    0    0  0.79692062200E+02 -0.24737608880E+02 -0.31773660105E+03  0.32851076347E+03  0.00000000000E+00 0. -1.
         11    1    4    4    0    0 -0.11105438205E+00  0.17486054195E+02 -0.11026911470E+02  0.20672861460E+02  0.00000000000E+00 0.  1.
</event>
<event>
 8    1  0.3708258E-009  0.1100291E+03  0.7561462E-02  0.1260516E+00
         -2   -1    0    0    0  501 -0.00000000000E+00  0.00000000000E+00  0.56617964193E+02  0.56617964193E+02  0.00000000000E+00 0.  1.
          2   -1    0    0  501    0  0.00000000000E+00 -0.00000000000E+00 -0.25692232543E+03  0.25692232543E+03  0.00000000000E+00 0. -1.
         25    2    1    2    0    0 -0.47725286658E+02  0.27620833605E+01 -0.11118681015E+03  0.17405649157E+03  0.12509126034E+03 0.  0.
         23    2    1    2    0    0  0.47725286658E+02 -0.27620833605E+01 -0.89117551084E+02  0.13948379806E+03  0.96064873486E+02 0.  0.
          5    1    3    3  502    0  0.17669541702E+02 -0.45104144947E+02 -0.21668273455E+02  0.53231410556E+02  0.41800000000E+01 0. -1.
         -5    1    3    3    0  502 -0.65394828359E+02  0.47866228307E+02 -0.89518536700E+02  0.12082508101E+03  0.41800000000E+01 0. -1.
        -11    1    4    4    0    0  0.27235888509E+02  0.36771681812E+02 -0.73057065566E+01  0.46339222636E+02  0.00000000000E+00 0.  1.
         11    1    4    4    0    0  0.20489398149E+02 -0.39533765173E+02 -0.81811844528E+02  0.93144575420E+02  0.00000000000E+00 0. -1.
</event>
<event>
 8    1  0.3708258E-009  0.1832493E+03  0.7561462E-02  0.1164695E+00
          2   -1    0    0  501    0  0.00000000000E+00  0.00000000000E+00  0.67389899862E+03  0.67389899862E+03  0.00000000000E+00 0. -1.
         -2   -1    0    0    0  501 -0.00000000000E+00 -0.00000000000E+00 -0.66059261131E+02  0.66059261131E+02  0.00000000000E+00 0.  1.
         25    2    1    2    0    0  0.36205810847E+02  0.17454773878E+03  0.36288398393E+03  0.42321488731E+03  0.12509309011E+03 0.  0.
         23    2    1    2    0    0 -0.36205810847E+02 -0.17454773878E+03  0.24495575356E+03  0.31674337245E+03  0.92440623830E+02 0.  0.
          5    1    3    3  502    0 -0.26960479322E+01  0.55719572638E+01 -0.96970428248E+01  0.12240115267E+02  0.41800000000E+01 0.  1.
         -5    1    3    3    0  502  0.38901858779E+02  0.16897578152E+03  0.37258102675E+03  0.41097477204E+03  0.41800000000E+01 0.  1.
        -11    1    4    4    0    0 -0.16257351478E+02 -0.16017079072E+03  0.24375794388E+03  0.29212483441E+03  0.00000000000E+00 0. -1.
         11    1    4    4    0    0 -0.19948459368E+02 -0.14376948064E+02  0.11978096777E+01  0.24618538032E+02  0.00000000000E+00 0.  1.
</event>
<event>
 8    1  0.3708258E-009  0.1714609E+03  0.7561462E-02  0.1176333E+00
          1   -1    0    0  501    0  0.00000000000E+00  0.00000000000E+00  0.76407022728E+03  0.76407022728E+03  0.00000000000E+00 0. -1.
         -1   -1    0    0    0  501 -0.00000000000E+00 -0.00000000000E+00 -0.44906943425E+02  0.44906943425E+02  0.00000000000E+00 0.  1.
         25    2    1    2    0    0 -0.12950970960E+03  0.71380096490E+02  0.44298115663E+03  0.48347478628E+03  0.12509069022E+03 0.  0.
         23    2    1    2    0    0  0.12950970960E+03 -0.71380096490E+02  0.27618212722E+03  0.32550238443E+03  0.88359220311E+02 0.  0.
          5    1    3    3  502    0  0.13143252875E+01  0.46688959316E+02  0.20937630501E+03  0.21456350079E+03  0.41800000000E+01 0. -1.
         -5    1    3    3    0  502 -0.13082403489E+03  0.24691137175E+02  0.23360485162E+03  0.26891128549E+03  0.41800000000E+01 0. -1.
        -11    1    4    4    0    0  0.76722696372E+02 -0.34508781509E+01  0.18414995073E+03  0.19952314416E+03  0.00000000000E+00 0. -1.
         11    1    4    4    0    0  0.52787013230E+02 -0.67929218340E+02  0.92032176491E+02  0.12597924027E+03  0.00000000000E+00 0.  1.
</event>
<event>
 8    1  0.3708258E-009  0.7852169E+02  0.7561462E-02  0.1333300E+00
         -1   -1    0    0    0  501 -0.00000000000E+00  0.00000000000E+00  0.20763404065E+02  0.20763404065E+02  0.00000000000E+00 0.  1.
          1   -1    0    0  501    0  0.00000000000E+00 -0.00000000000E+00 -0.77508094136E+03  0.77508094136E+03  0.00000000000E+00 0. -1.
         25    2    1    2    0    0  0.15759832998E+02 -0.41580089797E+01 -0.60730922876E+03  0.62027233546E+03  0.12509040500E+03 0.  0.
         23    2    1    2    0    0 -0.15759832998E+02  0.41580089797E+01 -0.14700830853E+03  0.17557200997E+03  0.94596123233E+02 0.  0.
          5    1    3    3  502    0 -0.25011403390E+02  0.13166241309E+02 -0.30663137045E+02  0.41912057730E+02  0.41800000000E+01 0.  1.
         -5    1    3    3    0  502  0.40771236388E+02 -0.17324250289E+02 -0.57664609172E+03  0.57836027773E+03  0.41800000000E+01 0.  1.
        -11    1    4    4    0    0  0.16008718298E+02 -0.32037838250E+02 -0.23060860390E+02  0.42597011904E+02  0.00000000000E+00 0.  1.
         11    1    4    4    0    0 -0.31768551296E+02  0.36195847229E+02 -0.12394744814E+03  0.13297499806E+03  0.00000000000E+00 0. -1.
</event>
<event>
 8    1  0.3708258E-009  0.2208464E+03  0.7561462E-02  0.1133254E+00
          1   -1    0    0  501    0  0.00000000000E+00  0.00000000000E+00  0.84742543961E+03  0.84742543961E+03  0.00000000000E+00 0. -1.
         -1   -1    0    0    0  501 -0.00000000000E+00 -0.00000000000E+00 -0.74345295398E+02  0.74345295398E+02  0.00000000000E+00 0.  1.
         25    2    1    2    0    0 -0.14066773635E+03  0.16106515742E+03  0.26408383390E+03  0.36210108220E+03  0.12509006924E+03 0.  0.
         23    2    1    2    0    0  0.14066773635E+03 -0.16106515742E+03  0.50899631032E+03  0.55966965281E+03  0.91779515028E+02 0.  0.
          5    1    3    3  502    0 -0.30370592715E+02  0.85135821259E+02  0.35603182981E+02  0.97239600995E+02  0.41800000000E+01 0.  1.
         -5    1    3    3    0  502 -0.11029714363E+03  0.75929336158E+02  0.22848065092E+03  0.26486148120E+03  0.41800000000E+01 0.  1.
        -11    1    4    4    0    0  0.14721408512E+02 -0.28229803481E+01  0.37548201297E+01  0.15452759004E+02  0.00000000000E+00 0.  1.
         11    1    4    4    0    0  0.12594632784E+03 -0.15824217707E+03  0.50524149019E+03  0.54421689381E+03  0.00000000000E+00 0. -1.
</event>
<event>
 8    1  0.3708258E-009  0.1583791E+03  0.7561462E-02  0.1190539E+00
          2   -1    0    0  501    0  0.00000000000E+00  0.00000000000E+00  0.15560567227E+04  0.15560567227E+04  0.00000000000E+00 0.  1.
         -2   -1    0    0    0  501 -0.00000000000E+00 -0.00000000000E+00 -0.21085290010E+02  0.21085290010E+02  0.00000000000E+00 0. -1.
         25    2    1    2    0    0  0.34938038170E+02  0.14318488307E+03  0.83525551611E+03  0.85733495682E+03  0.12509545857E+03 0.  0.
         23    2    1    2    0    0 -0.34938038170E+02 -0.14318488307E+03  0.69971591655E+03  0.71980705585E+03  0.82445476104E+02 0.  0.
          5    1    3    3  502    0  0.21544799230E+02  0.13736707002E+03  0.43309044611E+03  0.45488316875E+03  0.41800000000E+01 0.  1.
         -5    1    3    3    0  502  0.13393238940E+02  0.58178130480E+01  0.40216507000E+03  0.40245178807E+03  0.41800000000E+01 0.  1.
        -11    1    4    4    0    0 -0.93195846015E+01  0.60050674965E+01  0.15564067180E+02  0.19109047071E+02  0.00000000000E+00 0. -1.
         11    1    4    4    0    0 -0.25618453568E+02 -0.14918995057E+03  0.68415184937E+03  0.70069800878E+03  0.00000000000E+00 0.  1.
</event>
<event>
 8    1  0.3708258E-009  0.1175051E+03  0.7561462E-02  0.1247271E+00
         -4   -1    0    0    0  501 -0.00000000000E+00  0.00000000000E+00  0.48343369234E+03  0.48343369234E+03  0.00000000000E+00 0.  1.
          4   -1    0    0  501    0  0.00000000000E+00 -0.00000000000E+00 -0.36409086255E+02  0.36409086255E+02  0.00000000000E+00 0. -1.
         25    2    1    2    0    0 -0.63961030380E+02  0.93396599402E+01  0.17650356594E+03  0.22578320832E+03  0.12508519382E+03 0.  0.
         23    2    1    2    0    0  0.63961030380E+02 -0.93396599402E+01  0.27052104014E+03  0.29405957028E+03  0.95452370616E+02 0.  0.
          5    1    3    3  502    0  0.10172374236E+02  0.39442462147E+02  0.11780179222E+02  0.42607863597E+02  0.41800000000E+01 0.  1.
         -5    1    3    3    0  502 -0.74133404617E+02 -0.30102802207E+02  0.16472338672E+03  0.18317534472E+03  0.41800000000E+01 0.  1.
        -11    1    4    4    0    0  0.10688114043E+02 -0.47322759086E+02  0.13773903887E+03  0.14603329119E+03  0.00000000000E+00 0.  1.
         11    1    4    4    0    0  0.53272916337E+02  0.37983099146E+02  0.13278200128E+03  0.14802627908E+03  0.00000000000E+00 0. -1.
</event>
<event>
 8    1  0.3708258E-009  0.8708742E+02  0.7561462E-02  0.1310062E+00
         -2   -1    0    0    0  501 -0.00000000000E+00  0.00000000000E+00  0.15417911581E+03  0.15417911581E+03  0.00000000000E+00 0.  1.
          2   -1    0    0  501    0  0.00000000000E+00 -0.00000000000E+00 -0.80018230021E+02  0.80018230021E+02  0.00000000000E+00 0. -1.
         25    2    1    2    0    0 -0.44174084926E+01 -0.92919448842E+00  0.61572486096E+02  0.13949535669E+03  0.12508959427E+03 0.  0.
         23    2    1    2    0    0  0.44174084926E+01  0.92919448842E+00  0.12588399689E+02  0.94701989138E+02  0.93752984164E+02 0.  0.
          5    1    3    3  502    0  0.55769559169E+02 -0.13299098281E+02  0.51320585985E+02  0.77060915456E+02  0.41800000000E+01 0.  1.
         -5    1    3    3    0  502 -0.60186967662E+02  0.12369903793E+02  0.10251900111E+02  0.62434441233E+02  0.41800000000E+01 0.  1.
        -11    1    4    4    0    0 -0.23220554824E+02  0.10990250401E+02  0.44450215574E+02  0.51340056825E+02  0.00000000000E+00 0.  1.
         11    1    4    4    0    0  0.27637963317E+02 -0.10061055912E+02 -0.31861815885E+02  0.43361932312E+02  0.00000000000E+00 0. -1.
</event>
<event>
 8    1  0.3708258E-009  0.1247513E+03  0.7561462E-02  0.1235458E+00
          1   -1    0    0  501    0  0.00000000000E+00  0.00000000000E+00  0.38579545892E+03  0.38579545892E+03  0.00000000000E+00 0. -1.
         -1   -1    0    0    0  501 -0.00000000000E+00 -0.00000000000E+00 -0.41420111156E+02  0.41420111156E+02  0.00000000000E+00 0.  1.
         25    2    1    2    0    0  0.65720924160E+02 -0.19132551943E+02  0.21687464429E+03  0.25955595105E+03  0.12509750586E+03 0.  0.
         23    2    1    2    0    0 -0.65720924160E+02  0.19132551943E+02  0.12750070347E+03  0.16765961902E+03  0.84664183985E+02 0.  0.
          5    1    3    3  502    0  0.10118584357E+03 -0.18125524042E+01  0.13714113626E+03  0.17049053916E+03  0.41800000000E+01 0. -1.
         -5    1    3    3    0  502 -0.35464919414E+02 -0.17319999539E+02  0.79733508031E+02  0.89065411894E+02  0.41800000000E+01 0. -1.
        -11    1    4    4    0    0 -0.38744011622E+02 -0.32303474994E+02  0.52615412773E+02  0.72890291497E+02  0.00000000000E+00 0. -1.
         11    1    4    4    0    0 -0.26976912538E+02  0.51436026937E+02  0.74885290695E+02  0.94769327526E+02  0.00000000000E+00 0.  1.
</event>
<event>
 8    1  0.3708258E-009  0.1784942E+03  0.7561462E-02  0.1169268E+00
         -2   -1    0    0    0  501 -0.00000000000E+00  0.00000000000E+00  0.57460786079E+02  0.57460786079E+02  0.00000000000E+00 0.  1.
          2   -1    0    0  501    0  0.00000000000E+00 -0.00000000000E+00 -0.67796282880E+03  0.67796282880E+03  0.00000000000E+00 0. -1.
         25    2    1    2    0    0  0.85153078795E+02  0.14067358803E+03 -0.33740050413E+03  0.39563521636E+03  0.12509204227E+03 0.  0.
         23    2    1    2    0    0 -0.85153078795E+02 -0.14067358803E+03 -0.28310153860E+03  0.33978839853E+03  0.90937172933E+02 0.  0.
          5    1    3    3  502    0  0.45588653605E+02  0.11383427956E+03 -0.32301764325E+03  0.34553500371E+03  0.41800000000E+01 0.  1.
         -5    1    3    3    0  502  0.39564425191E+02  0.26839308470E+02 -0.14382860876E+02  0.50100212642E+02  0.41800000000E+01 0.  1.
        -11    1    4    4    0    0 -0.92540294483E+02 -0.72047846729E+02 -0.19901700283E+03  0.23100295612E+03  0.00000000000E+00 0. -1.
         11    1    4    4    0    0  0.73872156881E+01 -0.68625741297E+02 -0.84084535766E+02  0.10878544240E+03  0.00000000000E+00 0.  1.
</event>
<event>
 8    1  0.3708258E-009  0.1058680E+03  0.7561462E-02  0.1268419E+00
          1   -1    0    0  501    0  0.00000000000E+00  0.00000000000E+00  0.14426305668E+03  0.14426305668E+03  0.00000000000E+00 0. -1.
         -1   -1    0    0    0  501 -0.00000000000E+00 -0.00000000000E+00 -0.97109356218E+02  0.97109356218E+02  0.00000000000E+00 0.  1.
         25    2    1    2    0    0  0.33709730770E+02 -0.35521508059E+02  0.22427537538E+02  0.13618412382E+03  0.12507996505E+03 0.  0.
         23    2    1    2    0    0 -0.33709730770E+02  0.35521508059E+02  0.24726162919E+02  0.10518828907E+03  0.89750039230E+02 0.  0.
          5    1    3    3  502    0 -0.22525301299E+02  0.28041189727E+02  0.34913918594E+02  0.50300612636E+02  0.41800000000E+01 0.  1.
         -5    1    3    3    0  502  0.56235032069E+02 -0.63562697787E+02 -0.12486381056E+02  0.85883511186E+02  0.41800000000E+01 0.  1.
        -11    1    4    4    0    0 -0.21379408107E+02 -0.22617425533E+02  0.32793622761E+02  0.45211157058E+02  0.00000000000E+00 0. -1.
         11    1    4    4    0    0 -0.12330322663E+02  0.58138933593E+02 -0.80674598419E+01  0.59977132013E+02  0.00000000000E+00 0.  1.
</event>
<event>
 8    1  0.3708258E-009  0.1250700E+03  0.7561462E-02  0.1234960E+00
          1   -1    0    0  501    0  0.00000000000E+00  0.00000000000E+00  0.23126646745E+02  0.23126646745E+02  0.00000000000E+00 0.  1.
         -1   -1    0    0    0  501 -0.00000000000E+00 -0.00000000000E+00 -0.80864352759E+03  0.80864352759E+03  0.00000000000E+00 0. -1.
         25    2    1    2    0    0  0.73881204240E+02  0.10509979482E+02 -0.54417098216E+03  0.56332699128E+03  0.12508536793E+03 0.  0.
         23    2    1    2    0    0 -0.73881204240E+02 -0.10509979482E+02 -0.24134589868E+03  0.26844318305E+03  0.90802024801E+02 0.  0.
          5    1    3    3  502    0  0.22218376390E+02 -0.54119120980E+02 -0.16229595317E+03  0.17256878142E+03  0.41800000000E+01 0.  1.
         -5    1    3    3    0  502  0.51662827851E+02  0.64629100462E+02 -0.38187502899E+03  0.39075820987E+03  0.41800000000E+01 0.  1.
        -11    1    4    4    0    0 -0.60619266219E+02 -0.42486048967E+02 -0.10983009475E+03  0.13244776143E+03  0.00000000000E+00 0.  1.
         11    1    4    4    0    0 -0.13261938021E+02  0.31976069485E+02 -0.13151580393E+03  0.13599542162E+03  0.00000000000E+00 0. -1.
</event>
<event>
 8    1  0.3708258E-009  0.1601118E+03  0.7561462E-02  0.1188571E+00
          1   -1    0    0  501    0  0.00000000000E+00  0.00000000000E+00  0.40717825967E+02  0.40717825967E+02  0.00000000000E+00 0. -1.
         -1   -1    0    0    0  501 -0.00000000000E+00 -0.00000000000E+00 -0.87205634707E+03  0.87205634707E+03  0.00000000000E+00 0.  1.
         25    2    1    2    0    0  0.93405164052E+02  0.12176830005E+03 -0.41859954679E+03  0.46306067919E+03  0.12509024129E+03 0.  0.
         23    2    1    2    0    0 -0.93405164052E+02 -0.12176830005E+03 -0.41273897431E+03  0.44971349385E+03  0.91305651894E+02 0.  0.
          5    1    3    3  502    0  0.47804762431E+02  0.49078157690E+02 -0.50886859958E+02  0.85445338022E+02  0.41800000000E+01 0. -1.
         -5    1    3    3    0  502  0.45600401621E+02  0.72690142358E+02 -0.36771268684E+03  0.37761534117E+03  0.41800000000E+01 0. -1.
        -11    1    4    4    0    0 -0.84492948633E+02 -0.60894391541E+02 -0.33356225669E+03  0.34944379288E+03  0.00000000000E+00 0.  1.
         11    1    4    4    0    0 -0.89122154195E+01 -0.60873908507E+02 -0.79176717617E+02  0.10026970097E+03  0.00000000000E+00 0. -1.
</event>
<event>
 8    1  0.3708258E-009  0.1128446E+03  0.7561462E-02  0.1255391E+00
          4   -1    0    0  501    0  0.00000000000E+00  0.00000000000E+00  0.45298169528E+02  0.45298169528E+02  0.00000000000E+00 0. -1.
         -4   -1    0    0    0  501 -0.00000000000E+00 -0.00000000000E+00 -0.30969265940E+03  0.30969265940E+03  0.00000000000E+00 0.  1.
         25    2    1    2    0    0 -0.45477066274E+02  0.33794392473E+01 -0.15667827762E+03  0.20560859672E+03  0.12508888120E+03 0.  0.
         23    2    1    2    0    0  0.45477066274E+02 -0.33794392473E+01 -0.10771621225E+03  0.14938223221E+03  0.92912242207E+02 0.  0.
          5    1    3    3  502    0 -0.53640102334E+02 -0.47806510198E+02 -0.12634479989E+03  0.14540702822E+03  0.41800000000E+01 0. -1.
         -5    1    3    3    0  502  0.81630360605E+01  0.51185949446E+02 -0.30333477723E+02  0.60201568494E+02  0.41800000000E+01 0. -1.
        -11    1    4    4    0    0 -0.97654072017E+01  0.33762793528E+02 -0.50951727534E+02  0.61898044746E+02  0.00000000000E+00 0.  1.
         11    1    4    4    0    0  0.55242473475E+02 -0.37142232775E+02 -0.56764484720E+02  0.87484187467E+02  0.00000000000E+00 0. -1.
</event>
<event>
 8    1  0.3708258E-009  0.1468462E+03  0.7561462E-02  0.1204403E+00
         -1   -1    0    0    0  501 -0.00000000000E+00  0.00000000000E+00  0.13547560481E+03  0.13547560481E+03  0.00000000000E+00 0.  1.
          1   -1    0    0  501    0  0.00000000000E+00 -0.00000000000E+00 -0.23662838970E+03  0.23662838970E+03  0.00000000000E+00 0. -1.
         25    2    1    2    0    0  0.89549563607E+02  0.54349643832E+02  0.43003498716E+02  0.16872943197E+03  0.12508921690E+03 0.  0.
         23    2    1    2    0    0 -0.89549563607E+02 -0.54349643832E+02 -0.14415628361E+03  0.20337456254E+03  0.98016174478E+02 0.  0.
          5    1    3    3  502    0  0.11867969391E+03  0.43976136069E+02  0.50999182991E+02  0.13651798180E+03  0.41800000000E+01 0.  1.
         -5    1    3    3    0  502 -0.29130130303E+02  0.10373507763E+02 -0.79956842753E+01  0.32211450166E+02  0.41800000000E+01 0.  1.
        -11    1    4    4    0    0 -0.93133370180E+02 -0.12634966224E+02 -0.12730929605E+03  0.15824387468E+03  0.00000000000E+00 0.  1.
         11    1    4    4    0    0  0.35838065731E+01 -0.41714677608E+02 -0.16846987560E+02  0.45130687867E+02  0.00000000000E+00 0. -1.
</event>
<event>
 8    1  0.3708258E-009  0.8662564E+02  0.7561462E-02  0.1311235E+00
         -1   -1    0    0    0  501 -0.00000000000E+00  0.00000000000E+00  0.67499170190E+02  0.67499170190E+02  0.00000000000E+00 0. -1.
          1   -1    0    0  501    0  0.00000000000E+00 -0.00000000000E+00 -0.18587160036E+03  0.18587160036E+03  0.00000000000E+00 0.  1.
         25    2    1    2    0    0  0.79699479808E+00  0.23321630094E+02 -0.85625986103E+02  0.15337257377E+03  0.12508718263E+03 0.  0.
         23    2    1    2    0    0 -0.79699479808E+00 -0.23321630094E+02 -0.32746444070E+02  0.99998196783E+02  0.91557501766E+02 0.  0.
          5    1    3    3  502    0 -0.30110135845E+02 -0.11125734361E+02  0.19948498166E+02  0.38023903334E+02  0.41800000000E+01 0. -1.
         -5    1    3    3    0  502  0.30907130643E+02  0.34447364455E+02 -0.10557448427E+03  0.11534867043E+03  0.41800000000E+01 0. -1.
        -11    1    4    4    0    0  0.26349078626E+02 -0.49894407709E+02 -0.21490417835E+02  0.60378505478E+02  0.00000000000E+00 0. -1.
         11    1    4    4    0    0 -0.27146073424E+02  0.26572777615E+02 -0.11256026235E+02  0.39619691305E+02  0.00000000000E+00 0.  1.
</event>
<event>
 8    1  0.3708258E-009  0.1089965E+03  0.7561462E-02  0.1262440E+00
         -1   -1    0    0    0  501 -0.00000000000E+00  0.00000000000E+00  0.32750918774E+02  0.32750918774E+02  0.00000000000E+00 0.  1.
          1   -1    0    0  501    0  0.00000000000E+00 -0.00000000000E+00 -0.62253421307E+03  0.62253421307E+03  0.00000000000E+00 0. -1.
         25    2    1    2    0    0  0.48537228081E+02  0.76399518842E+02 -0.28033604251E+03  0.32003932773E+03  0.12507647889E+03 0.  0.
         23    2    1    2    0    0 -0.48537228081E+02 -0.76399518842E+02 -0.30944725179E+03  0.33524580412E+03  0.91866199183E+02 0.  0.
          5    1    3    3  502    0  0.17978258048E+02 -0.16954527128E+02 -0.23425300447E+01  0.25172079763E+02  0.41800000000E+01 0.  1.
         -5    1    3    3    0  502  0.30558970033E+02  0.93354045970E+02 -0.27799351247E+03  0.29486724797E+03  0.41800000000E+01 0.  1.
        -11    1    4    4    0    0 -0.98453491072E+01 -0.41017118544E+02 -0.32155242121E+02  0.53040498759E+02  0.00000000000E+00 0. -1.
         11    1    4    4    0    0 -0.38691878974E+02 -0.35382400298E+02 -0.27729200966E+03  0.28220530536E+03  0.00000000000E+00 0.  1.
</event>
<event>
 8    1  0.3708258E-009  0.9998193E+02  0.7561462E-02  0.1280334E+00
         -1   -1    0    0    0  501 -0.00000000000E+00  0.00000000000E+00  0.88250101518E+02  0.88250101518E+02  0.00000000000E+00 0.  1.
          1   -1    0    0  501    0  0.00000000000E+00 -0.00000000000E+00 -0.16515754300E+03  0.16515754300E+03  0.00000000000E+00 0. -1.
         25    2    1    2    0    0  0.13895413991E+02  0.37805396286E+02 -0.80211145206E+01  0.13166416386E+03  0.12509509682E+03 0.  0.
         23    2    1    2    0    0 -0.13895413991E+02 -0.37805396286E+02 -0.68886326959E+02  0.12174348065E+03  0.91944649226E+02 0.  0.
          5    1    3    3  502    0 -0.51990882111E+02  0.38594885504E+02  0.18231913335E+01  0.64910811399E+02  0.41800000000E+01 0.  1.
         -5    1    3    3    0  502  0.65886296103E+02 -0.78948921877E+00 -0.98443058541E+01  0.66753352463E+02  0.41800000000E+01 0.  1.
        -11    1    4    4    0    0 -0.33923151214E+02 -0.35154046674E+02  0.11351169299E+01  0.48865894817E+02  0.00000000000E+00 0.  1.
         11    1    4    4    0    0  0.20027737222E+02 -0.26513496119E+01 -0.70021443889E+02  0.72877585836E+02  0.00000000000E+00 0. -1.
</event>
<event>
 8    1  0.3708258E-009  0.1049947E+03  0.7561462E-02  0.1270130E+00
          1   -1    0    0  501    0  0.00000000000E+00  0.00000000000E+00  0.20203487819E+03  0.20203487819E+03  0.00000000000E+00 0. -1.
         -1   -1    0    0    0  501 -0.00000000000E+00 -0.00000000000E+00 -0.86943073205E+02  0.86943073205E+02  0.00000000000E+00 0.  1.
         25    2    1    2    0    0 -0.17246047244E+02  0.66060182089E+02  0.10738531012E+03  0.17843174678E+03  0.12507961315E+03 0.  0.
         23    2    1    2    0    0  0.17246047244E+02 -0.66060182089E+02  0.77064948631E+01  0.11054620461E+03  0.86600805357E+02 0.  0.
          5    1    3    3  502    0  0.20785073266E+02 -0.30902518217E+02  0.20409995083E+02  0.42673471878E+02  0.41800000000E+01 0. -1.
         -5    1    3    3    0  502 -0.38031120510E+02  0.96962700307E+02  0.86975315035E+02  0.13575827490E+03  0.41800000000E+01 0. -1.
        -11    1    4    4    0    0  0.89731701672E+01 -0.33731617573E+02 -0.39515059080E+02  0.52723616160E+02  0.00000000000E+00 0.  1.
         11    1    4    4    0    0  0.82728770765E+01 -0.32328564517E+02  0.47221553943E+02  0.57822588455E+02  0.00000000000E+00 0. -1.
</event>
<event>
 8    1  0.3708258E-009  0.2170848E+03  0.7561462E-02  0.1136075E+00
          2   -1    0    0  501    0  0.00000000000E+00  0.00000000000E+00  0.38075693340E+03  0.38075693340E+03  0.00000000000E+00 0. -1.
         -2   -1    0    0    0  501 -0.00000000000E+00 -0.00000000000E+00 -0.13381929582E+03  0.13381929582E+03  0.00000000000E+00 0.  1.
         25    2    1    2    0    0 -0.27896299849E+02 -0.19167396802E+03  0.81737608756E+02  0.24463388512E+03  0.12509031736E+03 0.  0.
         23    2    1    2    0    0  0.27896299849E+02  0.19167396802E+03  0.16520002883E+03  0.26994234411E+03  0.89781434905E+02 0.  0.
          5    1    3    3  502    0  0.41087504716E+02 -0.63420609905E+02 -0.36429171335E+01  0.75770047180E+02  0.41800000000E+01 0. -1.
         -5    1    3    3    0  502 -0.68983804565E+02 -0.12825335812E+03  0.85380525889E+02  0.16886383794E+03  0.41800000000E+01 0. -1.
        -11    1    4    4    0    0  0.54311245929E+02  0.17051064669E+03  0.13060052414E+03  0.22154026491E+03  0.00000000000E+00 0.  1.
         11    1    4    4    0    0 -0.26414946080E+02  0.21163321332E+02  0.34599504683E+02  0.48402079196E+02  0.00000000000E+00 0. -1.
</event>
<event>
 8    1  0.3708258E-009  0.4092807E+03  0.7561462E-02  0.1040613E+00
         -2   -1    0    0    0  501 -0.00000000000E+00  0.00000000000E+00  0.29499190325E+03  0.29499190325E+03  0.00000000000E+00 0.  1.
          2   -1    0    0  501    0  0.00000000000E+00 -0.00000000000E+00 -0.60361239746E+03  0.60361239746E+03  0.00000000000E+00 0. -1.
         25    2    1    2    0    0 -0.39738725521E+03 -0.77951407349E+01 -0.25302277194E+03  0.48748884677E+03  0.12508979887E+03 0.  0.
         23    2    1    2    0    0  0.39738725521E+03  0.77951407349E+01 -0.55597722280E+02  0.41111545395E+03  0.89148274958E+02 0.  0.
          5    1    3    3  502    0 -0.37237692159E+03  0.27233033177E+02 -0.22454717720E+03  0.43571219516E+03  0.41800000000E+01 0.  1.
         -5    1    3    3    0  502 -0.25010333623E+02 -0.35028173912E+02 -0.28475594735E+02  0.51776651602E+02  0.41800000000E+01 0.  1.
        -11    1    4    4    0    0  0.23892082321E+03  0.33924318561E+02 -0.48951387173E+00  0.24131775479E+03  0.00000000000E+00 0.  1.
         11    1    4    4    0    0  0.15846643200E+03 -0.26129177826E+02 -0.55108208408E+02  0.16979769916E+03  0.00000000000E+00 0. -1.
</event>
<event>
 8    1  0.3708258E-009  0.8486286E+02  0.7561462E-02  0.1315792E+00
          2   -1    0    0  501    0  0.00000000000E+00  0.00000000000E+00  0.29718229576E+03  0.29718229576E+03  0.00000000000E+00 0. -1.
         -2   -1    0    0    0  501 -0.00000000000E+00 -0.00000000000E+00 -0.78703626887E+02  0.78703626887E+02  0.00000000000E+00 0.  1.
         25    2    1    2    0    0  0.62481074194E+02 -0.27049362859E+02  0.22037650525E+03  0.26239504511E+03  0.12509917252E+03 0.  0.
         23    2    1    2    0    0 -0.62481074194E+02  0.27049362859E+02 -0.18978363833E+01  0.11349087754E+03  0.90780090535E+02 0.  0.
          5    1    3    3  502    0 -0.16267233626E+02 -0.74324054691E+01 -0.79688599069E+01  0.20020955749E+02  0.41800000000E+01 0.  1.
         -5    1    3    3    0  502  0.78748307820E+02 -0.19616957390E+02  0.22834536516E+03  0.24237408936E+03  0.41800000000E+01 0.  1.
        -11    1    4    4    0    0 -0.38267258174E+02  0.75443773812E+01  0.43525854061E+02  0.58444851355E+02  0.00000000000E+00 0. -1.
         11    1    4    4    0    0 -0.24213816020E+02  0.19504985478E+02 -0.45423690444E+02  0.55046026181E+02  0.00000000000E+00 0.  1.
</event>
<event>
 8    1  0.3708258E-009  0.8705153E+02  0.7561462E-02  0.1310153E+00
         -2   -1    0    0    0  501 -0.00000000000E+00  0.00000000000E+00  0.28100601599E+03  0.28100601599E+03  0.00000000000E+00 0.  1.
          2   -1    0    0  501    0  0.00000000000E+00 -0.00000000000E+00 -0.51853192655E+02  0.51853192655E+02  0.00000000000E+00 0. -1.
         25    2    1    2    0    0 -0.14000158896E+02  0.39985478772E+02  0.17173821615E+03  0.21664748436E+03  0.12508906679E+03 0.  0.
         23    2    1    2    0    0  0.14000158896E+02 -0.39985478772E+02  0.57414607186E+02  0.11621172429E+03  0.91727230321E+02 0.  0.
          5    1    3    3  502    0 -0.29585644180E+02 -0.70068555228E+01 -0.67068908593E+01  0.31414346258E+02  0.41800000000E+01 0.  1.
         -5    1    3    3    0  502  0.15585485283E+02  0.46992334295E+02  0.17844510701E+03  0.18523313810E+03  0.41800000000E+01 0.  1.
        -11    1    4    4    0    0  0.15433339586E+02  0.24646336859E+02  0.39644480554E+02  0.49166194990E+02  0.00000000000E+00 0.  1.
         11    1    4    4    0    0 -0.14331806894E+01 -0.64631815631E+02  0.17770126631E+02  0.67045529300E+02  0.00000000000E+00 0. -1.
</event>
<event>
 8    1  0.3708258E-009  0.1210504E+03  0.7561462E-02  0.1241374E+00
          1   -1    0    0  501    0  0.00000000000E+00  0.00000000000E+00  0.32940755152E+03  0.32940755152E+03  0.00000000000E+00 0. -1.
         -1   -1    0    0    0  501 -0.00000000000E+00 -0.00000000000E+00 -0.65539159398E+02  0.65539159398E+02  0.00000000000E+00 0.  1.
         25    2    1    2    0    0 -0.40202860622E+02  0.78992797523E+02  0.20154864004E+03  0.25323182622E+03  0.12509345084E+03 0.  0.
         23    2    1    2    0    0  0.40202860622E+02 -0.78992797523E+02  0.62319752081E+02  0.14171488470E+03  0.91341255651E+02 0.  0.
          5    1    3    3  502    0  0.28313098498E+02 -0.17692774449E+02  0.57892258623E+02  0.66960076335E+02  0.41800000000E+01 0.  1.
         -5    1    3    3    0  502 -0.68515959121E+02  0.96685571972E+02  0.14365638142E+03  0.18627174988E+03  0.41800000000E+01 0.  1.
        -11    1    4    4    0    0  0.19047336914E+02 -0.53274216541E+02 -0.14140502474E+02  0.58317210168E+02  0.00000000000E+00 0.  1.
         11    1    4    4    0    0  0.21155523709E+02 -0.25718580982E+02  0.76460254554E+02  0.83397674534E+02  0.00000000000E+00 0. -1.
</event>
<event>
 8    1  0.3708258E-009  0.1296866E+03  0.7561462E-02  0.1227921E+00
          3   -1    0    0  501    0  0.00000000000E+00  0.00000000000E+00  0.53745337557E+03  0.53745337557E+03  0.00000000000E+00 0. -1.
         -3   -1    0    0    0  501 -0.00000000000E+00 -0.00000000000E+00 -0.39537267933E+02  0.39537267933E+02  0.00000000000E+00 0.  1.
         25    2    1    2    0    0 -0.51047455675E+02 -0.69783422845E+02  0.18279707318E+03  0.23777758577E+03  0.12509133262E+03 0.  0.
         23    2    1    2    0    0  0.51047455675E+02  0.69783422845E+02  0.31511903446E+03  0.33921305774E+03  0.91049018807E+02 0.  0.
          5    1    3    3  502    0 -0.22870778021E+02  0.25469223698E+02  0.60854655404E+01  0.35017983008E+02  0.41800000000E+01 0. -1.
         -5    1    3    3    0  502 -0.28176677654E+02 -0.95252646543E+02  0.17671160764E+03  0.20275960276E+03  0.41800000000E+01 0. -1.
        -11    1    4    4    0    0 -0.96726982104E+01 -0.16995154254E+02  0.44530201611E+02  0.48634712031E+02  0.00000000000E+00 0.  1.
         11    1    4    4    0    0  0.60720153886E+02  0.86778577099E+02  0.27058883285E+03  0.29057834571E+03  0.00000000000E+00 0. -1.
</event>
<event>
 8    1  0.3708258E-009  0.1118512E+03  0.7561462E-02  0.1257180E+00
         -1   -1    0    0    0  501 -0.00000000000E+00  0.00000000000E+00  0.41470358751E+02  0.41470358751E+02  0.00000000000E+00 0.  1.
          1   -1    0    0  501    0  0.00000000000E+00 -0.00000000000E+00 -0.46030005703E+03  0.46030005703E+03  0.00000000000E+00 0. -1.
         25    2    1    2    0    0  0.81890304256E+02  0.27277812136E+02 -0.24250031751E+03  0.28618902881E+03  0.12509058818E+03 0.  0.
         23    2    1    2    0    0 -0.81890304256E+02 -0.27277812136E+02 -0.17632938077E+03  0.21558138698E+03  0.89068417074E+02 0.  0.
          5    1    3    3  502    0  0.93974627400E+01 -0.38231766793E+02 -0.13578800145E+03  0.14144198117E+03  0.41800000000E+01 0.  1.
         -5    1    3    3    0  502  0.72492841516E+02  0.65509578929E+02 -0.10671231605E+03  0.14474704764E+03  0.41800000000E+01 0.  1.
        -11    1    4    4    0    0 -0.45753341135E+02 -0.15047242270E+02 -0.17027197408E+03  0.17695291149E+03  0.00000000000E+00 0. -1.
         11    1    4    4    0    0 -0.36136963121E+02 -0.12230569866E+02 -0.60574066907E+01  0.38628475490E+02  0.00000000000E+00 0.  1.
</event>
<event>
 8    1  0.3708258E-009  0.3330274E+03  0.7561462E-02  0.1069805E+00
         -2   -1    0    0    0  501 -0.00000000000E+00  0.00000000000E+00  0.57676722380E+02  0.57676722380E+02  0.00000000000E+00 0. -1.
          2   -1    0    0  501    0  0.00000000000E+00 -0.00000000000E+00 -0.23108065452E+04  0.23108065452E+04  0.00000000000E+00 0.  1.
         25    2    1    2    0    0  0.29357376600E+03  0.12004763279E+03 -0.67420871748E+03  0.75551411516E+03  0.12508874155E+03 0.  0.
         23    2    1    2    0    0 -0.29357376600E+03 -0.12004763279E+03 -0.15789211054E+04  0.16129691524E+04  0.89892377530E+02 0.  0.
          5    1    3    3  502    0  0.14803638224E+03  0.12578153610E+03 -0.35736250520E+03  0.40676921936E+03  0.41800000000E+01 0.  1.
         -5    1    3    3    0  502  0.14553738376E+03 -0.57339033025E+01 -0.31684621227E+03  0.34874489580E+03  0.41800000000E+01 0.  1.
        -11    1    4    4    0    0 -0.16327877742E+03 -0.10673342087E+03 -0.10581863096E+04  0.10760159145E+04  0.00000000000E+00 0.  1.
         11    1    4    4    0    0 -0.13029498858E+03 -0.13314211922E+02 -0.52073479574E+03  0.53695323798E+03  0.00000000000E+00 0. -1.
</event>
<event>
 8    1  0.3708258E-009  0.1221882E+03  0.7561462E-02  0.1239530E+00
          2   -1    0    0  501    0  0.00000000000E+00  0.00000000000E+00  0.13058390572E+03  0.13058390572E+03  0.00000000000E+00 0. -1.
         -2   -1    0    0    0  501 -0.00000000000E+00 -0.00000000000E+00 -0.14979407939E+03  0.14979407939E+03  0.00000000000E+00 0.  1.
         25    2    1    2    0    0 -0.33422451800E+02 -0.80582840807E+02 -0.30203839236E+01  0.15252769003E+03  0.12507965058E+03 0.  0.
         23    2    1    2    0    0  0.33422451800E+02  0.80582840807E+02 -0.16189789743E+02  0.12785029508E+03  0.92048542323E+02 0.  0.
          5    1    3    3  502    0 -0.16720007161E+02  0.14382338590E+02  0.40772658579E+02  0.46543446266E+02  0.41800000000E+01 0.  1.
         -5    1    3    3    0  502 -0.16702444640E+02 -0.94965179397E+02 -0.43793042502E+02  0.10598424376E+03  0.41800000000E+01 0.  1.
        -11    1    4    4    0    0  0.20862407032E+02  0.10007554662E+03 -0.20505602747E+02  0.10426329556E+03  0.00000000000E+00 0.  1.
         11    1    4    4    0    0  0.12560044768E+02 -0.19492705810E+02  0.43158130047E+01  0.23586999518E+02  0.00000000000E+00 0. -1.
</event>
<event>
 8    1  0.3708258E-009  0.8408498E+02  0.7561462E-02  0.1317843E+00
         -1   -1    0    0    0  501 -0.00000000000E+00  0.00000000000E+00  0.99611667782E+02  0.99611667782E+02  0.00000000000E+00 0.  1.
          1   -1    0    0  501    0  0.00000000000E+00 -0.00000000000E+00 -0.19537170877E+03  0.19537170877E+03  0.00000000000E+00 0. -1.
         25    2    1    2    0    0 -0.17907848918E+02  0.63513460722E+02 -0.11204400513E+03  0.18044046215E+03  0.12510096142E+03 0.  0.
         23    2    1    2    0    0  0.17907848918E+02 -0.63513460722E+02  0.16283964140E+02  0.11454291441E+03  0.92196860074E+02 0.  0.
          5    1    3    3  502    0 -0.13801750718E+02  0.45084020883E+02  0.16744124558E+02  0.50208518890E+02  0.41800000000E+01 0. -1.
         -5    1    3    3    0  502 -0.41060981993E+01  0.18429439839E+02 -0.12878812969E+03  0.13023194326E+03  0.41800000000E+01 0. -1.
        -11    1    4    4    0    0  0.45704605610E+02 -0.20058572404E+02  0.33555646238E+02  0.60143484230E+02  0.00000000000E+00 0.  1.
         11    1    4    4    0    0 -0.27796756692E+02 -0.43454888318E+02 -0.17271682098E+02  0.54399430180E+02  0.00000000000E+00 0. -1.
</event>
<event>
 8    1  0.3708258E-009  0.1326050E+03  0.7561462E-02  0.1223641E+00
          1   -1    0    0  501    0  0.00000000000E+00  0.00000000000E+00  0.73418495231E+03  0.73418495231E+03  0.00000000000E+00 0. -1.
         -1   -1    0    0    0  501 -0.00000000000E+00 -0.00000000000E+00 -0.38955295101E+02  0.38955295101E+02  0.00000000000E+00 0.  1.
         25    2    1    2    0    0 -0.47945426420E+01 -0.12881694552E+03  0.34073333081E+03  0.38518050678E+03  0.12509207406E+03 0.  0.
         23    2    1    2    0    0  0.47945426420E+01  0.12881694552E+03  0.35449632640E+03  0.38795974063E+03  0.90710097693E+02 0.  0.
          5    1    3    3  502    0  0.10535152269E+02 -0.11114321298E+03  0.12303726606E+03  0.16619098792E+03  0.41800000000E+01 0. -1.
         -5    1    3    3    0  502 -0.15329694911E+02 -0.17673732537E+02  0.21769606474E+03  0.21898951886E+03  0.41800000000E+01 0. -1.
        -11    1    4    4    0    0 -0.33328560587E+01  0.90183323012E+02  0.11991306556E+03  0.15007758983E+03  0.00000000000E+00 0.  1.
         11    1    4    4    0    0  0.81273987007E+01  0.38633622506E+02  0.23458326084E+03  0.23788215079E+03  0.00000000000E+00 0. -1.
</event>
<event>
 8    1  0.3708258E-009  0.1505424E+03  0.7561462E-02  0.1199808E+00
          1   -1    0    0  501    0  0.00000000000E+00  0.00000000000E+00  0.73641124867E+02  0.73641124867E+02  0.00000000000E+00 0. -1.
         -1   -1    0    0    0  501 -0.00000000000E+00 -0.00000000000E+00 -0.52674779189E+03  0.52674779189E+03  0.00000000000E+00 0.  1.
         25    2    1    2    0    0 -0.86916713939E+01  0.13576379019E+03 -0.37710401420E+03  0.41995619813E+03  0.12509364069E+03 0.  0.
         23    2    1    2    0    0  0.86916713939E+01 -0.13576379019E+03 -0.76002652818E+02  0.18043271862E+03  0.90951695065E+02 0.  0.
          5    1    3    3  502    0 -0.91725115114E+01  0.26964005926E+02 -0.14301831587E+01  0.28822047236E+02  0.41800000000E+01 0.  1.
         -5    1    3    3    0  502  0.48084011752E+00  0.10879978427E+03 -0.37567383104E+03  0.39113415089E+03  0.41800000000E+01 0.  1.
        -11    1    4    4    0    0 -0.34012314950E+02 -0.18714354178E+02 -0.14060223351E+02  0.41288672796E+02  0.00000000000E+00 0. -1.
         11    1    4    4    0    0  0.42703986344E+02 -0.11704943602E+03 -0.61942429467E+02  0.13914404583E+03  0.00000000000E+00 0.  1.
</event>
<event>
 8    1  0.3708258E-009  0.1684425E+03  0.7561462E-02  0.1179482E+00
          1   -1    0    0  501    0  0.00000000000E+00  0.00000000000E+00  0.10124012564E+03  0.10124012564E+03  0.00000000000E+00 0. -1.
         -1   -1    0    0    0  501 -0.00000000000E+00 -0.00000000000E+00 -0.32958269907E+03  0.32958269907E+03  0.00000000000E+00 0.  1.
         25    2    1    2    0    0 -0.12593907815E+03 -0.41155531902E+02 -0.48510951064E+02  0.18856045852E+03  0.12508918791E+03 0.  0.
         23    2    1    2    0    0  0.12593907815E+03  0.41155531902E+02 -0.17983162237E+03  0.24226236619E+03  0.93793456377E+02 0.  0.
          5    1    3    3  502    0 -0.82222248164E+02  0.33038512141E+02 -0.50965651194E+02  0.10230841304E+03  0.41800000000E+01 0.  1.
         -5    1    3    3    0  502 -0.43716829987E+02 -0.74194044044E+02  0.24547001296E+01  0.86252045474E+02  0.41800000000E+01 0.  1.
        -11    1    4    4    0    0  0.11961090162E+03 -0.71349991485E+00 -0.12538620171E+03  0.17328870837E+03  0.00000000000E+00 0. -1.
         11    1    4    4    0    0  0.63281765317E+01  0.41869031817E+02 -0.54445420659E+02  0.68973657829E+02  0.00000000000E+00 0.  1.
</event>
<event>
 8    1  0.3708258E-009  0.9572450E+02  0.7561462E-02  0.1289553E+00
          3   -1    0    0  501    0  0.00000000000E+00  0.00000000000E+00  0.20264276983E+03  0.20264276983E+03  0.00000000000E+00 0. -1.
         -3   -1    0    0    0  501 -0.00000000000E+00 -0.00000000000E+00 -0.71112826729E+02  0.71112826729E+02  0.00000000000E+00 0.  1.
         25    2    1    2    0    0  0.48307457109E+02 -0.74307799759E+01  0.92095038724E+02  0.16284334540E+03  0.12509049556E+03 0.  0.
         23    2    1    2    0    0 -0.48307457109E+02  0.74307799759E+01  0.39434904378E+02  0.11091225116E+03  0.91419849435E+02 0.  0.
          5    1    3    3  502    0 -0.12344979582E+02  0.24340212008E+02 -0.18119612026E+02  0.33024796463E+02  0.41800000000E+01 0. -1.
         -5    1    3    3    0  502  0.60652436691E+02 -0.31770991984E+02  0.11021465075E+03  0.12981854894E+03  0.41800000000E+01 0. -1.
        -11    1    4    4    0    0 -0.62310414993E+02  0.29628747340E+02  0.47136279593E+02  0.83560034343E+02  0.00000000000E+00 0.  1.
         11    1    4    4    0    0  0.14002957884E+02 -0.22197967364E+02 -0.77013752145E+01  0.27352216817E+02  0.00000000000E+00 0. -1.
</event>
<event>
 8    1  0.3708258E-009  0.7476317E+02  0.7561462E-02  0.1344606E+00
          2   -1    0    0  501    0  0.00000000000E+00  0.00000000000E+00  0.25882841188E+03  0.25882841188E+03  0.00000000000E+00 0. -1.
         -2   -1    0    0    0  501 -0.00000000000E+00 -0.00000000000E+00 -0.47512962320E+02  0.47512962320E+02  0.00000000000E+00 0.  1.
         25    2    1    2    0    0  0.22319014109E+02  0.14273038604E+02  0.10945793218E+03  0.16831167501E+03  0.12508366402E+03 0.  0.
         23    2    1    2    0    0 -0.22319014109E+02 -0.14273038604E+02  0.10185751738E+03  0.13802969919E+03  0.89305016599E+02 0.  0.
          5    1    3    3  502    0  0.50181764260E+02  0.31712934662E+02  0.61579169367E+01  0.59827351856E+02  0.41800000000E+01 0. -1.
         -5    1    3    3    0  502 -0.27862750151E+02 -0.17439896057E+02  0.10330001524E+03  0.10848432315E+03  0.41800000000E+01 0. -1.
        -11    1    4    4    0    0 -0.14348136077E+02 -0.33295989973E+02  0.11002601258E+03  0.11584565336E+03  0.00000000000E+00 0. -1.
         11    1    4    4    0    0 -0.79708780325E+01  0.19022951369E+02 -0.81684952064E+01  0.22184045829E+02  0.00000000000E+00 0.  1.
</event>
<event>
 8    1  0.3708258E-009  0.1520462E+03  0.7561462E-02  0.1197981E+00
          1   -1    0    0  501    0  0.00000000000E+00  0.00000000000E+00  0.67570537832E+03  0.67570537832E+03  0.00000000000E+00 0. -1.
         -1   -1    0    0    0  501 -0.00000000000E+00 -0.00000000000E+00 -0.36918027814E+02  0.36918027814E+02  0.00000000000E+00 0.  1.
         25    2    1    2    0    0 -0.40886793811E+02  0.10180514651E+03  0.26888884060E+03  0.31620562036E+03  0.12509503582E+03 0.  0.
         23    2    1    2    0    0  0.40886793811E+02 -0.10180514651E+03  0.36989850991E+03  0.39641778578E+03  0.91028212539E+02 0.  0.
          5    1    3    3  502    0  0.53493437180E+01  0.11366511266E+03  0.22017026379E+03  0.24787252928E+03  0.41800000000E+01 0.  1.
         -5    1    3    3    0  502 -0.46236137529E+02 -0.11859966149E+02  0.48718576811E+02  0.68333091085E+02  0.41800000000E+01 0.  1.
        -11    1    4    4    0    0 -0.10178502081E+02 -0.89109894826E+02  0.22170338644E+03  0.23915803733E+03  0.00000000000E+00 0. -1.
         11    1    4    4    0    0  0.51065295892E+02 -0.12695251688E+02  0.14819512347E+03  0.15725974844E+03  0.00000000000E+00 0.  1.
</event>
<event>
 8    1  0.3708258E-009  0.1306104E+03  0.7561462E-02  0.1226553E+00
         -2   -1    0    0    0  501 -0.00000000000E+00  0.00000000000E+00  0.38948404158E+03  0.38948404158E+03  0.00000000000E+00 0.  1.
          2   -1    0    0  501    0  0.00000000000E+00 -0.00000000000E+00 -0.13549183779E+03  0.13549183779E+03  0.00000000000E+00 0. -1.
         25    2    1    2    0    0  0.12116887192E+02 -0.12247546894E+03 -0.52036127296E+02  0.18303618533E+03  0.12508967642E+03 0.  0.
         23    2    1    2    0    0 -0.12116887192E+02  0.12247546894E+03  0.30602833108E+03  0.34193969404E+03  0.90124111584E+02 0.  0.
          5    1    3    3  502    0 -0.69022773811E+01 -0.24918299592E+02  0.39800519077E+02  0.47645742794E+02  0.41800000000E+01 0.  1.
         -5    1    3    3    0  502  0.19019164573E+02 -0.97557169350E+02 -0.91836646373E+02  0.13539044254E+03  0.41800000000E+01 0.  1.
        -11    1    4    4    0    0  0.16055585357E+02  0.94463723850E+02  0.27594175818E+03  0.29210448619E+03  0.00000000000E+00 0.  1.
         11    1    4    4    0    0 -0.28172472549E+02  0.28011745092E+02  0.30086572901E+02  0.49835207851E+02  0.00000000000E+00 0. -1.
</event>
<event>
 8    1  0.3708258E-009  0.9921189E+02  0.7561462E-02  0.1281962E+00
          1   -1    0    0  501    0  0.00000000000E+00  0.00000000000E+00  0.13888068035E+03  0.13888068035E+03  0.00000000000E+00 0. -1.
         -1   -1    0    0    0  501 -0.00000000000E+00 -0.00000000000E+00 -0.11022234894E+03  0.11022234894E+03  0.00000000000E+00 0.  1.
         25    2    1    2    0    0 -0.46963526913E+02  0.30434456444E+02 -0.51399354280E+01  0.13713018583E+03  0.12508573033E+03 0.  0.
         23    2    1    2    0    0  0.46963526913E+02 -0.30434456444E+02  0.33798266841E+02  0.11197284345E+03  0.90905257441E+02 0.  0.
          5    1    3    3  502    0 -0.77097540126E+02  0.28152179110E+02 -0.39498255456E+02  0.91182018327E+02  0.41800000000E+01 0.  1.
         -5    1    3    3    0  502  0.30134013212E+02  0.22822773340E+01  0.34358320028E+02  0.45948167507E+02  0.41800000000E+01 0.  1.
        -11    1    4    4    0    0  0.18991810522E+02  0.20299601542E+02 -0.18933433976E+02  0.33633875956E+02  0.00000000000E+00 0.  1.
         11    1    4    4    0    0  0.27971716391E+02 -0.50734057986E+02  0.52731700817E+02  0.78338967498E+02  0.00000000000E+00 0. -1.
</event>
<event>
 8    1  0.3708258E-009  0.1031805E+03  0.7561462E-02  0.1273746E+00
         -1   -1    0    0    0  501 -0.00000000000E+00  0.00000000000E+00  0.83665963047E+02  0.83665963047E+02  0.00000000000E+00 0.  1.
          1   -1    0    0  501    0  0.00000000000E+00 -0.00000000000E+00 -0.18445629661E+03  0.18445629661E+03  0.00000000000E+00 0. -1.
         25    2    1    2    0    0  0.30846159414E+02  0.50497112299E+02 -0.66072493162E+02  0.15334512750E+03  0.12509080651E+03 0.  0.
         23    2    1    2    0    0 -0.30846159414E+02 -0.50497112299E+02 -0.34717840397E+02  0.11477713216E+03  0.92016399207E+02 0.  0.
          5    1    3    3  502    0  0.44748007353E+02 -0.28013998580E+02 -0.48019156065E+02  0.71487621500E+02  0.41800000000E+01 0. -1.
         -5    1    3    3    0  502 -0.13901847939E+02  0.78511110879E+02 -0.18053337097E+02  0.81857505996E+02  0.41800000000E+01 0. -1.
        -11    1    4    4    0    0 -0.41663804313E+02 -0.33727072227E+02  0.19470710026E+02  0.57030663154E+02  0.00000000000E+00 0.  1.
         11    1    4    4    0    0  0.10817644900E+02 -0.16770040072E+02 -0.54188550424E+02  0.57746469002E+02  0.00000000000E+00 0. -1.
</event>
<event>
 8    1  0.3708258E-009  0.1422946E+03  0.7561462E-02  0.1210274E+00
          2   -1    0    0  501    0  0.00000000000E+00  0.00000000000E+00  0.89412222519E+03  0.89412222519E+03  0.00000000000E+00 0. -1.
         -2   -1    0    0    0  501 -0.00000000000E+00 -0.00000000000E+00 -0.27274022391E+02  0.27274022391E+02  0.00000000000E+00 0.  1.
         25    2    1    2    0    0  0.91980217931E+02 -0.17792096976E+02  0.63101487747E+03  0.65008011026E+03  0.12508978756E+03 0.  0.
         23    2    1    2    0    0 -0.91980217931E+02  0.17792096976E+02  0.23583332533E+03  0.27131613733E+03  0.96011300552E+02 0.  0.
          5    1    3    3  502    0  0.17564737611E+02 -0.61462389384E+02  0.35923914276E+03  0.36490598708E+03  0.41800000000E+01 0. -1.
         -5    1    3    3    0  502  0.74415480321E+02  0.43670292408E+02  0.27177573471E+03  0.28517412318E+03  0.41800000000E+01 0. -1.
        -11    1    4    4    0    0 -0.76598680410E+02  0.54724007751E+02  0.16527946971E+03  0.19020877470E+03  0.00000000000E+00 0.  1.
         11    1    4    4    0    0 -0.15381537522E+02 -0.36931910775E+02  0.70553855613E+02  0.81107362624E+02  0.00000000000E+00 0. -1.
</event>
<event>
 8    1  0.3708258E-009  0.1248891E+03  0.7561462E-02  0.1235243E+00
         -3   -1    0    0    0  501 -0.00000000000E+00  0.00000000000E+00  0.25224843597E+03  0.25224843597E+03  0.00000000000E+00 0.  1.
          3   -1    0    0  501    0  0.00000000000E+00 -0.00000000000E+00 -0.73202317703E+02  0.73202317703E+02  0.00000000000E+00 0. -1.
         25    2    1    2    0    0 -0.20011059660E+02 -0.76830748091E+02  0.13946043463E+03  0.20347143249E+03  0.12509198475E+03 0.  0.
         23    2    1    2    0    0  0.20011059660E+02  0.76830748091E+02  0.39585683631E+02  0.12197932118E+03  0.83716916372E+02 0.  0.
          5    1    3    3  502    0 -0.30931080385E+02  0.19895834193E+02  0.48939793785E+01  0.37336301185E+02  0.41800000000E+01 0. -1.
         -5    1    3    3    0  502  0.10920020725E+02 -0.96726582284E+02  0.13456645526E+03  0.16613513130E+03  0.41800000000E+01 0. -1.
        -11    1    4    4    0    0  0.57761392371E+00  0.91176475516E+02  0.32659236948E+02  0.96850963255E+02  0.00000000000E+00 0.  1.
         11    1    4    4    0    0  0.19433445737E+02 -0.14345727425E+02  0.69264466830E+01  0.25128357929E+02  0.00000000000E+00 0. -1.
</event>
<event>
 8    1  0.3708258E-009  0.5830293E+02  0.7561462E-02  0.1405095E+00
          2   -1    0    0  501    0  0.00000000000E+00  0.00000000000E+00  0.14897376262E+03  0.14897376262E+03  0.00000000000E+00 0. -1.
         -2   -1    0    0    0  501 -0.00000000000E+00 -0.00000000000E+00 -0.81607851207E+02  0.81607851207E+02  0.00000000000E+00 0.  1.
         25    2    1    2    0    0  0.13794057268E+02 -0.70792823473E+01  0.16005623503E+02  0.12705894993E+03  0.12508958597E+03 0.  0.
         23    2    1    2    0    0 -0.13794057268E+02  0.70792823473E+01  0.51360287909E+02  0.10352266390E+03  0.88536266649E+02 0.  0.
          5    1    3    3  502    0  0.18652888288E+02 -0.66839823121E+00  0.69868092763E+02  0.72438938313E+02  0.41800000000E+01 0. -1.
         -5    1    3    3    0  502 -0.48588310198E+01 -0.64108841161E+01 -0.53862469260E+02  0.54620011614E+02  0.41800000000E+01 0. -1.
        -11    1    4    4    0    0 -0.29591617725E+02  0.41250711105E+02  0.38591405084E+02  0.63769754215E+02  0.00000000000E+00 0. -1.
         11    1    4    4    0    0  0.15797560457E+02 -0.34171428758E+02  0.12768882825E+02  0.39752909684E+02  0.00000000000E+00 0.  1.
</event>
<event>
 8    1  0.3708258E-009  0.8719587E+02  0.7561462E-02  0.1309788E+00
          1   -1    0    0  501    0  0.00000000000E+00  0.00000000000E+00  0.74300889177E+02  0.74300889177E+02  0.00000000000E+00 0. -1.
         -1   -1    0    0    0  501 -0.00000000000E+00 -0.00000000000E+00 -0.23033175323E+03  0.23033175323E+03  0.00000000000E+00 0.  1.
         25    2    1    2    0    0 -0.16207807929E+02 -0.18860350304E+01 -0.39362503293E+01  0.12621266313E+03  0.12509153489E+03 0.  0.
         23    2    1    2    0    0  0.16207807929E+02  0.18860350304E+01 -0.15209461373E+03  0.17841997928E+03  0.91840444887E+02 0.  0.
          5    1    3    3  502    0  0.21277155098E+02  0.44108700870E+02 -0.33803991077E+02  0.59652971713E+02  0.41800000000E+01 0. -1.
         -5    1    3    3    0  502 -0.37484963027E+02 -0.45994735900E+02  0.29867740747E+02  0.66559691413E+02  0.41800000000E+01 0. -1.
        -11    1    4    4    0    0 -0.24584896951E+02 -0.25936158501E+01 -0.12896440316E+03  0.13131245670E+03  0.00000000000E+00 0.  1.
         11    1    4    4    0    0  0.40792704880E+02  0.44796508805E+01 -0.23130210567E+02  0.47107522587E+02  0.00000000000E+00 0. -1.
</event>
<event>
 8    1  0.3708258E-009  0.1094994E+03  0.7561462E-02  0.1261500E+00
         -2   -1    0    0    0  501 -0.00000000000E+00  0.00000000000E+00  0.45830218470E+02  0.45830218470E+02  0.00000000000E+00 0.  1.
          2   -1    0    0  501    0  0.00000000000E+00 -0.00000000000E+00 -0.44603379774E+03  0.44603379774E+03  0.00000000000E+00 0. -1.
         25    2    1    2    0    0  0.13566457040E+02 -0.31632346469E+02 -0.69909497107E+02  0.14737222648E+03  0.12508629522E+03 0.  0.
         23    2    1    2    0    0 -0.13566457040E+02  0.31632346469E+02 -0.33029408216E+03  0.34449178973E+03  0.91628371049E+02 0.  0.
          5    1    3    3  502    0 -0.44488645776E+02  0.16687025318E+02 -0.54934916429E+01  0.48014031985E+02  0.41800000000E+01 0. -1.
         -5    1    3    3    0  502  0.58055102817E+02 -0.48319371788E+02 -0.64416005464E+02  0.99358194493E+02  0.41800000000E+01 0. -1.
        -11    1    4    4    0    0 -0.48897254086E+02  0.35041992683E+02 -0.17045249943E+03  0.18075656909E+03  0.00000000000E+00 0.  1.
         11    1    4    4    0    0  0.35330797045E+02 -0.34096462140E+01 -0.15984158273E+03  0.16373522064E+03  0.00000000000E+00 0. -1.
</event>
<event>
 8    1  0.3708258E-009  0.1282218E+03  0.7561462E-02  0.1230118E+00
          3   -1    0    0  501    0  0.00000000000E+00  0.00000000000E+00  0.10366457564E+03  0.10366457564E+03  0.00000000000E+00 0. -1.
         -3   -1    0    0    0  501 -0.00000000000E+00 -0.00000000000E+00 -0.21243726138E+03  0.21243726138E+03  0.00000000000E+00 0.  1.
         25    2    1    2    0    0  0.71553963944E+02 -0.10530416601E+02 -0.13417488397E+03  0.19718382607E+03  0.12509077641E+03 0.  0.
         23    2    1    2    0    0 -0.71553963944E+02  0.10530416601E+02  0.25402198235E+02  0.11891801096E+03  0.90914037564E+02 0.  0.
          5    1    3    3  502    0  0.48706491970E+02 -0.65152278028E+02 -0.55219235307E+02  0.98406189033E+02  0.41800000000E+01 0.  1.
         -5    1    3    3    0  502  0.22847471974E+02  0.54621861427E+02 -0.78955648666E+02  0.98777637032E+02  0.41800000000E+01 0.  1.
        -11    1    4    4    0    0 -0.60062802261E+02 -0.34428900819E+02  0.20789050224E+02  0.72284673592E+02  0.00000000000E+00 0.  1.
         11    1    4    4    0    0 -0.11491161683E+02  0.44959317420E+02  0.46131480112E+01  0.46633337370E+02  0.00000000000E+00 0. -1.
</event>
<event>
 8    1  0.3708258E-009  0.9626540E+02  0.7561462E-02  0.1288351E+00
          2   -1    0    0  501    0  0.00000000000E+00  0.00000000000E+00  0.43418168036E+03  0.43418168036E+03  0.00000000000E+00 0. -1.
         -2   -1    0    0    0  501 -0.00000000000E+00 -0.00000000000E+00 -0.38605769312E+02  0.38605769312E+02  0.00000000000E+00 0.  1.
         25    2    1    2    0    0 -0.34114779388E+02  0.54893291551E+02  0.17574591832E+03  0.22519145358E+03  0.12508985303E+03 0.  0.
         23    2    1    2    0    0  0.34114779388E+02 -0.54893291551E+02  0.21982999273E+03  0.24759599609E+03  0.93816096415E+02 0.  0.
          5    1    3    3  502    0 -0.65681912383E+00 -0.73301914046E+01 -0.17475298386E+02  0.19417043314E+02  0.41800000000E+01 0. -1.
         -5    1    3    3    0  502 -0.33457960264E+02  0.62223482956E+02  0.19322121671E+03  0.20577441027E+03  0.41800000000E+01 0. -1.
        -11    1    4    4    0    0 -0.30288789520E+02 -0.34119516611E+02  0.76021803095E+02  0.88661529032E+02  0.00000000000E+00 0.  1.
         11    1    4    4    0    0  0.64403568908E+02 -0.20773774940E+02  0.14380818963E+03  0.15893446706E+03  0.00000000000E+00 0. -1.
</event>
<event>
 8    1  0.3708258E-009  0.8809608E+02  0.7561462E-02  0.1307529E+00
         -2   -1    0    0    0  501 -0.00000000000E+00  0.00000000000E+00  0.55722118910E+02  0.55722118910E+02  0.00000000000E+00 0.  1.
          2   -1    0    0  501    0  0.00000000000E+00 -0.00000000000E+00 -0.29785460300E+03  0.29785460300E+03  0.00000000000E+00 0. -1.
         25    2    1    2    0    0 -0.35825361449E+02  0.30044988172E+02 -0.20250049197E+03  0.24257079614E+03  0.12509190245E+03 0.  0.
         23    2    1    2    0    0  0.35825361449E+02 -0.30044988172E+02 -0.39631992127E+02  0.11100592577E+03  0.92549786162E+02 0.  0.
          5    1    3    3  502    0  0.17973952768E+02  0.25129671160E+02 -0.18197840607E+03  0.18462983515E+03  0.41800000000E+01 0.  1.
         -5    1    3    3    0  502 -0.53799314217E+02  0.49153170116E+01 -0.20522085894E+02  0.57940960994E+02  0.41800000000E+01 0.  1.
        -11    1    4    4    0    0  0.32042582370E+02  0.21858828722E+02  0.89553299814E+01  0.39808710267E+02  0.00000000000E+00 0.  1.
         11    1    4    4    0    0  0.37827790792E+01 -0.51903816893E+02 -0.48587322108E+02  0.71197215502E+02  0.00000000000E+00 0. -1.
</event>
<event>
 8    1  0.3708258E-009  0.9790976E+02  0.7561462E-02  0.1284754E+00
          2   -1    0    0  501    0  0.00000000000E+00  0.00000000000E+00  0.94581569396E+03  0.94581569396E+03  0.00000000000E+00 0. -1.
         -2   -1    0    0    0  501 -0.00000000000E+00 -0.00000000000E+00 -0.17875216728E+02  0.17875216728E+02  0.00000000000E+00 0.  1.
         25    2    1    2    0    0 -0.65057047963E+02  0.51405421872E+00  0.61794212841E+03  0.63382126337E+03  0.12507692071E+03 0.  0.
         23    2    1    2    0    0  0.65057047963E+02 -0.51405421872E+00  0.30999834883E+03  0.32986964732E+03  0.92099534240E+02 0.  0.
          5    1    3    3  502    0 -0.58573403019E+02  0.47357794021E+02  0.21025281551E+03  0.22337708707E+03  0.41800000000E+01 0.  1.
         -5    1    3    3    0  502 -0.64836449448E+01 -0.46843739803E+02  0.40768931289E+03  0.41044417630E+03  0.41800000000E+01 0.  1.
        -11    1    4    4    0    0  0.12709117731E+02 -0.13939521363E+02  0.41904841634E+01  0.19323355993E+02  0.00000000000E+00 0.  1.
         11    1    4    4    0    0  0.52347930232E+02  0.13425467144E+02  0.30580786466E+03  0.31054629133E+03  0.00000000000E+00 0. -1.
</event>
<event>
 8    1  0.3708258E-009  0.1005317E+03  0.7561462E-02  0.1279182E+00
         -3   -1    0    0    0  501 -0.00000000000E+00  0.00000000000E+00  0.53408305387E+02  0.53408305387E+02  0.00000000000E+00 0.  1.
          3   -1    0    0  501    0  0.00000000000E+00 -0.00000000000E+00 -0.23567934805E+03  0.23567934805E+03  0.00000000000E+00 0. -1.
         25    2    1    2    0    0  0.99633682095E+01 -0.16224686995E+02 -0.13086174295E+03  0.18202931672E+03  0.12508943682E+03 0.  0.
         23    2    1    2    0    0 -0.99633682095E+01  0.16224686995E+02 -0.51409299709E+02  0.10705833671E+03  0.91956849605E+02 0.  0.
          5    1    3    3  502    0 -0.30338334062E+02 -0.47957712627E+02 -0.11477909036E+03  0.12810959643E+03  0.41800000000E+01 0.  1.
         -5    1    3    3    0  502  0.40301702271E+02  0.31733025632E+02 -0.16082652592E+02  0.53919720289E+02  0.41800000000E+01 0.  1.
        -11    1    4    4    0    0  0.29840289938E+02  0.37211558093E+02 -0.17868269253E+02  0.50935429765E+02  0.00000000000E+00 0.  1.
         11    1    4    4    0    0 -0.39803658147E+02 -0.20986871098E+02 -0.33541030456E+02  0.56122906949E+02  0.00000000000E+00 0. -1.
</event>
<event>
 8    1  0.3708258E-009  0.9233288E+02  0.7561462E-02  0.1297299E+00
          2   -1    0    0  501    0  0.00000000000E+00  0.00000000000E+00  0.49520583072E+03  0.49520583072E+03  0.00000000000E+00 0. -1.
         -2   -1    0    0    0  501 -0.00000000000E+00 -0.00000000000E+00 -0.29118513192E+02  0.29118513192E+02  0.00000000000E+00 0.  1.
         25    2    1    2    0    0  0.16522046192E+02  0.47388309958E+02  0.26950225417E+03  0.30132695974E+03  0.12509133356E+03 0.  0.
         23    2    1    2    0    0 -0.16522046192E+02 -0.47388309958E+02  0.19658506336E+03  0.22299738418E+03  0.92539268864E+02 0.  0.
          5    1    3    3  502    0  0.38470420849E+02  0.57823402444E+02  0.64589474122E+02  0.94935724139E+02  0.41800000000E+01 0. -1.
         -5    1    3    3    0  502 -0.21948374657E+02 -0.10435092486E+02  0.20491278005E+03  0.20639123560E+03  0.41800000000E+01 0. -1.
        -11    1    4    4    0    0  0.17175095151E+02  0.12820118991E+02  0.11106785966E+03  0.11311679272E+03  0.00000000000E+00 0. -1.
         11    1    4    4    0    0 -0.33697141343E+02 -0.60208428949E+02  0.85517203698E+02  0.10988059146E+03  0.00000000000E+00 0.  1.
</event>
<event>
 8    1  0.3708258E-009  0.1639153E+03  0.7561462E-02  0.1184346E+00
          1   -1    0    0  501    0  0.00000000000E+00  0.00000000000E+00  0.59137262605E+03  0.59137262605E+03  0.00000000000E+00 0. -1.
         -1   -1    0    0    0  501 -0.00000000000E+00 -0.00000000000E+00 -0.55635186722E+02  0.55635186722E+02  0.00000000000E+00 0.  1.
         25    2    1    2    0    0 -0.14667011488E+02  0.13996496043E+03  0.33900776402E+03  0.38778744215E+03  0.12509006693E+03 0.  0.
         23    2    1    2    0    0  0.14667011488E+02 -0.13996496043E+03  0.19672967530E+03  0.25922037062E+03  0.93205815407E+02 0.  0.
          5    1    3    3  502    0  0.64299030429E+01  0.15844624519E+03  0.30239752521E+03  0.34147956296E+03  0.41800000000E+01 0. -1.
         -5    1    3    3    0  502 -0.21096914531E+02 -0.18481284752E+02  0.36610238809E+02  0.46307879183E+02  0.41800000000E+01 0. -1.
        -11    1    4    4    0    0  0.49821229354E+01 -0.74274949608E+02  0.30916988674E+02  0.80606760739E+02  0.00000000000E+00 0.  1.
         11    1    4    4    0    0  0.96848885523E+01 -0.65690010827E+02  0.16581268663E+03  0.17861360988E+03  0.00000000000E+00 0. -1.
</event>
<event>
 8    1  0.3708258E-009  0.1118391E+03  0.7561462E-02  0.1257202E+00
          1   -1    0    0  501    0  0.00000000000E+00  0.00000000000E+00  0.48860426432E+02  0.48860426432E+02  0.00000000000E+00 0. -1.
         -1   -1    0    0    0  501 -0.00000000000E+00 -0.00000000000E+00 -0.56625197602E+03  0.56625197602E+03  0.00000000000E+00 0.  1.
         25    2    1    2    0    0 -0.46725573683E+02  0.17870363561E+02 -0.62321966354E+02  0.14843819828E+03  0.12508893672E+03 0.  0.
         23    2    1    2    0    0  0.46725573683E+02 -0.17870363561E+02 -0.45506958323E+03  0.46667420417E+03  0.90519932175E+02 0.  0.
          5    1    3    3  502    0  0.17199900162E+02  0.52614828782E+02 -0.49631365056E+02  0.74464095849E+02  0.41800000000E+01 0.  1.
         -5    1    3    3    0  502 -0.63925473845E+02 -0.34744465221E+02 -0.12690601298E+02  0.73974102435E+02  0.41800000000E+01 0.  1.
        -11    1    4    4    0    0 -0.23210769813E+02 -0.45023047149E+00 -0.48548998914E+02  0.53814011543E+02  0.00000000000E+00 0. -1.
         11    1    4    4    0    0  0.69936343496E+02 -0.17420133090E+02 -0.40652058432E+03  0.41286019262E+03  0.00000000000E+00 0.  1.
</event>
<event>
 8    1  0.3708258E-009  0.3607698E+03  0.7561462E-02  0.1058279E+00
          2   -1    0    0  501    0  0.00000000000E+00  0.00000000000E+00  0.14860987679E+04  0.14860987679E+04  0.00000000000E+00 0. -1.
         -2   -1    0    0    0  501 -0.00000000000E+00 -0.00000000000E+00 -0.93285025561E+02  0.93285025561E+02  0.00000000000E+00 0.  1.
         25    2    1    2    0    0 -0.93258887856E+02  0.33443182550E+03  0.54215109622E+03  0.65583300799E+03  0.12508899696E+03 0.  0.
         23    2    1    2    0    0  0.93258887856E+02 -0.33443182550E+03  0.85066264613E+03  0.92355078549E+03  0.93686977675E+02 0.  0.
          5    1    3    3  502    0 -0.39972469257E+02  0.30548764257E+03  0.44612760652E+03  0.54218798563E+03  0.41800000000E+01 0.  1.
         -5    1    3    3    0  502 -0.53286418599E+02  0.28944182931E+02  0.96023489701E+02  0.11364502236E+03  0.41800000000E+01 0.  1.
        -11    1    4    4    0    0 -0.47348686683E+00 -0.10220222547E+03  0.17095663146E+03  0.19917753116E+03  0.00000000000E+00 0.  1.
         11    1    4    4    0    0  0.93732374723E+02 -0.23222960003E+03  0.67970601468E+03  0.72437325433E+03  0.00000000000E+00 0. -1.
</event>
<event>
 8    1  0.3708258E-009  0.1093983E+03  0.7561462E-02  0.1261688E+00
          2   -1    0    0  501    0  0.00000000000E+00  0.00000000000E+00  0.59888171622E+03  0.59888171622E+03  0.00000000000E+00 0.  1.
         -2   -1    0    0    0  501 -0.00000000000E+00 -0.00000000000E+00 -0.22985469580E+02  0.22985469580E+02  0.00000000000E+00 0. -1.
         25    2    1    2    0    0 -0.66935476307E+01 -0.26086375530E+02  0.41815381739E+03  0.43728757297E+03  0.12506999606E+03 0.  0.
         23    2    1    2    0    0  0.66935476307E+01  0.26086375530E+02  0.15774242925E+03  0.18457961282E+03  0.91987264968E+02 0.  0.
          5    1    3    3  502    0 -0.27935829966E+02  0.43648705291E+02  0.22136963235E+03  0.22739306629E+03  0.41800000000E+01 0.  1.
         -5    1    3    3    0  502  0.21242282335E+02 -0.69735080820E+02  0.19678418504E+03  0.20989450668E+03  0.41800000000E+01 0.  1.
        -11    1    4    4    0    0  0.16232917428E+01  0.59735684794E+02  0.81246904310E+02  0.10085656436E+03  0.00000000000E+00 0.  1.
         11    1    4    4    0    0  0.50702558879E+01 -0.33649309264E+02  0.76495524941E+02  0.83723048467E+02  0.00000000000E+00 0. -1.
</event>
<event>
 8    1  0.3708258E-009  0.1379887E+03  0.7561462E-02  0.1216061E+00
         -2   -1    0    0    0  501 -0.00000000000E+00  0.00000000000E+00  0.37364921348E+03  0.37364921348E+03  0.00000000000E+00 0.  1.
          2   -1    0    0  501    0  0.00000000000E+00 -0.00000000000E+00 -0.83990711694E+02  0.83990711694E+02  0.00000000000E+00 0. -1.
         25    2    1    2    0    0  0.10371154170E+03  0.52024980303E+02  0.55263839095E+02  0.17934429148E+03  0.12509036940E+03 0.  0.
         23    2    1    2    0    0 -0.10371154170E+03 -0.52024980303E+02  0.23439466269E+03  0.27829563370E+03  0.95104781063E+02 0.  0.
          5    1    3    3  502    0  0.11965413284E+01 -0.13568542435E+02 -0.28279642964E+02  0.31666191137E+02  0.41800000000E+01 0.  1.
         -5    1    3    3    0  502  0.10251500037E+03  0.65593522738E+02  0.83543482059E+02  0.14767810034E+03  0.41800000000E+01 0.  1.
        -11    1    4    4    0    0 -0.89094033247E+02 -0.33781784398E+01  0.19361150791E+03  0.21315387598E+03  0.00000000000E+00 0.  1.
         11    1    4    4    0    0 -0.14617508449E+02 -0.48646801863E+02  0.40783154780E+02  0.65141757718E+02  0.00000000000E+00 0. -1.
</event>
<event>
 8    1  0.3708258E-009  0.1101470E+03  0.7561462E-02  0.1260298E+00
          2   -1    0    0  501    0  0.00000000000E+00  0.00000000000E+00  0.65643211227E+03  0.65643211227E+03  0.00000000000E+00 0. -1.
         -2   -1    0    0    0  501 -0.00000000000E+00 -0.00000000000E+00 -0.22791395498E+02  0.22791395498E+02  0.00000000000E+00 0.  1.
         25    2    1    2    0    0 -0.46813618168E+02 -0.34417116225E+02  0.38001810315E+03  0.40427415396E+03  0.12509108724E+03 0.  0.
         23    2    1    2    0    0  0.46813618168E+02  0.34417116225E+02  0.25362261363E+03  0.27494935381E+03  0.88863177311E+02 0.  0.
          5    1    3    3  502    0 -0.41370577432E+02  0.41919650859E+02  0.13018892449E+03  0.14295247555E+03  0.41800000000E+01 0.  1.
         -5    1    3    3    0  502 -0.54430407356E+01 -0.76336767083E+02  0.24982917865E+03  0.26132167841E+03  0.41800000000E+01 0.  1.
        -11    1    4    4    0    0  0.22617085990E+02 -0.16657046283E+02  0.19730613050E+02  0.34326183313E+02  0.00000000000E+00 0.  1.
         11    1    4    4    0    0  0.24196532178E+02  0.51074162508E+02  0.23389200058E+03  0.24062317050E+03  0.00000000000E+00 0. -1.
</event>
<event>
 8    1  0.3708258E-009  0.1237528E+03  0.7561462E-02  0.1237031E+00
          3   -1    0    0  501    0  0.00000000000E+00  0.00000000000E+00  0.56838801484E+02  0.56838801484E+02  0.00000000000E+00 0. -1.
         -3   -1    0    0    0  501 -0.00000000000E+00 -0.00000000000E+00 -0.36233645995E+03  0.36233645995E+03  0.00000000000E+00 0.  1.
         25    2    1    2    0    0 -0.70628582292E+02  0.59033797829E+02 -0.13083094317E+03  0.20307040712E+03  0.12508984225E+03 0.  0.
         23    2    1    2    0    0  0.70628582292E+02 -0.59033797829E+02 -0.17466671530E+03  0.21610485432E+03  0.87860461551E+02 0.  0.
          5    1    3    3  502    0  0.20865289605E+02  0.34769480183E+02 -0.92086570854E+02  0.10070593823E+03  0.41800000000E+01 0. -1.
         -5    1    3    3    0  502 -0.91493871897E+02  0.24264317646E+02 -0.38744372315E+02  0.10236446889E+03  0.41800000000E+01 0. -1.
        -11    1    4    4    0    0  0.19932714332E+02 -0.57952604886E+02 -0.42595186454E+02  0.74633554268E+02  0.00000000000E+00 0. -1.
         11    1    4    4    0    0  0.50695867960E+02 -0.10811929431E+01 -0.13207152885E+03  0.14147130005E+03  0.00000000000E+00 0.  1.
</event>
<event>
 8    1  0.3708258E-009  0.2471166E+03  0.7561462E-02  0.1115141E+00
         -2   -1    0    0    0  501 -0.00000000000E+00  0.00000000000E+00  0.81218733366E+02  0.81218733366E+02  0.00000000000E+00 0.  1.
          2   -1    0    0  501    0  0.00000000000E+00 -0.00000000000E+00 -0.78651390753E+03  0.78651390753E+03  0.00000000000E+00 0. -1.
         25    2    1    2    0    0  0.17225622890E+03 -0.14538401139E+03 -0.35171569986E+03  0.43607250767E+03  0.12508628724E+03 0.  0.
         23    2    1    2    0    0 -0.17225622890E+03  0.14538401139E+03 -0.35357947430E+03  0.43166013323E+03  0.10248564197E+03 0.  0.
          5    1    3    3  502    0  0.17183470656E+03 -0.15859059967E+03 -0.28865459003E+03  0.37150651330E+03  0.41800000000E+01 0.  1.
         -5    1    3    3    0  502  0.42152233566E+00  0.13206588282E+02 -0.63061109838E+02  0.64565994371E+02  0.41800000000E+01 0.  1.
        -11    1    4    4    0    0 -0.12126868810E+03  0.15269769484E+03 -0.29540624686E+03  0.35395978784E+03  0.00000000000E+00 0.  1.
         11    1    4    4    0    0 -0.50987540797E+02 -0.73136834569E+01 -0.58173227443E+02  0.77700345387E+02  0.00000000000E+00 0. -1.
</event>
<event>
 8    1  0.3708258E-009  0.2873001E+03  0.7561462E-02  0.1091767E+00
         -1   -1    0    0    0  501 -0.00000000000E+00  0.00000000000E+00  0.22136769145E+03  0.22136769145E+03  0.00000000000E+00 0.  1.
          1   -1    0    0  501    0  0.00000000000E+00 -0.00000000000E+00 -0.45693706809E+03  0.45693706809E+03  0.00000000000E+00 0. -1.
         25    2    1    2    0    0 -0.14654597262E+03 -0.22925121807E+03 -0.25305189526E+03  0.39206522287E+03  0.12509210292E+03 0.  0.
         23    2    1    2    0    0  0.14654597262E+03  0.22925121807E+03  0.17482518629E+02  0.28623953667E+03  0.87152686791E+02 0.  0.
          5    1    3    3  502    0 -0.78556789878E+01  0.15620904235E+02 -0.13755492206E+02  0.22636481779E+02  0.41800000000E+01 0. -1.
         -5    1    3    3    0  502 -0.13869029363E+03 -0.24487212231E+03 -0.23929640306E+03  0.36942874109E+03  0.41800000000E+01 0. -1.
        -11    1    4    4    0    0  0.11100849096E+03  0.20160467033E+03  0.43524544270E+02  0.23422577595E+03  0.00000000000E+00 0.  1.
         11    1    4    4    0    0  0.35537481659E+02  0.27646547745E+02 -0.26042025642E+02  0.52013760722E+02  0.00000000000E+00 0. -1.
</event>
<event>
 8    1  0.3708258E-009  0.1096010E+03  0.7561462E-02  0.1261311E+00
         -2   -1    0    0    0  501 -0.00000000000E+00  0.00000000000E+00  0.97187227509E+02  0.97187227509E+02  0.00000000000E+00 0.  1.
          2   -1    0    0  501    0  0.00000000000E+00 -0.00000000000E+00 -0.19741314566E+03  0.19741314566E+03  0.00000000000E+00 0. -1.
         25    2    1    2    0    0 -0.28919815172E+02  0.77138148702E+02 -0.28965936418E+02  0.15255619057E+03  0.12509083146E+03 0.  0.
         23    2    1    2    0    0  0.28919815172E+02 -0.77138148702E+02 -0.71259981729E+02  0.14204418259E+03  0.91169705041E+02 0.  0.
          5    1    3    3  502    0 -0.14395103801E+02  0.10443175507E+03 -0.48108082024E+02  0.11595288024E+03  0.41800000000E+01 0. -1.
         -5    1    3    3    0  502 -0.14524711371E+02 -0.27293606366E+02  0.19142145606E+02  0.36603310333E+02  0.41800000000E+01 0. -1.
        -11    1    4    4    0    0  0.21540433422E+02 -0.62500690336E+02  0.28235905413E+01  0.66168717896E+02  0.00000000000E+00 0.  1.
         11    1    4    4    0    0  0.73793817503E+01 -0.14637458366E+02 -0.74083572270E+02  0.75875464695E+02  0.00000000000E+00 0. -1.
</event>
<event>
 8    1  0.3708258E-009  0.1028869E+03  0.7561462E-02  0.1274340E+00
         -2   -1    0    0    0  501 -0.00000000000E+00  0.00000000000E+00  0.70595274436E+02  0.70595274436E+02  0.00000000000E+00 0.  1.
          2   -1    0    0  501    0  0.00000000000E+00 -0.00000000000E+00 -0.48898685837E+03  0.48898685837E+03  0.00000000000E+00 0. -1.
         25    2    1    2    0    0 -0.79255990074E+02 -0.99237892114E+01 -0.41499160144E+03  0.44073064802E+03  0.12508189831E+03 0.  0.
         23    2    1    2    0    0  0.79255990074E+02  0.99237892114E+01 -0.33999824993E+01  0.11885148479E+03  0.87943857097E+02 0.  0.
          5    1    3    3  502    0 -0.79612919350E+01 -0.19055098608E+02 -0.16162322722E+01  0.21132050516E+02  0.41800000000E+01 0. -1.
         -5    1    3    3    0  502 -0.71294698139E+02  0.91313093966E+01 -0.41337536917E+03  0.41959859750E+03  0.41800000000E+01 0. -1.
        -11    1    4    4    0    0  0.95705573240E+02  0.66776998193E+01 -0.16787178543E+02  0.97395881779E+02  0.00000000000E+00 0. -1.
         11    1    4    4    0    0 -0.16449583166E+02  0.32460893921E+01  0.13387196044E+02  0.21455603012E+02  0.00000000000E+00 0.  1.
</event>
<event>
 8    1  0.3708258E-009  0.1129598E+03  0.7561462E-02  0.1255185E+00
          1   -1    0    0  501    0  0.00000000000E+00  0.00000000000E+00  0.96892632874E+02  0.96892632874E+02  0.00000000000E+00 0. -1.
         -1   -1    0    0    0  501 -0.00000000000E+00 -0.00000000000E+00 -0.20897689249E+03  0.20897689249E+03  0.00000000000E+00 0.  1.
         25    2    1    2    0    0  0.74624161495E+02  0.35804047486E+02 -0.24321997165E+02  0.15195164637E+03  0.12508816088E+03 0.  0.
         23    2    1    2    0    0 -0.74624161495E+02 -0.35804047486E+02 -0.87762262455E+02  0.15391787900E+03  0.95591858806E+02 0.  0.
          5    1    3    3  502    0  0.69393019393E+02  0.65803189335E+02  0.20218110676E+02  0.97835041097E+02  0.41800000000E+01 0.  1.
         -5    1    3    3    0  502  0.52311421017E+01 -0.29999141849E+02 -0.44540107842E+02  0.54116605270E+02  0.41800000000E+01 0.  1.
        -11    1    4    4    0    0 -0.21152985815E+02 -0.40593091111E+02  0.57069731192E+01  0.46128271125E+02  0.00000000000E+00 0. -1.
         11    1    4    4    0    0 -0.53471175680E+02  0.47890436246E+01 -0.93469235574E+02  0.10778960788E+03  0.00000000000E+00 0.  1.
</event>
<event>
 8    1  0.3708258E-009  0.9438399E+02  0.7561462E-02  0.1292570E+00
          3   -1    0    0  501    0  0.00000000000E+00  0.00000000000E+00  0.16268757383E+03  0.16268757383E+03  0.00000000000E+00 0. -1.
         -3   -1    0    0    0  501 -0.00000000000E+00 -0.00000000000E+00 -0.88384240592E+02  0.88384240592E+02  0.00000000000E+00 0.  1.
         25    2    1    2    0    0  0.56004890794E+01  0.47440175718E+02  0.58161051493E+02  0.14598685520E+03  0.12509004049E+03 0.  0.
         23    2    1    2    0    0 -0.56004890794E+01 -0.47440175718E+02  0.16142281745E+02  0.10508495922E+03  0.92197286537E+02 0.  0.
          5    1    3    3  502    0 -0.49282747932E+02 -0.13871496033E+02  0.19116190844E+02  0.54809750942E+02  0.41800000000E+01 0. -1.
         -5    1    3    3    0  502  0.54883237012E+02  0.61311671751E+02  0.39044860649E+02  0.91177104258E+02  0.41800000000E+01 0. -1.
        -11    1    4    4    0    0  0.10021498116E+02 -0.88356634136E+01  0.49786026243E+02  0.51547529344E+02  0.00000000000E+00 0. -1.
         11    1    4    4    0    0 -0.15621987195E+02 -0.38604512305E+02 -0.33643744497E+02  0.53537429879E+02  0.00000000000E+00 0.  1.
</event>
<event>
 8    1  0.3708258E-009  0.1417441E+03  0.7561462E-02  0.1211001E+00
         -1   -1    0    0    0  501 -0.00000000000E+00  0.00000000000E+00  0.22768822175E+03  0.22768822175E+03  0.00000000000E+00 0.  1.
          1   -1    0    0  501    0  0.00000000000E+00 -0.00000000000E+00 -0.11118550084E+03  0.11118550084E+03  0.00000000000E+00 0. -1.
         25    2    1    2    0    0  0.92212692436E+02  0.72511075872E+02  0.72242188976E+02  0.18608431650E+03  0.12508957675E+03 0.  0.
         23    2    1    2    0    0 -0.92212692436E+02 -0.72511075872E+02  0.44260531936E+02  0.15278940608E+03  0.87318790383E+02 0.  0.
          5    1    3    3  502    0  0.32834686737E+01  0.74174943168E+02  0.61296076683E+02  0.96371078531E+02  0.41800000000E+01 0. -1.
         -5    1    3    3    0  502  0.88929223762E+02 -0.16638672954E+01  0.10946112293E+02  0.89713237973E+02  0.41800000000E+01 0. -1.
        -11    1    4    4    0    0 -0.58924241021E+02 -0.30105475519E+02  0.67102018237E+02  0.94239517654E+02  0.00000000000E+00 0.  1.
         11    1    4    4    0    0 -0.33288451415E+02 -0.42405600353E+02 -0.22841486300E+02  0.58549888431E+02  0.00000000000E+00 0. -1.
</event>
<event>
 8    1  0.3708258E-009  0.1777990E+03  0.7561462E-02  0.1169950E+00
          4   -1    0    0  501    0  0.00000000000E+00  0.00000000000E+00  0.14990496523E+03  0.14990496523E+03  0.00000000000E+00 0. -1.
         -4   -1    0    0    0  501 -0.00000000000E+00 -0.00000000000E+00 -0.32238664892E+03  0.32238664892E+03  0.00000000000E+00 0.  1.
         25    2    1    2    0    0  0.67261062240E+02 -0.16147671220E+03 -0.77911357889E+01  0.21519688388E+03  0.12510083118E+03 0.  0.
         23    2    1    2    0    0 -0.67261062240E+02  0.16147671220E+03 -0.16469054790E+03  0.25709473026E+03  0.91520187306E+02 0.  0.
          5    1    3    3  502    0  0.15487311348E+02 -0.63629277733E+02 -0.63398986259E+02  0.91243880103E+02  0.41800000000E+01 0.  1.
         -5    1    3    3    0  502  0.51773750892E+02 -0.97847434463E+02  0.55607850470E+02  0.12395300378E+03  0.41800000000E+01 0.  1.
        -11    1    4    4    0    0 -0.56536281178E+01  0.61531486537E+02 -0.95319334262E+01  0.62521557092E+02  0.00000000000E+00 0. -1.
         11    1    4    4    0    0 -0.61607434123E+02  0.99945225659E+02 -0.15515861448E+03  0.19457317317E+03  0.00000000000E+00 0.  1.
</event>
<event>
 8    1  0.3708258E-009  0.1171241E+03  0.7561462E-02  0.1247918E+00
         -2   -1    0    0    0  501 -0.00000000000E+00  0.00000000000E+00  0.25053247860E+02  0.25053247860E+02  0.00000000000E+00 0.  1.
          2   -1    0    0  501    0  0.00000000000E+00 -0.00000000000E+00 -0.70017481127E+03  0.70017481127E+03  0.00000000000E+00 0. -1.
         25    2    1    2    0    0 -0.55462573982E+02  0.42801551375E+02 -0.44011247233E+03  0.46287603225E+03  0.12508862065E+03 0.  0.
         23    2    1    2    0    0  0.55462573982E+02 -0.42801551375E+02 -0.23500909108E+03  0.26235202688E+03  0.93226837374E+02 0.  0.
          5    1    3    3  502    0 -0.82144154807E+02  0.54513281694E+02 -0.22404029484E+03  0.24480785560E+03  0.41800000000E+01 0.  1.
         -5    1    3    3    0  502  0.26681580825E+02 -0.11711730319E+02 -0.21607217749E+03  0.21806817665E+03  0.41800000000E+01 0.  1.
        -11    1    4    4    0    0  0.74564358480E+02 -0.44705522881E+02 -0.22386794991E+03  0.24015679530E+03  0.00000000000E+00 0. -1.
         11    1    4    4    0    0 -0.19101784498E+02  0.19039715063E+01 -0.11141141170E+02  0.22195231584E+02  0.00000000000E+00 0.  1.
</event>
<event>
 8    1  0.3708258E-009  0.1121210E+03  0.7561462E-02  0.1256692E+00
          1   -1    0    0  501    0  0.00000000000E+00  0.00000000000E+00  0.32971725393E+03  0.32971725393E+03  0.00000000000E+00 0. -1.
         -1   -1    0    0    0  501 -0.00000000000E+00 -0.00000000000E+00 -0.51694004311E+02  0.51694004311E+02  0.00000000000E+00 0.  1.
         25    2    1    2    0    0  0.28203255872E+02 -0.61617634200E+02  0.19588001487E+03  0.24209259658E+03  0.12509072151E+03 0.  0.
         23    2    1    2    0    0 -0.28203255872E+02  0.61617634200E+02  0.82143234741E+02  0.13931866165E+03  0.89833301091E+02 0.  0.
          5    1    3    3  502    0 -0.41278060706E+02 -0.54200304356E+02  0.12530348311E+03  0.14268842478E+03  0.41800000000E+01 0. -1.
         -5    1    3    3    0  502  0.69481316578E+02 -0.74173298446E+01  0.70576531765E+02  0.99404171800E+02  0.41800000000E+01 0. -1.
        -11    1    4    4    0    0  0.89107172940E+01  0.44013541377E+02  0.87048795080E+02  0.97949402408E+02  0.00000000000E+00 0. -1.
         11    1    4    4    0    0 -0.37113973166E+02  0.17604092823E+02 -0.49055603383E+01  0.41369259246E+02  0.00000000000E+00 0.  1.
</event>
<event>
 8    1  0.3708258E-009  0.1080637E+03  0.7561462E-02  0.1264198E+00
         -2   -1    0    0    0  501 -0.00000000000E+00  0.00000000000E+00  0.11296573953E+03  0.11296573953E+03  0.00000000000E+00 0. -1.
          2   -1    0    0  501    0  0.00000000000E+00 -0.00000000000E+00 -0.15156013116E+03  0.15156013116E+03  0.00000000000E+00 0.  1.
         25    2    1    2    0    0 -0.13829305903E+02 -0.71273729961E+02 -0.17457349093E+02  0.14568052754E+03  0.12508742056E+03 0.  0.
         23    2    1    2    0    0  0.13829305903E+02  0.71273729961E+02 -0.21137042543E+02  0.11884534315E+03  0.91685586304E+02 0.  0.
          5    1    3    3  502    0 -0.13396130025E+02 -0.10678990719E+03 -0.21018794299E+02  0.10973970426E+03  0.41800000000E+01 0.  1.
         -5    1    3    3    0  502 -0.43317587750E+00  0.35516177229E+02  0.35614452059E+01  0.35940823283E+02  0.41800000000E+01 0.  1.
        -11    1    4    4    0    0  0.52798967485E+01  0.34454596940E+02 -0.56952996965E+02  0.66773051625E+02  0.00000000000E+00 0.  1.
         11    1    4    4    0    0  0.85494091541E+01  0.36819133021E+02  0.35815954421E+02  0.52072291522E+02  0.00000000000E+00 0. -1.
</event>
<event>
 8    1  0.3708258E-009  0.1507645E+03  0.7561462E-02  0.1199537E+00
          2   -1    0    0  501    0  0.00000000000E+00  0.00000000000E+00  0.59837725950E+03  0.59837725950E+03  0.00000000000E+00 0. -1.
         -2   -1    0    0    0  501 -0.00000000000E+00 -0.00000000000E+00 -0.57373610758E+02  0.57373610758E+02  0.00000000000E+00 0.  1.
         25    2    1    2    0    0 -0.19311466321E+01  0.13222277149E+03  0.41709033307E+03  0.45507804643E+03  0.12508034128E+03 0.  0.
         23    2    1    2    0    0  0.19311466321E+01 -0.13222277149E+03  0.12391331567E+03  0.20067282383E+03  0.86188640748E+02 0.  0.
          5    1    3    3  502    0  0.32232332293E+02  0.10362840052E+03  0.38497036411E+03  0.39999677784E+03  0.41800000000E+01 0.  1.
         -5    1    3    3    0  502 -0.34163478926E+02  0.28594370966E+02  0.32119968953E+02  0.55081268583E+02  0.41800000000E+01 0.  1.
        -11    1    4    4    0    0  0.33368584095E+02 -0.49646215973E+02  0.85447295008E+02  0.10430459908E+03  0.00000000000E+00 0. -1.
         11    1    4    4    0    0 -0.31437437463E+02 -0.82576555517E+02  0.38466020665E+02  0.96368224748E+02  0.00000000000E+00 0.  1.
</event>
<event>
 8    1  0.3708258E-009  0.1532934E+03  0.7561462E-02  0.1196484E+00
          2   -1    0    0  501    0  0.00000000000E+00  0.00000000000E+00  0.14797619968E+03  0.14797619968E+03  0.00000000000E+00 0.  1.
         -2   -1    0    0    0  501 -0.00000000000E+00 -0.00000000000E+00 -0.22509201436E+03  0.22509201436E+03  0.00000000000E+00 0. -1.
         25    2    1    2    0    0  0.38804104725E+02 -0.10833123947E+03  0.51488034850E+02  0.17759308637E+03  0.12508745183E+03 0.  0.
         23    2    1    2    0    0 -0.38804104725E+02  0.10833123947E+03 -0.12860384953E+03  0.19547512767E+03  0.91815899701E+02 0.  0.
          5    1    3    3  502    0 -0.44754263207E+02 -0.34251746052E+02  0.55891315494E+01  0.56787648078E+02  0.41800000000E+01 0. -1.
         -5    1    3    3    0  502  0.83558367931E+02 -0.74079493416E+02  0.45898903301E+02  0.12080543829E+03  0.41800000000E+01 0. -1.
        -11    1    4    4    0    0 -0.59613979242E+02  0.55114356829E+02 -0.41181159076E+02  0.91034645672E+02  0.00000000000E+00 0.  1.
         11    1    4    4    0    0  0.20809874517E+02  0.53216882639E+02 -0.87422690450E+02  0.10444048200E+03  0.00000000000E+00 0. -1.
</event>
<event>
 8    1  0.3708258E-009  0.1443866E+03  0.7561462E-02  0.1207545E+00
          3   -1    0    0  501    0  0.00000000000E+00  0.00000000000E+00  0.13314934938E+04  0.13314934938E+04  0.00000000000E+00 0. -1.
         -3   -1    0    0    0  501 -0.00000000000E+00 -0.00000000000E+00 -0.21896807384E+02  0.21896807384E+02  0.00000000000E+00 0.  1.
         25    2    1    2    0    0  0.64219415302E+02 -0.81163770407E+02  0.10191622573E+04  0.10320120599E+04  0.12508194947E+03 0.  0.
         23    2    1    2    0    0 -0.64219415302E+02  0.81163770407E+02  0.29043442911E+03  0.32137824131E+03  0.90664907462E+02 0.  0.
          5    1    3    3  502    0  0.51713834021E+02 -0.11184896147E+03  0.89433657889E+03  0.90279560231E+03  0.41800000000E+01 0.  1.
         -5    1    3    3    0  502  0.12505581282E+02  0.30685191061E+02  0.12482567840E+03  0.12921645755E+03  0.41800000000E+01 0.  1.
        -11    1    4    4    0    0 -0.51905185828E+02  0.19799709884E+01  0.16073504266E+03  0.16891957418E+03  0.00000000000E+00 0. -1.
         11    1    4    4    0    0 -0.12314229475E+02  0.79183799418E+02  0.12969938645E+03  0.15245866713E+03  0.00000000000E+00 0.  1.
</event>
<event>
 8    1  0.3708258E-009  0.1511989E+03  0.7561462E-02  0.1199008E+00
          1   -1    0    0  501    0  0.00000000000E+00  0.00000000000E+00  0.41077592729E+02  0.41077592729E+02  0.00000000000E+00 0. -1.
         -1   -1    0    0    0  501 -0.00000000000E+00 -0.00000000000E+00 -0.68158330323E+03  0.68158330323E+03  0.00000000000E+00 0.  1.
         25    2    1    2    0    0 -0.35381081191E+02 -0.12265083685E+03 -0.36729833410E+03  0.40847485031E+03  0.12509431808E+03 0.  0.
         23    2    1    2    0    0  0.35381081191E+02  0.12265083685E+03 -0.27320737640E+03  0.31418604565E+03  0.88179090925E+02 0.  0.
          5    1    3    3  502    0  0.99825752236E+01 -0.11944569831E+03 -0.32423037495E+03  0.34570180083E+03  0.41800000000E+01 0.  1.
         -5    1    3    3    0  502 -0.45363656414E+02 -0.32051385357E+01 -0.43067959152E+02  0.62773049487E+02  0.41800000000E+01 0.  1.
        -11    1    4    4    0    0  0.44131652523E+02  0.65516620555E+02 -0.22647782295E+03  0.23985878056E+03  0.00000000000E+00 0. -1.
         11    1    4    4    0    0 -0.87505713325E+01  0.57134216292E+02 -0.46729553444E+02  0.74327265085E+02  0.00000000000E+00 0.  1.
</event>
<event>
 8    1  0.3708258E-009  0.1421664E+03  0.7561462E-02  0.1210443E+00
          2   -1    0    0  501    0  0.00000000000E+00  0.00000000000E+00  0.71062589799E+03  0.71062589799E+03  0.00000000000E+00 0. -1.
         -2   -1    0    0    0  501 -0.00000000000E+00 -0.00000000000E+00 -0.33066600294E+02  0.33066600294E+02  0.00000000000E+00 0.  1.
         25    2    1    2    0    0  0.10533752471E+02  0.99329016606E+02  0.45171820923E+03  0.47924425993E+03  0.12509399124E+03 0.  0.
         23    2    1    2    0    0 -0.10533752471E+02 -0.99329016606E+02  0.22584108846E+03  0.26444823835E+03  0.94612155920E+02 0.  0.
          5    1    3    3  502    0 -0.25804114812E+02  0.10910709061E+03  0.25025273147E+03  0.27425191261E+03  0.41800000000E+01 0. -1.
         -5    1    3    3    0  502  0.36337867283E+02 -0.97780740043E+01  0.20146547776E+03  0.20499234732E+03  0.41800000000E+01 0. -1.
        -11    1    4    4    0    0  0.39117066078E+02 -0.56414353148E+02  0.14414437455E+03  0.15965689717E+03  0.00000000000E+00 0. -1.
         11    1    4    4    0    0 -0.49650818550E+02 -0.42914663458E+02  0.81696713917E+02  0.10479134118E+03  0.00000000000E+00 0.  1.
</event>
<event>
 8    1  0.3708258E-009  0.1549395E+03  0.7561462E-02  0.1194531E+00
          2   -1    0    0  501    0  0.00000000000E+00  0.00000000000E+00  0.24640329592E+03  0.24640329592E+03  0.00000000000E+00 0. -1.
         -2   -1    0    0    0  501 -0.00000000000E+00 -0.00000000000E+00 -0.10491084476E+03  0.10491084476E+03  0.00000000000E+00 0.  1.
         25    2    1    2    0    0 -0.11321185949E+03 -0.18607945836E+02  0.10725620839E+03  0.20078985644E+03  0.12509792739E+03 0.  0.
         23    2    1    2    0    0  0.11321185949E+03  0.18607945836E+02  0.34236242768E+02  0.15052428424E+03  0.91226416413E+02 0.  0.
          5    1    3    3  502    0  0.18049340240E+02 -0.29978008803E+02  0.89769932479E+01  0.36366447484E+02  0.41800000000E+01 0.  1.
         -5    1    3    3    0  502 -0.13126119972E+03  0.11370062967E+02  0.98279215141E+02  0.16442340896E+03  0.41800000000E+01 0.  1.
        -11    1    4    4    0    0  0.33862259971E+02 -0.33704520272E+02 -0.42931998709E+01  0.47969562248E+02  0.00000000000E+00 0.  1.
         11    1    4    4    0    0  0.79349599514E+02  0.52312466108E+02  0.38529442639E+02  0.10255472199E+03  0.00000000000E+00 0. -1.
</event>
<event>
 8    1  0.3708258E-009  0.1729106E+03  0.7561462E-02  0.1174846E+00
         -1   -1    0    0    0  501 -0.00000000000E+00  0.00000000000E+00  0.45798836427E+02  0.45798836427E+02  0.00000000000E+00 0.  1.
          1   -1    0    0  501    0  0.00000000000E+00 -0.00000000000E+00 -0.10750222301E+04  0.10750222301E+04  0.00000000000E+00 0. -1.
         25    2    1    2    0    0 -0.59931673341E+02  0.12514379220E+03 -0.87122447919E+03  0.89102908967E+03  0.12509185144E+03 0.  0.
         23    2    1    2    0    0  0.59931673341E+02 -0.12514379220E+03 -0.15799891445E+03  0.22979197683E+03  0.92671038903E+02 0.  0.
          5    1    3    3  502    0 -0.64514000678E+02  0.14883368419E+03 -0.76444865151E+03  0.78148111624E+03  0.41800000000E+01 0.  1.
         -5    1    3    3    0  502  0.45823273377E+01 -0.23689891993E+02 -0.10677582768E+03  0.10954797343E+03  0.41800000000E+01 0.  1.
        -11    1    4    4    0    0  0.68721044814E+01 -0.10019801553E+03 -0.13145900674E+03  0.16543378914E+03  0.00000000000E+00 0. -1.
         11    1    4    4    0    0  0.53059568859E+02 -0.24945776668E+02 -0.26539907711E+02  0.64358187688E+02  0.00000000000E+00 0.  1.
</event>
<event>
 8    1  0.3708258E-009  0.6117436E+02  0.7561462E-02  0.1392969E+00
          3   -1    0    0  501    0  0.00000000000E+00  0.00000000000E+00  0.67533636262E+02  0.67533636262E+02  0.00000000000E+00 0. -1.
         -3   -1    0    0    0  501 -0.00000000000E+00 -0.00000000000E+00 -0.17862179900E+03  0.17862179900E+03  0.00000000000E+00 0.  1.
         25    2    1    2    0    0 -0.14944394393E+02 -0.11702152544E+01 -0.70622395786E+02  0.14441662506E+03  0.12507571499E+03 0.  0.
         23    2    1    2    0    0  0.14944394393E+02  0.11702152544E+01 -0.40465766956E+02  0.10173881020E+03  0.92133614272E+02 0.  0.
          5    1    3    3  502    0  0.17299851205E+02  0.19809993070E+01 -0.99328263388E+02  0.10092960674E+03  0.41800000000E+01 0. -1.
         -5    1    3    3    0  502 -0.32244245599E+02 -0.31512145614E+01  0.28705867602E+02  0.43487018318E+02  0.41800000000E+01 0. -1.
        -11    1    4    4    0    0 -0.17423045802E+02 -0.24777865919E+02 -0.50655733848E+02  0.59021254953E+02  0.00000000000E+00 0.  1.
         11    1    4    4    0    0  0.32367440196E+02  0.25948081173E+02  0.10189966892E+02  0.42717555251E+02  0.00000000000E+00 0. -1.
</event>
<event>
 8    1  0.3708258E-009  0.1410159E+03  0.7561462E-02  0.1211969E+00
         -1   -1    0    0    0  501 -0.00000000000E+00  0.00000000000E+00  0.10939680314E+03  0.10939680314E+03  0.00000000000E+00 0.  1.
          1   -1    0    0  501    0  0.00000000000E+00 -0.00000000000E+00 -0.22674059012E+03  0.22674059012E+03  0.00000000000E+00 0. -1.
         25    2    1    2    0    0  0.48917703510E+02 -0.10149581410E+03 -0.44818087417E+02  0.17421458703E+03  0.12509084449E+03 0.  0.
         23    2    1    2    0    0 -0.48917703510E+02  0.10149581410E+03 -0.72525699565E+02  0.16192280623E+03  0.90910263905E+02 0.  0.
          5    1    3    3  502    0 -0.36046056395E+02 -0.46171600364E+02 -0.42893509354E+02  0.72721801452E+02  0.41800000000E+01 0. -1.
         -5    1    3    3    0  502  0.84963759905E+02 -0.55324213740E+02 -0.19245780629E+01  0.10149278558E+03  0.41800000000E+01 0. -1.
        -11    1    4    4    0    0 -0.42960944470E+02  0.35955030407E+02  0.94348782055E+01  0.56810420594E+02  0.00000000000E+00 0.  1.
         11    1    4    4    0    0 -0.59567590397E+01  0.65540783697E+02 -0.81960577771E+02  0.10511238564E+03  0.00000000000E+00 0. -1.
</event>
<event>
 8    1  0.3708258E-009  0.9430449E+02  0.7561462E-02  0.1292750E+00
          2   -1    0    0  501    0  0.00000000000E+00  0.00000000000E+00  0.16779926062E+03  0.16779926062E+03  0.00000000000E+00 0. -1.
         -2   -1    0    0    0  501 -0.00000000000E+00 -0.00000000000E+00 -0.12830794176E+03  0.12830794176E+03  0.00000000000E+00 0.  1.
         25    2    1    2    0    0  0.63565435035E+02 -0.25498421475E+02 -0.49350225632E+02  0.15090885062E+03  0.12508917777E+03 0.  0.
         23    2    1    2    0    0 -0.63565435035E+02  0.25498421475E+02  0.88841544492E+02  0.14519835176E+03  0.92190060731E+02 0.  0.
          5    1    3    3  502    0 -0.20716131469E+02 -0.50481291520E+01  0.27436508807E+02  0.34998230334E+02  0.41800000000E+01 0. -1.
         -5    1    3    3    0  502  0.84281566504E+02 -0.20450292323E+02 -0.76786734439E+02  0.11591062028E+03  0.41800000000E+01 0. -1.
        -11    1    4    4    0    0 -0.17839746144E+02  0.29156451229E+02  0.93054301533E+02  0.99133537335E+02  0.00000000000E+00 0. -1.
         11    1    4    4    0    0 -0.45725688891E+02 -0.36580297549E+01 -0.42127570413E+01  0.46064814426E+02  0.00000000000E+00 0.  1.
</event>
<event>
 8    1  0.3708258E-009  0.1102378E+03  0.7561462E-02  0.1260130E+00
          2   -1    0    0  501    0  0.00000000000E+00  0.00000000000E+00  0.93908424430E+02  0.93908424430E+02  0.00000000000E+00 0. -1.
         -2   -1    0    0    0  501 -0.00000000000E+00 -0.00000000000E+00 -0.21453540413E+03  0.21453540413E+03  0.00000000000E+00 0.  1.
         25    2    1    2    0    0  0.60347553103E+02 -0.20982260279E+02  0.10227829969E+02  0.14082710320E+03  0.12508230122E+03 0.  0.
         23    2    1    2    0    0 -0.60347553103E+02  0.20982260279E+02 -0.13085480967E+03  0.16761672536E+03  0.83007848993E+02 0.  0.
          5    1    3    3  502    0  0.97097282440E+02 -0.29302389877E+02  0.15022629750E+02  0.10261415163E+03  0.41800000000E+01 0.  1.
         -5    1    3    3    0  502 -0.36749729337E+02  0.83201295984E+01 -0.47947997819E+01  0.38212951572E+02  0.41800000000E+01 0.  1.
        -11    1    4    4    0    0 -0.30219981710E+02  0.36320715031E+02 -0.19277326148E+02  0.51029961183E+02  0.00000000000E+00 0. -1.
         11    1    4    4    0    0 -0.30127571394E+02 -0.15338454753E+02 -0.11157748352E+03  0.11658676417E+03  0.00000000000E+00 0.  1.
</event>
<event>
 8    1  0.3708258E-009  0.1017238E+03  0.7561462E-02  0.1276712E+00
          1   -1    0    0  501    0  0.00000000000E+00  0.00000000000E+00  0.13214534531E+03  0.13214534531E+03  0.00000000000E+00 0.  1.
         -1   -1    0    0    0  501 -0.00000000000E+00 -0.00000000000E+00 -0.12716778369E+03  0.12716778369E+03  0.00000000000E+00 0. -1.
         25    2    1    2    0    0  0.55567006361E+01  0.69225126632E+02  0.25832418483E+02  0.14538989231E+03  0.12509161388E+03 0.  0.
         23    2    1    2    0    0 -0.55567006361E+01 -0.69225126632E+02 -0.20854856862E+02  0.11392323670E+03  0.87866852259E+02 0.  0.
          5    1    3    3  502    0  0.53114925034E+01 -0.10896353978E+02  0.57666027883E+02  0.59074407779E+02  0.41800000000E+01 0. -1.
         -5    1    3    3    0  502  0.24520813271E+00  0.80121480611E+02 -0.31833609400E+02  0.86315484530E+02  0.41800000000E+01 0. -1.
        -11    1    4    4    0    0  0.94766844788E+01 -0.86772071805E+02 -0.24189142075E+02  0.90577671577E+02  0.00000000000E+00 0.  1.
         11    1    4    4    0    0 -0.15033385115E+02  0.17546945173E+02  0.33342852136E+01  0.23345565121E+02  0.00000000000E+00 0. -1.
</event>
<event>
 8    1  0.3708258E-009  0.1731808E+03  0.7561462E-02  0.1174571E+00
         -1   -1    0    0    0  501 -0.00000000000E+00  0.00000000000E+00  0.18314253790E+03  0.18314253790E+03  0.00000000000E+00 0. -1.
          1   -1    0    0  501    0  0.00000000000E+00 -0.00000000000E+00 -0.21616272808E+03  0.21616272808E+03  0.00000000000E+00 0.  1.
         25    2    1    2    0    0 -0.12378426274E+02 -0.16553196989E+03 -0.30425521146E+01  0.20787331727E+03  0.12509196784E+03 0.  0.
         23    2    1    2    0    0  0.12378426274E+02  0.16553196989E+03 -0.29977638066E+02  0.19143194872E+03  0.90517808821E+02 0.  0.
          5    1    3    3  502    0  0.16510858146E+02 -0.42371588034E+02 -0.54620297267E+02  0.71195569966E+02  0.41800000000E+01 0. -1.
         -5    1    3    3    0  502 -0.28889284421E+02 -0.12316038185E+03  0.51577745152E+02  0.13667774730E+03  0.41800000000E+01 0. -1.
        -11    1    4    4    0    0 -0.17031869133E+02  0.10973798635E+03 -0.54571230197E+02  0.12373572394E+03  0.00000000000E+00 0.  1.
         11    1    4    4    0    0  0.29410295407E+02  0.55793983543E+02  0.24593592131E+02  0.67696224780E+02  0.00000000000E+00 0. -1.
</event>
<event>
 8    1  0.3708258E-009  0.1123443E+03  0.7561462E-02  0.1256289E+00
          1   -1    0    0  501    0  0.00000000000E+00  0.00000000000E+00  0.36132651467E+03  0.36132651467E+03  0.00000000000E+00 0. -1.
         -1   -1    0    0    0  501 -0.00000000000E+00 -0.00000000000E+00 -0.40488696785E+02  0.40488696785E+02  0.00000000000E+00 0.  1.
         25    2    1    2    0    0  0.17805900288E+02  0.35423711378E+02  0.12036792584E+03  0.17806954961E+03  0.12509371493E+03 0.  0.
         23    2    1    2    0    0 -0.17805900288E+02 -0.35423711378E+02  0.20046989205E+03  0.22374566184E+03  0.91115608776E+02 0.  0.
          5    1    3    3  502    0 -0.42293185608E+02  0.53413315973E+02  0.66041149090E+02  0.94976847943E+02  0.41800000000E+01 0. -1.
         -5    1    3    3    0  502  0.60099085896E+02 -0.17989604595E+02  0.54326776749E+02  0.83092701671E+02  0.41800000000E+01 0. -1.
        -11    1    4    4    0    0  0.51073149354E+01  0.26782799375E+02  0.97833656158E+02  0.10156193817E+03  0.00000000000E+00 0.  1.
         11    1    4    4    0    0 -0.22913215223E+02 -0.62206510754E+02  0.10263623589E+03  0.12218372367E+03  0.00000000000E+00 0. -1.
</event>
<event>
 8    1  0.3708258E-009  0.1569325E+03  0.7561462E-02  0.1192204E+00
         -1   -1    0    0    0  501 -0.00000000000E+00  0.00000000000E+00  0.11137095562E+03  0.11137095562E+03  0.00000000000E+00 0.  1.
          1   -1    0    0  501    0  0.00000000000E+00 -0.00000000000E+00 -0.27999300219E+03  0.27999300219E+03  0.00000000000E+00 0. -1.
         25    2    1    2    0    0 -0.77924158635E+02  0.10634191275E+03 -0.40467860920E+02  0.18618857393E+03  0.12509100843E+03 0.  0.
         23    2    1    2    0    0  0.77924158635E+02 -0.10634191275E+03 -0.12815418565E+03  0.20517538387E+03  0.91064076019E+02 0.  0.
          5    1    3    3  502    0 -0.89521044231E+01 -0.17254874920E+02  0.23522508442E+02  0.30800189699E+02  0.41800000000E+01 0. -1.
         -5    1    3    3    0  502 -0.68972054212E+02  0.12359678767E+03 -0.63990369362E+02  0.15538838424E+03  0.41800000000E+01 0. -1.
        -11    1    4    4    0    0 -0.15288015217E+02 -0.96653754717E+01  0.19528641876E+01  0.18192211817E+02  0.00000000000E+00 0.  1.
         11    1    4    4    0    0  0.93212173851E+02 -0.96676537277E+02 -0.13010704984E+03  0.18698317205E+03  0.00000000000E+00 0. -1.
</event>
<event>
 8    1  0.3708258E-009  0.1972757E+03  0.7561462E-02  0.1152058E+00
          2   -1    0    0  501    0  0.00000000000E+00  0.00000000000E+00  0.49768870362E+02  0.49768870362E+02  0.00000000000E+00 0. -1.
         -2   -1    0    0    0  501 -0.00000000000E+00 -0.00000000000E+00 -0.91950653142E+03  0.91950653142E+03  0.00000000000E+00 0.  1.
         25    2    1    2    0    0  0.16073462782E+03 -0.88343463938E+02 -0.41918308590E+03  0.47434470225E+03  0.12509296083E+03 0.  0.
         23    2    1    2    0    0 -0.16073462782E+03  0.88343463938E+02 -0.45055457516E+03  0.49493069953E+03  0.91196403088E+02 0.  0.
          5    1    3    3  502    0  0.11813171282E+03 -0.36426755117E+02 -0.13842946392E+03  0.18563997130E+03  0.41800000000E+01 0.  1.
         -5    1    3    3    0  502  0.42602915002E+02 -0.51916708821E+02 -0.28075362197E+03  0.28870473095E+03  0.41800000000E+01 0.  1.
        -11    1    4    4    0    0 -0.16239422658E+03  0.56885336098E+02 -0.39887761504E+03  0.43440899861E+03  0.00000000000E+00 0. -1.
         11    1    4    4    0    0  0.16595987596E+01  0.31458127840E+02 -0.51676960118E+02  0.60521700920E+02  0.00000000000E+00 0.  1.
</event>
<event>
 8    1  0.3708258E-009  0.7652568E+02  0.7561462E-02  0.1339211E+00
          1   -1    0    0  501    0  0.00000000000E+00  0.00000000000E+00  0.67716730313E+03  0.67716730313E+03  0.00000000000E+00 0. -1.
         -1   -1    0    0    0  501 -0.00000000000E+00 -0.00000000000E+00 -0.19685737426E+02  0.19685737426E+02  0.00000000000E+00 0.  1.
         25    2    1    2    0    0 -0.10927438313E+02  0.26608034319E+02  0.30278943498E+03  0.32887156495E+03  0.12509063874E+03 0.  0.
         23    2    1    2    0    0  0.10927438313E+02 -0.26608034319E+02  0.35469213073E+03  0.36798147561E+03  0.93682775324E+02 0.  0.
          5    1    3    3  502    0 -0.31431510930E+02  0.22873562755E+01  0.85939383678E+01  0.32931748432E+02  0.41800000000E+01 0. -1.
         -5    1    3    3    0  502  0.20504072617E+02  0.24320678043E+02  0.29419549661E+03  0.29593981652E+03  0.41800000000E+01 0. -1.
        -11    1    4    4    0    0  0.11605434289E+02 -0.57306964482E+02  0.29623527657E+03  0.30195051477E+03  0.00000000000E+00 0.  1.
         11    1    4    4    0    0 -0.67799597630E+00  0.30698930163E+02  0.58456854158E+02  0.66030960843E+02  0.00000000000E+00 0. -1.
</event>
<event>
 8    1  0.3708258E-009  0.2432690E+03  0.7561462E-02  0.1117634E+00
         -2   -1    0    0    0  501 -0.00000000000E+00  0.00000000000E+00  0.36946075184E+02  0.36946075184E+02  0.00000000000E+00 0.  1.
          2   -1    0    0  501    0  0.00000000000E+00 -0.00000000000E+00 -0.17230172900E+04  0.17230172900E+04  0.00000000000E+00 0. -1.
         25    2    1    2    0    0  0.21258394804E+03 -0.64325575178E+02 -0.70170106453E+03  0.74656494926E+03  0.12508047380E+03 0.  0.
         23    2    1    2    0    0 -0.21258394804E+03  0.64325575178E+02 -0.98437015027E+03  0.10133984159E+04  0.93070091955E+02 0.  0.
          5    1    3    3  502    0  0.20368957436E+03 -0.24513454582E+02 -0.49521557415E+03  0.53604690974E+03  0.41800000000E+01 0.  1.
         -5    1    3    3    0  502  0.88943736785E+01 -0.39812120597E+02 -0.20648549037E+03  0.21051803952E+03  0.41800000000E+01 0.  1.
        -11    1    4    4    0    0 -0.14074275223E+02  0.37451084156E+02 -0.14118887027E+03  0.14674796767E+03  0.00000000000E+00 0. -1.
         11    1    4    4    0    0 -0.19850967282E+03  0.26874491022E+02 -0.84318127999E+03  0.86665044822E+03  0.00000000000E+00 0.  1.
</event>
<event>
 8    1  0.3708258E-009  0.1306175E+03  0.7561462E-02  0.1226542E+00
          1   -1    0    0  501    0  0.00000000000E+00  0.00000000000E+00  0.93752368865E+03  0.93752368865E+03  0.00000000000E+00 0. -1.
         -1   -1    0    0    0  501 -0.00000000000E+00 -0.00000000000E+00 -0.22195934221E+02  0.22195934221E+02  0.00000000000E+00 0.  1.
         25    2    1    2    0    0 -0.58522517691E+02 -0.74105963544E+02  0.53485436567E+03  0.55734489068E+03  0.12509019061E+03 0.  0.
         23    2    1    2    0    0  0.58522517691E+02  0.74105963544E+02  0.38047338876E+03  0.40237473219E+03  0.90712990463E+02 0.  0.
          5    1    3    3  502    0 -0.82573836690E+02 -0.51841110785E+02  0.49954464105E+03  0.50898748518E+03  0.41800000000E+01 0. -1.
         -5    1    3    3    0  502  0.24051318999E+02 -0.22264852759E+02  0.35309724621E+02  0.48357405501E+02  0.41800000000E+01 0. -1.
        -11    1    4    4    0    0  0.20184087099E+02  0.87651768069E+02  0.27495686151E+03  0.28929484183E+03  0.00000000000E+00 0.  1.
         11    1    4    4    0    0  0.38338430592E+02 -0.13545804525E+02  0.10551652726E+03  0.11307989036E+03  0.00000000000E+00 0. -1.
</event>
<event>
 8    1  0.3708258E-009  0.1029383E+03  0.7561462E-02  0.1274236E+00
          1   -1    0    0  501    0  0.00000000000E+00  0.00000000000E+00  0.34992664583E+03  0.34992664583E+03  0.00000000000E+00 0. -1.
         -1   -1    0    0    0  501 -0.00000000000E+00 -0.00000000000E+00 -0.33042564160E+02  0.33042564160E+02  0.00000000000E+00 0.  1.
         25    2    1    2    0    0 -0.86353282515E+01 -0.29706125167E+01  0.15308279194E+03  0.19789180283E+03  0.12507370229E+03 0.  0.
         23    2    1    2    0    0  0.86353282515E+01  0.29706125167E+01  0.16380128974E+03  0.18507740717E+03  0.85670243911E+02 0.  0.
          5    1    3    3  502    0 -0.44094268764E+02  0.46610651153E+02  0.77329254987E+02  0.10056909772E+03  0.41800000000E+01 0. -1.
         -5    1    3    3    0  502  0.35458940512E+02 -0.49581263670E+02  0.75753536950E+02  0.97322705109E+02  0.41800000000E+01 0. -1.
        -11    1    4    4    0    0 -0.68602187650E+00 -0.38230324329E+02  0.45344146037E+02  0.59313741276E+02  0.00000000000E+00 0.  1.
         11    1    4    4    0    0  0.93213501280E+01  0.41200936845E+02  0.11845714370E+03  0.12576366589E+03  0.00000000000E+00 0. -1.
</event>
<event>
 8    1  0.3708258E-009  0.1090096E+03  0.7561462E-02  0.1262415E+00
         -2   -1    0    0    0  501 -0.00000000000E+00  0.00000000000E+00  0.10972764091E+02  0.10972764091E+02  0.00000000000E+00 0.  1.
          2   -1    0    0  501    0  0.00000000000E+00 -0.00000000000E+00 -0.12450612883E+04  0.12450612883E+04  0.00000000000E+00 0. -1.
         25    2    1    2    0    0 -0.20661284560E+02  0.35554526212E+02 -0.82344556356E+03  0.83390708062E+03  0.12508960764E+03 0.  0.
         23    2    1    2    0    0  0.20661284560E+02 -0.35554526212E+02 -0.41064296068E+03  0.42212697181E+03  0.88727257129E+02 0.  0.
          5    1    3    3  502    0  0.23564319374E+02 -0.32602115999E+02 -0.44399019439E+03  0.44582837531E+03  0.41800000000E+01 0. -1.
         -5    1    3    3    0  502 -0.44225603934E+02  0.68156642211E+02 -0.37945536917E+03  0.38807870531E+03  0.41800000000E+01 0. -1.
        -11    1    4    4    0    0  0.44880983703E+02 -0.50656344755E+02 -0.25161855622E+03  0.26056144342E+03  0.00000000000E+00 0.  1.
         11    1    4    4    0    0 -0.24219699143E+02  0.15101818542E+02 -0.15902440445E+03  0.16156552838E+03  0.00000000000E+00 0. -1.
</event>
<event>
 8    1  0.3708258E-009  0.3835262E+03  0.7561462E-02  0.1049638E+00
         -2   -1    0    0    0  501 -0.00000000000E+00  0.00000000000E+00  0.13908089841E+03  0.13908089841E+03  0.00000000000E+00 0.  1.
          2   -1    0    0  501    0  0.00000000000E+00 -0.00000000000E+00 -0.13959500647E+04  0.13959500647E+04  0.00000000000E+00 0. -1.
         25    2    1    2    0    0 -0.37334257507E+03 -0.31785191808E+02 -0.27797672896E+03  0.48302553056E+03  0.12509046545E+03 0.  0.
         23    2    1    2    0    0  0.37334257507E+03  0.31785191808E+02 -0.97889243728E+03  0.10520054325E+04  0.89944702438E+02 0.  0.
          5    1    3    3  502    0 -0.35486265015E+03 -0.57490198984E+02 -0.27132236337E+03  0.45040639506E+03  0.41800000000E+01 0.  1.
         -5    1    3    3    0  502 -0.18479924923E+02  0.25705007175E+02 -0.66543655984E+01  0.32619135497E+02  0.41800000000E+01 0.  1.
        -11    1    4    4    0    0  0.17460497187E+03  0.27971790142E+02 -0.57955761107E+03  0.60593427184E+03  0.00000000000E+00 0.  1.
         11    1    4    4    0    0  0.19873760320E+03  0.38134016667E+01 -0.39933482622E+03  0.44607116067E+03  0.00000000000E+00 0. -1.
</event>
<event>
 8    1  0.3708258E-009  0.1394194E+03  0.7561462E-02  0.1214112E+00
          1   -1    0    0  501    0  0.00000000000E+00  0.00000000000E+00  0.53207087149E+02  0.53207087149E+02  0.00000000000E+00 0. -1.
         -1   -1    0    0    0  501 -0.00000000000E+00 -0.00000000000E+00 -0.44269375848E+03  0.44269375848E+03  0.00000000000E+00 0.  1.
         25    2    1    2    0    0  0.10156538864E+03  0.10545386358E+02 -0.27129871107E+03  0.31571632701E+03  0.12508826949E+03 0.  0.
         23    2    1    2    0    0 -0.10156538864E+03 -0.10545386358E+02 -0.11818796026E+03  0.18018451863E+03  0.89840600277E+02 0.  0.
          5    1    3    3  502    0 -0.47675799992E+01 -0.37770266694E+02 -0.11038310091E+03  0.11683845357E+03  0.41800000000E+01 0.  1.
         -5    1    3    3    0  502  0.10633296864E+03  0.48315653052E+02 -0.16091561016E+03  0.19887787344E+03  0.41800000000E+01 0.  1.
        -11    1    4    4    0    0 -0.21066521709E+02 -0.33846133013E+02 -0.77218903539E+02  0.86902923544E+02  0.00000000000E+00 0.  1.
         11    1    4    4    0    0 -0.80498866933E+02  0.23300746654E+02 -0.40969056723E+02  0.93281595082E+02  0.00000000000E+00 0. -1.
</event>
<event>
 8    1  0.3708258E-009  0.9387072E+02  0.7561462E-02  0.1293740E+00
         -2   -1    0    0    0  501 -0.00000000000E+00  0.00000000000E+00  0.13750172915E+03  0.13750172915E+03  0.00000000000E+00 0.  1.
          2   -1    0    0  501    0  0.00000000000E+00 -0.00000000000E+00 -0.12861808555E+03  0.12861808555E+03  0.00000000000E+00 0. -1.
         25    2    1    2    0    0 -0.56562800841E+02 -0.27630553921E+02 -0.40451564484E+02  0.14576015395E+03  0.12508755118E+03 0.  0.
         23    2    1    2    0    0  0.56562800841E+02  0.27630553921E+02  0.49335208082E+02  0.12035966076E+03  0.89942688598E+02 0.  0.
          5    1    3    3  502    0 -0.55621055800E+02 -0.16755663057E+01 -0.80436329965E+02  0.97897829133E+02  0.41800000000E+01 0.  1.
         -5    1    3    3    0  502 -0.94174504173E+00 -0.25954987616E+02  0.39984765481E+02  0.47862324812E+02  0.41800000000E+01 0.  1.
        -11    1    4    4    0    0  0.64395924320E+02 -0.11768033149E+02  0.46088037682E+02  0.80058908877E+02  0.00000000000E+00 0.  1.
         11    1    4    4    0    0 -0.78331234786E+01  0.39398587070E+02  0.32471704000E+01  0.40300751881E+02  0.00000000000E+00 0. -1.
</event>
<event>
 8    1  0.3708258E-009  0.1098497E+03  0.7561462E-02  0.1260848E+00
          2   -1    0    0  501    0  0.00000000000E+00  0.00000000000E+00  0.10987995776E+03  0.10987995776E+03  0.00000000000E+00 0. -1.
         -2   -1    0    0    0  501 -0.00000000000E+00 -0.00000000000E+00 -0.11554356775E+03  0.11554356775E+03  0.00000000000E+00 0.  1.
         25    2    1    2    0    0 -0.11671123193E+02  0.25940549059E+02 -0.14047174795E+01  0.12828408825E+03  0.12508280004E+03 0.  0.
         23    2    1    2    0    0  0.11671123193E+02 -0.25940549059E+02 -0.42588925115E+01  0.97139437255E+02  0.92783645664E+02 0.  0.
          5    1    3    3  502    0  0.31136785870E+02  0.60160447937E+02 -0.19163201415E+02  0.70522901377E+02  0.41800000000E+01 0. -1.
         -5    1    3    3    0  502 -0.42807909063E+02 -0.34219898878E+02  0.17758483935E+02  0.57761186875E+02  0.41800000000E+01 0. -1.
        -11    1    4    4    0    0 -0.38781893639E+02  0.26562419176E+01  0.11838377241E+01  0.38890774833E+02  0.00000000000E+00 0.  1.
         11    1    4    4    0    0  0.50453016832E+02 -0.28596790976E+02 -0.54427302355E+01  0.58248662423E+02  0.00000000000E+00 0. -1.
</event>
<event>
 8    1  0.3708258E-009  0.1273308E+03  0.7561462E-02  0.1231471E+00
          1   -1    0    0  501    0  0.00000000000E+00  0.00000000000E+00  0.44331812399E+03  0.44331812399E+03  0.00000000000E+00 0. -1.
         -1   -1    0    0    0  501 -0.00000000000E+00 -0.00000000000E+00 -0.38074890598E+02  0.38074890598E+02  0.00000000000E+00 0.  1.
         25    2    1    2    0    0  0.46758938506E+02  0.47822531489E+02  0.22062801924E+03  0.26228985747E+03  0.12508338664E+03 0.  0.
         23    2    1    2    0    0 -0.46758938506E+02 -0.47822531489E+02  0.18461521416E+03  0.21910315711E+03  0.97211230377E+02 0.  0.
          5    1    3    3  502    0 -0.25553504549E+02  0.61037552219E+02  0.12611886968E+03  0.14248510822E+03  0.41800000000E+01 0. -1.
         -5    1    3    3    0  502  0.72312443055E+02 -0.13215020730E+02  0.94509149553E+02  0.11980474925E+03  0.41800000000E+01 0. -1.
        -11    1    4    4    0    0 -0.64299814583E+02 -0.54352595919E+00  0.77436387299E+02  0.10065364203E+03  0.00000000000E+00 0.  1.
         11    1    4    4    0    0  0.17540876077E+02 -0.47279005530E+02  0.10717882686E+03  0.11844951508E+03  0.00000000000E+00 0. -1.
</event>
<event>
 8    1  0.3708258E-009  0.9611734E+02  0.7561462E-02  0.1288679E+00
         -2   -1    0    0    0  501 -0.00000000000E+00  0.00000000000E+00  0.15845907228E+03  0.15845907228E+03  0.00000000000E+00 0.  1.
          2   -1    0    0  501    0  0.00000000000E+00 -0.00000000000E+00 -0.11367478882E+03  0.11367478882E+03  0.00000000000E+00 0. -1.
         25    2    1    2    0    0 -0.45177808459E+02 -0.13597255751E+02 -0.37696154764E+02  0.13890556884E+03  0.12509131556E+03 0.  0.
         23    2    1    2    0    0  0.45177808459E+02  0.13597255751E+02  0.82480438230E+02  0.13322829227E+03  0.93385413360E+02 0.  0.
          5    1    3    3  502    0 -0.78559284130E+02  0.14642710580E+02 -0.48632825998E+02  0.93640772427E+02  0.41800000000E+01 0. -1.
         -5    1    3    3    0  502  0.33381475671E+02 -0.28239966331E+02  0.10936671234E+02  0.45264796410E+02  0.41800000000E+01 0. -1.
        -11    1    4    4    0    0  0.52452048618E+02 -0.46841944606E+00  0.97937308517E+02  0.11109974447E+03  0.00000000000E+00 0.  1.
         11    1    4    4    0    0 -0.72742401590E+01  0.14065675197E+02 -0.15456870287E+02  0.22128547799E+02  0.00000000000E+00 0. -1.
</event>
<event>
 8    1  0.3708258E-009  0.8232162E+02  0.7561462E-02  0.1322589E+00
          2   -1    0    0  501    0  0.00000000000E+00  0.00000000000E+00  0.32220118597E+03  0.32220118597E+03  0.00000000000E+00 0. -1.
         -2   -1    0    0    0  501 -0.00000000000E+00 -0.00000000000E+00 -0.41506408953E+02  0.41506408953E+02  0.00000000000E+00 0.  1.
         25    2    1    2    0    0 -0.11975897116E+01 -0.11950037216E+02  0.23225524735E+03  0.26407172199E+03  0.12508851595E+03 0.  0.
         23    2    1    2    0    0  0.11975897116E+01  0.11950037216E+02  0.48439529664E+02  0.99635872930E+02  0.86236196169E+02 0.  0.
          5    1    3    3  502    0 -0.41025748855E+02 -0.13818802341E+02  0.19659277282E+02  0.47728722490E+02  0.41800000000E+01 0.  1.
         -5    1    3    3    0  502  0.39828159143E+02  0.18687651259E+01  0.21259597007E+03  0.21634299950E+03  0.41800000000E+01 0.  1.
        -11    1    4    4    0    0 -0.16985209819E+02  0.42355017505E+02  0.88041309513E+01  0.46475343810E+02  0.00000000000E+00 0.  1.
         11    1    4    4    0    0  0.18182799530E+02 -0.30404980289E+02  0.39635398713E+02  0.53160529120E+02  0.00000000000E+00 0. -1.
</event>
<event>
 8    1  0.3708258E-009  0.9100540E+02  0.7561462E-02  0.1300435E+00
         -1   -1    0    0    0  501 -0.00000000000E+00  0.00000000000E+00  0.21333171815E+03  0.21333171815E+03  0.00000000000E+00 0.  1.
          1   -1    0    0  501    0  0.00000000000E+00 -0.00000000000E+00 -0.89650059879E+02  0.89650059879E+02  0.00000000000E+00 0. -1.
         25    2    1    2    0    0  0.43606590729E+02 -0.88785133658E+01 -0.15571710649E+02  0.13369033383E+03  0.12510101691E+03 0.  0.
         23    2    1    2    0    0 -0.43606590729E+02  0.88785133658E+01  0.13925336892E+03  0.16929144420E+03  0.85368199983E+02 0.  0.
          5    1    3    3  502    0 -0.22051821363E+02  0.77243453201E+01 -0.51648550275E+02  0.56841828626E+02  0.41800000000E+01 0.  1.
         -5    1    3    3    0  502  0.65658412092E+02 -0.16602858686E+02  0.36076839626E+02  0.76848505206E+02  0.41800000000E+01 0.  1.
        -11    1    4    4    0    0 -0.15489265810E+01  0.38783635601E+02  0.32137134346E+02  0.50392112160E+02  0.00000000000E+00 0. -1.
         11    1    4    4    0    0 -0.42057664148E+02 -0.29905122236E+02  0.10711623457E+03  0.11889933204E+03  0.00000000000E+00 0.  1.
</event>
<event>
 8    1  0.3708258E-009  0.7686881E+02  0.7561462E-02  0.1338180E+00
          1   -1    0    0  501    0  0.00000000000E+00  0.00000000000E+00  0.84951266366E+02  0.84951266366E+02  0.00000000000E+00 0. -1.
         -1   -1    0    0    0  501 -0.00000000000E+00 -0.00000000000E+00 -0.15745303597E+03  0.15745303597E+03  0.00000000000E+00 0.  1.
         25    2    1    2    0    0 -0.52183884554E+01 -0.27963192429E+02 -0.72583090007E+02  0.14737946372E+03  0.12507289739E+03 0.  0.
         23    2    1    2    0    0  0.52183884554E+01  0.27963192429E+02  0.81320401675E-01  0.95024838619E+02  0.90667202630E+02 0.  0.
          5    1    3    3  502    0 -0.51868762087E+02  0.15170424566E+02 -0.62804338413E+02  0.82960036075E+02  0.41800000000E+01 0.  1.
         -5    1    3    3    0  502  0.46650373632E+02 -0.43133616996E+02 -0.97787515933E+01  0.64419427643E+02  0.41800000000E+01 0.  1.
        -11    1    4    4    0    0  0.13450831518E+02  0.12594311232E+02 -0.43955840754E+02  0.47661908065E+02  0.00000000000E+00 0.  1.
         11    1    4    4    0    0 -0.82324430626E+01  0.15368881197E+02  0.44037161156E+02  0.47362930555E+02  0.00000000000E+00 0. -1.
</event>
<event>
 8    1  0.3708258E-009  0.9035234E+02  0.7561462E-02  0.1302001E+00
          1   -1    0    0  501    0  0.00000000000E+00  0.00000000000E+00  0.78637662121E+03  0.78637662121E+03  0.00000000000E+00 0. -1.
         -1   -1    0    0    0  501 -0.00000000000E+00 -0.00000000000E+00 -0.24551715147E+02  0.24551715147E+02  0.00000000000E+00 0.  1.
         25    2    1    2    0    0 -0.22320096600E+02 -0.20603149888E+02  0.61908565110E+03  0.63232676032E+03  0.12508961560E+03 0.  0.
         23    2    1    2    0    0  0.22320096600E+02  0.20603149888E+02  0.14273925497E+03  0.17860157603E+03  0.10296286493E+03 0.  0.
          5    1    3    3  502    0  0.33333880889E+02  0.10310592870E+01  0.50893414858E+02  0.60990349846E+02  0.41800000000E+01 0. -1.
         -5    1    3    3    0  502 -0.55653977490E+02 -0.21634209175E+02  0.56819223624E+03  0.57133641048E+03  0.41800000000E+01 0. -1.
        -11    1    4    4    0    0  0.27146537314E+02  0.50295922390E+02  0.13635528347E+03  0.14784917188E+03  0.00000000000E+00 0. -1.
         11    1    4    4    0    0 -0.48264407131E+01 -0.29692772502E+02  0.63839714990E+01  0.30752404149E+02  0.00000000000E+00 0.  1.
</event>
<event>
 8    1  0.3708258E-009  0.1221374E+03  0.7561462E-02  0.1239612E+00
          2   -1    0    0  501    0  0.00000000000E+00  0.00000000000E+00  0.15193396008E+03  0.15193396008E+03  0.00000000000E+00 0. -1.
         -2   -1    0    0    0  501 -0.00000000000E+00 -0.00000000000E+00 -0.13682153693E+03  0.13682153693E+03  0.00000000000E+00 0.  1.
         25    2    1    2    0    0 -0.25931124147E+01 -0.71809519477E+02 -0.53706796052E+02  0.15393364044E+03  0.12509122430E+03 0.  0.
         23    2    1    2    0    0  0.25931124147E+01  0.71809519477E+02  0.68819219194E+02  0.13482185657E+03  0.90980859305E+02 0.  0.
          5    1    3    3  502    0 -0.57539953829E+02 -0.62473163427E+02 -0.16043064222E+02  0.86536667054E+02  0.41800000000E+01 0. -1.
         -5    1    3    3    0  502  0.54946841414E+02 -0.93363560504E+01 -0.37663731830E+02  0.67396973382E+02  0.41800000000E+01 0. -1.
        -11    1    4    4    0    0 -0.25888377341E+02 -0.22200771221E+00 -0.65940613788E+01  0.26715894412E+02  0.00000000000E+00 0.  1.
         11    1    4    4    0    0  0.28481489756E+02  0.72031527189E+02  0.75413280572E+02  0.10810596216E+03  0.00000000000E+00 0. -1.
</event>
<event>
 8    1  0.3708258E-009  0.1052996E+03  0.7561462E-02  0.1269530E+00
         -1   -1    0    0    0  501 -0.00000000000E+00  0.00000000000E+00  0.14958271618E+03  0.14958271618E+03  0.00000000000E+00 0.  1.
          1   -1    0    0  501    0  0.00000000000E+00 -0.00000000000E+00 -0.84043203596E+02  0.84043203596E+02  0.00000000000E+00 0. -1.
         25    2    1    2    0    0  0.21526150244E+01 -0.22437873584E+02  0.34436109706E+02  0.13168907484E+03  0.12509226538E+03 0.  0.
         23    2    1    2    0    0 -0.21526150244E+01  0.22437873584E+02  0.31103402873E+02  0.10193684493E+03  0.94422490764E+02 0.  0.
          5    1    3    3  502    0 -0.41903061953E+02 -0.53502114272E+02  0.95426420164E+00  0.68093508155E+02  0.41800000000E+01 0.  1.
         -5    1    3    3    0  502  0.44055676978E+02  0.31064240688E+02  0.33481845505E+02  0.63595566684E+02  0.41800000000E+01 0.  1.
        -11    1    4    4    0    0 -0.10975915576E+02 -0.31723658428E+02  0.32939607457E+02  0.47030617327E+02  0.00000000000E+00 0.  1.
         11    1    4    4    0    0  0.88233005512E+01  0.54161532012E+02 -0.18362045842E+01  0.54906227605E+02  0.00000000000E+00 0. -1.
</event>
<event>
 8    1  0.3708258E-009  0.2943289E+03  0.7561462E-02  0.1088110E+00
          2   -1    0    0  501    0  0.00000000000E+00  0.00000000000E+00  0.85134323993E+03  0.85134323993E+03  0.00000000000E+00 0.  1.
         -2   -1    0    0    0  501 -0.00000000000E+00 -0.00000000000E+00 -0.22606395012E+03  0.22606395012E+03  0.00000000000E+00 0. -1.
         25    2    1    2    0    0  0.21047099476E+03 -0.20225459203E+03  0.69438593194E+03  0.76355936334E+03  0.12508444842E+03 0.  0.
         23    2    1    2    0    0 -0.21047099476E+03  0.20225459203E+03 -0.69106642140E+02  0.31384782671E+03  0.92302604025E+02 0.  0.
          5    1    3    3  502    0  0.75826637638E+02 -0.72425481033E+02  0.40950789177E+03  0.42274024542E+03  0.41800000000E+01 0.  1.
         -5    1    3    3    0  502  0.13464435712E+03 -0.12982911100E+03  0.28487804017E+03  0.34081911792E+03  0.41800000000E+01 0.  1.
        -11    1    4    4    0    0 -0.86098409914E+02  0.11932028800E+03  0.45247111818E+01  0.14720985133E+03  0.00000000000E+00 0.  1.
         11    1    4    4    0    0 -0.12437258484E+03  0.82934304036E+02 -0.73631353322E+02  0.16663797538E+03  0.00000000000E+00 0. -1.
</event>
<event>
 8    1  0.3708258E-009  0.1933739E+03  0.7561462E-02  0.1155453E+00
          2   -1    0    0  501    0  0.00000000000E+00  0.00000000000E+00  0.38994853221E+03  0.38994853221E+03  0.00000000000E+00 0. -1.
         -2   -1    0    0    0  501 -0.00000000000E+00 -0.00000000000E+00 -0.13110255387E+03  0.13110255387E+03  0.00000000000E+00 0.  1.
         25    2    1    2    0    0  0.15237694875E+03 -0.76670873883E+02  0.24929487816E+03  0.32694366792E+03  0.12508824206E+03 0.  0.
         23    2    1    2    0    0 -0.15237694875E+03  0.76670873883E+02  0.95511001814E+01  0.19410741817E+03  0.92137445502E+02 0.  0.
          5    1    3    3  502    0  0.13524587943E+03 -0.98465287455E+02  0.24761285005E+03  0.29885858972E+03  0.41800000000E+01 0.  1.
         -5    1    3    3    0  502  0.17131069318E+02  0.21794413572E+02  0.16820281063E+01  0.28085078199E+02  0.41800000000E+01 0.  1.
        -11    1    4    4    0    0 -0.54275225585E+02  0.75843243262E+02  0.20201218166E+02  0.95425818708E+02  0.00000000000E+00 0.  1.
         11    1    4    4    0    0 -0.98101723162E+02  0.82763062141E+00 -0.10650117985E+02  0.98681599464E+02  0.00000000000E+00 0. -1.
</event>
<event>
 8    1  0.3708258E-009  0.8194698E+02  0.7561462E-02  0.1323615E+00
          2   -1    0    0  501    0  0.00000000000E+00  0.00000000000E+00  0.77674390356E+03  0.77674390356E+03  0.00000000000E+00 0. -1.
         -2   -1    0    0    0  501 -0.00000000000E+00 -0.00000000000E+00 -0.19079047502E+02  0.19079047502E+02  0.00000000000E+00 0.  1.
         25    2    1    2    0    0 -0.52146130772E+02 -0.16643403032E+02  0.41749529998E+03  0.43925714379E+03  0.12509312947E+03 0.  0.
         23    2    1    2    0    0  0.52146130772E+02  0.16643403032E+02  0.34016955608E+03  0.35656580728E+03  0.91802103565E+02 0.  0.
          5    1    3    3  502    0 -0.54314669969E+02 -0.97878140768E+01  0.59865247870E+02  0.81530392988E+02  0.41800000000E+01 0. -1.
         -5    1    3    3    0  502  0.21685391971E+01 -0.68555889552E+01  0.35763005211E+03  0.35772675080E+03  0.41800000000E+01 0. -1.
        -11    1    4    4    0    0  0.63668964153E+02  0.39292596771E+02  0.29871757596E+03  0.30794453291E+03  0.00000000000E+00 0. -1.
         11    1    4    4    0    0 -0.11522833381E+02 -0.22649193739E+02  0.41451980115E+02  0.48621274373E+02  0.00000000000E+00 0.  1.
</event>
<event>
 8    1  0.3708258E-009  0.1169860E+03  0.7561462E-02  0.1248154E+00
          1   -1    0    0  501    0  0.00000000000E+00  0.00000000000E+00  0.11284224423E+03  0.11284224423E+03  0.00000000000E+00 0. -1.
         -1   -1    0    0    0  501 -0.00000000000E+00 -0.00000000000E+00 -0.13967184308E+03  0.13967184308E+03  0.00000000000E+00 0.  1.
         25    2    1    2    0    0 -0.45616919217E+02  0.31402471702E+02  0.67665575596E+01  0.13695873178E+03  0.12507953214E+03 0.  0.
         23    2    1    2    0    0  0.45616919217E+02 -0.31402471702E+02 -0.33596156412E+02  0.11555535553E+03  0.95693886519E+02 0.  0.
          5    1    3    3  502    0 -0.39597297254E+02 -0.41913242922E+02  0.21754146462E+02  0.61768771806E+02  0.41800000000E+01 0.  1.
         -5    1    3    3    0  502 -0.60196219629E+01  0.73315714624E+02 -0.14987588902E+02  0.75189959972E+02  0.41800000000E+01 0.  1.
        -11    1    4    4    0    0  0.43375640421E+02 -0.59865859009E+02 -0.42964424052E+02  0.85506192705E+02  0.00000000000E+00 0.  1.
         11    1    4    4    0    0  0.22412787960E+01  0.28463387307E+02  0.93682676396E+01  0.30049162820E+02  0.00000000000E+00 0. -1.
</event>
<event>
 8    1  0.3708258E-009  0.9965090E+02  0.7561462E-02  0.1281032E+00
         -1   -1    0    0    0  501 -0.00000000000E+00  0.00000000000E+00  0.74470663928E+02  0.74470663928E+02  0.00000000000E+00 0.  1.
          1   -1    0    0  501    0  0.00000000000E+00 -0.00000000000E+00 -0.17571142380E+03  0.17571142380E+03  0.00000000000E+00 0. -1.
         25    2    1    2    0    0  0.23808231168E+02 -0.32884812964E+02 -0.60951058267E+02  0.14495646100E+03  0.12509636800E+03 0.  0.
         23    2    1    2    0    0 -0.23808231168E+02  0.32884812964E+02 -0.40289701608E+02  0.10522562674E+03  0.88322871733E+02 0.  0.
          5    1    3    3  502    0  0.49347522940E+02 -0.56311539213E+02 -0.76156855170E+02  0.10688080491E+03  0.41800000000E+01 0. -1.
         -5    1    3    3    0  502 -0.25539291772E+02  0.23426726248E+02  0.15205796903E+02  0.38075656086E+02  0.41800000000E+01 0. -1.
        -11    1    4    4    0    0  0.58185594460E+00  0.55879578014E+02 -0.44507327402E+02  0.71440660606E+02  0.00000000000E+00 0. -1.
         11    1    4    4    0    0 -0.24390087113E+02 -0.22994765050E+02  0.42176257935E+01  0.33784966130E+02  0.00000000000E+00 0.  1.
</event>
<event>
 8    1  0.3708258E-009  0.9930155E+02  0.7561462E-02  0.1281772E+00
          2   -1    0    0  501    0  0.00000000000E+00  0.00000000000E+00  0.69297996399E+02  0.69297996399E+02  0.00000000000E+00 0. -1.
         -2   -1    0    0    0  501 -0.00000000000E+00 -0.00000000000E+00 -0.26162048883E+03  0.26162048883E+03  0.00000000000E+00 0.  1.
         25    2    1    2    0    0 -0.29129523166E+02 -0.23007894009E+02 -0.18497346279E+03  0.22636531830E+03  0.12509269797E+03 0.  0.
         23    2    1    2    0    0  0.29129523166E+02  0.23007894009E+02 -0.73490296465E+01  0.10455316694E+03  0.97465194676E+02 0.  0.
          5    1    3    3  502    0  0.43356646354E+02 -0.25023564274E+02 -0.11507104875E+03  0.12555793966E+03  0.41800000000E+01 0.  1.
         -5    1    3    3    0  502 -0.72486169520E+02  0.20156702650E+01 -0.69902414039E+02  0.10080737863E+03  0.41800000000E+01 0.  1.
        -11    1    4    4    0    0 -0.91802994457E+01  0.34530032601E+02  0.32346132862E+02  0.48196196535E+02  0.00000000000E+00 0. -1.
         11    1    4    4    0    0  0.38309822612E+02 -0.11522138592E+02 -0.39695162509E+02  0.56356970402E+02  0.00000000000E+00 0.  1.
</event>
<event>
 8    1  0.3708258E-009  0.3360386E+03  0.7561462E-02  0.1068496E+00
          2   -1    0    0  501    0  0.00000000000E+00  0.00000000000E+00  0.20652744914E+03  0.20652744914E+03  0.00000000000E+00 0. -1.
         -2   -1    0    0    0  501 -0.00000000000E+00 -0.00000000000E+00 -0.75469657002E+03  0.75469657002E+03  0.00000000000E+00 0.  1.
         25    2    1    2    0    0  0.29017974216E+03  0.15055741573E+03 -0.43230247987E+02  0.35268697635E+03  0.12508969086E+03 0.  0.
         23    2    1    2    0    0 -0.29017974216E+03 -0.15055741573E+03 -0.50493887289E+03  0.60853704281E+03  0.92099125510E+02 0.  0.
          5    1    3    3  502    0  0.31616362686E+01  0.35548240172E+02  0.13330532537E+02  0.38325563543E+02  0.41800000000E+01 0.  1.
         -5    1    3    3    0  502  0.28701810589E+03  0.11500917556E+03 -0.56560780524E+02  0.31436141281E+03  0.41800000000E+01 0.  1.
        -11    1    4    4    0    0 -0.14523800964E+03 -0.74925346717E+02 -0.33492988962E+03  0.37267401035E+03  0.00000000000E+00 0. -1.
         11    1    4    4    0    0 -0.14494173252E+03 -0.75632069011E+02 -0.17000898327E+03  0.23586303246E+03  0.00000000000E+00 0.  1.
</event>
<event>
 8    1  0.3708258E-009  0.9980841E+02  0.7561462E-02  0.1280699E+00
         -1   -1    0    0    0  501 -0.00000000000E+00  0.00000000000E+00  0.36889081807E+03  0.36889081807E+03  0.00000000000E+00 0.  1.
          1   -1    0    0  501    0  0.00000000000E+00 -0.00000000000E+00 -0.56186573217E+02  0.56186573217E+02  0.00000000000E+00 0. -1.
         25    2    1    2    0    0  0.14680993600E+02  0.23306444040E+02  0.37636050190E+02  0.13350861556E+03  0.12509738705E+03 0.  0.
         23    2    1    2    0    0 -0.14680993600E+02 -0.23306444040E+02  0.27506819466E+03  0.29156877573E+03  0.92688280585E+02 0.  0.
          5    1    3    3  502    0  0.37930114205E+02  0.66873198479E+02  0.12717443681E+02  0.78037965198E+02  0.41800000000E+01 0. -1.
         -5    1    3    3    0  502 -0.23249120604E+02 -0.43566754439E+02  0.24918606509E+02  0.55470650362E+02  0.41800000000E+01 0. -1.
        -11    1    4    4    0    0  0.26382405019E+02 -0.17335552939E+02  0.31877813017E+02  0.44863656260E+02  0.00000000000E+00 0. -1.
         11    1    4    4    0    0 -0.41063398620E+02 -0.59708911015E+01  0.24319038164E+03  0.24670511947E+03  0.00000000000E+00 0.  1.
</event>
<event>
 8    1  0.3708258E-009  0.1086866E+03  0.7561462E-02  0.1263022E+00
         -2   -1    0    0    0  501 -0.00000000000E+00  0.00000000000E+00  0.12708310980E+03  0.12708310980E+03  0.00000000000E+00 0.  1.
          2   -1    0    0  501    0  0.00000000000E+00 -0.00000000000E+00 -0.12973465077E+03  0.12973465077E+03  0.00000000000E+00 0. -1.
         25    2    1    2    0    0 -0.79977823678E+01  0.40917934538E+02 -0.57916390404E+02  0.14401330511E+03  0.12508909577E+03 0.  0.
         23    2    1    2    0    0  0.79977823678E+01 -0.40917934538E+02  0.55264849433E+02  0.11280445546E+03  0.89064020222E+02 0.  0.
          5    1    3    3  502    0  0.46100641736E+02 -0.18248109945E+02 -0.10753734681E+02  0.50905578227E+02  0.41800000000E+01 0.  1.
         -5    1    3    3    0  502 -0.54098424104E+02  0.59166044483E+02 -0.47162655723E+02  0.93107726882E+02  0.41800000000E+01 0.  1.
        -11    1    4    4    0    0  0.18366179277E+02 -0.61557950201E+02  0.61444785741E+02  0.88894091305E+02  0.00000000000E+00 0.  1.
         11    1    4    4    0    0 -0.10368396909E+02  0.20640015663E+02 -0.61799363079E+01  0.23910364151E+02  0.00000000000E+00 0. -1.
</event>
<event>
 8    1  0.3708258E-009  0.8265620E+02  0.7561462E-02  0.1321678E+00
          2   -1    0    0  501    0  0.00000000000E+00  0.00000000000E+00  0.24179027829E+03  0.24179027829E+03  0.00000000000E+00 0. -1.
         -2   -1    0    0    0  501 -0.00000000000E+00 -0.00000000000E+00 -0.64116266593E+02  0.64116266593E+02  0.00000000000E+00 0.  1.
         25    2    1    2    0    0  0.46669406798E+02  0.24298142778E+02  0.71533209395E+02  0.15340415904E+03  0.12508957867E+03 0.  0.
         23    2    1    2    0    0 -0.46669406798E+02 -0.24298142778E+02  0.10614080230E+03  0.15250238584E+03  0.96034756728E+02 0.  0.
          5    1    3    3  502    0  0.56975777567E+02 -0.23744709177E+02 -0.53145917373E+01  0.62094828517E+02  0.41800000000E+01 0.  1.
         -5    1    3    3    0  502 -0.10306370769E+02  0.48042851955E+02  0.76847801132E+02  0.91309330527E+02  0.41800000000E+01 0.  1.
        -11    1    4    4    0    0 -0.16969152900E+02 -0.15931500644E+02  0.11737811785E+03  0.11966364282E+03  0.00000000000E+00 0. -1.
         11    1    4    4    0    0 -0.29700253898E+02 -0.83666421340E+01 -0.11237315550E+02  0.32838743018E+02  0.00000000000E+00 0.  1.
</event>
<event>
 8    1  0.3708258E-009  0.9302037E+02  0.7561462E-02  0.1295698E+00
         -4   -1    0    0    0  501 -0.00000000000E+00  0.00000000000E+00  0.24650554640E+03  0.24650554640E+03  0.00000000000E+00 0.  1.
          4   -1    0    0  501    0  0.00000000000E+00 -0.00000000000E+00 -0.77624787054E+02  0.77624787054E+02  0.00000000000E+00 0. -1.
         25    2    1    2    0    0 -0.21963771305E+02  0.82970395797E+02  0.80659449336E+02  0.17181296683E+03  0.12508898823E+03 0.  0.
         23    2    1    2    0    0  0.21963771305E+02 -0.82970395797E+02  0.88221310012E+02  0.15231736662E+03  0.89727848555E+02 0.  0.
          5    1    3    3  502    0 -0.10198360519E+02  0.18248112058E+02 -0.33664988087E+02  0.39847258047E+02  0.41800000000E+01 0. -1.
         -5    1    3    3    0  502 -0.11765410786E+02  0.64722283739E+02  0.11432443742E+03  0.13196570879E+03  0.41800000000E+01 0. -1.
        -11    1    4    4    0    0 -0.15426975885E+02 -0.16842773318E+02  0.70780459777E+02  0.74374350984E+02  0.00000000000E+00 0.  1.
         11    1    4    4    0    0  0.37390747190E+02 -0.66127622479E+02  0.17440850235E+02  0.77943015640E+02  0.00000000000E+00 0. -1.
</event>
<event>
 8    1  0.3708258E-009  0.3116625E+03  0.7561462E-02  0.1079552E+00
         -2   -1    0    0    0  501 -0.00000000000E+00  0.00000000000E+00  0.12155681515E+03  0.12155681515E+03  0.00000000000E+00 0. -1.
          2   -1    0    0  501    0  0.00000000000E+00 -0.00000000000E+00 -0.88899259609E+03  0.88899259609E+03  0.00000000000E+00 0.  1.
         25    2    1    2    0    0 -0.18274595540E+03  0.25009861762E+03 -0.37097444970E+03  0.49921413287E+03  0.12508918968E+03 0.  0.
         23    2    1    2    0    0  0.18274595540E+03 -0.25009861762E+03 -0.39646133123E+03  0.51133527836E+03  0.91305952627E+02 0.  0.
          5    1    3    3  502    0 -0.10733113904E+03  0.11248609408E+03 -0.96550080967E+02  0.18306415625E+03  0.41800000000E+01 0. -1.
         -5    1    3    3    0  502 -0.75414816367E+02  0.13761252354E+03 -0.27442436874E+03  0.31614997663E+03  0.41800000000E+01 0. -1.
        -11    1    4    4    0    0  0.55026130752E+02 -0.96154062852E+02 -0.21217082026E+03  0.23935316133E+03  0.00000000000E+00 0.  1.
         11    1    4    4    0    0  0.12771982465E+03 -0.15394455477E+03 -0.18429051097E+03  0.27198211703E+03  0.00000000000E+00 0. -1.
</event>
<event>
 8    1  0.3708258E-009  0.1865020E+03  0.7561462E-02  0.1161655E+00
         -1   -1    0    0    0  501 -0.00000000000E+00  0.00000000000E+00  0.27888794111E+02  0.27888794111E+02  0.00000000000E+00 0.  1.
          1   -1    0    0  501    0  0.00000000000E+00 -0.00000000000E+00 -0.18180522589E+04  0.18180522589E+04  0.00000000000E+00 0. -1.
         25    2    1    2    0    0  0.17299764951E+02  0.15635226172E+03 -0.14104455689E+04  0.14246926093E+04  0.12508803444E+03 0.  0.
         23    2    1    2    0    0 -0.17299764951E+02 -0.15635226172E+03 -0.37971789581E+03  0.42124844370E+03  0.92299833733E+02 0.  0.
          5    1    3    3  502    0 -0.47919959159E+02  0.73423867208E+02 -0.45162664145E+03  0.46007769173E+03  0.41800000000E+01 0. -1.
         -5    1    3    3    0  502  0.65219724110E+02  0.82928394515E+02 -0.95881892750E+03  0.96461491755E+03  0.41800000000E+01 0. -1.
        -11    1    4    4    0    0  0.34960351454E+02 -0.77791998251E+02 -0.14420649138E+03  0.16753905014E+03  0.00000000000E+00 0.  1.
         11    1    4    4    0    0 -0.52260116404E+02 -0.78560263472E+02 -0.23551140443E+03  0.25370939356E+03  0.00000000000E+00 0. -1.
</event>
<event>
 8    1  0.3708258E-009  0.8688136E+02  0.7561462E-02  0.1310585E+00
          4   -1    0    0  501    0  0.00000000000E+00  0.00000000000E+00  0.10462483469E+03  0.10462483469E+03  0.00000000000E+00 0. -1.
         -4   -1    0    0    0  501 -0.00000000000E+00 -0.00000000000E+00 -0.12482766193E+03  0.12482766193E+03  0.00000000000E+00 0.  1.
         25    2    1    2    0    0  0.19562974449E+02 -0.14078415609E+02 -0.35486737814E+02  0.13224168623E+03  0.12509054026E+03 0.  0.
         23    2    1    2    0    0 -0.19562974449E+02  0.14078415609E+02  0.15283910578E+02  0.97210810381E+02  0.92927025009E+02 0.  0.
          5    1    3    3  502    0  0.70639450869E+02 -0.24834438624E+02 -0.19410106588E+02  0.77465514899E+02  0.41800000000E+01 0. -1.
         -5    1    3    3    0  502 -0.51076476420E+02  0.10756023015E+02 -0.16076631226E+02  0.54776171335E+02  0.41800000000E+01 0. -1.
        -11    1    4    4    0    0 -0.13788354473E+02 -0.12859682815E+02  0.49682377276E+02  0.53139709944E+02  0.00000000000E+00 0. -1.
         11    1    4    4    0    0 -0.57746199760E+01  0.26938098424E+02 -0.34398466698E+02  0.44071100437E+02  0.00000000000E+00 0.  1.
</event>
<event>
 8    1  0.3708258E-009  0.2296672E+03  0.7561462E-02  0.1126874E+00
         -2   -1    0    0    0  501 -0.00000000000E+00  0.00000000000E+00  0.91425535776E+02  0.91425535776E+02  0.00000000000E+00 0.  1.
          2   -1    0    0  501    0  0.00000000000E+00 -0.00000000000E+00 -0.74093641134E+03  0.74093641134E+03  0.00000000000E+00 0. -1.
         25    2    1    2    0    0  0.21496604562E+03  0.17477470852E+02 -0.17951443115E+03  0.30723231402E+03  0.12510156286E+03 0.  0.
         23    2    1    2    0    0 -0.21496604562E+03 -0.17477470852E+02 -0.46999644441E+03  0.52512963309E+03  0.91370734001E+02 0.  0.
          5    1    3    3  502    0  0.66344410953E+02  0.54525760836E+02 -0.10826224140E+03  0.13824914022E+03  0.41800000000E+01 0. -1.
         -5    1    3    3    0  502  0.14862163467E+03 -0.37048289984E+02 -0.71252189750E+02  0.16898317380E+03  0.41800000000E+01 0. -1.
        -11    1    4    4    0    0 -0.14194304467E+03  0.95550909170E+01 -0.38198663560E+03  0.40761859313E+03  0.00000000000E+00 0. -1.
         11    1    4    4    0    0 -0.73023000958E+02 -0.27032561769E+02 -0.88009808812E+02  0.11751103996E+03  0.00000000000E+00 0.  1.
</event>
<event>
 8    1  0.3708258E-009  0.9041278E+02  0.7561462E-02  0.1301855E+00
          2   -1    0    0  501    0  0.00000000000E+00  0.00000000000E+00  0.43510593912E+02  0.43510593912E+02  0.00000000000E+00 0. -1.
         -2   -1    0    0    0  501 -0.00000000000E+00 -0.00000000000E+00 -0.42766148764E+03  0.42766148764E+03  0.00000000000E+00 0.  1.
         25    2    1    2    0    0 -0.36831324818E+02  0.47609414161E+02 -0.30567291233E+03  0.33571922969E+03  0.12509304158E+03 0.  0.
         23    2    1    2    0    0  0.36831324818E+02 -0.47609414161E+02 -0.78477981403E+02  0.13545285186E+03  0.92549871460E+02 0.  0.
          5    1    3    3  502    0 -0.44105020612E+02 -0.18333275649E+01 -0.25616850683E+02  0.51208489258E+02  0.41800000000E+01 0. -1.
         -5    1    3    3    0  502  0.72736957940E+01  0.49442741726E+02 -0.28005606164E+03  0.28451074044E+03  0.41800000000E+01 0. -1.
        -11    1    4    4    0    0  0.51080668675E+02 -0.19231413174E+02 -0.42837261196E+01  0.54748810713E+02  0.00000000000E+00 0. -1.
         11    1    4    4    0    0 -0.14249343857E+02 -0.28378000987E+02 -0.74194255284E+02  0.80704041147E+02  0.00000000000E+00 0.  1.
</event>
<event>
 8    1  0.3708258E-009  0.1772564E+03  0.7561462E-02  0.1170485E+00
         -1   -1    0    0    0  501 -0.00000000000E+00  0.00000000000E+00  0.14616106330E+03  0.14616106330E+03  0.00000000000E+00 0.  1.
          1   -1    0    0  501    0  0.00000000000E+00 -0.00000000000E+00 -0.28818876979E+03  0.28818876979E+03  0.00000000000E+00 0. -1.
         25    2    1    2    0    0  0.53487985277E+02 -0.16315890163E+03 -0.80442683775E+02  0.22715896641E+03  0.12509348063E+03 0.  0.
         23    2    1    2    0    0 -0.53487985277E+02  0.16315890163E+03 -0.61585022720E+02  0.20719086668E+03  0.98252473065E+02 0.  0.
          5    1    3    3  502    0  0.58452807213E+02 -0.10126120907E+03 -0.10788050959E+03  0.15914220019E+03  0.41800000000E+01 0. -1.
         -5    1    3    3    0  502 -0.49648219367E+01 -0.61897692557E+02  0.27437825812E+02  0.68016766213E+02  0.41800000000E+01 0. -1.
        -11    1    4    4    0    0 -0.50440314355E+02  0.99562747843E+02  0.91940041022E+01  0.11198881990E+03  0.00000000000E+00 0.  1.
         11    1    4    4    0    0 -0.30476709218E+01  0.63596153786E+02 -0.70779026822E+02  0.95202046786E+02  0.00000000000E+00 0. -1.
</event>
<event>
 8    1  0.3708258E-009  0.1274672E+03  0.7561462E-02  0.1231263E+00
         -2   -1    0    0    0  501 -0.00000000000E+00  0.00000000000E+00  0.19601591716E+02  0.19601591716E+02  0.00000000000E+00 0.  1.
          2   -1    0    0  501    0  0.00000000000E+00 -0.00000000000E+00 -0.11187659006E+04  0.11187659006E+04  0.00000000000E+00 0. -1.
         25    2    1    2    0    0  0.13286657231E+02 -0.90409594589E+02 -0.43197645674E+03  0.45891490537E+03  0.12509516833E+03 0.  0.
         23    2    1    2    0    0 -0.13286657231E+02  0.90409594589E+02 -0.66718785211E+03  0.67945258691E+03  0.90364582678E+02 0.  0.
          5    1    3    3  502    0  0.37616636863E+02 -0.94129893288E+02 -0.41834380317E+03  0.43047004336E+03  0.41800000000E+01 0.  1.
         -5    1    3    3    0  502 -0.24329979632E+02  0.37202986989E+01 -0.13632653565E+02  0.28444862006E+02  0.41800000000E+01 0.  1.
        -11    1    4    4    0    0 -0.47366531725E+02  0.22296356356E+02 -0.27126419787E+03  0.27626976107E+03  0.00000000000E+00 0. -1.
         11    1    4    4    0    0  0.34079874494E+02  0.68113238233E+02 -0.39592365424E+03  0.40318282584E+03  0.00000000000E+00 0.  1.
</event>
<event>
 8    1  0.3708258E-009  0.9990702E+02  0.7561462E-02  0.1280492E+00
         -2   -1    0    0    0  501 -0.00000000000E+00  0.00000000000E+00  0.28795736208E+02  0.28795736208E+02  0.00000000000E+00 0.  1.
          2   -1    0    0  501    0  0.00000000000E+00 -0.00000000000E+00 -0.46438392041E+03  0.46438392041E+03  0.00000000000E+00 0. -1.
         25    2    1    2    0    0 -0.19394935926E+02  0.13180241517E+02 -0.18843010272E+03  0.22738389265E+03  0.12509056208E+03 0.  0.
         23    2    1    2    0    0  0.19394935926E+02 -0.13180241517E+02 -0.24715808149E+03  0.26579576397E+03  0.94923066701E+02 0.  0.
          5    1    3    3  502    0  0.36155193785E+02 -0.18292378308E+02 -0.16526631132E+02  0.43959197882E+02  0.41800000000E+01 0. -1.
         -5    1    3    3    0  502 -0.55550129712E+02  0.31472619825E+02 -0.17190347158E+03  0.18342469477E+03  0.41800000000E+01 0. -1.
        -11    1    4    4    0    0  0.33757964844E+02  0.32713388003E+02 -0.15314976483E+03  0.16020179903E+03  0.00000000000E+00 0. -1.
         11    1    4    4    0    0 -0.14363028918E+02 -0.45893629520E+02 -0.94008316658E+02  0.10559396494E+03  0.00000000000E+00 0.  1.
</event>
<event>
 8    1  0.3708258E-009  0.2652820E+03  0.7561462E-02  0.1104011E+00
         -1   -1    0    0    0  501 -0.00000000000E+00  0.00000000000E+00  0.10070607588E+03  0.10070607588E+03  0.00000000000E+00 0.  1.
          1   -1    0    0  501    0  0.00000000000E+00 -0.00000000000E+00 -0.92147783568E+03  0.92147783568E+03  0.00000000000E+00 0. -1.
         25    2    1    2    0    0 -0.23690805235E+03  0.73842571575E+02 -0.18638507397E+03  0.33461068470E+03  0.12508702521E+03 0.  0.
         23    2    1    2    0    0  0.23690805235E+03 -0.73842571575E+02 -0.63438668583E+03  0.68757322685E+03  0.93446907299E+02 0.  0.
          5    1    3    3  502    0 -0.86561705396E+02 -0.24294672811E+02 -0.10246587343E+03  0.13638140484E+03  0.41800000000E+01 0. -1.
         -5    1    3    3    0  502 -0.15034634695E+03  0.98137244386E+02 -0.83919200541E+02  0.19822927987E+03  0.41800000000E+01 0. -1.
        -11    1    4    4    0    0  0.13511228109E+03 -0.83316035564E+02 -0.32423333119E+03  0.36100435363E+03  0.00000000000E+00 0.  1.
         11    1    4    4    0    0  0.10179577126E+03  0.94734639887E+01 -0.31015335464E+03  0.32656887323E+03  0.00000000000E+00 0. -1.
</event>
<event>
 8    1  0.3708258E-009  0.1996233E+03  0.7561462E-02  0.1150057E+00
         -1   -1    0    0    0  501 -0.00000000000E+00  0.00000000000E+00  0.20911095340E+03  0.20911095340E+03  0.00000000000E+00 0.  1.
          1   -1    0    0  501    0  0.00000000000E+00 -0.00000000000E+00 -0.23112357215E+03  0.23112357215E+03  0.00000000000E+00 0. -1.
         25    2    1    2    0    0 -0.18218913728E+03  0.40730778328E+02 -0.54094891081E+02  0.23113814776E+03  0.12508680210E+03 0.  0.
         23    2    1    2    0    0  0.18218913728E+03 -0.40730778328E+02  0.32082272334E+02  0.20909637779E+03  0.88544593061E+02 0.  0.
          5    1    3    3  502    0 -0.12286054376E+03  0.30035990648E+01  0.24730372919E+02  0.12543045310E+03  0.41800000000E+01 0. -1.
         -5    1    3    3    0  502 -0.59328593522E+02  0.37727179263E+02 -0.78825264000E+02  0.10570769465E+03  0.41800000000E+01 0. -1.
        -11    1    4    4    0    0  0.52782875664E+02 -0.54304646668E+02  0.31109211125E+01  0.75793828531E+02  0.00000000000E+00 0.  1.
         11    1    4    4    0    0  0.12940626162E+03  0.13573868340E+02  0.28971351222E+02  0.13330254926E+03  0.00000000000E+00 0. -1.
</event>
<event>
 8    1  0.3708258E-009  0.9891452E+02  0.7561462E-02  0.1282595E+00
          1   -1    0    0  501    0  0.00000000000E+00  0.00000000000E+00  0.12323589970E+04  0.12323589970E+04  0.00000000000E+00 0. -1.
         -1   -1    0    0    0  501 -0.00000000000E+00 -0.00000000000E+00 -0.13786133937E+02  0.13786133937E+02  0.00000000000E+00 0.  1.
         25    2    1    2    0    0  0.11948250013E+02  0.69607917850E+02  0.64027744599E+03  0.65619572135E+03  0.12509833721E+03 0.  0.
         23    2    1    2    0    0 -0.11948250013E+02 -0.69607917850E+02  0.57829541710E+03  0.58994940962E+03  0.92879995458E+02 0.  0.
          5    1    3    3  502    0  0.22120010855E+02  0.65986328508E+02  0.14610561497E+03  0.16188827492E+03  0.41800000000E+01 0.  1.
         -5    1    3    3    0  502 -0.10171760842E+02  0.36215893416E+01  0.49417183101E+03  0.49430744643E+03  0.41800000000E+01 0.  1.
        -11    1    4    4    0    0 -0.46468739348E+02 -0.98242558912E+01  0.22105938542E+03  0.22610420523E+03  0.00000000000E+00 0.  1.
         11    1    4    4    0    0  0.34520489334E+02 -0.59783661958E+02  0.35723603168E+03  0.36384520438E+03  0.00000000000E+00 0. -1.
</event>
<event>
 8    1  0.3708258E-009  0.1018348E+03  0.7561462E-02  0.1276484E+00
          2   -1    0    0  501    0  0.00000000000E+00  0.00000000000E+00  0.14154325894E+03  0.14154325894E+03  0.00000000000E+00 0. -1.
         -2   -1    0    0    0  501 -0.00000000000E+00 -0.00000000000E+00 -0.10681467440E+03  0.10681467440E+03  0.00000000000E+00 0.  1.
         25    2    1    2    0    0  0.90537921473E+01 -0.43426378155E+02  0.65128048963E+02  0.14784026315E+03  0.12508900501E+03 0.  0.
         23    2    1    2    0    0 -0.90537921473E+01  0.43426378155E+02 -0.30399464422E+02  0.10051767019E+03  0.84922630154E+02 0.  0.
          5    1    3    3  502    0 -0.53211378673E+00  0.36582574878E+02 -0.93926323655E+01  0.38003445535E+02  0.41800000000E+01 0.  1.
         -5    1    3    3    0  502  0.95859059340E+01 -0.80008953032E+02  0.74520681329E+02  0.10983681761E+03  0.41800000000E+01 0.  1.
        -11    1    4    4    0    0  0.32625788886E+02  0.16800913888E+02  0.84119189045E+01  0.37649345115E+02  0.00000000000E+00 0.  1.
         11    1    4    4    0    0 -0.41679581034E+02  0.26625464267E+02 -0.38811383327E+02  0.62868325079E+02  0.00000000000E+00 0. -1.
</event>
<event>
 8    1  0.3708258E-009  0.8711454E+02  0.7561462E-02  0.1309994E+00
          1   -1    0    0  501    0  0.00000000000E+00  0.00000000000E+00  0.59263024625E+02  0.59263024625E+02  0.00000000000E+00 0. -1.
         -1   -1    0    0    0  501 -0.00000000000E+00 -0.00000000000E+00 -0.37564208220E+03  0.37564208220E+03  0.00000000000E+00 0.  1.
         25    2    1    2    0    0  0.10568626325E+02 -0.44130643704E+02 -0.30559644756E+03  0.33331041736E+03  0.12508971172E+03 0.  0.
         23    2    1    2    0    0 -0.10568626325E+02  0.44130643704E+02 -0.10782610010E+02  0.10159468947E+03  0.90255230723E+02 0.  0.
          5    1    3    3  502    0 -0.34139474657E+02 -0.55550459227E+02 -0.26081384726E+03  0.26887300455E+03  0.41800000000E+01 0. -1.
         -5    1    3    3    0  502  0.44708100982E+02  0.11419815522E+02 -0.44782600301E+02  0.64437412811E+02  0.41800000000E+01 0. -1.
        -11    1    4    4    0    0  0.16354228092E+02  0.10312644712E+02  0.34151327900E+02  0.39244421448E+02  0.00000000000E+00 0. -1.
         11    1    4    4    0    0 -0.26922854417E+02  0.33817998992E+02 -0.44933937910E+02  0.62350268018E+02  0.00000000000E+00 0.  1.
</event>
<event>
 8    1  0.3708258E-009  0.9697958E+02  0.7561462E-02  0.1286779E+00
          2   -1    0    0  501    0  0.00000000000E+00  0.00000000000E+00  0.18066359021E+03  0.18066359021E+03  0.00000000000E+00 0. -1.
         -2   -1    0    0    0  501 -0.00000000000E+00 -0.00000000000E+00 -0.75682506361E+02  0.75682506361E+02  0.00000000000E+00 0.  1.
         25    2    1    2    0    0 -0.29275138375E+02 -0.12469325945E+02  0.68451469897E+02  0.14611513045E+03  0.12510599426E+03 0.  0.
         23    2    1    2    0    0  0.29275138375E+02  0.12469325945E+02  0.36529613949E+02  0.11023096612E+03  0.99014824040E+02 0.  0.
          5    1    3    3  502    0  0.43244385769E+02 -0.29459012673E+02  0.41067033502E+02  0.66647460333E+02  0.41800000000E+01 0. -1.
         -5    1    3    3    0  502 -0.72519524144E+02  0.16989686728E+02  0.27384436396E+02  0.79467670117E+02  0.41800000000E+01 0. -1.
        -11    1    4    4    0    0  0.19055323072E+02  0.36266739117E+02  0.61734708563E+02  0.74091537607E+02  0.00000000000E+00 0. -1.
         11    1    4    4    0    0  0.10219815302E+02 -0.23797413173E+02 -0.25205094615E+02  0.36139428510E+02  0.00000000000E+00 0.  1.
</event>
<event>
 8    1  0.3708258E-009  0.1507478E+03  0.7561462E-02  0.1199557E+00
         -1   -1    0    0    0  501 -0.00000000000E+00  0.00000000000E+00  0.55081758210E+02  0.55081758210E+02  0.00000000000E+00 0.  1.
          1   -1    0    0  501    0  0.00000000000E+00 -0.00000000000E+00 -0.53167039073E+03  0.53167039073E+03  0.00000000000E+00 0. -1.
         25    2    1    2    0    0  0.12659300309E+03 -0.21755798527E+02 -0.30931588766E+03  0.35752403041E+03  0.12509200921E+03 0.  0.
         23    2    1    2    0    0 -0.12659300309E+03  0.21755798527E+02 -0.16727274487E+03  0.22922811853E+03  0.89812337398E+02 0.  0.
          5    1    3    3  502    0  0.32487985431E+02  0.32429254113E+02 -0.23483106609E+02  0.51730594581E+02  0.41800000000E+01 0. -1.
         -5    1    3    3    0  502  0.94105017656E+02 -0.54185052640E+02 -0.28583278105E+03  0.30579343583E+03  0.41800000000E+01 0. -1.
        -11    1    4    4    0    0 -0.11313081962E+03 -0.86682344128E+01 -0.89084077818E+02  0.14425565347E+03  0.00000000000E+00 0.  1.
         11    1    4    4    0    0 -0.13462183465E+02  0.30424032940E+02 -0.78188667050E+02  0.84972465064E+02  0.00000000000E+00 0. -1.
</event>
<event>
 8    1  0.3708258E-009  0.1292436E+03  0.7561462E-02  0.1228582E+00
          1   -1    0    0  501    0  0.00000000000E+00  0.00000000000E+00  0.19914644304E+02  0.19914644304E+02  0.00000000000E+00 0. -1.
         -1   -1    0    0    0  501 -0.00000000000E+00 -0.00000000000E+00 -0.10451863552E+04  0.10451863552E+04  0.00000000000E+00 0.  1.
         25    2    1    2    0    0 -0.51969065968E+02 -0.62626998515E+02 -0.38010945619E+03  0.40835502447E+03  0.12509077729E+03 0.  0.
         23    2    1    2    0    0  0.51969065968E+02  0.62626998515E+02 -0.64516225469E+03  0.65674597502E+03  0.91967472880E+02 0.  0.
          5    1    3    3  502    0 -0.20932832754E+02  0.30660115442E+02 -0.41972908860E+02  0.56190956961E+02  0.41800000000E+01 0. -1.
         -5    1    3    3    0  502 -0.31036233213E+02 -0.93287113957E+02 -0.33813654733E+03  0.35216406751E+03  0.41800000000E+01 0. -1.
        -11    1    4    4    0    0  0.62892587541E+02  0.80269802538E+02 -0.54466917652E+03  0.55413286369E+03  0.00000000000E+00 0.  1.
         11    1    4    4    0    0 -0.10923521573E+02 -0.17642804023E+02 -0.10049307817E+03  0.10261311133E+03  0.00000000000E+00 0. -1.
</event>
<event>
 8    1  0.3708258E-009  0.1870768E+03  0.7561462E-02  0.1161125E+00
         -1   -1    0    0    0  501 -0.00000000000E+00  0.00000000000E+00  0.15544021518E+04  0.15544021518E+04  0.00000000000E+00 0.  1.
          1   -1    0    0  501    0  0.00000000000E+00 -0.00000000000E+00 -0.28184284585E+02  0.28184284585E+02  0.00000000000E+00 0. -1.
         25    2    1    2    0    0 -0.58293911839E+02  0.16791387469E+03  0.94304259811E+03  0.96776536277E+03  0.12508879269E+03 0.  0.
         23    2    1    2    0    0  0.58293911839E+02 -0.16791387469E+03  0.58317526915E+03  0.61482107366E+03  0.79487788972E+02 0.  0.
          5    1    3    3  502    0 -0.23222688211E+02  0.69290957439E+01  0.25082671099E+02  0.35127174738E+02  0.41800000000E+01 0. -1.
         -5    1    3    3    0  502 -0.35071223628E+02  0.16098477895E+03  0.91795992701E+03  0.93263818803E+03  0.41800000000E+01 0. -1.
        -11    1    4    4    0    0  0.17500339413E+01 -0.81251049720E+02  0.35646469093E+03  0.36561164038E+03  0.00000000000E+00 0. -1.
         11    1    4    4    0    0  0.56543877898E+02 -0.86662824974E+02  0.22671057822E+03  0.24920943328E+03  0.00000000000E+00 0.  1.
</event>
<event>
 8    1  0.3708258E-009  0.1111967E+03  0.7561462E-02  0.1258370E+00
         -3   -1    0    0    0  501 -0.00000000000E+00  0.00000000000E+00  0.18734402226E+02  0.18734402226E+02  0.00000000000E+00 0.  1.
          3   -1    0    0  501    0  0.00000000000E+00 -0.00000000000E+00 -0.74132026552E+03  0.74132026552E+03  0.00000000000E+00 0. -1.
         25    2    1    2    0    0 -0.35335332086E+02  0.18740957623E+02 -0.47319661265E+03  0.49108261832E+03  0.12508914666E+03 0.  0.
         23    2    1    2    0    0  0.35335332086E+02 -0.18740957623E+02 -0.24938925065E+03  0.26897204943E+03  0.92472459941E+02 0.  0.
          5    1    3    3  502    0  0.35782609162E+02 -0.19872068241E+02 -0.25555025939E+03  0.25884107420E+03  0.41800000000E+01 0.  1.
         -5    1    3    3    0  502 -0.71117941247E+02  0.38613025864E+02 -0.21764635325E+03  0.23224154413E+03  0.41800000000E+01 0.  1.
        -11    1    4    4    0    0  0.55540702300E+02 -0.41834191936E+02 -0.18527906421E+03  0.19789694505E+03  0.00000000000E+00 0.  1.
         11    1    4    4    0    0 -0.20205370215E+02  0.23093234313E+02 -0.64110186443E+02  0.71075104377E+02  0.00000000000E+00 0. -1.
</event>
<event>
 8    1  0.3708258E-009  0.1075433E+03  0.7561462E-02  0.1265188E+00
         -2   -1    0    0    0  501 -0.00000000000E+00  0.00000000000E+00  0.64080324352E+02  0.64080324352E+02  0.00000000000E+00 0.  1.
          2   -1    0    0  501    0  0.00000000000E+00 -0.00000000000E+00 -0.21585349814E+03  0.21585349814E+03  0.00000000000E+00 0. -1.
         25    2    1    2    0    0 -0.34852411029E+02 -0.26946279286E+02 -0.62092906896E+02  0.14643877408E+03  0.12509193798E+03 0.  0.
         23    2    1    2    0    0  0.34852411029E+02  0.26946279286E+02 -0.89680266893E+02  0.13349504841E+03  0.88530137004E+02 0.  0.
          5    1    3    3  502    0 -0.65753310693E+02 -0.57079104951E+02 -0.53354959312E+02  0.10220443323E+03  0.41800000000E+01 0.  1.
         -5    1    3    3    0  502  0.30900899664E+02  0.30132825665E+02 -0.87379475842E+01  0.44234340852E+02  0.41800000000E+01 0.  1.
        -11    1    4    4    0    0 -0.17662937242E+02  0.26726682407E+02 -0.70761361406E+02  0.77675383311E+02  0.00000000000E+00 0. -1.
         11    1    4    4    0    0  0.52515348271E+02  0.21959687821E+00 -0.18918905487E+02  0.55819665098E+02  0.00000000000E+00 0.  1.
</event>
<event>
 8    1  0.3708258E-009  0.1032110E+03  0.7561462E-02  0.1273685E+00
          2   -1    0    0  501    0  0.00000000000E+00  0.00000000000E+00  0.12052340444E+04  0.12052340444E+04  0.00000000000E+00 0. -1.
         -2   -1    0    0    0  501 -0.00000000000E+00 -0.00000000000E+00 -0.28725879110E+02  0.28725879110E+02  0.00000000000E+00 0.  1.
         25    2    1    2    0    0  0.28627105729E+02 -0.45336870871E+02  0.10856943305E+04  0.10941911975E+04  0.12508898611E+03 0.  0.
         23    2    1    2    0    0 -0.28627105729E+02  0.45336870871E+02  0.90813834812E+02  0.13976872599E+03  0.91723503694E+02 0.  0.
          5    1    3    3  502    0  0.44261515782E+02 -0.69286788006E+02  0.10069443191E+04  0.10103039518E+04  0.41800000000E+01 0. -1.
         -5    1    3    3    0  502 -0.15634410053E+02  0.23949917136E+02  0.78750011361E+02  0.83887245740E+02  0.41800000000E+01 0. -1.
        -11    1    4    4    0    0  0.16947789926E+02  0.46614935149E+02  0.77955898151E+02  0.92397520632E+02  0.00000000000E+00 0. -1.
         11    1    4    4    0    0 -0.45574895655E+02 -0.12780642786E+01  0.12857936661E+02  0.47371205362E+02  0.00000000000E+00 0.  1.
</event>
<event>
 8    1  0.3708258E-009  0.1174827E+03  0.7561462E-02  0.1247309E+00
         -1   -1    0    0    0  501 -0.00000000000E+00  0.00000000000E+00  0.67815249328E+03  0.67815249328E+03  0.00000000000E+00 0.  1.
          1   -1    0    0  501    0  0.00000000000E+00 -0.00000000000E+00 -0.27600644112E+02  0.27600644112E+02  0.00000000000E+00 0. -1.
         25    2    1    2    0    0  0.23944546558E+02  0.72727312079E+02  0.29587438538E+03  0.33023187774E+03  0.12509531532E+03 0.  0.
         23    2    1    2    0    0 -0.23944546558E+02 -0.72727312079E+02  0.35467746378E+03  0.37552125965E+03  0.96734223029E+02 0.  0.
          5    1    3    3  502    0  0.29862020952E+01  0.91612604905E+02  0.28550211769E+03  0.29988450841E+03  0.41800000000E+01 0. -1.
         -5    1    3    3    0  502  0.20958344463E+02 -0.18885292826E+02  0.10372267693E+02  0.30347369324E+02  0.41800000000E+01 0. -1.
        -11    1    4    4    0    0 -0.86257560049E+00  0.19549815599E+02  0.21683669337E+02  0.29208232444E+02  0.00000000000E+00 0. -1.
         11    1    4    4    0    0 -0.23081970958E+02 -0.92277127679E+02  0.33299379444E+03  0.34631302721E+03  0.00000000000E+00 0.  1.
</event>
<event>
 8    1  0.3708258E-009  0.1011540E+03  0.7561462E-02  0.1277888E+00
         -2   -1    0    0    0  501 -0.00000000000E+00  0.00000000000E+00  0.13296899491E+03  0.13296899491E+03  0.00000000000E+00 0.  1.
          2   -1    0    0  501    0  0.00000000000E+00 -0.00000000000E+00 -0.11881755105E+03  0.11881755105E+03  0.00000000000E+00 0. -1.
         25    2    1    2    0    0  0.19419928407E+02  0.53748404850E+02  0.43146607832E+02  0.14413515937E+03  0.12508912725E+03 0.  0.
         23    2    1    2    0    0 -0.19419928407E+02 -0.53748404850E+02 -0.28995163975E+02  0.10765138659E+03  0.86498999165E+02 0.  0.
          5    1    3    3  502    0 -0.21912723717E+02  0.53134280567E+02 -0.26193041216E+02  0.63300608530E+02  0.41800000000E+01 0.  1.
         -5    1    3    3    0  502  0.41332652124E+02  0.61412428295E+00  0.69339649048E+02  0.80834550845E+02  0.41800000000E+01 0.  1.
        -11    1    4    4    0    0  0.28141376935E+02 -0.47434804236E+02 -0.20970314338E+02  0.59006371115E+02  0.00000000000E+00 0.  1.
         11    1    4    4    0    0 -0.47561305341E+02 -0.63136006142E+01 -0.80248496377E+01  0.48645015471E+02  0.00000000000E+00 0. -1.
</event>
<event>
 8    1  0.3708258E-009  0.2532631E+03  0.7561462E-02  0.1111260E+00
         -2   -1    0    0    0  501 -0.00000000000E+00  0.00000000000E+00  0.33028197449E+02  0.33028197449E+02  0.00000000000E+00 0.  1.
          2   -1    0    0  501    0  0.00000000000E+00 -0.00000000000E+00 -0.20662883696E+04  0.20662883696E+04  0.00000000000E+00 0. -1.
         25    2    1    2    0    0  0.21102365702E+03  0.10581952755E+03 -0.99770410124E+03  0.10328542630E+04  0.12508276717E+03 0.  0.
         23    2    1    2    0    0 -0.21102365702E+03 -0.10581952755E+03 -0.10355560709E+04  0.10664623041E+04  0.96107823916E+02 0.  0.
          5    1    3    3  502    0  0.39393890057E+02 -0.21092515467E+02 -0.29622084183E+03  0.29960145580E+03  0.41800000000E+01 0. -1.
         -5    1    3    3    0  502  0.17162976696E+03  0.12691204302E+03 -0.70148325941E+03  0.73325280716E+03  0.41800000000E+01 0. -1.
        -11    1    4    4    0    0 -0.18814351433E+03 -0.60928209722E+02 -0.90860038700E+03  0.92987358925E+03  0.00000000000E+00 0. -1.
         11    1    4    4    0    0 -0.22880142686E+02 -0.44891317829E+02 -0.12695568393E+03  0.13658871486E+03  0.00000000000E+00 0.  1.
</event>
<event>
 8    1  0.3708258E-009  0.2017490E+03  0.7561462E-02  0.1148272E+00
          2   -1    0    0  501    0  0.00000000000E+00  0.00000000000E+00  0.10458196193E+04  0.10458196193E+04  0.00000000000E+00 0. -1.
         -2   -1    0    0    0  501 -0.00000000000E+00 -0.00000000000E+00 -0.59163018843E+02  0.59163018843E+02  0.00000000000E+00 0.  1.
         25    2    1    2    0    0 -0.17168739626E+03 -0.84746896371E+02  0.25232282339E+03  0.34054808599E+03  0.12509034011E+03 0.  0.
         23    2    1    2    0    0  0.17168739626E+03  0.84746896371E+02  0.73433377706E+03  0.76443455215E+03  0.91953737862E+02 0.  0.
          5    1    3    3  502    0 -0.14771738839E+03 -0.30013466458E+02  0.23313444188E+03  0.27765153591E+03  0.41800000000E+01 0. -1.
         -5    1    3    3    0  502 -0.23970007865E+02 -0.54733429913E+02  0.19188381510E+02  0.62896550081E+02  0.41800000000E+01 0. -1.
        -11    1    4    4    0    0  0.86215566991E+02  0.29913307734E+02  0.19085973792E+03  0.21155464904E+03  0.00000000000E+00 0.  1.
         11    1    4    4    0    0  0.85471829265E+02  0.54833588637E+02  0.54347403915E+03  0.55287990311E+03  0.00000000000E+00 0. -1.
</event>
<event>
 8    1  0.3708258E-009  0.1940990E+03  0.7561462E-02  0.1154815E+00
          2   -1    0    0  501    0  0.00000000000E+00  0.00000000000E+00  0.12130797530E+04  0.12130797530E+04  0.00000000000E+00 0. -1.
         -2   -1    0    0    0  501 -0.00000000000E+00 -0.00000000000E+00 -0.48348121084E+02  0.48348121084E+02  0.00000000000E+00 0.  1.
         25    2    1    2    0    0 -0.20034130531E+02  0.16479945661E+03  0.96308104480E+03  0.98525773056E+03  0.12508984570E+03 0.  0.
         23    2    1    2    0    0  0.20034130531E+02 -0.16479945661E+03  0.20165058716E+03  0.27617014356E+03  0.89703743564E+02 0.  0.
          5    1    3    3  502    0 -0.62605810936E+02  0.44834889184E+02  0.45294117492E+03  0.45945928567E+03  0.41800000000E+01 0.  1.
         -5    1    3    3    0  502  0.42571680405E+02  0.11996456743E+03  0.51013986988E+03  0.52579844489E+03  0.41800000000E+01 0.  1.
        -11    1    4    4    0    0  0.45336810397E+02 -0.56188452519E+02  0.49545259983E+02  0.87563127858E+02  0.00000000000E+00 0.  1.
         11    1    4    4    0    0 -0.25302679866E+02 -0.10861100409E+03  0.15210532718E+03  0.18860701571E+03  0.00000000000E+00 0. -1.
</event>
<event>
 8    1  0.3708258E-009  0.2276136E+03  0.7561462E-02  0.1128331E+00
         -2   -1    0    0    0  501 -0.00000000000E+00  0.00000000000E+00  0.64022552779E+02  0.64022552779E+02  0.00000000000E+00 0.  1.
          2   -1    0    0  501    0  0.00000000000E+00 -0.00000000000E+00 -0.96211630548E+03  0.96211630548E+03  0.00000000000E+00 0. -1.
         25    2    1    2    0    0  0.96676801385E+02  0.18797444148E+03 -0.60920777893E+03  0.65685787246E+03  0.12508937653E+03 0.  0.
         23    2    1    2    0    0 -0.96676801385E+02 -0.18797444148E+03 -0.28888597377E+03  0.36928098581E+03  0.90733378963E+02 0.  0.
          5    1    3    3  502    0  0.11619794788E+03  0.14853957939E+03 -0.38982715315E+03  0.43306887613E+03  0.41800000000E+01 0.  1.
         -5    1    3    3    0  502 -0.19521146498E+02  0.39434862091E+02 -0.21938062579E+03  0.22378899633E+03  0.41800000000E+01 0.  1.
        -11    1    4    4    0    0 -0.64218852235E+02 -0.17673790677E+03 -0.20264337956E+03  0.27645015455E+03  0.00000000000E+00 0.  1.
         11    1    4    4    0    0 -0.32457949150E+02 -0.11236534719E+02 -0.86242594213E+02  0.92830831258E+02  0.00000000000E+00 0. -1.
</event>
<event>
 8    1  0.3708258E-009  0.1250682E+03  0.7561462E-02  0.1234963E+00
          1   -1    0    0  501    0  0.00000000000E+00  0.00000000000E+00  0.20040189378E+03  0.20040189378E+03  0.00000000000E+00 0. -1.
         -1   -1    0    0    0  501 -0.00000000000E+00 -0.00000000000E+00 -0.80954257709E+02  0.80954257709E+02  0.00000000000E+00 0.  1.
         25    2    1    2    0    0  0.57290428684E+02 -0.35021967558E+02  0.60100928538E+02  0.15416586565E+03  0.12508501545E+03 0.  0.
         23    2    1    2    0    0 -0.57290428684E+02  0.35021967558E+02  0.59346707534E+02  0.12719028584E+03  0.90258549107E+02 0.  0.
          5    1    3    3  502    0 -0.39734139878E+02 -0.12509271464E+02  0.23209312921E+02  0.47868866193E+02  0.41800000000E+01 0.  1.
         -5    1    3    3    0  502  0.97024568562E+02 -0.22512696094E+02  0.36891615617E+02  0.10629699945E+03  0.41800000000E+01 0.  1.
        -11    1    4    4    0    0 -0.52718302924E+02 -0.17738448354E+02  0.46978702588E+02  0.72807077335E+02  0.00000000000E+00 0. -1.
         11    1    4    4    0    0 -0.45721257597E+01  0.52760415912E+02  0.12368004946E+02  0.54383208507E+02  0.00000000000E+00 0.  1.
</event>
<event>
 8    1  0.3708258E-009  0.1101743E+03  0.7561462E-02  0.1260247E+00
          1   -1    0    0  501    0  0.00000000000E+00  0.00000000000E+00  0.16341100499E+04  0.16341100499E+04  0.00000000000E+00 0. -1.
         -1   -1    0    0    0  501 -0.00000000000E+00 -0.00000000000E+00 -0.17005909563E+02  0.17005909563E+02  0.00000000000E+00 0.  1.
         25    2    1    2    0    0  0.37433919398E+02 -0.21844211602E+02  0.14455202590E+04  0.14515696445E+04  0.12508855114E+03 0.  0.
         23    2    1    2    0    0 -0.37433919398E+02  0.21844211602E+02  0.17158388134E+03  0.19954631501E+03  0.92191298918E+02 0.  0.
          5    1    3    3  502    0  0.71003675878E+02 -0.42643139319E+02  0.11996545220E+04  0.12025175275E+04  0.41800000000E+01 0.  1.
         -5    1    3    3    0  502 -0.33569756481E+02  0.20798927717E+02  0.24586573697E+03  0.24905211695E+03  0.41800000000E+01 0.  1.
        -11    1    4    4    0    0 -0.63929050197E+02  0.90332338280E+00  0.83188128399E+02  0.10491903621E+03  0.00000000000E+00 0.  1.
         11    1    4    4    0    0  0.26495130799E+02  0.20940888219E+02  0.88395752940E+02  0.94627278801E+02  0.00000000000E+00 0. -1.
</event>
<event>
 8    1  0.3708258E-009  0.1042419E+03  0.7561462E-02  0.1271620E+00
         -1   -1    0    0    0  501 -0.00000000000E+00  0.00000000000E+00  0.45793166884E+03  0.45793166884E+03  0.00000000000E+00 0.  1.
          1   -1    0    0  501    0  0.00000000000E+00 -0.00000000000E+00 -0.25850422490E+02  0.25850422490E+02  0.00000000000E+00 0. -1.
         25    2    1    2    0    0 -0.35074171938E+01 -0.13817904790E+02  0.26306531882E+03  0.29164530635E+03  0.12510150392E+03 0.  0.
         23    2    1    2    0    0  0.35074171938E+01  0.13817904790E+02  0.16901592753E+03  0.19213678498E+03  0.90260311962E+02 0.  0.
          5    1    3    3  502    0 -0.61558566551E+02 -0.14488028100E+02  0.17462057378E+03  0.18576645893E+03  0.41800000000E+01 0. -1.
         -5    1    3    3    0  502  0.58051149357E+02  0.67012331029E+00  0.88444745036E+02  0.10587884742E+03  0.41800000000E+01 0. -1.
        -11    1    4    4    0    0  0.42799632594E+02 -0.54369824876E+01  0.54261075285E+02  0.69322677529E+02  0.00000000000E+00 0. -1.
         11    1    4    4    0    0 -0.39292215400E+02  0.19254887278E+02  0.11475485224E+03  0.12281410745E+03  0.00000000000E+00 0.  1.
</event>
<event>
 8    1  0.3708258E-009  0.1639961E+03  0.7561462E-02  0.1184258E+00
          1   -1    0    0  501    0  0.00000000000E+00  0.00000000000E+00  0.10521204640E+03  0.10521204640E+03  0.00000000000E+00 0. -1.
         -1   -1    0    0    0  501 -0.00000000000E+00 -0.00000000000E+00 -0.35925662563E+03  0.35925662563E+03  0.00000000000E+00 0.  1.
         25    2    1    2    0    0 -0.83256938677E+02  0.12986185259E+03 -0.77627783962E+02  0.21323500278E+03  0.12508906816E+03 0.  0.
         23    2    1    2    0    0  0.83256938677E+02 -0.12986185259E+03 -0.17641679527E+03  0.25123366924E+03  0.90551931571E+02 0.  0.
          5    1    3    3  502    0 -0.77053995635E+02  0.56971917751E+02  0.12885082293E+02  0.96781276088E+02  0.41800000000E+01 0. -1.
         -5    1    3    3    0  502 -0.62029430416E+01  0.72889934841E+02 -0.90512866255E+02  0.11645372670E+03  0.41800000000E+01 0. -1.
        -11    1    4    4    0    0  0.72774507264E+02 -0.81276049967E+02 -0.16874725673E+03  0.20094168771E+03  0.00000000000E+00 0.  1.
         11    1    4    4    0    0  0.10482431413E+02 -0.48585802625E+02 -0.76695385402E+01  0.50291981532E+02  0.00000000000E+00 0. -1.
</event>
<event>
 8    1  0.3708258E-009  0.2348177E+03  0.7561462E-02  0.1123294E+00
         -4   -1    0    0    0  501 -0.00000000000E+00  0.00000000000E+00  0.15187531376E+03  0.15187531376E+03  0.00000000000E+00 0. -1.
          4   -1    0    0  501    0  0.00000000000E+00 -0.00000000000E+00 -0.40050783974E+03  0.40050783974E+03  0.00000000000E+00 0.  1.
         25    2    1    2    0    0  0.20444672116E+03  0.75890661638E+02 -0.85486773855E+02  0.26554483135E+03  0.12509282407E+03 0.  0.
         23    2    1    2    0    0 -0.20444672116E+03 -0.75890661638E+02 -0.16314575212E+03  0.28683832216E+03  0.90010178909E+02 0.  0.
          5    1    3    3  502    0  0.17839455686E+03  0.10119641175E+03 -0.43190580097E+02  0.20963833208E+03  0.41800000000E+01 0.  1.
         -5    1    3    3    0  502  0.26052164303E+02 -0.25305750116E+02 -0.42296193759E+02  0.55906499267E+02  0.41800000000E+01 0.  1.
        -11    1    4    4    0    0 -0.12992110352E+03 -0.13276324131E+02 -0.12931724089E+03  0.18378983300E+03  0.00000000000E+00 0.  1.
         11    1    4    4    0    0 -0.74525617643E+02 -0.62614337507E+02 -0.33828511229E+02  0.10304848916E+03  0.00000000000E+00 0. -1.
</event>
<event>
 8    1  0.3708258E-009  0.1917052E+03  0.7561462E-02  0.1156932E+00
          2   -1    0    0  501    0  0.00000000000E+00  0.00000000000E+00  0.10024718571E+03  0.10024718571E+03  0.00000000000E+00 0. -1.
         -2   -1    0    0    0  501 -0.00000000000E+00 -0.00000000000E+00 -0.45430887664E+03  0.45430887664E+03  0.00000000000E+00 0.  1.
         25    2    1    2    0    0 -0.13887275098E+03 -0.90266683734E+02 -0.83874806838E+02  0.22387608241E+03  0.12510716164E+03 0.  0.
         23    2    1    2    0    0  0.13887275098E+03  0.90266683734E+02 -0.27018688409E+03  0.33067997994E+03  0.94417062235E+02 0.  0.
          5    1    3    3  502    0 -0.15480721234E+03 -0.97407217723E+02 -0.57129296821E+02  0.19166290202E+03  0.41800000000E+01 0. -1.
         -5    1    3    3    0  502  0.15934461357E+02  0.71405339888E+01 -0.26745510017E+02  0.32213180384E+02  0.41800000000E+01 0. -1.
        -11    1    4    4    0    0  0.13531283544E+03  0.53402527617E+02 -0.16931480491E+03  0.22322387093E+03  0.00000000000E+00 0. -1.
         11    1    4    4    0    0  0.35599155355E+01  0.36864156117E+02 -0.10087207918E+03  0.10745610901E+03  0.00000000000E+00 0.  1.
</event>
<event>
 8    1  0.3708258E-009  0.1070551E+03  0.7561462E-02  0.1266123E+00
         -2   -1    0    0    0  501 -0.00000000000E+00  0.00000000000E+00  0.13516029116E+02  0.13516029116E+02  0.00000000000E+00 0.  1.
          2   -1    0    0  501    0  0.00000000000E+00 -0.00000000000E+00 -0.15443039652E+04  0.15443039652E+04  0.00000000000E+00 0. -1.
         25    2    1    2    0    0  0.23733867201E+02 -0.45620541438E+02 -0.12630990339E+04  0.12703201245E+04  0.12509803760E+03 0.  0.
         23    2    1    2    0    0 -0.23733867201E+02  0.45620541438E+02 -0.26768890219E+03  0.28749986982E+03  0.91401841009E+02 0.  0.
          5    1    3    3  502    0 -0.44091199733E+02  0.20606629240E+01 -0.25648209620E+03  0.26028603170E+03  0.41800000000E+01 0.  1.
         -5    1    3    3    0  502  0.67825066934E+02 -0.47681204362E+02 -0.10066169377E+04  0.10100340928E+04  0.41800000000E+01 0.  1.
        -11    1    4    4    0    0  0.57631394529E+01 -0.16778361048E+02 -0.92576299754E+01  0.20010769315E+02  0.00000000000E+00 0.  1.
         11    1    4    4    0    0 -0.29497006654E+02  0.62398902486E+02 -0.25843127221E+03  0.26748910051E+03  0.00000000000E+00 0. -1.
</event>
<event>
 8    1  0.3708258E-009  0.1044596E+03  0.7561462E-02  0.1271188E+00
          2   -1    0    0  501    0  0.00000000000E+00  0.00000000000E+00  0.88654283805E+03  0.88654283805E+03  0.00000000000E+00 0. -1.
         -2   -1    0    0    0  501 -0.00000000000E+00 -0.00000000000E+00 -0.16769393383E+02  0.16769393383E+02  0.00000000000E+00 0.  1.
         25    2    1    2    0    0 -0.28682273994E+02  0.45719956856E+02  0.46592413090E+03  0.48543622135E+03  0.12510012769E+03 0.  0.
         23    2    1    2    0    0  0.28682273994E+02 -0.45719956856E+02  0.40384931377E+03  0.41787601008E+03  0.92806811576E+02 0.  0.
          5    1    3    3  502    0  0.31277016333E+02  0.68453964247E+01  0.31343759261E+02  0.45000164972E+02  0.41800000000E+01 0.  1.
         -5    1    3    3    0  502 -0.59959290326E+02  0.38874560431E+02  0.43458037164E+03  0.44043605638E+03  0.41800000000E+01 0.  1.
        -11    1    4    4    0    0 -0.45093670664E+00  0.26847956763E+02  0.14529316457E+03  0.14775357795E+03  0.00000000000E+00 0.  1.
         11    1    4    4    0    0  0.29133210700E+02 -0.72567913619E+02  0.25855614920E+03  0.27012243213E+03  0.00000000000E+00 0. -1.
</event>
<event>
 8    1  0.3708258E-009  0.1493793E+03  0.7561462E-02  0.1201238E+00
         -2   -1    0    0    0  501 -0.00000000000E+00  0.00000000000E+00  0.10324265527E+03  0.10324265527E+03  0.00000000000E+00 0.  1.
          2   -1    0    0  501    0  0.00000000000E+00 -0.00000000000E+00 -0.28192389153E+03  0.28192389153E+03  0.00000000000E+00 0. -1.
         25    2    1    2    0    0  0.10315165226E+03  0.64621645189E+02 -0.15125559619E+03  0.23096145730E+03  0.12509483998E+03 0.  0.
         23    2    1    2    0    0 -0.10315165226E+03 -0.64621645189E+02 -0.27425640066E+02  0.15420508950E+03  0.90613594469E+02 0.  0.
          5    1    3    3  502    0  0.43515531382E+02  0.77202985992E+02 -0.14441106640E+03  0.16948725916E+03  0.41800000000E+01 0. -1.
         -5    1    3    3    0  502  0.59636120878E+02 -0.12581340803E+02 -0.68445297922E+01  0.61474198147E+02  0.41800000000E+01 0. -1.
        -11    1    4    4    0    0 -0.48991024790E+02  0.16248032081E+02  0.44022224377E+01  0.51802496261E+02  0.00000000000E+00 0. -1.
         11    1    4    4    0    0 -0.54160627470E+02 -0.80869677270E+02 -0.31827862503E+02  0.10240259323E+03  0.00000000000E+00 0.  1.
</event>
<event>
 8    1  0.3708258E-009  0.1339403E+03  0.7561462E-02  0.1221723E+00
         -1   -1    0    0    0  501 -0.00000000000E+00  0.00000000000E+00  0.68158960332E+02  0.68158960332E+02  0.00000000000E+00 0.  1.
          1   -1    0    0  501    0  0.00000000000E+00 -0.00000000000E+00 -0.29313546677E+03  0.29313546677E+03  0.00000000000E+00 0. -1.
         25    2    1    2    0    0  0.81721820988E+02  0.39468440163E+02 -0.12375494342E+03  0.19798720636E+03  0.12508970408E+03 0.  0.
         23    2    1    2    0    0 -0.81721820988E+02 -0.39468440163E+02 -0.10122156303E+03  0.16330722075E+03  0.90483311899E+02 0.  0.
          5    1    3    3  502    0 -0.24619131932E+02  0.29312963834E+02 -0.60505875481E+01  0.38979911691E+02  0.41800000000E+01 0. -1.
         -5    1    3    3    0  502  0.10634095292E+03  0.10155476329E+02 -0.11770435587E+03  0.15900729467E+03  0.41800000000E+01 0. -1.
        -11    1    4    4    0    0 -0.23217813271E+02 -0.56872091149E+02 -0.74813456488E+02  0.96801626415E+02  0.00000000000E+00 0. -1.
         11    1    4    4    0    0 -0.58504007716E+02  0.17403650986E+02 -0.26408106537E+02  0.66505594332E+02  0.00000000000E+00 0.  1.
</event>
<event>
 8    1  0.3708258E-009  0.1992183E+03  0.7561462E-02  0.1150400E+00
          1   -1    0    0  501    0  0.00000000000E+00  0.00000000000E+00  0.17671731581E+03  0.17671731581E+03  0.00000000000E+00 0. -1.
         -1   -1    0    0    0  501 -0.00000000000E+00 -0.00000000000E+00 -0.24422556609E+03  0.24422556609E+03  0.00000000000E+00 0.  1.
         25    2    1    2    0    0 -0.91654099849E+02 -0.14988131247E+03 -0.55349998097E+02  0.22265900815E+03  0.12509408369E+03 0.  0.
         23    2    1    2    0    0  0.91654099849E+02  0.14988131247E+03 -0.12158252182E+02  0.19828387376E+03  0.91125131816E+02 0.  0.
          5    1    3    3  502    0  0.24084174100E+02 -0.53268036847E+02  0.78488623444E+01  0.59132125209E+02  0.41800000000E+01 0.  1.
         -5    1    3    3    0  502 -0.11573827395E+03 -0.96613275623E+02 -0.63198860441E+02  0.16352688294E+03  0.41800000000E+01 0.  1.
        -11    1    4    4    0    0  0.82143402189E+02  0.15695708612E+03 -0.27097299227E+02  0.17921308276E+03  0.00000000000E+00 0. -1.
         11    1    4    4    0    0  0.95106976605E+01 -0.70757736476E+01  0.14939047046E+02  0.19070790999E+02  0.00000000000E+00 0.  1.
</event>
<event>
 8    1  0.3708258E-009  0.3535776E+03  0.7561462E-02  0.1061156E+00
         -1   -1    0    0    0  501 -0.00000000000E+00  0.00000000000E+00  0.73277722730E+02  0.73277722730E+02  0.00000000000E+00 0.  1.
          1   -1    0    0  501    0  0.00000000000E+00 -0.00000000000E+00 -0.23267828366E+04  0.23267828366E+04  0.00000000000E+00 0. -1.
         25    2    1    2    0    0 -0.87977426974E+02  0.32763803420E+03 -0.17445524818E+04  0.17816270073E+04  0.12507886442E+03 0.  0.
         23    2    1    2    0    0  0.87977426974E+02 -0.32763803420E+03 -0.50895263211E+03  0.61843355206E+03  0.91326707308E+02 0.  0.
          5    1    3    3  502    0  0.24083319342E+02  0.86841561382E+02 -0.59386031563E+03  0.60067379661E+03  0.41800000000E+01 0. -1.
         -5    1    3    3    0  502 -0.11206074632E+03  0.24079647282E+03 -0.11506921662E+04  0.11809532107E+04  0.41800000000E+01 0. -1.
        -11    1    4    4    0    0  0.10739858110E+02 -0.21187630446E+03 -0.30499435600E+03  0.37152182995E+03  0.00000000000E+00 0.  1.
         11    1    4    4    0    0  0.77237568864E+02 -0.11576172974E+03 -0.20395827612E+03  0.24691172211E+03  0.00000000000E+00 0. -1.
</event>
<event>
 8    1  0.3708258E-009  0.1311604E+03  0.7561462E-02  0.1225744E+00
          4   -1    0    0  501    0  0.00000000000E+00  0.00000000000E+00  0.56137086880E+02  0.56137086880E+02  0.00000000000E+00 0. -1.
         -4   -1    0    0    0  501 -0.00000000000E+00 -0.00000000000E+00 -0.38463605880E+03  0.38463605880E+03  0.00000000000E+00 0.  1.
         25    2    1    2    0    0 -0.67245169254E+02 -0.68902449225E+02 -0.20470398459E+03  0.25849551926E+03  0.12508697722E+03 0.  0.
         23    2    1    2    0    0  0.67245169254E+02  0.68902449225E+02 -0.12379498733E+03  0.18227762643E+03  0.92900343973E+02 0.  0.
          5    1    3    3  502    0 -0.51205251337E+02 -0.93572376717E+02 -0.88840762921E+02  0.13888095984E+03  0.41800000000E+01 0.  1.
         -5    1    3    3    0  502 -0.16039917917E+02  0.24669927493E+02 -0.11586322167E+03  0.11961455942E+03  0.41800000000E+01 0.  1.
        -11    1    4    4    0    0  0.20157467908E+02  0.75643529124E+02 -0.10536732520E+03  0.13126515238E+03  0.00000000000E+00 0. -1.
         11    1    4    4    0    0  0.47087701346E+02 -0.67410798993E+01 -0.18427662132E+02  0.51012474043E+02  0.00000000000E+00 0.  1.
</event>
<event>
 8    1  0.3708258E-009  0.1312659E+03  0.7561462E-02  0.1225589E+00
          1   -1    0    0  501    0  0.00000000000E+00  0.00000000000E+00  0.31528087913E+03  0.31528087913E+03  0.00000000000E+00 0. -1.
         -1   -1    0    0    0  501 -0.00000000000E+00 -0.00000000000E+00 -0.13041182728E+03  0.13041182728E+03  0.00000000000E+00 0.  1.
         25    2    1    2    0    0 -0.89639230493E+02  0.27436701645E+02 -0.60526998510E+02  0.16762791557E+03  0.12509051238E+03 0.  0.
         23    2    1    2    0    0  0.89639230493E+02 -0.27436701645E+02  0.24539605036E+03  0.27806479084E+03  0.91174788896E+02 0.  0.
          5    1    3    3  502    0  0.21514703063E+02  0.36817115921E+02 -0.28633311229E+02  0.51533691742E+02  0.41800000000E+01 0.  1.
         -5    1    3    3    0  502 -0.11115393356E+03 -0.93804142759E+01 -0.31893687281E+02  0.11609422382E+03  0.41800000000E+01 0.  1.
        -11    1    4    4    0    0  0.35390748927E+02 -0.38922207793E+02  0.42207369488E+02  0.67445573674E+02  0.00000000000E+00 0.  1.
         11    1    4    4    0    0  0.54248481565E+02  0.11485506148E+02  0.20318868087E+03  0.21061921717E+03  0.00000000000E+00 0. -1.
</event>
<event>
 8    1  0.3708258E-009  0.1132024E+03  0.7561462E-02  0.1254752E+00
          1   -1    0    0  501    0  0.00000000000E+00  0.00000000000E+00  0.71166319736E+02  0.71166319736E+02  0.00000000000E+00 0. -1.
         -1   -1    0    0    0  501 -0.00000000000E+00 -0.00000000000E+00 -0.21763105244E+03  0.21763105244E+03  0.00000000000E+00 0.  1.
         25    2    1    2    0    0  0.54462665627E+01  0.66081358389E+02 -0.10130481657E+03  0.17408781108E+03  0.12508993709E+03 0.  0.
         23    2    1    2    0    0 -0.54462665627E+01 -0.66081358389E+02 -0.45159916140E+02  0.11470956110E+03  0.81990594796E+02 0.  0.
          5    1    3    3  502    0  0.46663318278E+02 -0.13511320281E+02 -0.53620879109E+02  0.72475458776E+02  0.41800000000E+01 0. -1.
         -5    1    3    3    0  502 -0.41217051716E+02  0.79592678669E+02 -0.47683937459E+02  0.10161235231E+03  0.41800000000E+01 0. -1.
        -11    1    4    4    0    0  0.20969455934E+02 -0.52792880241E+01  0.14080867965E+02  0.25804259471E+02  0.00000000000E+00 0. -1.
         11    1    4    4    0    0 -0.26415722496E+02 -0.60802070364E+02 -0.59240784105E+02  0.88905301625E+02  0.00000000000E+00 0.  1.
</event>
<event>
 8    1  0.3708258E-009  0.9568241E+02  0.7561462E-02  0.1289646E+00
         -2   -1    0    0    0  501 -0.00000000000E+00  0.00000000000E+00  0.16532671853E+03  0.16532671853E+03  0.00000000000E+00 0.  1.
          2   -1    0    0  501    0  0.00000000000E+00 -0.00000000000E+00 -0.10508701127E+03  0.10508701127E+03  0.00000000000E+00 0. -1.
         25    2    1    2    0    0  0.16128980707E+02 -0.63258091124E+02  0.68651203985E+02  0.15690881095E+03  0.12508260084E+03 0.  0.
         23    2    1    2    0    0 -0.16128980707E+02  0.63258091124E+02 -0.84114967165E+01  0.11350491885E+03  0.92470985802E+02 0.  0.
          5    1    3    3  502    0  0.29574598895E+02  0.57178469454E+01  0.80014919625E+02  0.85599126374E+02  0.41800000000E+01 0. -1.
         -5    1    3    3    0  502 -0.13445618187E+02 -0.68975938070E+02 -0.11363715640E+02  0.71309684575E+02  0.41800000000E+01 0. -1.
        -11    1    4    4    0    0  0.22307220921E+02  0.39516446440E+02  0.29838883653E+02  0.54309489245E+02  0.00000000000E+00 0.  1.
         11    1    4    4    0    0 -0.38436201628E+02  0.23741644685E+02 -0.38250380369E+02  0.59195429607E+02  0.00000000000E+00 0. -1.
</event>
<event>
 8    1  0.3708258E-009  0.9815743E+02  0.7561462E-02  0.1284219E+00
          1   -1    0    0  501    0  0.00000000000E+00  0.00000000000E+00  0.43999714547E+03  0.43999714547E+03  0.00000000000E+00 0. -1.
         -1   -1    0    0    0  501 -0.00000000000E+00 -0.00000000000E+00 -0.27965487916E+02  0.27965487916E+02  0.00000000000E+00 0.  1.
         25    2    1    2    0    0  0.84358726904E+01 -0.12765748494E+02  0.19550082977E+03  0.23259941448E+03  0.12509110638E+03 0.  0.
         23    2    1    2    0    0 -0.84358726904E+01  0.12765748494E+02  0.21653082779E+03  0.23536321891E+03  0.90973167192E+02 0.  0.
          5    1    3    3  502    0  0.50320718845E+02  0.23948900273E+02  0.43992951619E+02  0.71123672300E+02  0.41800000000E+01 0. -1.
         -5    1    3    3    0  502 -0.41884846155E+02 -0.36714648767E+02  0.15150787815E+03  0.16147574218E+03  0.41800000000E+01 0. -1.
        -11    1    4    4    0    0  0.10731570964E+02 -0.33136479249E+02  0.13860225411E+03  0.14291178299E+03  0.00000000000E+00 0. -1.
         11    1    4    4    0    0 -0.19167443655E+02  0.45902227743E+02  0.77928573677E+02  0.92451435918E+02  0.00000000000E+00 0.  1.
</event>
<event>
 8    1  0.3708258E-009  0.1566502E+03  0.7561462E-02  0.1192531E+00
          1   -1    0    0  501    0  0.00000000000E+00  0.00000000000E+00  0.12756123671E+04  0.12756123671E+04  0.00000000000E+00 0. -1.
         -1   -1    0    0    0  501 -0.00000000000E+00 -0.00000000000E+00 -0.21793623606E+02  0.21793623606E+02  0.00000000000E+00 0.  1.
         25    2    1    2    0    0  0.12261220023E+03 -0.14837964943E+02  0.57712048843E+03  0.60329885130E+03  0.12509008341E+03 0.  0.
         23    2    1    2    0    0 -0.12261220023E+03  0.14837964943E+02  0.67669825502E+03  0.69410713936E+03  0.92791571361E+02 0.  0.
          5    1    3    3  502    0  0.15390488047E+02 -0.46802344416E+02  0.82651171535E+02  0.96312071524E+02  0.41800000000E+01 0. -1.
         -5    1    3    3    0  502  0.10722171218E+03  0.31964379473E+02  0.49446931690E+03  0.50698677978E+03  0.41800000000E+01 0. -1.
        -11    1    4    4    0    0 -0.61873920438E+02 -0.36955132394E+02  0.25847446184E+03  0.26833395474E+03  0.00000000000E+00 0.  1.
         11    1    4    4    0    0 -0.60738279790E+02  0.51793097337E+02  0.41822379318E+03  0.42577318462E+03  0.00000000000E+00 0. -1.
</event>
<event>
 8    1  0.3708258E-009  0.1277434E+03  0.7561462E-02  0.1230843E+00
          2   -1    0    0  501    0  0.00000000000E+00  0.00000000000E+00  0.39699756789E+03  0.39699756789E+03  0.00000000000E+00 0. -1.
         -2   -1    0    0    0  501 -0.00000000000E+00 -0.00000000000E+00 -0.78483393938E+02  0.78483393938E+02  0.00000000000E+00 0.  1.
         25    2    1    2    0    0 -0.10976957525E+03 -0.18522098897E+01  0.28411709658E+03  0.32927503849E+03  0.12508691407E+03 0.  0.
         23    2    1    2    0    0  0.10976957525E+03  0.18522098897E+01  0.34397077365E+02  0.14620592333E+03  0.90223183012E+02 0.  0.
          5    1    3    3  502    0 -0.83480095257E+02  0.28870301277E+02  0.74135544905E+02  0.11539485265E+03  0.41800000000E+01 0. -1.
         -5    1    3    3    0  502 -0.26289479997E+02 -0.30722511167E+02  0.20998155168E+03  0.21388018584E+03  0.41800000000E+01 0. -1.
        -11    1    4    4    0    0  0.75486081716E+02 -0.28431076833E+02  0.53331217914E+02  0.96698983794E+02  0.00000000000E+00 0. -1.
         11    1    4    4    0    0  0.34283493538E+02  0.30283286723E+02 -0.18934140549E+02  0.49506939536E+02  0.00000000000E+00 0.  1.
</event>
<event>
 8    1  0.3708258E-009  0.1175271E+03  0.7561462E-02  0.1247233E+00
          1   -1    0    0  501    0  0.00000000000E+00  0.00000000000E+00  0.67890142917E+03  0.67890142917E+03  0.00000000000E+00 0. -1.
         -1   -1    0    0    0  501 -0.00000000000E+00 -0.00000000000E+00 -0.28688224440E+02  0.28688224440E+02  0.00000000000E+00 0.  1.
         25    2    1    2    0    0 -0.84385542858E+02 -0.28738687676E+02  0.34990384306E+03  0.38213549836E+03  0.12509199697E+03 0.  0.
         23    2    1    2    0    0  0.84385542858E+02  0.28738687676E+02  0.30030936167E+03  0.32545415525E+03  0.88248866565E+02 0.  0.
          5    1    3    3  502    0 -0.78841975884E+02  0.25322469010E+02  0.28780007614E+03  0.29950566076E+03  0.41800000000E+01 0.  1.
         -5    1    3    3    0  502 -0.55435669735E+01 -0.54061156686E+02  0.62103766918E+02  0.82629837604E+02  0.41800000000E+01 0.  1.
        -11    1    4    4    0    0  0.35829742099E+02  0.33236025079E+02  0.25241958842E+03  0.25710708353E+03  0.00000000000E+00 0. -1.
         11    1    4    4    0    0  0.48555800758E+02 -0.44973374029E+01  0.47889773248E+02  0.68347071721E+02  0.00000000000E+00 0.  1.
</event>
<event>
 8    1  0.3708258E-009  0.1717001E+03  0.7561462E-02  0.1176086E+00
         -2   -1    0    0    0  501 -0.00000000000E+00  0.00000000000E+00  0.14804361087E+02  0.14804361087E+02  0.00000000000E+00 0.  1.
          2   -1    0    0  501    0  0.00000000000E+00 -0.00000000000E+00 -0.27772333036E+04  0.27772333036E+04  0.00000000000E+00 0. -1.
         25    2    1    2    0    0 -0.65631073855E+02 -0.12541272810E+03 -0.21112109737E+04  0.21196452527E+04  0.12509368997E+03 0.  0.
         23    2    1    2    0    0  0.65631073855E+02  0.12541272810E+03 -0.65121796881E+03  0.67239241206E+03  0.89391960888E+02 0.  0.
          5    1    3    3  502    0 -0.53529981007E+02 -0.14863022090E+03 -0.19360549194E+04  0.19424938931E+04  0.41800000000E+01 0.  1.
         -5    1    3    3    0  502 -0.12101092848E+02  0.23217492800E+02 -0.17515605437E+03  0.17715135959E+03  0.41800000000E+01 0.  1.
        -11    1    4    4    0    0 -0.76422228403E+00  0.76216227153E+02 -0.41979560241E+03  0.42665893301E+03  0.00000000000E+00 0. -1.
         11    1    4    4    0    0  0.66395296139E+02  0.49196500945E+02 -0.23142236640E+03  0.24573347905E+03  0.00000000000E+00 0.  1.
</event>
<event>
 8    1  0.3708258E-009  0.1044802E+03  0.7561462E-02  0.1271147E+00
          2   -1    0    0  501    0  0.00000000000E+00  0.00000000000E+00  0.30033893501E+03  0.30033893501E+03  0.00000000000E+00 0. -1.
         -2   -1    0    0    0  501 -0.00000000000E+00 -0.00000000000E+00 -0.60550628850E+02  0.60550628850E+02  0.00000000000E+00 0.  1.
         25    2    1    2    0    0 -0.10028020095E+02  0.24820147714E+02  0.23433047292E+03  0.26697421267E+03  0.12509140167E+03 0.  0.
         23    2    1    2    0    0  0.10028020095E+02 -0.24820147714E+02  0.54578332389E+01  0.93915351190E+02  0.89853794165E+02 0.  0.
          5    1    3    3  502    0 -0.30254726113E+02  0.69393120358E+02  0.11302419058E+03  0.13609810308E+03  0.41800000000E+01 0. -1.
         -5    1    3    3    0  502  0.20226706018E+02 -0.44572972644E+02  0.12130628234E+03  0.13087610959E+03  0.41800000000E+01 0. -1.
        -11    1    4    4    0    0  0.44670425040E+02 -0.75321320887E+01  0.23689211133E+02  0.51121019269E+02  0.00000000000E+00 0. -1.
         11    1    4    4    0    0 -0.34642404944E+02 -0.17288015626E+02 -0.18231377894E+02  0.42794331920E+02  0.00000000000E+00 0.  1.
</event>
<event>
 8    1  0.3708258E-009  0.1397002E+03  0.7561462E-02  0.1213733E+00
          3   -1    0    0  501    0  0.00000000000E+00  0.00000000000E+00  0.10864681549E+03  0.10864681549E+03  0.00000000000E+00 0. -1.
         -3   -1    0    0    0  501 -0.00000000000E+00 -0.00000000000E+00 -0.22706986013E+03  0.22706986013E+03  0.00000000000E+00 0.  1.
         25    2    1    2    0    0 -0.95465901544E+02 -0.56986329426E+02 -0.87658107514E+02  0.18892507576E+03  0.12509020881E+03 0.  0.
         23    2    1    2    0    0  0.95465901544E+02  0.56986329426E+02 -0.30764937126E+02  0.14679159986E+03  0.90775064495E+02 0.  0.
          5    1    3    3  502    0 -0.12553915192E+03 -0.51914128722E+02 -0.77778543838E+02  0.15659543322E+03  0.41800000000E+01 0. -1.
         -5    1    3    3    0  502  0.30073250374E+02 -0.50722007042E+01 -0.98795636763E+01  0.32329642536E+02  0.41800000000E+01 0. -1.
        -11    1    4    4    0    0  0.63118954380E+02  0.47495907548E+02 -0.62320335597E+02  0.10061653872E+03  0.00000000000E+00 0.  1.
         11    1    4    4    0    0  0.32346947164E+02  0.94904218780E+01  0.31555398471E+02  0.46175061136E+02  0.00000000000E+00 0. -1.
</event>
<event>
 8    1  0.3708258E-009  0.8319503E+02  0.7561462E-02  0.1320221E+00
         -2   -1    0    0    0  501 -0.00000000000E+00  0.00000000000E+00  0.12245883839E+02  0.12245883839E+02  0.00000000000E+00 0. -1.
          2   -1    0    0  501    0  0.00000000000E+00 -0.00000000000E+00 -0.18561067750E+04  0.18561067750E+04  0.00000000000E+00 0.  1.
         25    2    1    2    0    0  0.22228346414E+02 -0.35953337548E+02 -0.15748288580E+04  0.15803546272E+04  0.12509226215E+03 0.  0.
         23    2    1    2    0    0 -0.22228346414E+02  0.35953337548E+02 -0.26903203321E+03  0.28799803162E+03  0.93690391517E+02 0.  0.
          5    1    3    3  502    0 -0.74699384917E+01 -0.34232836262E+02 -0.14890438419E+04  0.14894618902E+04  0.41800000000E+01 0.  1.
         -5    1    3    3    0  502  0.29698284906E+02 -0.17205012863E+01 -0.85785016122E+02  0.90892737015E+02  0.41800000000E+01 0.  1.
        -11    1    4    4    0    0 -0.41328197422E+02  0.58428950167E+02 -0.21260029117E+03  0.22432308380E+03  0.00000000000E+00 0.  1.
         11    1    4    4    0    0  0.19099851008E+02 -0.22475612619E+02 -0.56431742035E+02  0.63674947823E+02  0.00000000000E+00 0. -1.
</event>
<event>
 8    1  0.3708258E-009  0.1181069E+03  0.7561462E-02  0.1246253E+00
         -2   -1    0    0    0  501 -0.00000000000E+00  0.00000000000E+00  0.32340314773E+02  0.32340314773E+02  0.00000000000E+00 0.  1.
          2   -1    0    0  501    0  0.00000000000E+00 -0.00000000000E+00 -0.48745638416E+03  0.48745638416E+03  0.00000000000E+00 0. -1.
         25    2    1    2    0    0 -0.42828474029E+02  0.31925988142E+02 -0.18365208816E+03  0.22852723096E+03  0.12507221473E+03 0.  0.
         23    2    1    2    0    0  0.42828474029E+02 -0.31925988142E+02 -0.27146398122E+03  0.29126946797E+03  0.91058568873E+02 0.  0.
          5    1    3    3  502    0  0.35494061992E+02 -0.19887194104E+02 -0.42911872621E+02  0.59280942451E+02  0.41800000000E+01 0.  1.
         -5    1    3    3    0  502 -0.78322536021E+02  0.51813182247E+02 -0.14074021554E+03  0.16924628851E+03  0.41800000000E+01 0.  1.
        -11    1    4    4    0    0  0.62623010604E+02 -0.45415168961E+02 -0.16629706249E+03  0.18340908381E+03  0.00000000000E+00 0.  1.
         11    1    4    4    0    0 -0.19794536576E+02  0.13489180818E+02 -0.10516691873E+03  0.10786038416E+03  0.00000000000E+00 0. -1.
</event>
<event>
 8    1  0.3708258E-009  0.9512565E+02  0.7561462E-02  0.1290893E+00
          2   -1    0    0  501    0  0.00000000000E+00  0.00000000000E+00  0.37733713519E+03  0.37733713519E+03  0.00000000000E+00 0. -1.
         -2   -1    0    0    0  501 -0.00000000000E+00 -0.00000000000E+00 -0.60609976700E+02  0.60609976700E+02  0.00000000000E+00 0.  1.
         25    2    1    2    0    0 -0.71799170113E+02  0.45592042045E+02  0.79643767818E+02  0.17095043930E+03  0.12508863984E+03 0.  0.
         23    2    1    2    0    0  0.71799170113E+02 -0.45592042045E+02  0.23708339068E+03  0.26699667260E+03  0.88571631556E+02 0.  0.
          5    1    3    3  502    0 -0.32566678245E+02 -0.70236680475E+00 -0.30697484590E+02  0.44954308038E+02  0.41800000000E+01 0. -1.
         -5    1    3    3    0  502 -0.39232491868E+02  0.46294408850E+02  0.11034125241E+03  0.12599613126E+03  0.41800000000E+01 0. -1.
        -11    1    4    4    0    0  0.33871329410E+02  0.40481131553E+01  0.16797366822E+02  0.38023751896E+02  0.00000000000E+00 0.  1.
         11    1    4    4    0    0  0.37927840703E+02 -0.49640155201E+02  0.22028602385E+03  0.22897292070E+03  0.00000000000E+00 0. -1.
</event>
<event>
 8    1  0.3708258E-009  0.9452557E+02  0.7561462E-02  0.1292248E+00
         -2   -1    0    0    0  501 -0.00000000000E+00  0.00000000000E+00  0.27707971962E+02  0.27707971962E+02  0.00000000000E+00 0.  1.
          2   -1    0    0  501    0  0.00000000000E+00 -0.00000000000E+00 -0.42706905894E+03  0.42706905894E+03  0.00000000000E+00 0. -1.
         25    2    1    2    0    0  0.34390903471E+01  0.33461696154E+01 -0.26070225587E+03  0.28919927570E+03  0.12509009016E+03 0.  0.
         23    2    1    2    0    0 -0.34390903471E+01 -0.33461696154E+01 -0.13865883112E+03  0.16557775521E+03  0.90369781345E+02 0.  0.
          5    1    3    3  502    0 -0.40608683669E+02 -0.41940485322E+02 -0.92342583306E+02  0.10932837962E+03  0.41800000000E+01 0.  1.
         -5    1    3    3    0  502  0.44047774016E+02  0.45286654938E+02 -0.16835967256E+03  0.17987089608E+03  0.41800000000E+01 0.  1.
        -11    1    4    4    0    0  0.19959227166E+02 -0.27238528121E+02 -0.14076036324E+02  0.36584736734E+02  0.00000000000E+00 0.  1.
         11    1    4    4    0    0 -0.23398317513E+02  0.23892358506E+02 -0.12458279479E+03  0.12899301848E+03  0.00000000000E+00 0. -1.
</event>
<event>
 8    1  0.3708258E-009  0.1124731E+03  0.7561462E-02  0.1256057E+00
         -1   -1    0    0    0  501 -0.00000000000E+00  0.00000000000E+00  0.10573734631E+03  0.10573734631E+03  0.00000000000E+00 0.  1.
          1   -1    0    0  501    0  0.00000000000E+00 -0.00000000000E+00 -0.12463151697E+03  0.12463151697E+03  0.00000000000E+00 0. -1.
         25    2    1    2    0    0  0.10507031132E+02  0.36983083948E+02  0.74368072125E+01  0.13107752987E+03  0.12509143270E+03 0.  0.
         23    2    1    2    0    0 -0.10507031132E+02 -0.36983083948E+02 -0.26330977867E+02  0.99291333407E+02  0.87677262120E+02 0.  0.
          5    1    3    3  502    0  0.65022418161E+02  0.66448537473E+00  0.15976578079E+01  0.65179608121E+02  0.41800000000E+01 0.  1.
         -5    1    3    3    0  502 -0.54515387029E+02  0.36318598573E+02  0.58391494046E+01  0.65897921750E+02  0.41800000000E+01 0.  1.
        -11    1    4    4    0    0  0.32946201617E+02  0.54714051663E+01 -0.83460306984E+00  0.33407858923E+02  0.00000000000E+00 0.  1.
         11    1    4    4    0    0 -0.43453232750E+02 -0.42454489114E+02 -0.25496374797E+02  0.65883474484E+02  0.00000000000E+00 0. -1.
</event>
<event>
 8    1  0.3708258E-009  0.1870444E+03  0.7561462E-02  0.1161154E+00
          1   -1    0    0  501    0  0.00000000000E+00  0.00000000000E+00  0.37825015505E+03  0.37825015505E+03  0.00000000000E+00 0. -1.
         -1   -1    0    0    0  501 -0.00000000000E+00 -0.00000000000E+00 -0.14303133819E+03  0.14303133819E+03  0.00000000000E+00 0.  1.
         25    2    1    2    0    0  0.15537712964E+03 -0.43447892672E+02  0.26421457479E+03  0.33389613050E+03  0.12509001813E+03 0.  0.
         23    2    1    2    0    0 -0.15537712964E+03  0.43447892672E+02 -0.28995757931E+02  0.18738536274E+03  0.90789583082E+02 0.  0.
          5    1    3    3  502    0  0.16298603919E+02 -0.61518575848E+02  0.86416473791E+02  0.10740325417E+03  0.41800000000E+01 0. -1.
         -5    1    3    3    0  502  0.13907852572E+03  0.18070683176E+02  0.17779810100E+03  0.22649287633E+03  0.41800000000E+01 0. -1.
        -11    1    4    4    0    0 -0.82030162947E+02  0.50479078443E+02 -0.52941860924E+02  0.10990871499E+03  0.00000000000E+00 0. -1.
         11    1    4    4    0    0 -0.73346966695E+02 -0.70311857711E+01  0.23946102993E+02  0.77476647742E+02  0.00000000000E+00 0.  1.
</event>
<event>
 8    1  0.3708258E-009  0.1315926E+03  0.7561462E-02  0.1225112E+00
         -3   -1    0    0    0  501 -0.00000000000E+00  0.00000000000E+00  0.15693850812E+03  0.15693850812E+03  0.00000000000E+00 0.  1.
          3   -1    0    0  501    0  0.00000000000E+00 -0.00000000000E+00 -0.15605445263E+03  0.15605445263E+03  0.00000000000E+00 0. -1.
         25    2    1    2    0    0 -0.76361659156E+02  0.12585190216E+02 -0.80904498611E+02  0.16787626273E+03  0.12508961464E+03 0.  0.
         23    2    1    2    0    0  0.76361659156E+02 -0.12585190216E+02  0.81788554099E+02  0.14511669802E+03  0.91542331523E+02 0.  0.
          5    1    3    3  502    0 -0.10545875521E+03 -0.13140622975E+02 -0.47514999305E+02  0.11648764991E+03  0.41800000000E+01 0.  1.
         -5    1    3    3    0  502  0.29097096056E+02  0.25725813191E+02 -0.33389499306E+02  0.51388612816E+02  0.41800000000E+01 0.  1.
        -11    1    4    4    0    0  0.68153218511E+02  0.29951316500E+02  0.38244350440E+02  0.83693326460E+02  0.00000000000E+00 0. -1.
         11    1    4    4    0    0  0.82084406456E+01 -0.42536506716E+02  0.43544203659E+02  0.61423371559E+02  0.00000000000E+00 0.  1.
</event>
<event>
 8    1  0.3708258E-009  0.1255717E+03  0.7561462E-02  0.1234179E+00
         -1   -1    0    0    0  501 -0.00000000000E+00  0.00000000000E+00  0.47235764884E+02  0.47235764884E+02  0.00000000000E+00 0.  1.
          1   -1    0    0  501    0  0.00000000000E+00 -0.00000000000E+00 -0.52003460651E+03  0.52003460651E+03  0.00000000000E+00 0. -1.
         25    2    1    2    0    0  0.95457328300E+02 -0.52921560264E+02 -0.30550749154E+03  0.34769666756E+03  0.12508138223E+03 0.  0.
         23    2    1    2    0    0 -0.95457328300E+02  0.52921560264E+02 -0.16729135009E+03  0.21957370384E+03  0.91177971757E+02 0.  0.
          5    1    3    3  502    0  0.64379369760E+02 -0.71738676959E+02 -0.99980319738E+02  0.13894127449E+03  0.41800000000E+01 0. -1.
         -5    1    3    3    0  502  0.31077958539E+02  0.18817116695E+02 -0.20552717180E+03  0.20875539307E+03  0.41800000000E+01 0. -1.
        -11    1    4    4    0    0 -0.32621629370E+02 -0.45497440928E+01 -0.12397411890E+01  0.32960701331E+02  0.00000000000E+00 0.  1.
         11    1    4    4    0    0 -0.62835698930E+02  0.57471304357E+02 -0.16605160890E+03  0.18661300251E+03  0.00000000000E+00 0. -1.
</event>
<event>
 8    1  0.3708258E-009  0.2289947E+03  0.7561462E-02  0.1127349E+00
          2   -1    0    0  501    0  0.00000000000E+00  0.00000000000E+00  0.93249178580E+03  0.93249178580E+03  0.00000000000E+00 0. -1.
         -2   -1    0    0    0  501 -0.00000000000E+00 -0.00000000000E+00 -0.63391234893E+02  0.63391234893E+02  0.00000000000E+00 0.  1.
         25    2    1    2    0    0  0.19258141052E+03 -0.61312629375E+02  0.61037187723E+03  0.65501853035E+03  0.12509439794E+03 0.  0.
         23    2    1    2    0    0 -0.19258141052E+03  0.61312629375E+02  0.25872867368E+03  0.34086449034E+03  0.91658256557E+02 0.  0.
          5    1    3    3  502    0  0.21064789089E+03 -0.52402812522E+02  0.55885025561E+03  0.59954121567E+03  0.41800000000E+01 0. -1.
         -5    1    3    3    0  502 -0.18066480376E+02 -0.89098168526E+01  0.51521621620E+02  0.55477314678E+02  0.41800000000E+01 0. -1.
        -11    1    4    4    0    0 -0.60462237628E+02 -0.21740945848E+02  0.94900894698E+02  0.11460598030E+03  0.00000000000E+00 0.  1.
         11    1    4    4    0    0 -0.13211917289E+03  0.83053575223E+02  0.16382777898E+03  0.22625851005E+03  0.00000000000E+00 0. -1.
</event>
<event>
 8    1  0.3708258E-009  0.4946547E+02  0.7561462E-02  0.1448246E+00
          2   -1    0    0  501    0  0.00000000000E+00  0.00000000000E+00  0.19714428120E+03  0.19714428120E+03  0.00000000000E+00 0. -1.
         -2   -1    0    0    0  501 -0.00000000000E+00 -0.00000000000E+00 -0.62929808892E+02  0.62929808892E+02  0.00000000000E+00 0.  1.
         25    2    1    2    0    0 -0.12216429149E+02 -0.80991743521E+01  0.55544839206E+02  0.13765090075E+03  0.12509078123E+03 0.  0.
         23    2    1    2    0    0  0.12216429149E+02  0.80991743521E+01  0.78669633105E+02  0.12242318934E+03  0.92648196685E+02 0.  0.
          5    1    3    3  502    0 -0.85627830341E+01 -0.89549180193E+01 -0.39927138328E+02  0.42013814217E+02  0.41800000000E+01 0.  1.
         -5    1    3    3    0  502 -0.36536461149E+01  0.85574366717E+00  0.95471977534E+02  0.95637086538E+02  0.41800000000E+01 0.  1.
        -11    1    4    4    0    0 -0.33727308254E+02  0.59140808747E+01  0.66573652094E+02  0.74863601488E+02  0.00000000000E+00 0. -1.
         11    1    4    4    0    0  0.45943737403E+02  0.21850934774E+01  0.12095981011E+02  0.47559587852E+02  0.00000000000E+00 0.  1.
</event>
<event>
 8    1  0.3708258E-009  0.1329275E+03  0.7561462E-02  0.1223175E+00
         -2   -1    0    0    0  501 -0.00000000000E+00  0.00000000000E+00  0.60671294321E+02  0.60671294321E+02  0.00000000000E+00 0.  1.
          2   -1    0    0  501    0  0.00000000000E+00 -0.00000000000E+00 -0.36437245817E+03  0.36437245817E+03  0.00000000000E+00 0. -1.
         25    2    1    2    0    0  0.31464662802E+02  0.94539894490E+02 -0.13071658698E+03  0.20654443532E+03  0.12508381589E+03 0.  0.
         23    2    1    2    0    0 -0.31464662802E+02 -0.94539894490E+02 -0.17298457687E+03  0.21849931717E+03  0.88828323818E+02 0.  0.
          5    1    3    3  502    0 -0.26185975923E+02  0.64673861175E+02 -0.12240071764E+03  0.14095326081E+03  0.41800000000E+01 0.  1.
         -5    1    3    3    0  502  0.57650638725E+02  0.29866033315E+02 -0.83158693399E+01  0.65591174515E+02  0.41800000000E+01 0.  1.
        -11    1    4    4    0    0  0.11084673685E+02 -0.86973643092E+02 -0.94543039556E+02  0.12894057124E+03  0.00000000000E+00 0.  1.
         11    1    4    4    0    0 -0.42549336488E+02 -0.75662513981E+01 -0.78441537318E+02  0.89558745930E+02  0.00000000000E+00 0. -1.
</event>
<event>
 8    1  0.3708258E-009  0.1230616E+03  0.7561462E-02  0.1238130E+00
         -1   -1    0    0    0  501 -0.00000000000E+00  0.00000000000E+00  0.21638645515E+02  0.21638645515E+02  0.00000000000E+00 0.  1.
          1   -1    0    0  501    0  0.00000000000E+00 -0.00000000000E+00 -0.93819209453E+03  0.93819209453E+03  0.00000000000E+00 0. -1.
         25    2    1    2    0    0  0.80795016142E+02 -0.38415148278E+01 -0.64695750322E+03  0.66388644246E+03  0.12509438693E+03 0.  0.
         23    2    1    2    0    0 -0.80795016142E+02  0.38415148278E+01 -0.26959594580E+03  0.29594429759E+03  0.91424621486E+02 0.  0.
          5    1    3    3  502    0  0.80377057513E+02 -0.41378192618E+02 -0.26420411681E+03  0.27927390486E+03  0.41800000000E+01 0.  1.
         -5    1    3    3    0  502  0.41795862940E+00  0.37536677790E+02 -0.38275338641E+03  0.38461253759E+03  0.41800000000E+01 0.  1.
        -11    1    4    4    0    0 -0.65158043115E+02  0.41380386471E+02 -0.13694394394E+03  0.15719907999E+03  0.00000000000E+00 0.  1.
         11    1    4    4    0    0 -0.15636973027E+02 -0.37538871643E+02 -0.13265200186E+03  0.13874521760E+03  0.00000000000E+00 0. -1.
</event>
<event>
 8    1  0.3708258E-009  0.1127430E+03  0.7561462E-02  0.1255573E+00
         -1   -1    0    0    0  501 -0.00000000000E+00  0.00000000000E+00  0.43409763569E+02  0.43409763569E+02  0.00000000000E+00 0.  1.
          1   -1    0    0  501    0  0.00000000000E+00 -0.00000000000E+00 -0.42269165830E+03  0.42269165830E+03  0.00000000000E+00 0. -1.
         25    2    1    2    0    0 -0.66383111073E+02 -0.31720336135E+02 -0.26668245891E+03  0.30361136989E+03  0.12508969931E+03 0.  0.
         23    2    1    2    0    0  0.66383111073E+02  0.31720336135E+02 -0.11259943582E+03  0.16249005198E+03  0.91167356473E+02 0.  0.
          5    1    3    3  502    0 -0.37081033851E+02  0.28952581135E+02 -0.21064796671E+03  0.21587795929E+03  0.41800000000E+01 0. -1.
         -5    1    3    3    0  502 -0.29302077222E+02 -0.60672917270E+02 -0.56034492200E+02  0.87733410601E+02  0.41800000000E+01 0. -1.
        -11    1    4    4    0    0 -0.48337070321E+01  0.38873200590E+02 -0.67038305673E+02  0.77644219845E+02  0.00000000000E+00 0. -1.
         11    1    4    4    0    0  0.71216818105E+02 -0.71528644556E+01 -0.45561130145E+02  0.84845832136E+02  0.00000000000E+00 0.  1.
</event>
<event>
 8    1  0.3708258E-009  0.8097724E+02  0.7561462E-02  0.1326301E+00
          2   -1    0    0  501    0  0.00000000000E+00  0.00000000000E+00  0.15524955963E+03  0.15524955963E+03  0.00000000000E+00 0.  1.
         -2   -1    0    0    0  501 -0.00000000000E+00 -0.00000000000E+00 -0.10921433990E+03  0.10921433990E+03  0.00000000000E+00 0. -1.
         25    2    1    2    0    0  0.15845213275E+02  0.16534802145E+02 -0.44249534548E+02  0.13464709461E+03  0.12508936131E+03 0.  0.
         23    2    1    2    0    0 -0.15845213275E+02 -0.16534802145E+02  0.90284754272E+02  0.12981680492E+03  0.90424529415E+02 0.  0.
          5    1    3    3  502    0 -0.94706188937E+01  0.50324043646E+02  0.22070012248E+02  0.55917437636E+02  0.41800000000E+01 0. -1.
         -5    1    3    3    0  502  0.25315832169E+02 -0.33789241501E+02 -0.66319546796E+02  0.78729656971E+02  0.41800000000E+01 0. -1.
        -11    1    4    4    0    0  0.61727017220E+01 -0.37345963713E+02  0.91988545097E+02  0.99472185465E+02  0.00000000000E+00 0.  1.
         11    1    4    4    0    0 -0.22017914997E+02  0.20811161568E+02 -0.17037908255E+01  0.30344619454E+02  0.00000000000E+00 0. -1.
</event>
<event>
 8    1  0.3708258E-009  0.1083353E+03  0.7561462E-02  0.1263684E+00
         -2   -1    0    0    0  501 -0.00000000000E+00  0.00000000000E+00  0.57656265112E+02  0.57656265112E+02  0.00000000000E+00 0.  1.
          2   -1    0    0  501    0  0.00000000000E+00 -0.00000000000E+00 -0.29291793125E+03  0.29291793125E+03  0.00000000000E+00 0. -1.
         25    2    1    2    0    0  0.51958315589E+02  0.46180082280E+02 -0.10412500063E+03  0.17697981660E+03  0.12509026009E+03 0.  0.
         23    2    1    2    0    0 -0.51958315589E+02 -0.46180082280E+02 -0.13113666550E+03  0.17359437975E+03  0.90032866696E+02 0.  0.
          5    1    3    3  502    0  0.27248265620E+02 -0.37705580525E+02 -0.87610631545E+01  0.47522704149E+02  0.41800000000E+01 0.  1.
         -5    1    3    3    0  502  0.24710049969E+02  0.83885662804E+02 -0.95363937479E+02  0.12945711245E+03  0.41800000000E+01 0.  1.
        -11    1    4    4    0    0 -0.35993578397E+02 -0.26996903336E+01 -0.17166848081E+01  0.36135481461E+02  0.00000000000E+00 0.  1.
         11    1    4    4    0    0 -0.15964737192E+02 -0.43480391946E+02 -0.12941998069E+03  0.13745889829E+03  0.00000000000E+00 0. -1.
</event>
<event>
 8    1  0.3708258E-009  0.8815231E+02  0.7561462E-02  0.1307389E+00
         -1   -1    0    0    0  501 -0.00000000000E+00  0.00000000000E+00  0.85254460926E+02  0.85254460926E+02  0.00000000000E+00 0.  1.
          1   -1    0    0  501    0  0.00000000000E+00 -0.00000000000E+00 -0.15117187990E+03  0.15117187990E+03  0.00000000000E+00 0. -1.
         25    2    1    2    0    0  0.17591901786E+02 -0.27827187986E+01 -0.68160250550E+02  0.14356479601E+03  0.12509121618E+03 0.  0.
         23    2    1    2    0    0 -0.17591901786E+02  0.27827187986E+01  0.22428315745E+01  0.92861544817E+02  0.91109920865E+02 0.  0.
          5    1    3    3  502    0 -0.36995740629E+02 -0.43394348610E+02 -0.22117275698E+02  0.61305795813E+02  0.41800000000E+01 0. -1.
         -5    1    3    3    0  502  0.54587642415E+02  0.40611629811E+02 -0.46042974853E+02  0.82259000199E+02  0.41800000000E+01 0. -1.
        -11    1    4    4    0    0 -0.33708846570E+02  0.67166136924E+01 -0.36851484141E+02  0.50392768528E+02  0.00000000000E+00 0. -1.
         11    1    4    4    0    0  0.16116944784E+02 -0.39338948939E+01  0.39094315715E+02  0.42468776289E+02  0.00000000000E+00 0.  1.
</event>
<event>
 8    1  0.3708258E-009  0.1355129E+03  0.7561462E-02  0.1219497E+00
          1   -1    0    0  501    0  0.00000000000E+00  0.00000000000E+00  0.18703680891E+03  0.18703680891E+03  0.00000000000E+00 0. -1.
         -1   -1    0    0    0  501 -0.00000000000E+00 -0.00000000000E+00 -0.10489702280E+03  0.10489702280E+03  0.00000000000E+00 0.  1.
         25    2    1    2    0    0 -0.77880778136E+02  0.41945571542E+02  0.44411724118E+02  0.15951576168E+03  0.12509208772E+03 0.  0.
         23    2    1    2    0    0  0.77880778136E+02 -0.41945571542E+02  0.37728061996E+02  0.13241807003E+03  0.91029072458E+02 0.  0.
          5    1    3    3  502    0  0.13702845191E+02  0.54385980699E+02  0.35637244308E+02  0.66581442196E+02  0.41800000000E+01 0. -1.
         -5    1    3    3    0  502 -0.91583623328E+02 -0.12440409157E+02  0.87744798101E+01  0.92934319483E+02  0.41800000000E+01 0. -1.
        -11    1    4    4    0    0  0.73951861424E+02  0.59668658062E+01  0.52003820089E+01  0.74374224491E+02  0.00000000000E+00 0. -1.
         11    1    4    4    0    0  0.39289167122E+01 -0.47912437348E+02  0.32527679988E+02  0.58043845536E+02  0.00000000000E+00 0.  1.
</event>
<event>
 8    1  0.3708258E-009  0.1148990E+03  0.7561462E-02  0.1251758E+00
          1   -1    0    0  501    0  0.00000000000E+00  0.00000000000E+00  0.30745490121E+03  0.30745490121E+03  0.00000000000E+00 0. -1.
         -1   -1    0    0    0  501 -0.00000000000E+00 -0.00000000000E+00 -0.63567378695E+02  0.63567378695E+02  0.00000000000E+00 0.  1.
         25    2    1    2    0    0 -0.58837504117E+01  0.79463293122E+02  0.99699576393E+02  0.17870963868E+03  0.12509234969E+03 0.  0.
         23    2    1    2    0    0  0.58837504117E+01 -0.79463293122E+02  0.14418794612E+03  0.19231264123E+03  0.99221745080E+02 0.  0.
          5    1    3    3  502    0  0.93855939354E+01 -0.30697444829E+02  0.42951964178E+02  0.53784441238E+02  0.41800000000E+01 0.  1.
         -5    1    3    3    0  502 -0.15269344347E+02  0.11016073795E+03  0.56747612215E+02  0.12492519744E+03  0.41800000000E+01 0.  1.
        -11    1    4    4    0    0  0.19060414133E+02 -0.56872469481E+02  0.15330092107E+03  0.16461758586E+03  0.00000000000E+00 0. -1.
         11    1    4    4    0    0 -0.13176663722E+02 -0.22590823641E+02 -0.91129749501E+01  0.27695055372E+02  0.00000000000E+00 0.  1.
</event>
<event>
 8    1  0.3708258E-009  0.1050130E+03  0.7561462E-02  0.1270094E+00
         -1   -1    0    0    0  501 -0.00000000000E+00  0.00000000000E+00  0.77886226732E+02  0.77886226732E+02  0.00000000000E+00 0.  1.
          1   -1    0    0  501    0  0.00000000000E+00 -0.00000000000E+00 -0.18775816058E+03  0.18775816058E+03  0.00000000000E+00 0. -1.
         25    2    1    2    0    0  0.37364633938E+02  0.31079644877E+02 -0.89083891152E+02  0.16106520894E+03  0.12507598360E+03 0.  0.
         23    2    1    2    0    0 -0.37364633938E+02 -0.31079644877E+02 -0.20788042696E+02  0.10457917837E+03  0.90236365364E+02 0.  0.
          5    1    3    3  502    0  0.65113563524E+02 -0.16499538855E+02 -0.80883319063E+02  0.10522164530E+03  0.41800000000E+01 0. -1.
         -5    1    3    3    0  502 -0.27748929586E+02  0.47579183731E+02 -0.82005720888E+01  0.55843563642E+02  0.41800000000E+01 0. -1.
        -11    1    4    4    0    0 -0.43283056161E+02 -0.50892094883E+02  0.99373606210E+01  0.67543907263E+02  0.00000000000E+00 0.  1.
         11    1    4    4    0    0  0.59184222231E+01  0.19812450006E+02 -0.30725403317E+02  0.37035271105E+02  0.00000000000E+00 0. -1.
</event>
<event>
 8    1  0.3708258E-009  0.1218523E+03  0.7561462E-02  0.1240072E+00
         -2   -1    0    0    0  501 -0.00000000000E+00  0.00000000000E+00  0.11773131342E+03  0.11773131342E+03  0.00000000000E+00 0.  1.
          2   -1    0    0  501    0  0.00000000000E+00 -0.00000000000E+00 -0.36346247344E+03  0.36346247344E+03  0.00000000000E+00 0. -1.
         25    2    1    2    0    0 -0.10116075694E+03  0.36398532815E+02 -0.28943901563E+03  0.33313931055E+03  0.12509398278E+03 0.  0.
         23    2    1    2    0    0  0.10116075694E+03 -0.36398532815E+02  0.43707855612E+02  0.14805447631E+03  0.91931492850E+02 0.  0.
          5    1    3    3  502    0 -0.84479361358E+02  0.43852552672E+02 -0.84509284261E+02  0.12735423196E+03  0.41800000000E+01 0. -1.
         -5    1    3    3    0  502 -0.16681395579E+02 -0.74540198568E+01 -0.20492973137E+03  0.20578507859E+03  0.41800000000E+01 0. -1.
        -11    1    4    4    0    0  0.19004647873E+02 -0.43254236520E+02  0.45501394356E+02  0.65593311443E+02  0.00000000000E+00 0.  1.
         11    1    4    4    0    0  0.82156109064E+02  0.68557037043E+01 -0.17935387436E+01  0.82461164866E+02  0.00000000000E+00 0. -1.
</event>
<event>
 8    1  0.3708258E-009  0.1053237E+03  0.7561462E-02  0.1269483E+00
         -1   -1    0    0    0  501 -0.00000000000E+00  0.00000000000E+00  0.23915705844E+03  0.23915705844E+03  0.00000000000E+00 0.  1.
          1   -1    0    0  501    0  0.00000000000E+00 -0.00000000000E+00 -0.14482226365E+03  0.14482226365E+03  0.00000000000E+00 0. -1.
         25    2    1    2    0    0  0.40180374288E+02 -0.42614062206E+02  0.19302785293E+03  0.23735934987E+03  0.12509711501E+03 0.  0.
         23    2    1    2    0    0 -0.40180374288E+02  0.42614062206E+02 -0.98693058147E+02  0.14661997223E+03  0.91250620566E+02 0.  0.
          5    1    3    3  502    0 -0.30819716935E+02 -0.96092978957E+01  0.41029730503E+01  0.32810064703E+02  0.41800000000E+01 0. -1.
         -5    1    3    3    0  502  0.71000091223E+02 -0.33004764310E+02  0.18892487988E+03  0.20454928516E+03  0.41800000000E+01 0. -1.
        -11    1    4    4    0    0 -0.60083077140E+02  0.91841226502E+01 -0.30251651658E+02  0.67893200657E+02  0.00000000000E+00 0.  1.
         11    1    4    4    0    0  0.19902702852E+02  0.33429939556E+02 -0.68441406490E+02  0.78726771570E+02  0.00000000000E+00 0. -1.
</event>
<event>
 8    1  0.3708258E-009  0.2143737E+03  0.7561462E-02  0.1138149E+00
          1   -1    0    0  501    0  0.00000000000E+00  0.00000000000E+00  0.37865135284E+03  0.37865135284E+03  0.00000000000E+00 0. -1.
         -1   -1    0    0    0  501 -0.00000000000E+00 -0.00000000000E+00 -0.14401768285E+03  0.14401768285E+03  0.00000000000E+00 0.  1.
         25    2    1    2    0    0 -0.11358444790E+01  0.19538110031E+03  0.19350072638E+03  0.30210018128E+03  0.12508766493E+03 0.  0.
         23    2    1    2    0    0  0.11358444790E+01 -0.19538110031E+03  0.41132943610E+02  0.22056885441E+03  0.93721054128E+02 0.  0.
          5    1    3    3  502    0 -0.49186338270E+02  0.27596057562E+02  0.58912877614E+02  0.81664177055E+02  0.41800000000E+01 0. -1.
         -5    1    3    3    0  502  0.48050493791E+02  0.16778504274E+03  0.13458784877E+03  0.22043600422E+03  0.41800000000E+01 0. -1.
        -11    1    4    4    0    0 -0.76026214747E+01 -0.13272240161E+02 -0.22722916770E+02  0.27391297134E+02  0.00000000000E+00 0.  1.
         11    1    4    4    0    0  0.87384659537E+01 -0.18210886015E+03  0.63855860380E+02  0.19317755728E+03  0.00000000000E+00 0. -1.
</event>
<event>
 8    1  0.3708258E-009  0.1113934E+03  0.7561462E-02  0.1258011E+00
         -1   -1    0    0    0  501 -0.00000000000E+00  0.00000000000E+00  0.22814103051E+03  0.22814103051E+03  0.00000000000E+00 0.  1.
          1   -1    0    0  501    0  0.00000000000E+00 -0.00000000000E+00 -0.78022009813E+02  0.78022009813E+02  0.00000000000E+00 0. -1.
         25    2    1    2    0    0  0.58738729106E+02 -0.43752449544E+02  0.10989563800E+03  0.18190356031E+03  0.12508932355E+03 0.  0.
         23    2    1    2    0    0 -0.58738729106E+02  0.43752449544E+02  0.40223382693E+02  0.12425948001E+03  0.91967291566E+02 0.  0.
          5    1    3    3  502    0  0.70331911259E+02  0.25255031894E+02  0.55691029947E+02  0.93291787387E+02  0.41800000000E+01 0. -1.
         -5    1    3    3    0  502 -0.11593182153E+02 -0.69007481438E+02  0.54204608054E+02  0.88611772926E+02  0.41800000000E+01 0. -1.
        -11    1    4    4    0    0 -0.13529289583E+02 -0.18172883652E+01  0.56427115243E+02  0.58054832256E+02  0.00000000000E+00 0.  1.
         11    1    4    4    0    0 -0.45209439522E+02  0.45569737909E+02 -0.16203732550E+02  0.66204647749E+02  0.00000000000E+00 0. -1.
</event>
<event>
 8    1  0.3708258E-009  0.1221029E+03  0.7561462E-02  0.1239668E+00
         -3   -1    0    0    0  501 -0.00000000000E+00  0.00000000000E+00  0.48549740938E+03  0.48549740938E+03  0.00000000000E+00 0.  1.
          3   -1    0    0  501    0  0.00000000000E+00 -0.00000000000E+00 -0.43052301891E+02  0.43052301891E+02  0.00000000000E+00 0. -1.
         25    2    1    2    0    0  0.81502015541E+02 -0.11582244116E+02  0.31767391092E+03  0.35119976285E+03  0.12509129798E+03 0.  0.
         23    2    1    2    0    0 -0.81502015541E+02  0.11582244116E+02  0.12477119657E+03  0.17734994842E+03  0.95438073094E+02 0.  0.
          5    1    3    3  502    0  0.71959741985E+02 -0.63071748705E+02  0.22749459327E+03  0.24683499006E+03  0.41800000000E+01 0.  1.
         -5    1    3    3    0  502  0.95422735558E+01  0.51489504589E+02  0.90179317652E+02  0.10436477279E+03  0.41800000000E+01 0.  1.
        -11    1    4    4    0    0 -0.57127896610E+02 -0.15762403623E+02  0.12751803544E+03  0.14061614169E+03  0.00000000000E+00 0. -1.
         11    1    4    4    0    0 -0.24374118931E+02  0.27344647739E+02 -0.27468388727E+01  0.36733806738E+02  0.00000000000E+00 0.  1.
</event>
<event>
 8    1  0.3708258E-009  0.1240580E+03  0.7561462E-02  0.1236549E+00
         -1   -1    0    0    0  501 -0.00000000000E+00  0.00000000000E+00  0.86095631596E+02  0.86095631596E+02  0.00000000000E+00 0.  1.
          1   -1    0    0  501    0  0.00000000000E+00 -0.00000000000E+00 -0.22665012477E+03  0.22665012477E+03  0.00000000000E+00 0. -1.
         25    2    1    2    0    0  0.25020389056E+02  0.75134169695E+02 -0.36729535614E+02  0.15253424677E+03  0.12508586782E+03 0.  0.
         23    2    1    2    0    0 -0.25020389056E+02 -0.75134169695E+02 -0.10382495756E+03  0.16021150959E+03  0.92827488755E+02 0.  0.
          5    1    3    3  502    0  0.56021035067E+02  0.41342269081E+01 -0.48161504246E+02  0.74111072677E+02  0.41800000000E+01 0.  1.
         -5    1    3    3    0  502 -0.31000646010E+02  0.70999942787E+02  0.11431968632E+02  0.78423174098E+02  0.41800000000E+01 0.  1.
        -11    1    4    4    0    0  0.28859785649E+02 -0.41963529879E+02 -0.18934634018E+02  0.54335489627E+02  0.00000000000E+00 0.  1.
         11    1    4    4    0    0 -0.53880174706E+02 -0.33170639816E+02 -0.84890323541E+02  0.10587601996E+03  0.00000000000E+00 0. -1.
</event>
<event>
 8    1  0.3708258E-009  0.1227231E+03  0.7561462E-02  0.1238671E+00
          2   -1    0    0  501    0  0.00000000000E+00  0.00000000000E+00  0.41533335398E+03  0.41533335398E+03  0.00000000000E+00 0. -1.
         -2   -1    0    0    0  501 -0.00000000000E+00 -0.00000000000E+00 -0.43028039209E+02  0.43028039209E+02  0.00000000000E+00 0.  1.
         25    2    1    2    0    0  0.28299412521E+02 -0.69970522749E+02  0.18446249042E+03  0.23530922877E+03  0.12508913610E+03 0.  0.
         23    2    1    2    0    0 -0.28299412521E+02  0.69970522749E+02  0.18784282435E+03  0.22305216441E+03  0.93651538100E+02 0.  0.
          5    1    3    3  502    0  0.23466667678E+02  0.23016631102E+02  0.11328999400E+03  0.11803620182E+03  0.41800000000E+01 0.  1.
         -5    1    3    3    0  502  0.48327448425E+01 -0.92987153851E+02  0.71172496422E+02  0.11727302695E+03  0.41800000000E+01 0.  1.
        -11    1    4    4    0    0 -0.30683256554E+02  0.91981955611E+02  0.16395535223E+03  0.19048228242E+03  0.00000000000E+00 0. -1.
         11    1    4    4    0    0  0.23838440339E+01 -0.22011432862E+02  0.23887472114E+02  0.32569881992E+02  0.00000000000E+00 0.  1.
</event>
<event>
 8    1  0.3708258E-009  0.1268526E+03  0.7561462E-02  0.1232202E+00
         -1   -1    0    0    0  501 -0.00000000000E+00  0.00000000000E+00  0.24400611876E+03  0.24400611876E+03  0.00000000000E+00 0. -1.
          1   -1    0    0  501    0  0.00000000000E+00 -0.00000000000E+00 -0.94152468834E+02  0.94152468834E+02  0.00000000000E+00 0.  1.
         25    2    1    2    0    0 -0.67534037537E+02  0.72888976660E+02  0.40123821232E+02  0.16471599681E+03  0.12509112450E+03 0.  0.
         23    2    1    2    0    0  0.67534037537E+02 -0.72888976660E+02  0.10972982869E+03  0.17344259079E+03  0.90377252940E+02 0.  0.
          5    1    3    3  502    0  0.24721858207E+02  0.54758261355E+02  0.36728240608E+02  0.70541289455E+02  0.41800000000E+01 0.  1.
         -5    1    3    3    0  502 -0.92255895744E+02  0.18130715305E+02  0.33955806246E+01  0.94174707352E+02  0.41800000000E+01 0.  1.
        -11    1    4    4    0    0  0.37820422742E+02 -0.40882536676E+02  0.11661381221E+03  0.12923059769E+03  0.00000000000E+00 0. -1.
         11    1    4    4    0    0  0.29713614795E+02 -0.32006439984E+02 -0.68839835136E+01  0.44211993098E+02  0.00000000000E+00 0.  1.
</event>
<event>
 8    1  0.3708258E-009  0.1232598E+03  0.7561462E-02  0.1237814E+00
         -1   -1    0    0    0  501 -0.00000000000E+00  0.00000000000E+00  0.29288094761E+03  0.29288094761E+03  0.00000000000E+00 0.  1.
          1   -1    0    0  501    0  0.00000000000E+00 -0.00000000000E+00 -0.56738158394E+02  0.56738158394E+02  0.00000000000E+00 0. -1.
         25    2    1    2    0    0 -0.70086599639E+00  0.62924757328E+02  0.17087542611E+03  0.22092146705E+03  0.12509143478E+03 0.  0.
         23    2    1    2    0    0  0.70086599639E+00 -0.62924757328E+02  0.65267363108E+02  0.12869763896E+03  0.91341323012E+02 0.  0.
          5    1    3    3  502    0 -0.60439405827E+02  0.44352968081E+02  0.11250117190E+03  0.13525566026E+03  0.41800000000E+01 0.  1.
         -5    1    3    3    0  502  0.59738539831E+02  0.18571789246E+02  0.58374254216E+02  0.85665806785E+02  0.41800000000E+01 0.  1.
        -11    1    4    4    0    0  0.41127304593E+02 -0.10336358155E+02  0.13330119928E+02  0.44452081844E+02  0.00000000000E+00 0. -1.
         11    1    4    4    0    0 -0.40426438596E+02 -0.52588399173E+02  0.51937243180E+02  0.84245557119E+02  0.00000000000E+00 0.  1.
</event>
<event>
 8    1  0.3708258E-009  0.1055034E+03  0.7561462E-02  0.1269131E+00
          1   -1    0    0  501    0  0.00000000000E+00  0.00000000000E+00  0.33006367703E+03  0.33006367703E+03  0.00000000000E+00 0. -1.
         -1   -1    0    0    0  501 -0.00000000000E+00 -0.00000000000E+00 -0.41242199676E+02  0.41242199676E+02  0.00000000000E+00 0.  1.
         25    2    1    2    0    0  0.42603847490E+02  0.68774341771E+00  0.15614281010E+03  0.20455673051E+03  0.12508924030E+03 0.  0.
         23    2    1    2    0    0 -0.42603847490E+02 -0.68774341771E+00  0.13267866725E+03  0.16674914619E+03  0.91575587360E+02 0.  0.
          5    1    3    3  502    0  0.57276832556E+02  0.49955787168E+02  0.11795481881E+03  0.14038172210E+03  0.41800000000E+01 0.  1.
         -5    1    3    3    0  502 -0.14672985066E+02 -0.49268043750E+02  0.38187991289E+02  0.64175008410E+02  0.41800000000E+01 0.  1.
        -11    1    4    4    0    0 -0.49197918251E+02 -0.27047159736E+02  0.12718841770E+03  0.13902833383E+03  0.00000000000E+00 0. -1.
         11    1    4    4    0    0  0.65940707607E+01  0.26359416319E+02  0.54902495482E+01  0.27720812361E+02  0.00000000000E+00 0.  1.
</event>
<event>
 8    1  0.3708258E-009  0.9685478E+02  0.7561462E-02  0.1287052E+00
          1   -1    0    0  501    0  0.00000000000E+00  0.00000000000E+00  0.39325973260E+03  0.39325973260E+03  0.00000000000E+00 0. -1.
         -1   -1    0    0    0  501 -0.00000000000E+00 -0.00000000000E+00 -0.38735970997E+02  0.38735970997E+02  0.00000000000E+00 0.  1.
         25    2    1    2    0    0  0.10033634530E+02  0.39652721289E+02  0.26916439338E+03  0.29961724550E+03  0.12509201017E+03 0.  0.
         23    2    1    2    0    0 -0.10033634530E+02 -0.39652721289E+02  0.85359368225E+02  0.13237845810E+03  0.92546325150E+02 0.  0.
          5    1    3    3  502    0  0.29558983469E+02  0.71503459737E+02  0.10098016057E+03  0.12728292692E+03  0.41800000000E+01 0.  1.
         -5    1    3    3    0  502 -0.19525348939E+02 -0.31850738449E+02  0.16818423281E+03  0.17233431857E+03  0.41800000000E+01 0.  1.
        -11    1    4    4    0    0 -0.35603679852E+02 -0.55899241549E+01  0.82099561425E+02  0.89661626448E+02  0.00000000000E+00 0. -1.
         11    1    4    4    0    0  0.25570045322E+02 -0.34062797134E+02  0.32598068000E+01  0.42716831656E+02  0.00000000000E+00 0.  1.
</event>
<event>
 8    1  0.3708258E-009  0.2479362E+03  0.7561462E-02  0.1114616E+00
          1   -1    0    0  501    0  0.00000000000E+00  0.00000000000E+00  0.13668651443E+03  0.13668651443E+03  0.00000000000E+00 0. -1.
         -1   -1    0    0    0  501 -0.00000000000E+00 -0.00000000000E+00 -0.48532886419E+03  0.48532886419E+03  0.00000000000E+00 0.  1.
         25    2    1    2    0    0  0.12371011211E+03  0.19160286780E+03 -0.23397250311E+03  0.34986679153E+03  0.12509112204E+03 0.  0.
         23    2    1    2    0    0 -0.12371011211E+03 -0.19160286780E+03 -0.11466984665E+03  0.27214858709E+03  0.94338904686E+02 0.  0.
          5    1    3    3  502    0 -0.21290384890E+02  0.29990449724E+02 -0.11002782048E+02  0.38616591981E+02  0.41800000000E+01 0. -1.
         -5    1    3    3    0  502  0.14500049700E+03  0.16161241808E+03 -0.22296972106E+03  0.31125019955E+03  0.41800000000E+01 0. -1.
        -11    1    4    4    0    0 -0.10884160488E+03 -0.96587750493E+02 -0.95578913310E+02  0.17410059497E+03  0.00000000000E+00 0.  1.
         11    1    4    4    0    0 -0.14868507235E+02 -0.95015117308E+02 -0.19090933340E+02  0.98047992128E+02  0.00000000000E+00 0. -1.
</event>
<event>
 8    1  0.3708258E-009  0.1430898E+03  0.7561462E-02  0.1209231E+00
         -2   -1    0    0    0  501 -0.00000000000E+00  0.00000000000E+00  0.52950949501E+03  0.52950949501E+03  0.00000000000E+00 0. -1.
          2   -1    0    0  501    0  0.00000000000E+00 -0.00000000000E+00 -0.42202066946E+02  0.42202066946E+02  0.00000000000E+00 0.  1.
         25    2    1    2    0    0  0.57022489294E+02 -0.83274671457E+02  0.22893939970E+03  0.27972574462E+03  0.12508800213E+03 0.  0.
         23    2    1    2    0    0 -0.57022489294E+02  0.83274671457E+02  0.25836802837E+03  0.29198581734E+03  0.91189057753E+02 0.  0.
          5    1    3    3  502    0  0.95294894183E+02 -0.42286768610E+02  0.14286405209E+03  0.17690929155E+03  0.41800000000E+01 0. -1.
         -5    1    3    3    0  502 -0.38272404888E+02 -0.40987902847E+02  0.86075347606E+02  0.10281645307E+03  0.41800000000E+01 0. -1.
        -11    1    4    4    0    0 -0.18936770665E+02 -0.12396037008E+02  0.13515132318E+02  0.26361369811E+02  0.00000000000E+00 0.  1.
         11    1    4    4    0    0 -0.38085718629E+02  0.95670708464E+02  0.24485289605E+03  0.26562444753E+03  0.00000000000E+00 0. -1.
</event>
<event>
 8    1  0.3708258E-009  0.9209991E+02  0.7561462E-02  0.1297845E+00
          2   -1    0    0  501    0  0.00000000000E+00  0.00000000000E+00  0.80359112116E+03  0.80359112116E+03  0.00000000000E+00 0. -1.
         -2   -1    0    0    0  501 -0.00000000000E+00 -0.00000000000E+00 -0.17180026394E+02  0.17180026394E+02  0.00000000000E+00 0.  1.
         25    2    1    2    0    0 -0.12614306730E+02 -0.41025611408E+02  0.41532801228E+03  0.43587523789E+03  0.12509054201E+03 0.  0.
         23    2    1    2    0    0  0.12614306730E+02  0.41025611408E+02  0.37108308249E+03  0.38489590966E+03  0.92736107522E+02 0.  0.
          5    1    3    3  502    0 -0.41939809041E+02 -0.20919328769E+02  0.38798234930E+03  0.39082520603E+03  0.41800000000E+01 0. -1.
         -5    1    3    3    0  502  0.29325502311E+02 -0.20106282638E+02  0.27345662975E+02  0.45050031863E+02  0.41800000000E+01 0. -1.
        -11    1    4    4    0    0 -0.29050326814E+02  0.50826977071E+02  0.18952786280E+03  0.19836359006E+03  0.00000000000E+00 0.  1.
         11    1    4    4    0    0  0.41664633544E+02 -0.98013656633E+01  0.18155521969E+03  0.18653231960E+03  0.00000000000E+00 0. -1.
</event>
<event>
 8    1  0.3708258E-009  0.9379023E+02  0.7561462E-02  0.1293924E+00
         -2   -1    0    0    0  501 -0.00000000000E+00  0.00000000000E+00  0.25020303334E+02  0.25020303334E+02  0.00000000000E+00 0.  1.
          2   -1    0    0  501    0  0.00000000000E+00 -0.00000000000E+00 -0.61255842647E+03  0.61255842647E+03  0.00000000000E+00 0. -1.
         25    2    1    2    0    0 -0.29742582432E+02 -0.42056348795E+02 -0.40369265535E+03  0.42575582254E+03  0.12508758034E+03 0.  0.
         23    2    1    2    0    0  0.29742582432E+02  0.42056348795E+02 -0.18384546779E+03  0.21182290727E+03  0.91741104935E+02 0.  0.
          5    1    3    3  502    0  0.57196285138E+01 -0.48368145809E+02 -0.49000648201E+02  0.69215082196E+02  0.41800000000E+01 0.  1.
         -5    1    3    3    0  502 -0.35462210946E+02  0.63117970140E+01 -0.35469200715E+03  0.35654074034E+03  0.41800000000E+01 0.  1.
        -11    1    4    4    0    0  0.16060108691E+02  0.69734315453E+02 -0.14882608391E+03  0.16513632276E+03  0.00000000000E+00 0. -1.
         11    1    4    4    0    0  0.13682473741E+02 -0.27677966659E+02 -0.35019383879E+02  0.46686584511E+02  0.00000000000E+00 0.  1.
</event>
<event>
 8    1  0.3708258E-009  0.1852774E+03  0.7561462E-02  0.1162791E+00
          2   -1    0    0  501    0  0.00000000000E+00  0.00000000000E+00  0.29057703175E+03  0.29057703175E+03  0.00000000000E+00 0. -1.
         -2   -1    0    0    0  501 -0.00000000000E+00 -0.00000000000E+00 -0.17876175540E+03  0.17876175540E+03  0.00000000000E+00 0.  1.
         25    2    1    2    0    0 -0.17377489100E+02 -0.14963902162E+03  0.19347647244E+03  0.27527177152E+03  0.12509032292E+03 0.  0.
         23    2    1    2    0    0  0.17377489100E+02  0.14963902162E+03 -0.81661196096E+02  0.19406701563E+03  0.91102369285E+02 0.  0.
          5    1    3    3  502    0 -0.21162283960E+02  0.17983208663E+02  0.26853946327E+02  0.38856722578E+02  0.41800000000E+01 0.  1.
         -5    1    3    3    0  502  0.37847948593E+01 -0.16762223028E+03  0.16662252612E+03  0.23641504894E+03  0.41800000000E+01 0.  1.
        -11    1    4    4    0    0  0.51162934430E+02  0.11735781255E+03 -0.69970524174E+02  0.14589851363E+03  0.00000000000E+00 0.  1.
         11    1    4    4    0    0 -0.33785445329E+02  0.32281209070E+02 -0.11690671922E+02  0.48168502002E+02  0.00000000000E+00 0. -1.
</event>
<event>
 8    1  0.3708258E-009  0.9095666E+02  0.7561462E-02  0.1300551E+00
         -1   -1    0    0    0  501 -0.00000000000E+00  0.00000000000E+00  0.20224086983E+02  0.20224086983E+02  0.00000000000E+00 0.  1.
          1   -1    0    0  501    0  0.00000000000E+00 -0.00000000000E+00 -0.99965819017E+03  0.99965819017E+03  0.00000000000E+00 0. -1.
         25    2    1    2    0    0  0.85683785568E+02  0.49396385815E+01 -0.63977366853E+03  0.65751322461E+03  0.12508869834E+03 0.  0.
         23    2    1    2    0    0 -0.85683785568E+02 -0.49396385815E+01 -0.33966043466E+03  0.36236905254E+03  0.92606739665E+02 0.  0.
          5    1    3    3  502    0  0.46454196162E+02 -0.18482840352E+02 -0.57997676724E+03  0.58214270645E+03  0.41800000000E+01 0. -1.
         -5    1    3    3    0  502  0.39229589406E+02  0.23422478933E+02 -0.59796901286E+02  0.75370518160E+02  0.41800000000E+01 0. -1.
        -11    1    4    4    0    0 -0.10264678386E+02 -0.14022964842E+01  0.35504691535E+01  0.10951524507E+02  0.00000000000E+00 0.  1.
         11    1    4    4    0    0 -0.75419107182E+02 -0.35373420973E+01 -0.34321090381E+03  0.35141752804E+03  0.00000000000E+00 0. -1.
</event>
<event>
 8    1  0.3708258E-009  0.1813043E+03  0.7561462E-02  0.1166547E+00
          2   -1    0    0  501    0  0.00000000000E+00  0.00000000000E+00  0.16171900668E+04  0.16171900668E+04  0.00000000000E+00 0.  1.
         -2   -1    0    0    0  501 -0.00000000000E+00 -0.00000000000E+00 -0.29203977659E+02  0.29203977659E+02  0.00000000000E+00 0. -1.
         25    2    1    2    0    0  0.14744366325E+03  0.74590388923E+02  0.11571261500E+04  0.11755388291E+04  0.12508897525E+03 0.  0.
         23    2    1    2    0    0 -0.14744366325E+03 -0.74590388923E+02  0.43085993914E+03  0.47085521537E+03  0.93600142786E+02 0.  0.
          5    1    3    3  502    0  0.29029856279E+02  0.46420138109E+02  0.12866788740E+03  0.13989445816E+03  0.41800000000E+01 0.  1.
         -5    1    3    3    0  502  0.11841380698E+03  0.28170250813E+02  0.10284582626E+04  0.10356443709E+04  0.41800000000E+01 0.  1.
        -11    1    4    4    0    0  0.10070022765E+02 -0.13773894506E+02  0.75745769356E+02  0.77643719022E+02  0.00000000000E+00 0.  1.
         11    1    4    4    0    0 -0.15751368602E+03 -0.60816494417E+02  0.35511416978E+03  0.39321149635E+03  0.00000000000E+00 0. -1.
</event>
<event>
 8    1  0.3708258E-009  0.1311703E+03  0.7561462E-02  0.1225729E+00
          1   -1    0    0  501    0  0.00000000000E+00  0.00000000000E+00  0.13510361870E+04  0.13510361870E+04  0.00000000000E+00 0. -1.
         -1   -1    0    0    0  501 -0.00000000000E+00 -0.00000000000E+00 -0.20671305723E+02  0.20671305723E+02  0.00000000000E+00 0.  1.
         25    2    1    2    0    0  0.11528114180E+03 -0.52362965521E+02  0.76051232080E+03  0.78106178747E+03  0.12508758509E+03 0.  0.
         23    2    1    2    0    0 -0.11528114180E+03  0.52362965521E+02  0.56985256047E+03  0.59064570525E+03  0.89993258862E+02 0.  0.
          5    1    3    3  502    0  0.64947994690E+02 -0.17496572466E+02  0.12010906685E+03  0.13772448004E+03  0.41800000000E+01 0. -1.
         -5    1    3    3    0  502  0.50333147107E+02 -0.34866393055E+02  0.64040325395E+03  0.64333730743E+03  0.41800000000E+01 0. -1.
        -11    1    4    4    0    0 -0.15718468365E+02  0.26330397382E+02  0.37520510393E+02  0.48457700876E+02  0.00000000000E+00 0. -1.
         11    1    4    4    0    0 -0.99562673432E+02  0.26032568139E+02  0.53233205008E+03  0.54218800438E+03  0.00000000000E+00 0.  1.
</event>
<event>
 8    1  0.3708258E-009  0.1324943E+03  0.7561462E-02  0.1223801E+00
          2   -1    0    0  501    0  0.00000000000E+00  0.00000000000E+00  0.40124740206E+03  0.40124740206E+03  0.00000000000E+00 0. -1.
         -2   -1    0    0    0  501 -0.00000000000E+00 -0.00000000000E+00 -0.62861518713E+02  0.62861518713E+02  0.00000000000E+00 0.  1.
         25    2    1    2    0    0  0.10098537554E+03  0.54581488490E+02  0.14979688093E+03  0.22641491270E+03  0.12508965664E+03 0.  0.
         23    2    1    2    0    0 -0.10098537554E+03 -0.54581488490E+02  0.18858900242E+03  0.23769400807E+03  0.88065002591E+02 0.  0.
          5    1    3    3  502    0  0.96546864736E+02  0.66933078710E+02  0.16709493823E+03  0.20430253278E+03  0.41800000000E+01 0. -1.
         -5    1    3    3    0  502  0.44385108013E+01 -0.12351590219E+02 -0.17298057310E+02  0.22112379921E+02  0.41800000000E+01 0. -1.
        -11    1    4    4    0    0 -0.11771355603E+02 -0.41933832333E+02  0.23190288709E+02  0.49343698658E+02  0.00000000000E+00 0.  1.
         11    1    4    4    0    0 -0.89214019934E+02 -0.12647656158E+02  0.16539871371E+03  0.18835030942E+03  0.00000000000E+00 0. -1.
</event>
<event>
 8    1  0.3708258E-009  0.1256595E+03  0.7561462E-02  0.1234042E+00
          1   -1    0    0  501    0  0.00000000000E+00  0.00000000000E+00  0.43818766184E+02  0.43818766184E+02  0.00000000000E+00 0. -1.
         -1   -1    0    0    0  501 -0.00000000000E+00 -0.00000000000E+00 -0.42995023524E+03  0.42995023524E+03  0.00000000000E+00 0.  1.
         25    2    1    2    0    0 -0.75520655561E+02 -0.30474682143E+02 -0.23039092630E+03  0.27451701957E+03  0.12509012529E+03 0.  0.
         23    2    1    2    0    0  0.75520655561E+02  0.30474682143E+02 -0.15574054276E+03  0.19925198185E+03  0.93883757626E+02 0.  0.
          5    1    3    3  502    0 -0.86138026005E+02  0.10497784005E+02 -0.21018083184E+03  0.22742782914E+03  0.41800000000E+01 0. -1.
         -5    1    3    3    0  502  0.10617370444E+02 -0.40972466148E+02 -0.20210094453E+02  0.47089190428E+02  0.41800000000E+01 0. -1.
        -11    1    4    4    0    0 -0.14664905073E+01  0.43761509635E+02 -0.38150066580E+02  0.58074503011E+02  0.00000000000E+00 0.  1.
         11    1    4    4    0    0  0.76987146069E+02 -0.13286827492E+02 -0.11759047618E+03  0.14117747884E+03  0.00000000000E+00 0. -1.
</event>
<event>
 8    1  0.3708258E-009  0.1087594E+03  0.7561462E-02  0.1262885E+00
         -2   -1    0    0    0  501 -0.00000000000E+00  0.00000000000E+00  0.15664311389E+03  0.15664311389E+03  0.00000000000E+00 0.  1.
          2   -1    0    0  501    0  0.00000000000E+00 -0.00000000000E+00 -0.12334688572E+03  0.12334688572E+03  0.00000000000E+00 0. -1.
         25    2    1    2    0    0 -0.71780240172E+02  0.18501790744E+02  0.69030603078E+02  0.16095878263E+03  0.12509111242E+03 0.  0.
         23    2    1    2    0    0  0.71780240172E+02 -0.18501790744E+02 -0.35734374904E+02  0.11903121697E+03  0.86004452934E+02 0.  0.
          5    1    3    3  502    0 -0.79938423897E+02 -0.43832982167E+01  0.95566227314E+02  0.12473869136E+03  0.41800000000E+01 0. -1.
         -5    1    3    3    0  502  0.81581837255E+01  0.22885088961E+02 -0.26535624236E+02  0.36220091276E+02  0.41800000000E+01 0. -1.
        -11    1    4    4    0    0  0.17434827710E+02 -0.47855403701E+02 -0.89729726004E+01  0.51716797251E+02  0.00000000000E+00 0.  1.
         11    1    4    4    0    0  0.54345412461E+02  0.29353612957E+02 -0.26761402303E+02  0.67314419721E+02  0.00000000000E+00 0. -1.
</event>
<event>
 8    1  0.3708258E-009  0.1435628E+03  0.7561462E-02  0.1208614E+00
          1   -1    0    0  501    0  0.00000000000E+00  0.00000000000E+00  0.93914804882E+03  0.93914804882E+03  0.00000000000E+00 0. -1.
         -1   -1    0    0    0  501 -0.00000000000E+00 -0.00000000000E+00 -0.25084298646E+02  0.25084298646E+02  0.00000000000E+00 0.  1.
         25    2    1    2    0    0 -0.54525028880E+02 -0.92730998543E+02  0.45984466173E+03  0.48854628209E+03  0.12509332500E+03 0.  0.
         23    2    1    2    0    0  0.54525028880E+02  0.92730998543E+02  0.45421908845E+03  0.47568606538E+03  0.91598229335E+02 0.  0.
          5    1    3    3  502    0  0.20374324405E+02 -0.61876779596E+02  0.32247916031E+03  0.32901995408E+03  0.41800000000E+01 0. -1.
         -5    1    3    3    0  502 -0.74899353285E+02 -0.30854218948E+02  0.13736550142E+03  0.15952632801E+03  0.41800000000E+01 0. -1.
        -11    1    4    4    0    0  0.28012518419E+02 -0.13605454284E+02  0.11900674412E+03  0.12301388019E+03  0.00000000000E+00 0. -1.
         11    1    4    4    0    0  0.26512510461E+02  0.10633645283E+03  0.33521234433E+03  0.35267218518E+03  0.00000000000E+00 0.  1.
</event>
<event>
 8    1  0.3708258E-009  0.9568902E+02  0.7561462E-02  0.1289632E+00
         -2   -1    0    0    0  501 -0.00000000000E+00  0.00000000000E+00  0.67148392570E+02  0.67148392570E+02  0.00000000000E+00 0.  1.
          2   -1    0    0  501    0  0.00000000000E+00 -0.00000000000E+00 -0.26531165486E+03  0.26531165486E+03  0.00000000000E+00 0. -1.
         25    2    1    2    0    0  0.44659391149E+02 -0.61471911896E+02 -0.91760619519E+02  0.17274343981E+03  0.12508807910E+03 0.  0.
         23    2    1    2    0    0 -0.44659391149E+02  0.61471911896E+02 -0.10640264278E+03  0.15971660762E+03  0.91731211651E+02 0.  0.
          5    1    3    3  502    0 -0.90438518367E+01 -0.51547744677E+02  0.13390306080E+02  0.54182413515E+02  0.41800000000E+01 0. -1.
         -5    1    3    3    0  502  0.53703242985E+02 -0.99241672186E+01 -0.10515092560E+03  0.11856102630E+03  0.41800000000E+01 0. -1.
        -11    1    4    4    0    0 -0.21507170943E+02  0.36440480153E+01 -0.93620623887E+02  0.96128344961E+02  0.00000000000E+00 0. -1.
         11    1    4    4    0    0 -0.23152220206E+02  0.57827863881E+02 -0.12782018888E+02  0.63588262661E+02  0.00000000000E+00 0.  1.
</event>
<event>
 8    1  0.3708258E-009  0.1751791E+03  0.7561462E-02  0.1172552E+00
         -1   -1    0    0    0  501 -0.00000000000E+00  0.00000000000E+00  0.41297754086E+03  0.41297754086E+03  0.00000000000E+00 0.  1.
          1   -1    0    0  501    0  0.00000000000E+00 -0.00000000000E+00 -0.89364723725E+02  0.89364723725E+02  0.00000000000E+00 0. -1.
         25    2    1    2    0    0 -0.14052786166E+03  0.52513863231E+02  0.24068273413E+03  0.30997117817E+03  0.12509263390E+03 0.  0.
         23    2    1    2    0    0  0.14052786166E+03 -0.52513863231E+02  0.82930083008E+02  0.19237108641E+03  0.87312373030E+02 0.  0.
          5    1    3    3  502    0 -0.16152043648E+03  0.34983663002E+02  0.18714195869E+03  0.24970441162E+03  0.41800000000E+01 0. -1.
         -5    1    3    3    0  502  0.20992574812E+02  0.17530200230E+02  0.53540775432E+02  0.60266766557E+02  0.41800000000E+01 0. -1.
        -11    1    4    4    0    0  0.94222666663E+02 -0.58155891832E+02  0.17628343204E+02  0.11211947713E+03  0.00000000000E+00 0. -1.
         11    1    4    4    0    0  0.46305195002E+02  0.56420286007E+01  0.65301739804E+02  0.80251609282E+02  0.00000000000E+00 0.  1.
</event>
<event>
 8    1  0.3708258E-009  0.1457335E+03  0.7561462E-02  0.1205816E+00
          1   -1    0    0  501    0  0.00000000000E+00  0.00000000000E+00  0.79026273569E+03  0.79026273569E+03  0.00000000000E+00 0. -1.
         -1   -1    0    0    0  501 -0.00000000000E+00 -0.00000000000E+00 -0.34750321811E+02  0.34750321811E+02  0.00000000000E+00 0.  1.
         25    2    1    2    0    0  0.74254506803E+02 -0.93950866142E+02  0.49142892189E+03  0.52104834264E+03  0.12509393698E+03 0.  0.
         23    2    1    2    0    0 -0.74254506803E+02  0.93950866142E+02  0.26408349199E+03  0.30396471486E+03  0.91180919653E+02 0.  0.
          5    1    3    3  502    0  0.64408879697E+02 -0.11285949115E+03  0.47832177786E+03  0.49567626946E+03  0.41800000000E+01 0.  1.
         -5    1    3    3    0  502  0.98456271059E+01  0.18908625012E+02  0.13107144024E+02  0.25372073179E+02  0.41800000000E+01 0.  1.
        -11    1    4    4    0    0 -0.44082710715E+02  0.33181395243E+01  0.14335603187E+03  0.15001749001E+03  0.00000000000E+00 0. -1.
         11    1    4    4    0    0 -0.30171796088E+02  0.90632726618E+02  0.12072746012E+03  0.15394722485E+03  0.00000000000E+00 0.  1.
</event>
<event>
 8    1  0.3708258E-009  0.1112809E+03  0.7561462E-02  0.1258216E+00
          1   -1    0    0  501    0  0.00000000000E+00  0.00000000000E+00  0.15276301903E+03  0.15276301903E+03  0.00000000000E+00 0. -1.
         -1   -1    0    0    0  501 -0.00000000000E+00 -0.00000000000E+00 -0.85454615570E+02  0.85454615570E+02  0.00000000000E+00 0.  1.
         25    2    1    2    0    0 -0.36720067099E+02  0.36483588789E+01  0.27488263041E+02  0.13328507138E+03  0.12509049444E+03 0.  0.
         23    2    1    2    0    0  0.36720067099E+02 -0.36483588789E+01  0.39820140416E+02  0.10493256321E+03  0.89797134638E+02 0.  0.
          5    1    3    3  502    0 -0.28897202583E+02  0.61883745143E+02  0.34875426218E+00  0.68426897194E+02  0.41800000000E+01 0. -1.
         -5    1    3    3    0  502 -0.78228645162E+01 -0.58235386264E+02  0.27139508779E+02  0.64858174191E+02  0.41800000000E+01 0. -1.
        -11    1    4    4    0    0  0.65854515125E+02 -0.51513728751E+01  0.17888558513E+02  0.68435037302E+02  0.00000000000E+00 0.  1.
         11    1    4    4    0    0 -0.29134448025E+02  0.15030139962E+01  0.21931581903E+02  0.36497525911E+02  0.00000000000E+00 0. -1.
</event>
<event>
 8    1  0.3708258E-009  0.1676543E+03  0.7561462E-02  0.1180316E+00
         -1   -1    0    0    0  501 -0.00000000000E+00  0.00000000000E+00  0.69328057148E+02  0.69328057148E+02  0.00000000000E+00 0.  1.
          1   -1    0    0  501    0  0.00000000000E+00 -0.00000000000E+00 -0.47287543120E+03  0.47287543120E+03  0.00000000000E+00 0. -1.
         25    2    1    2    0    0 -0.78514069115E+02  0.12114760632E+03 -0.20119918180E+03  0.27743480587E+03  0.12509100362E+03 0.  0.
         23    2    1    2    0    0  0.78514069115E+02 -0.12114760632E+03 -0.20234819225E+03  0.26476868247E+03  0.91194642079E+02 0.  0.
          5    1    3    3  502    0  0.30697388613E+01 -0.22929104832E+02 -0.13495128323E+02  0.27106420523E+02  0.41800000000E+01 0. -1.
         -5    1    3    3    0  502 -0.81583807976E+02  0.14407671116E+03 -0.18770405348E+03  0.25032838535E+03  0.41800000000E+01 0. -1.
        -11    1    4    4    0    0  0.29777127601E+02 -0.27159240884E+02 -0.47333398537E+01  0.40579627890E+02  0.00000000000E+00 0.  1.
         11    1    4    4    0    0  0.48736941514E+02 -0.93988365440E+02 -0.19761485240E+03  0.22418905458E+03  0.00000000000E+00 0. -1.
</event>
<event>
 8    1  0.3708258E-009  0.1153035E+03  0.7561462E-02  0.1251052E+00
         -2   -1    0    0    0  501 -0.00000000000E+00  0.00000000000E+00  0.17268655852E+03  0.17268655852E+03  0.00000000000E+00 0.  1.
          2   -1    0    0  501    0  0.00000000000E+00 -0.00000000000E+00 -0.13905436894E+03  0.13905436894E+03  0.00000000000E+00 0. -1.
         25    2    1    2    0    0  0.10248085718E+03  0.11380059088E+02 -0.20807294140E+02  0.16344260708E+03  0.12509480599E+03 0.  0.
         23    2    1    2    0    0 -0.10248085718E+03 -0.11380059088E+02  0.54439483717E+02  0.14829832038E+03  0.91634614678E+02 0.  0.
          5    1    3    3  502    0  0.83682672050E+02 -0.17718914068E+02 -0.64726733072E+02  0.10734883274E+03  0.41800000000E+01 0. -1.
         -5    1    3    3    0  502  0.18798185128E+02  0.29098973156E+02  0.43919438932E+02  0.56093774333E+02  0.41800000000E+01 0. -1.
        -11    1    4    4    0    0 -0.77221605565E+02  0.88282748074E+01 -0.78399592675E+01  0.78119010256E+02  0.00000000000E+00 0. -1.
         11    1    4    4    0    0 -0.25259251613E+02 -0.20208333895E+02  0.62279442985E+02  0.70179310123E+02  0.00000000000E+00 0.  1.
</event>
<event>
 8    1  0.3708258E-009  0.1002902E+03  0.7561462E-02  0.1279687E+00
          2   -1    0    0  501    0  0.00000000000E+00  0.00000000000E+00  0.78326705782E+03  0.78326705782E+03  0.00000000000E+00 0. -1.
         -2   -1    0    0    0  501 -0.00000000000E+00 -0.00000000000E+00 -0.35277786599E+02  0.35277786599E+02  0.00000000000E+00 0.  1.
         25    2    1    2    0    0 -0.12471396562E+00 -0.74510870727E+02  0.65002719751E+03  0.66613399285E+03  0.12508898239E+03 0.  0.
         23    2    1    2    0    0  0.12471396562E+00  0.74510870727E+02  0.97962073710E+02  0.15241085157E+03  0.89892237602E+02 0.  0.
          5    1    3    3  502    0  0.44003134335E+02 -0.30487584581E+02  0.10896147631E+03  0.12147363650E+03  0.41800000000E+01 0. -1.
         -5    1    3    3    0  502 -0.44127848301E+02 -0.44023286146E+02  0.54106572120E+03  0.54466035635E+03  0.41800000000E+01 0. -1.
        -11    1    4    4    0    0  0.19894708428E+02  0.37931982487E+02  0.10200709253E+03  0.11063490247E+03  0.00000000000E+00 0. -1.
         11    1    4    4    0    0 -0.19769994463E+02  0.36578888240E+02 -0.40450188183E+01  0.41775949100E+02  0.00000000000E+00 0.  1.
</event>
<event>
 8    1  0.3708258E-009  0.7870866E+02  0.7561462E-02  0.1332757E+00
         -2   -1    0    0    0  501 -0.00000000000E+00  0.00000000000E+00  0.12295850393E+03  0.12295850393E+03  0.00000000000E+00 0.  1.
          2   -1    0    0  501    0  0.00000000000E+00 -0.00000000000E+00 -0.14663654053E+03  0.14663654053E+03  0.00000000000E+00 0. -1.
         25    2    1    2    0    0  0.39047129693E+02 -0.24899221441E+02 -0.79462578002E+02  0.15526188059E+03  0.12508917097E+03 0.  0.
         23    2    1    2    0    0 -0.39047129693E+02  0.24899221441E+02  0.55784541397E+02  0.11433316387E+03  0.88405360339E+02 0.  0.
          5    1    3    3  502    0  0.64266567292E+02 -0.22612566205E+02  0.35730040364E+01  0.68350263933E+02  0.41800000000E+01 0.  1.
         -5    1    3    3    0  502 -0.25219437599E+02 -0.22866552364E+01 -0.83035582038E+02  0.86911616654E+02  0.41800000000E+01 0.  1.
        -11    1    4    4    0    0 -0.25808162058E+02 -0.88169671362E+01  0.70227797961E+02  0.75337532112E+02  0.00000000000E+00 0.  1.
         11    1    4    4    0    0 -0.13238967635E+02  0.33716188578E+02 -0.14443256564E+02  0.38995631761E+02  0.00000000000E+00 0. -1.
</event>
<event>
 8    1  0.3708258E-009  0.8664345E+02  0.7561462E-02  0.1311190E+00
          1   -1    0    0  501    0  0.00000000000E+00  0.00000000000E+00  0.11463211409E+04  0.11463211409E+04  0.00000000000E+00 0. -1.
         -1   -1    0    0    0  501 -0.00000000000E+00 -0.00000000000E+00 -0.13579576149E+02  0.13579576149E+02  0.00000000000E+00 0.  1.
         25    2    1    2    0    0  0.41339398945E+01  0.45901690681E+02  0.82366538134E+03  0.83438364399E+03  0.12508936912E+03 0.  0.
         23    2    1    2    0    0 -0.41339398945E+01 -0.45901690681E+02  0.30907618342E+03  0.32551707307E+03  0.91154939737E+02 0.  0.
          5    1    3    3  502    0  0.12792058637E+02 -0.86840133785E+01  0.68306721475E+03  0.68325496056E+03  0.41800000000E+01 0. -1.
         -5    1    3    3    0  502 -0.86581187422E+01  0.54585704059E+02  0.14059816659E+03  0.15112868343E+03  0.41800000000E+01 0. -1.
        -11    1    4    4    0    0 -0.40633651517E+02 -0.50762752083E+02  0.20903496336E+03  0.21891451880E+03  0.00000000000E+00 0.  1.
         11    1    4    4    0    0  0.36499711622E+02  0.48610614027E+01  0.10004122006E+03  0.10660255428E+03  0.00000000000E+00 0. -1.
</event>
<event>
 8    1  0.3708258E-009  0.4231949E+03  0.7561462E-02  0.1036031E+00
          2   -1    0    0  501    0  0.00000000000E+00  0.00000000000E+00  0.99619782743E+03  0.99619782743E+03  0.00000000000E+00 0.  1.
         -2   -1    0    0    0  501 -0.00000000000E+00 -0.00000000000E+00 -0.26499993544E+03  0.26499993544E+03  0.00000000000E+00 0. -1.
         25    2    1    2    0    0 -0.76497188967E+02  0.40708142119E+03  0.19804175105E+02  0.43313662141E+03  0.12509206232E+03 0.  0.
         23    2    1    2    0    0  0.76497188967E+02 -0.40708142119E+03  0.71139371688E+03  0.82806114146E+03  0.89650042854E+02 0.  0.
          5    1    3    3  502    0 -0.58433351026E+02  0.10498492299E+03 -0.35726044288E+02  0.12541974808E+03  0.41800000000E+01 0. -1.
         -5    1    3    3    0  502 -0.18063837941E+02  0.30209649820E+03  0.55530219393E+02  0.30771687333E+03  0.41800000000E+01 0. -1.
        -11    1    4    4    0    0  0.71773512997E+02 -0.14909424331E+03  0.26295797389E+03  0.31068863286E+03  0.00000000000E+00 0. -1.
         11    1    4    4    0    0  0.47236759705E+01 -0.25798717788E+03  0.44843574300E+03  0.51737250861E+03  0.00000000000E+00 0.  1.
</event>
<event>
 8    1  0.3708258E-009  0.1113821E+03  0.7561462E-02  0.1258032E+00
          1   -1    0    0  501    0  0.00000000000E+00  0.00000000000E+00  0.65029543796E+02  0.65029543796E+02  0.00000000000E+00 0. -1.
         -1   -1    0    0    0  501 -0.00000000000E+00 -0.00000000000E+00 -0.27415222616E+03  0.27415222616E+03  0.00000000000E+00 0.  1.
         25    2    1    2    0    0  0.42083323483E+02 -0.44812766960E+01 -0.19775463565E+03  0.23779287571E+03  0.12508983916E+03 0.  0.
         23    2    1    2    0    0 -0.42083323483E+02  0.44812766960E+01 -0.11368046717E+02  0.10138889425E+03  0.91429685740E+02 0.  0.
          5    1    3    3  502    0 -0.44689148315E+02 -0.13158093200E+01 -0.73978283159E+02  0.86539644733E+02  0.41800000000E+01 0.  1.
         -5    1    3    3    0  502  0.86772471798E+02 -0.31654673760E+01 -0.12377635249E+03  0.15125323098E+03  0.41800000000E+01 0.  1.
        -11    1    4    4    0    0 -0.55942757129E+02 -0.22736545076E+02  0.13646676923E+02  0.61909404360E+02  0.00000000000E+00 0.  1.
         11    1    4    4    0    0  0.13859433646E+02  0.27217821772E+02 -0.25014723640E+02  0.39479489888E+02  0.00000000000E+00 0. -1.
</event>
<event>
 8    1  0.3708258E-009  0.1113731E+03  0.7561462E-02  0.1258048E+00
         -1   -1    0    0    0  501 -0.00000000000E+00  0.00000000000E+00  0.83098051314E+02  0.83098051314E+02  0.00000000000E+00 0.  1.
          1   -1    0    0  501    0  0.00000000000E+00 -0.00000000000E+00 -0.18519446060E+03  0.18519446060E+03  0.00000000000E+00 0. -1.
         25    2    1    2    0    0 -0.60110114798E+02 -0.11133838957E+01 -0.72205188779E+02  0.15644287681E+03  0.12508524651E+03 0.  0.
         23    2    1    2    0    0  0.60110114798E+02  0.11133838957E+01 -0.29891220503E+02  0.11184963510E+03  0.89456080197E+02 0.  0.
          5    1    3    3  502    0 -0.71880741157E+02 -0.38316253194E+02 -0.82354210774E+02  0.11590800076E+03  0.41800000000E+01 0. -1.
         -5    1    3    3    0  502  0.11770626359E+02  0.37202869299E+02  0.10149021994E+02  0.40534876050E+02  0.41800000000E+01 0. -1.
        -11    1    4    4    0    0 -0.15491500427E+02  0.18736570051E+02 -0.23736663636E+02  0.33977563822E+02  0.00000000000E+00 0.  1.
         11    1    4    4    0    0  0.75601615225E+02 -0.17623186155E+02 -0.61545568671E+01  0.77872071278E+02  0.00000000000E+00 0. -1.
</event>
<event>
 8    1  0.3708258E-009  0.1015582E+03  0.7561462E-02  0.1277053E+00
          2   -1    0    0  501    0  0.00000000000E+00  0.00000000000E+00  0.22631293225E+03  0.22631293225E+03  0.00000000000E+00 0. -1.
         -2   -1    0    0    0  501 -0.00000000000E+00 -0.00000000000E+00 -0.58276169885E+02  0.58276169885E+02  0.00000000000E+00 0.  1.
         25    2    1    2    0    0 -0.10238168840E+02 -0.19176381926E+02  0.98440557993E+02  0.16065696469E+03  0.12509021993E+03 0.  0.
         23    2    1    2    0    0  0.10238168840E+02  0.19176381926E+02  0.69596204377E+02  0.12393213745E+03  0.10021471600E+03 0.  0.
          5    1    3    3  502    0  0.55287750604E+02  0.59153898481E+01  0.34066834180E+02  0.65343314846E+02  0.41800000000E+01 0.  1.
         -5    1    3    3    0  502 -0.65525919444E+02 -0.25091771775E+02  0.64373723812E+02  0.95313649847E+02  0.41800000000E+01 0.  1.
        -11    1    4    4    0    0 -0.26228619492E+02  0.29196468443E+02  0.76037517568E+02  0.85569143550E+02  0.00000000000E+00 0. -1.
         11    1    4    4    0    0  0.36466788332E+02 -0.10020086517E+02 -0.64413131910E+01  0.38362993896E+02  0.00000000000E+00 0.  1.
</event>
<event>
 8    1  0.3708258E-009  0.1536198E+03  0.7561462E-02  0.1196094E+00
         -1   -1    0    0    0  501 -0.00000000000E+00  0.00000000000E+00  0.22690246808E+02  0.22690246808E+02  0.00000000000E+00 0.  1.
          1   -1    0    0  501    0  0.00000000000E+00 -0.00000000000E+00 -0.13950473254E+04  0.13950473254E+04  0.00000000000E+00 0. -1.
         25    2    1    2    0    0  0.11639649140E+03  0.79845489878E+02 -0.67784244032E+03  0.70359145860E+03  0.12508845373E+03 0.  0.
         23    2    1    2    0    0 -0.11639649140E+03 -0.79845489878E+02 -0.69451463825E+03  0.71414611359E+03  0.87924077137E+02 0.  0.
          5    1    3    3  502    0  0.10220640455E+03  0.73155780835E+02 -0.67559651748E+03  0.68720160377E+03  0.41800000000E+01 0. -1.
         -5    1    3    3    0  502  0.14190086849E+02  0.66897090431E+01 -0.22459228399E+01  0.16389854827E+02  0.41800000000E+01 0. -1.
        -11    1    4    4    0    0 -0.20938169202E+02 -0.65437242888E+02 -0.32900171738E+03  0.33609904749E+03  0.00000000000E+00 0.  1.
         11    1    4    4    0    0 -0.95458322195E+02 -0.14408246989E+02 -0.36551292088E+03  0.37804706610E+03  0.00000000000E+00 0. -1.
</event>
<event>
 8    1  0.3708258E-009  0.9507459E+02  0.7561462E-02  0.1291008E+00
         -2   -1    0    0    0  501 -0.00000000000E+00  0.00000000000E+00  0.27424711039E+02  0.27424711039E+02  0.00000000000E+00 0.  1.
          2   -1    0    0  501    0  0.00000000000E+00 -0.00000000000E+00 -0.47141863343E+03  0.47141863343E+03  0.00000000000E+00 0. -1.
         25    2    1    2    0    0  0.26886674333E+02 -0.13070971105E+02 -0.28784877630E+03  0.31527374122E+03  0.12508745078E+03 0.  0.
         23    2    1    2    0    0 -0.26886674333E+02  0.13070971105E+02 -0.15614514610E+03  0.18356960326E+03  0.91775536215E+02 0.  0.
          5    1    3    3  502    0  0.65327634660E+02 -0.26569406776E+02 -0.96533079539E+02  0.11962332997E+03  0.41800000000E+01 0. -1.
         -5    1    3    3    0  502 -0.38440960328E+02  0.13498435671E+02 -0.19131569676E+03  0.19565041125E+03  0.41800000000E+01 0. -1.
        -11    1    4    4    0    0  0.85509680949E+01  0.35560412984E+02 -0.21257686087E+02  0.42303087886E+02  0.00000000000E+00 0.  1.
         11    1    4    4    0    0 -0.35437642428E+02 -0.22489441879E+02 -0.13488746001E+03  0.14126651537E+03  0.00000000000E+00 0. -1.
</event>
<event>
 8    1  0.3708258E-009  0.1214212E+03  0.7561462E-02  0.1240771E+00
          1   -1    0    0  501    0  0.00000000000E+00  0.00000000000E+00  0.36859674721E+03  0.36859674721E+03  0.00000000000E+00 0. -1.
         -1   -1    0    0    0  501 -0.00000000000E+00 -0.00000000000E+00 -0.53054381091E+02  0.53054381091E+02  0.00000000000E+00 0.  1.
         25    2    1    2    0    0 -0.79931564348E+02  0.43558974108E+01  0.22201153217E+03  0.26710496451E+03  0.12509161774E+03 0.  0.
         23    2    1    2    0    0  0.79931564348E+02 -0.43558974108E+01  0.93530833946E+02  0.15454616379E+03  0.93426286568E+02 0.  0.
          5    1    3    3  502    0 -0.10399291394E+02 -0.51209717248E+02  0.12409934947E+03  0.13471711599E+03  0.41800000000E+01 0.  1.
         -5    1    3    3    0  502 -0.69532272953E+02  0.55565614659E+02  0.97912182704E+02  0.13238784852E+03  0.41800000000E+01 0.  1.
        -11    1    4    4    0    0  0.34751947272E+02 -0.32915582424E+02  0.88810936444E+02  0.10088863086E+03  0.00000000000E+00 0. -1.
         11    1    4    4    0    0  0.45179617076E+02  0.28559685013E+02  0.47198975019E+01  0.53657532925E+02  0.00000000000E+00 0.  1.
</event>
<event>
 8    1  0.3708258E-009  0.1877056E+03  0.7561462E-02  0.1160547E+00
         -2   -1    0    0    0  501 -0.00000000000E+00  0.00000000000E+00  0.19851325768E+03  0.19851325768E+03  0.00000000000E+00 0.  1.
          2   -1    0    0  501    0  0.00000000000E+00 -0.00000000000E+00 -0.32724142975E+03  0.32724142975E+03  0.00000000000E+00 0. -1.
         25    2    1    2    0    0 -0.11381498434E+03 -0.12035911778E+03  0.99286719601E+02  0.23009984568E+03  0.12509164000E+03 0.  0.
         23    2    1    2    0    0  0.11381498434E+03  0.12035911778E+03 -0.22801489168E+03  0.29565484175E+03  0.89335472958E+02 0.  0.
          5    1    3    3  502    0 -0.78878789843E+01 -0.94511625253E+02  0.67384898519E+02  0.11641676379E+03  0.41800000000E+01 0. -1.
         -5    1    3    3    0  502 -0.10592710536E+03 -0.25847492530E+02  0.31901821082E+02  0.11368308189E+03  0.41800000000E+01 0. -1.
        -11    1    4    4    0    0  0.99757913090E+02  0.77697412432E+02 -0.21406442690E+03  0.24862040943E+03  0.00000000000E+00 0. -1.
         11    1    4    4    0    0  0.14057071254E+02  0.42661705351E+02 -0.13950464775E+02  0.47034432315E+02  0.00000000000E+00 0.  1.
</event>
<event>
 8    1  0.3708258E-009  0.1259303E+03  0.7561462E-02  0.1233622E+00
         -2   -1    0    0    0  501 -0.00000000000E+00  0.00000000000E+00  0.10293535869E+03  0.10293535869E+03  0.00000000000E+00 0. -1.
          2   -1    0    0  501    0  0.00000000000E+00 -0.00000000000E+00 -0.25848433571E+03  0.25848433571E+03  0.00000000000E+00 0.  1.
         25    2    1    2    0    0 -0.32311253530E+02  0.88813096682E+02  0.16310639524E+01  0.15677374090E+03  0.12507422684E+03 0.  0.
         23    2    1    2    0    0  0.32311253530E+02 -0.88813096682E+02 -0.15718004096E+03  0.20464595350E+03  0.90788863624E+02 0.  0.
          5    1    3    3  502    0  0.48078020035E+02  0.31462334250E+02 -0.42092128014E+01  0.57763001647E+02  0.41800000000E+01 0.  1.
         -5    1    3    3    0  502 -0.80389273565E+02  0.57350762432E+02  0.58402767538E+01  0.99010739258E+02  0.41800000000E+01 0.  1.
        -11    1    4    4    0    0  0.26105909938E+02 -0.53164262469E+02 -0.19599768010E+02  0.62386763368E+02  0.00000000000E+00 0. -1.
         11    1    4    4    0    0  0.62053435922E+01 -0.35648834213E+02 -0.13758027295E+03  0.14225919013E+03  0.00000000000E+00 0.  1.
</event>
<event>
 8    1  0.3708258E-009  0.9325005E+02  0.7561462E-02  0.1295167E+00
          1   -1    0    0  501    0  0.00000000000E+00  0.00000000000E+00  0.73488578400E+02  0.73488578400E+02  0.00000000000E+00 0. -1.
         -1   -1    0    0    0  501 -0.00000000000E+00 -0.00000000000E+00 -0.18214340293E+03  0.18214340293E+03  0.00000000000E+00 0.  1.
         25    2    1    2    0    0 -0.15583081064E+02  0.30939696322E+02 -0.47151020349E+02  0.13809213847E+03  0.12508446252E+03 0.  0.
         23    2    1    2    0    0  0.15583081064E+02 -0.30939696322E+02 -0.61503804184E+02  0.11753984286E+03  0.93982974557E+02 0.  0.
          5    1    3    3  502    0 -0.65926063796E+02  0.53789204671E+01 -0.30844421058E+01  0.66348812018E+02  0.41800000000E+01 0.  1.
         -5    1    3    3    0  502  0.50342982732E+02  0.25560775855E+02 -0.44066578243E+02  0.71743326454E+02  0.41800000000E+01 0.  1.
        -11    1    4    4    0    0  0.27996228361E+02  0.23350658809E+01  0.15968857743E+02  0.32314791547E+02  0.00000000000E+00 0. -1.
         11    1    4    4    0    0 -0.12413147296E+02 -0.33274762203E+02 -0.77472661927E+02  0.85225051314E+02  0.00000000000E+00 0.  1.
</event>
<event>
 8    1  0.3708258E-009  0.1051385E+03  0.7561462E-02  0.1269847E+00
         -1   -1    0    0    0  501 -0.00000000000E+00  0.00000000000E+00  0.32482731296E+03  0.32482731296E+03  0.00000000000E+00 0.  1.
          1   -1    0    0  501    0  0.00000000000E+00 -0.00000000000E+00 -0.47556661132E+02  0.47556661132E+02  0.00000000000E+00 0. -1.
         25    2    1    2    0    0  0.58655596944E+02  0.32800967494E+01  0.18738225954E+03  0.23282944779E+03  0.12508478116E+03 0.  0.
         23    2    1    2    0    0 -0.58655596944E+02 -0.32800967494E+01  0.89888392286E+02  0.13955452630E+03  0.89130828878E+02 0.  0.
          5    1    3    3  502    0  0.85424025197E+02 -0.15394598986E+02  0.17883697284E+03  0.19883257533E+03  0.41800000000E+01 0.  1.
         -5    1    3    3    0  502 -0.26768428253E+02  0.18674695735E+02  0.85452867016E+01  0.33996872455E+02  0.41800000000E+01 0.  1.
        -11    1    4    4    0    0 -0.27156291871E+02 -0.35972894606E+02  0.77908177100E+01  0.45740684025E+02  0.00000000000E+00 0. -1.
         11    1    4    4    0    0 -0.31499305073E+02  0.32692797856E+02  0.82097574576E+02  0.93813842278E+02  0.00000000000E+00 0.  1.
</event>
<event>
 8    1  0.3708258E-009  0.1377918E+03  0.7561462E-02  0.1216331E+00
         -2   -1    0    0    0  501 -0.00000000000E+00  0.00000000000E+00  0.20808644618E+03  0.20808644618E+03  0.00000000000E+00 0.  1.
          2   -1    0    0  501    0  0.00000000000E+00 -0.00000000000E+00 -0.10665465851E+03  0.10665465851E+03  0.00000000000E+00 0. -1.
         25    2    1    2    0    0 -0.54327156973E+02 -0.81277557172E+02  0.21618344004E+02  0.16022678126E+03  0.12509111620E+03 0.  0.
         23    2    1    2    0    0  0.54327156973E+02  0.81277557172E+02  0.79813443663E+02  0.15451432342E+03  0.89145998610E+02 0.  0.
          5    1    3    3  502    0 -0.23085345108E+02  0.25688979885E+02 -0.21239283323E+02  0.40760721318E+02  0.41800000000E+01 0.  1.
         -5    1    3    3    0  502 -0.31241811865E+02 -0.10696653706E+03  0.42857627328E+02  0.11946605995E+03  0.41800000000E+01 0.  1.
        -11    1    4    4    0    0 -0.93812493864E+01 -0.12671949390E+02  0.28428032142E-01  0.15766640401E+02  0.00000000000E+00 0.  1.
         11    1    4    4    0    0  0.63708406360E+02  0.93949506562E+02  0.79785015631E+02  0.13874768302E+03  0.00000000000E+00 0. -1.
</event>
<event>
 8    1  0.3708258E-009  0.1279969E+03  0.7561462E-02  0.1230459E+00
          2   -1    0    0  501    0  0.00000000000E+00  0.00000000000E+00  0.15011727244E+03  0.15011727244E+03  0.00000000000E+00 0. -1.
         -2   -1    0    0    0  501 -0.00000000000E+00 -0.00000000000E+00 -0.17233930956E+03  0.17233930956E+03  0.00000000000E+00 0.  1.
         25    2    1    2    0    0  0.65347705721E+02 -0.43446114727E+02  0.77156081881E+02  0.16660963533E+03  0.12509125504E+03 0.  0.
         23    2    1    2    0    0 -0.65347705721E+02  0.43446114727E+02 -0.99378119001E+02  0.15584694667E+03  0.90853578481E+02 0.  0.
          5    1    3    3  502    0 -0.12954068943E+02  0.28438342804E+02  0.45993785163E+02  0.55762423883E+02  0.41800000000E+01 0.  1.
         -5    1    3    3    0  502  0.78301774664E+02 -0.71884457531E+02  0.31162296718E+02  0.11084721145E+03  0.41800000000E+01 0.  1.
        -11    1    4    4    0    0  0.18938979197E+02  0.25749810353E+02 -0.15117057348E+02  0.35359059505E+02  0.00000000000E+00 0. -1.
         11    1    4    4    0    0 -0.84286684918E+02  0.17696304374E+02 -0.84261061653E+02  0.12048788717E+03  0.00000000000E+00 0.  1.
</event>
<event>
 8    1  0.3708258E-009  0.3463239E+03  0.7561462E-02  0.1064134E+00
         -1   -1    0    0    0  501 -0.00000000000E+00  0.00000000000E+00  0.75550149260E+02  0.75550149260E+02  0.00000000000E+00 0.  1.
          1   -1    0    0  501    0  0.00000000000E+00 -0.00000000000E+00 -0.18914055192E+04  0.18914055192E+04  0.00000000000E+00 0. -1.
         25    2    1    2    0    0 -0.27115715246E+03 -0.21068391401E+03 -0.62327228527E+03  0.72251767813E+03  0.12509812417E+03 0.  0.
         23    2    1    2    0    0  0.27115715246E+03  0.21068391401E+03 -0.11925830847E+04  0.12444379903E+04  0.91965129111E+02 0.  0.
          5    1    3    3  502    0 -0.24423236024E+03 -0.20916946995E+03 -0.48740562120E+03  0.58393751800E+03  0.41800000000E+01 0.  1.
         -5    1    3    3    0  502 -0.26924792228E+02 -0.15144440587E+01 -0.13586666407E+03  0.13858016013E+03  0.41800000000E+01 0.  1.
        -11    1    4    4    0    0  0.66997481191E+02  0.43367539143E+02 -0.43309418252E+03  0.44038616789E+03  0.00000000000E+00 0.  1.
         11    1    4    4    0    0  0.20415967127E+03  0.16731637487E+03 -0.75948890216E+03  0.80405182245E+03  0.00000000000E+00 0. -1.
</event>
<event>
 8    1  0.3708258E-009  0.2098056E+03  0.7561462E-02  0.1141720E+00
         -2   -1    0    0    0  501 -0.00000000000E+00  0.00000000000E+00  0.11115042697E+03  0.11115042697E+03  0.00000000000E+00 0.  1.
          2   -1    0    0  501    0  0.00000000000E+00 -0.00000000000E+00 -0.57405712660E+03  0.57405712660E+03  0.00000000000E+00 0. -1.
         25    2    1    2    0    0  0.19356691792E+03 -0.32245927385E+02 -0.39687050019E+03  0.46006628927E+03  0.12508734970E+03 0.  0.
         23    2    1    2    0    0 -0.19356691792E+03  0.32245927385E+02 -0.66036199434E+02  0.22514126430E+03  0.88429959357E+02 0.  0.
          5    1    3    3  502    0  0.45329394146E+02  0.17701406939E+02 -0.21461239244E+02  0.53349329622E+02  0.41800000000E+01 0. -1.
         -5    1    3    3    0  502  0.14823752377E+03 -0.49947334324E+02 -0.37540926094E+03  0.40671695964E+03  0.41800000000E+01 0. -1.
        -11    1    4    4    0    0 -0.50688789340E+02  0.48912857756E+02 -0.11866305354E+02  0.71432697145E+02  0.00000000000E+00 0.  1.
         11    1    4    4    0    0 -0.14287812858E+03 -0.16666930371E+02 -0.54169894079E+02  0.15370856716E+03  0.00000000000E+00 0. -1.
</event>
<event>
 8    1  0.3708258E-009  0.1018447E+03  0.7561462E-02  0.1276464E+00
         -2   -1    0    0    0  501 -0.00000000000E+00  0.00000000000E+00  0.43405410148E+03  0.43405410148E+03  0.00000000000E+00 0.  1.
          2   -1    0    0  501    0  0.00000000000E+00 -0.00000000000E+00 -0.38556686575E+02  0.38556686575E+02  0.00000000000E+00 0. -1.
         25    2    1    2    0    0 -0.47025828120E+02 -0.22588574071E+02  0.13331473723E+03  0.19011243466E+03  0.12509295129E+03 0.  0.
         23    2    1    2    0    0  0.47025828120E+02  0.22588574071E+02  0.26218267767E+03  0.28249835339E+03  0.91344901372E+02 0.  0.
          5    1    3    3  502    0  0.16724653424E+02 -0.45471928133E+02  0.10431891275E+02  0.49736375379E+02  0.41800000000E+01 0. -1.
         -5    1    3    3    0  502 -0.63750481544E+02  0.22883354063E+02  0.12288284595E+03  0.14037605928E+03  0.41800000000E+01 0. -1.
        -11    1    4    4    0    0  0.42759892921E+02  0.46346972517E+02  0.24469834873E+03  0.25269296028E+03  0.00000000000E+00 0. -1.
         11    1    4    4    0    0  0.42659351991E+01 -0.23758398447E+02  0.17484328949E+02  0.29805393114E+02  0.00000000000E+00 0.  1.
</event>
<event>
 8    1  0.3708258E-009  0.1182182E+03  0.7561462E-02  0.1246066E+00
          1   -1    0    0  501    0  0.00000000000E+00  0.00000000000E+00  0.44305186694E+02  0.44305186694E+02  0.00000000000E+00 0.  1.
         -1   -1    0    0    0  501 -0.00000000000E+00 -0.00000000000E+00 -0.42763088794E+03  0.42763088794E+03  0.00000000000E+00 0. -1.
         25    2    1    2    0    0  0.29262629220E+01 -0.63632771336E+02 -0.30637120942E+03  0.33699960719E+03  0.12509086570E+03 0.  0.
         23    2    1    2    0    0 -0.29262629220E+01  0.63632771336E+02 -0.76954491832E+02  0.13493646745E+03  0.90709226829E+02 0.  0.
          5    1    3    3  502    0 -0.27580566057E+02  0.23500788985E+02 -0.15836358003E+03  0.16250990919E+03  0.41800000000E+01 0.  1.
         -5    1    3    3    0  502  0.30506828979E+02 -0.87133560321E+02 -0.14800762939E+03  0.17448969800E+03  0.41800000000E+01 0.  1.
        -11    1    4    4    0    0  0.39688083334E+02  0.47698759032E+02 -0.60197851502E+02  0.86452859394E+02  0.00000000000E+00 0.  1.
         11    1    4    4    0    0 -0.42614346256E+02  0.15934012304E+02 -0.16756640330E+02  0.48483608055E+02  0.00000000000E+00 0. -1.
</event>
<event>
 8    1  0.3708258E-009  0.9749613E+02  0.7561462E-02  0.1285651E+00
         -3   -1    0    0    0  501 -0.00000000000E+00  0.00000000000E+00  0.32152194015E+02  0.32152194015E+02  0.00000000000E+00 0.  1.
          3   -1    0    0  501    0  0.00000000000E+00 -0.00000000000E+00 -0.54897114899E+03  0.54897114899E+03  0.00000000000E+00 0. -1.
         25    2    1    2    0    0 -0.41016181972E+02 -0.52017458704E+02 -0.37476929913E+03  0.40060837485E+03  0.12508756630E+03 0.  0.
         23    2    1    2    0    0  0.41016181972E+02  0.52017458704E+02 -0.14204965585E+03  0.18051496815E+03  0.89551135147E+02 0.  0.
          5    1    3    3  502    0 -0.52294909920E+02  0.19687501167E+02 -0.84638960364E+02  0.10150655800E+03  0.41800000000E+01 0.  1.
         -5    1    3    3    0  502  0.11278727948E+02 -0.71704959872E+02 -0.29013033876E+03  0.29910181685E+03  0.41800000000E+01 0.  1.
        -11    1    4    4    0    0  0.16703642781E+02  0.20359569272E+02  0.61419661609E+01  0.27041588182E+02  0.00000000000E+00 0.  1.
         11    1    4    4    0    0  0.24312539191E+02  0.31657889433E+02 -0.14819162201E+03  0.15347337997E+03  0.00000000000E+00 0. -1.
</event>
<event>
 8    1  0.3708258E-009  0.1120190E+03  0.7561462E-02  0.1256876E+00
          1   -1    0    0  501    0  0.00000000000E+00  0.00000000000E+00  0.29729489375E+03  0.29729489375E+03  0.00000000000E+00 0. -1.
         -1   -1    0    0    0  501 -0.00000000000E+00 -0.00000000000E+00 -0.43874476169E+02  0.43874476169E+02  0.00000000000E+00 0.  1.
         25    2    1    2    0    0 -0.15349479995E+02 -0.34719191849E+02  0.14711092467E+03  0.19679935243E+03  0.12508929667E+03 0.  0.
         23    2    1    2    0    0  0.15349479995E+02  0.34719191849E+02  0.10630949291E+03  0.14437001749E+03  0.89999804710E+02 0.  0.
          5    1    3    3  502    0  0.54018027007E+02 -0.42293893370E+01  0.69877351553E+02  0.88522040397E+02  0.41800000000E+01 0.  1.
         -5    1    3    3    0  502 -0.69367507001E+02 -0.30489802512E+02  0.77233573112E+02  0.10827731203E+03  0.41800000000E+01 0.  1.
        -11    1    4    4    0    0  0.33912169909E+02 -0.17659840564E+02  0.63898171246E+02  0.74463961251E+02  0.00000000000E+00 0.  1.
         11    1    4    4    0    0 -0.18562689914E+02  0.52379032412E+02  0.42411321667E+02  0.69906056239E+02  0.00000000000E+00 0. -1.
</event>
<event>
 8    1  0.3708258E-009  0.1436678E+03  0.7561462E-02  0.1208477E+00
         -1   -1    0    0    0  501 -0.00000000000E+00  0.00000000000E+00  0.15975769658E+03  0.15975769658E+03  0.00000000000E+00 0.  1.
          1   -1    0    0  501    0  0.00000000000E+00 -0.00000000000E+00 -0.17695662138E+03  0.17695662138E+03  0.00000000000E+00 0. -1.
         25    2    1    2    0    0 -0.98179477054E+02 -0.76394226655E+02 -0.40612745030E+02  0.18102856716E+03  0.12508660795E+03 0.  0.
         23    2    1    2    0    0  0.98179477054E+02  0.76394226655E+02  0.23413820235E+02  0.15568575080E+03  0.90634201286E+02 0.  0.
          5    1    3    3  502    0 -0.10434073812E+03 -0.65230365150E+02 -0.74963955544E+02  0.14414942664E+03  0.41800000000E+01 0. -1.
         -5    1    3    3    0  502  0.61612610707E+01 -0.11163861505E+02  0.34351210514E+02  0.36879140519E+02  0.41800000000E+01 0. -1.
        -11    1    4    4    0    0  0.11409217083E+03  0.66625125171E+02  0.96190955015E+01  0.13247059201E+03  0.00000000000E+00 0. -1.
         11    1    4    4    0    0 -0.15912693778E+02  0.97691014840E+01  0.13794724734E+02  0.23215158788E+02  0.00000000000E+00 0.  1.
</event>
<event>
 8    1  0.3708258E-009  0.1292202E+03  0.7561462E-02  0.1228617E+00
          1   -1    0    0  501    0  0.00000000000E+00  0.00000000000E+00  0.15085743904E+03  0.15085743904E+03  0.00000000000E+00 0. -1.
         -1   -1    0    0    0  501 -0.00000000000E+00 -0.00000000000E+00 -0.12151059102E+03  0.12151059102E+03  0.00000000000E+00 0.  1.
         25    2    1    2    0    0 -0.73082465570E+02 -0.27014881593E+02 -0.40825422743E+01  0.14742784916E+03  0.12508977958E+03 0.  0.
         23    2    1    2    0    0  0.73082465570E+02  0.27014881593E+02  0.33429390300E+02  0.12494018090E+03  0.91769679447E+02 0.  0.
          5    1    3    3  502    0 -0.92763004742E+02 -0.55790781406E+02  0.11648585598E+02  0.10895296364E+03  0.41800000000E+01 0.  1.
         -5    1    3    3    0  502  0.19680539172E+02  0.28775899813E+02 -0.15731127872E+02  0.38474885527E+02  0.41800000000E+01 0.  1.
        -11    1    4    4    0    0 -0.17644134067E+02 -0.57205294851E+01 -0.77028446681E+01  0.20084166414E+02  0.00000000000E+00 0. -1.
         11    1    4    4    0    0  0.90726599637E+02  0.32735411078E+02  0.41132234968E+02  0.10485601448E+03  0.00000000000E+00 0.  1.
</event>
<event>
 8    1  0.3708258E-009  0.1301118E+03  0.7561462E-02  0.1227290E+00
          1   -1    0    0  501    0  0.00000000000E+00  0.00000000000E+00  0.72063058384E+02  0.72063058384E+02  0.00000000000E+00 0. -1.
         -1   -1    0    0    0  501 -0.00000000000E+00 -0.00000000000E+00 -0.27033086782E+03  0.27033086782E+03  0.00000000000E+00 0.  1.
         25    2    1    2    0    0 -0.63985448517E+02 -0.56914657888E+02 -0.13551259835E+03  0.20332276515E+03  0.12507224556E+03 0.  0.
         23    2    1    2    0    0  0.63985448517E+02  0.56914657888E+02 -0.62755211087E+02  0.13907116106E+03  0.89828477756E+02 0.  0.
          5    1    3    3  502    0 -0.67887582624E+02 -0.84314894245E+02 -0.13774940408E+03  0.17524296275E+03  0.41800000000E+01 0. -1.
         -5    1    3    3    0  502  0.39021341068E+01  0.27400236357E+02  0.22368057328E+01  0.28079802401E+02  0.41800000000E+01 0. -1.
        -11    1    4    4    0    0  0.84570244632E+02  0.59142900196E+02 -0.55171522612E+02  0.11702096320E+03  0.00000000000E+00 0. -1.
         11    1    4    4    0    0 -0.20584796115E+02 -0.22282423072E+01 -0.75836884747E+01  0.22050197862E+02  0.00000000000E+00 0.  1.
</event>
<event>
 8    1  0.3708258E-009  0.1167753E+03  0.7561462E-02  0.1248514E+00
         -2   -1    0    0    0  501 -0.00000000000E+00  0.00000000000E+00  0.22040993937E+02  0.22040993937E+02  0.00000000000E+00 0.  1.
          2   -1    0    0  501    0  0.00000000000E+00 -0.00000000000E+00 -0.78938540507E+03  0.78938540507E+03  0.00000000000E+00 0. -1.
         25    2    1    2    0    0  0.59278230449E+01  0.74994941436E+02 -0.39833514888E+03  0.42423858030E+03  0.12509237328E+03 0.  0.
         23    2    1    2    0    0 -0.59278230449E+01 -0.74994941436E+02 -0.36900926226E+03  0.38718781871E+03  0.89928810740E+02 0.  0.
          5    1    3    3  502    0  0.23957045511E+02  0.92092423872E+02 -0.17290378415E+03  0.19740350943E+03  0.41800000000E+01 0.  1.
         -5    1    3    3    0  502 -0.18029222466E+02 -0.17097482436E+02 -0.22543136473E+03  0.22683507086E+03  0.41800000000E+01 0.  1.
        -11    1    4    4    0    0 -0.45062134539E+01 -0.93969474850E+02 -0.33761451743E+03  0.35047700430E+03  0.00000000000E+00 0. -1.
         11    1    4    4    0    0 -0.14216095910E+01  0.18974533414E+02 -0.31394744825E+02  0.36710814411E+02  0.00000000000E+00 0.  1.
</event>
<event>
 8    1  0.3708258E-009  0.1075901E+03  0.7561462E-02  0.1265099E+00
          1   -1    0    0  501    0  0.00000000000E+00  0.00000000000E+00  0.67639206684E+02  0.67639206684E+02  0.00000000000E+00 0. -1.
         -1   -1    0    0    0  501 -0.00000000000E+00 -0.00000000000E+00 -0.35417078207E+03  0.35417078207E+03  0.00000000000E+00 0.  1.
         25    2    1    2    0    0  0.16325808872E+02  0.69152399690E+02 -0.26985783911E+03  0.30580947230E+03  0.12509034176E+03 0.  0.
         23    2    1    2    0    0 -0.16325808872E+02 -0.69152399690E+02 -0.16673736279E+02  0.11600051646E+03  0.90163850398E+02 0.  0.
          5    1    3    3  502    0 -0.10979634444E+02  0.75727474677E+02 -0.69517074476E+02  0.10346641405E+03  0.41800000000E+01 0.  1.
         -5    1    3    3    0  502  0.27305443316E+02 -0.65750749870E+01 -0.20034076463E+03  0.20234305824E+03  0.41800000000E+01 0.  1.
        -11    1    4    4    0    0 -0.46485737114E+02 -0.16228303698E+02 -0.23769250049E+02  0.54674114934E+02  0.00000000000E+00 0.  1.
         11    1    4    4    0    0  0.30159928241E+02 -0.52924095993E+02  0.70955137698E+01  0.61326401523E+02  0.00000000000E+00 0. -1.
</event>
<event>
 8    1  0.3708258E-009  0.2266231E+03  0.7561462E-02  0.1129039E+00
          1   -1    0    0  501    0  0.00000000000E+00  0.00000000000E+00  0.13200177265E+04  0.13200177265E+04  0.00000000000E+00 0. -1.
         -1   -1    0    0    0  501 -0.00000000000E+00 -0.00000000000E+00 -0.50219141015E+02  0.50219141015E+02  0.00000000000E+00 0.  1.
         25    2    1    2    0    0  0.19656503683E+03 -0.99935679545E+02  0.85510187274E+03  0.89189211563E+03  0.12508948561E+03 0.  0.
         23    2    1    2    0    0 -0.19656503683E+03  0.99935679545E+02  0.41469671272E+03  0.47834475186E+03  0.90638757380E+02 0.  0.
          5    1    3    3  502    0  0.15806672109E+03 -0.49918872723E+02  0.75857081008E+03  0.77648189192E+03  0.41800000000E+01 0.  1.
         -5    1    3    3    0  502  0.38498315738E+02 -0.50016806822E+02  0.96531062661E+02  0.11541022371E+03  0.41800000000E+01 0.  1.
        -11    1    4    4    0    0 -0.76837681880E+02  0.17476484397E+02  0.74733391258E+02  0.10860265481E+03  0.00000000000E+00 0.  1.
         11    1    4    4    0    0 -0.11972735495E+03  0.82459195148E+02  0.33996332146E+03  0.36974209704E+03  0.00000000000E+00 0. -1.
</event>
<event>
 8    1  0.3708258E-009  0.1454196E+03  0.7561462E-02  0.1206217E+00
          4   -1    0    0  501    0  0.00000000000E+00  0.00000000000E+00  0.34043084525E+03  0.34043084525E+03  0.00000000000E+00 0. -1.
         -4   -1    0    0    0  501 -0.00000000000E+00 -0.00000000000E+00 -0.66567045109E+02  0.66567045109E+02  0.00000000000E+00 0.  1.
         25    2    1    2    0    0  0.87672137418E+02 -0.55261303125E+02  0.14140897394E+03  0.21537045098E+03  0.12509083876E+03 0.  0.
         23    2    1    2    0    0 -0.87672137418E+02  0.55261303125E+02  0.13245482621E+03  0.19162743938E+03  0.91850853214E+02 0.  0.
          5    1    3    3  502    0  0.57046939263E+02  0.31285021410E+02  0.86492669877E+02  0.10831232703E+03  0.41800000000E+01 0. -1.
         -5    1    3    3    0  502  0.30625198156E+02 -0.86546324534E+02  0.54916304062E+02  0.10705812395E+03  0.41800000000E+01 0. -1.
        -11    1    4    4    0    0 -0.73588975021E+02 -0.31511686270E+01  0.47767209555E+02  0.87789369613E+02  0.00000000000E+00 0.  1.
         11    1    4    4    0    0 -0.14083162397E+02  0.58412471752E+02  0.84687616651E+02  0.10383806977E+03  0.00000000000E+00 0. -1.
</event>
<event>
 8    1  0.3708258E-009  0.1453490E+03  0.7561462E-02  0.1206307E+00
          4   -1    0    0  501    0  0.00000000000E+00  0.00000000000E+00  0.36942523225E+03  0.36942523225E+03  0.00000000000E+00 0. -1.
         -4   -1    0    0    0  501 -0.00000000000E+00 -0.00000000000E+00 -0.74416797180E+02  0.74416797180E+02  0.00000000000E+00 0.  1.
         25    2    1    2    0    0 -0.87235117172E+02  0.79435522276E+02  0.10221428863E+03  0.20003708567E+03  0.12508839664E+03 0.  0.
         23    2    1    2    0    0  0.87235117172E+02 -0.79435522276E+02  0.19279414644E+03  0.24380494376E+03  0.91385446515E+02 0.  0.
          5    1    3    3  502    0 -0.45657626189E+02  0.88925561520E+02  0.11769696361E+03  0.15447466447E+03  0.41800000000E+01 0.  1.
         -5    1    3    3    0  502 -0.41577490983E+02 -0.94900392439E+01 -0.15482674973E+02  0.45562421200E+02  0.41800000000E+01 0.  1.
        -11    1    4    4    0    0  0.55395307918E+02  0.68572964420E+01  0.89643029330E+02  0.10560083031E+03  0.00000000000E+00 0.  1.
         11    1    4    4    0    0  0.31839809254E+02 -0.86292818718E+02  0.10315111711E+03  0.13820411346E+03  0.00000000000E+00 0. -1.
</event>
<event>
 8    1  0.3708258E-009  0.2187558E+03  0.7561462E-02  0.1134814E+00
          2   -1    0    0  501    0  0.00000000000E+00  0.00000000000E+00  0.84678216169E+02  0.84678216169E+02  0.00000000000E+00 0. -1.
         -2   -1    0    0    0  501 -0.00000000000E+00 -0.00000000000E+00 -0.59998047509E+03  0.59998047509E+03  0.00000000000E+00 0.  1.
         25    2    1    2    0    0 -0.43636595717E+02 -0.19234263221E+03 -0.28295579922E+03  0.36689465734E+03  0.12509142505E+03 0.  0.
         23    2    1    2    0    0  0.43636595717E+02  0.19234263221E+03 -0.23234645970E+03  0.31776403392E+03  0.89940331687E+02 0.  0.
          5    1    3    3  502    0 -0.41505901122E+02 -0.20763884843E+03 -0.23506095731E+03  0.31639809933E+03  0.41800000000E+01 0.  1.
         -5    1    3    3    0  502 -0.21306945942E+01  0.15296216214E+02 -0.47894841908E+02  0.50496558015E+02  0.41800000000E+01 0.  1.
        -11    1    4    4    0    0 -0.82008873301E+01  0.12235703388E+03 -0.17423526506E+03  0.21306437028E+03  0.00000000000E+00 0.  1.
         11    1    4    4    0    0  0.51837483047E+02  0.69985598337E+02 -0.58111194634E+02  0.10469966363E+03  0.00000000000E+00 0. -1.
</event>
<event>
 8    1  0.3708258E-009  0.1369320E+03  0.7561462E-02  0.1217518E+00
         -1   -1    0    0    0  501 -0.00000000000E+00  0.00000000000E+00  0.71607368305E+02  0.71607368305E+02  0.00000000000E+00 0.  1.
          1   -1    0    0  501    0  0.00000000000E+00 -0.00000000000E+00 -0.34476610237E+03  0.34476610237E+03  0.00000000000E+00 0. -1.
         25    2    1    2    0    0  0.99504517292E+02 -0.40923031209E+02 -0.97556375770E+02  0.19167468839E+03  0.12508435662E+03 0.  0.
         23    2    1    2    0    0 -0.99504517292E+02  0.40923031209E+02 -0.17560235829E+03  0.22469878228E+03  0.89874974690E+02 0.  0.
          5    1    3    3  502    0  0.14449789152E+02  0.36100317545E+02 -0.58543446729E+02  0.70404807282E+02  0.41800000000E+01 0.  1.
         -5    1    3    3    0  502  0.85054728140E+02 -0.77023348755E+02 -0.39012929041E+02  0.12126988111E+03  0.41800000000E+01 0.  1.
        -11    1    4    4    0    0 -0.20729045027E+02  0.35324756920E+02 -0.11435814762E+02  0.42524223902E+02  0.00000000000E+00 0.  1.
         11    1    4    4    0    0 -0.78775472266E+02  0.55982742889E+01 -0.16416654353E+03  0.18217455838E+03  0.00000000000E+00 0. -1.
</event>
<event>
 8    1  0.3708258E-009  0.9882549E+02  0.7561462E-02  0.1282785E+00
          1   -1    0    0  501    0  0.00000000000E+00  0.00000000000E+00  0.16082942436E+03  0.16082942436E+03  0.00000000000E+00 0. -1.
         -1   -1    0    0    0  501 -0.00000000000E+00 -0.00000000000E+00 -0.12206606323E+03  0.12206606323E+03  0.00000000000E+00 0.  1.
         25    2    1    2    0    0 -0.81287941540E+02  0.32023629229E+02  0.22737535229E+02  0.15426500087E+03  0.12508977863E+03 0.  0.
         23    2    1    2    0    0  0.81287941540E+02 -0.32023629229E+02  0.16025825896E+02  0.12863048671E+03  0.93036190523E+02 0.  0.
          5    1    3    3  502    0 -0.28936012137E+01  0.24183974692E+01  0.61559446702E+02  0.61816336454E+02  0.41800000000E+01 0.  1.
         -5    1    3    3    0  502 -0.78394340326E+02  0.29605231760E+02 -0.38821911473E+02  0.92448664421E+02  0.41800000000E+01 0.  1.
        -11    1    4    4    0    0  0.17773123585E+02 -0.40320986854E+02 -0.26803801494E+02  0.51576251099E+02  0.00000000000E+00 0.  1.
         11    1    4    4    0    0  0.63514817955E+02  0.82973576246E+01  0.42829627391E+02  0.77054235613E+02  0.00000000000E+00 0. -1.
</event>
<event>
 8    1  0.3708258E-009  0.1653206E+03  0.7561462E-02  0.1182817E+00
         -1   -1    0    0    0  501 -0.00000000000E+00  0.00000000000E+00  0.84825486524E+02  0.84825486524E+02  0.00000000000E+00 0.  1.
          1   -1    0    0  501    0  0.00000000000E+00 -0.00000000000E+00 -0.52953241261E+03  0.52953241261E+03  0.00000000000E+00 0. -1.
         25    2    1    2    0    0 -0.64462563077E+02 -0.12886153858E+03 -0.70052110239E+02  0.20326169771E+03  0.12508917396E+03 0.  0.
         23    2    1    2    0    0  0.64462563077E+02  0.12886153858E+03 -0.37465481585E+03  0.41109620143E+03  0.88730702836E+02 0.  0.
          5    1    3    3  502    0  0.52012406936E+01 -0.11499565389E+03 -0.21649433815E+02  0.11720590302E+03  0.41800000000E+01 0. -1.
         -5    1    3    3    0  502 -0.69663803771E+02 -0.13865884690E+02 -0.48402676423E+02  0.86055794686E+02  0.41800000000E+01 0. -1.
        -11    1    4    4    0    0  0.20979923237E+02  0.50438519423E+02 -0.49212323657E+02  0.73525874495E+02  0.00000000000E+00 0.  1.
         11    1    4    4    0    0  0.43482639841E+02  0.78423019158E+02 -0.32544249219E+03  0.33757032693E+03  0.00000000000E+00 0. -1.
</event>
<event>
 8    1  0.3708258E-009  0.1076693E+03  0.7561462E-02  0.1264948E+00
         -2   -1    0    0    0  501 -0.00000000000E+00  0.00000000000E+00  0.13637896262E+02  0.13637896262E+02  0.00000000000E+00 0. -1.
          2   -1    0    0  501    0  0.00000000000E+00 -0.00000000000E+00 -0.96340420179E+03  0.96340420179E+03  0.00000000000E+00 0.  1.
         25    2    1    2    0    0  0.29640056724E+02  0.24753030894E+02 -0.55265721749E+03  0.56795150456E+03  0.12509063107E+03 0.  0.
         23    2    1    2    0    0 -0.29640056724E+02 -0.24753030894E+02 -0.39710908803E+03  0.40909059349E+03  0.90378318113E+02 0.  0.
          5    1    3    3  502    0  0.72003617496E+02  0.17196149285E+02 -0.21263925615E+03  0.22519581288E+03  0.41800000000E+01 0. -1.
         -5    1    3    3    0  502 -0.42363560772E+02  0.75568816085E+01 -0.34001796134E+03  0.34275569168E+03  0.41800000000E+01 0. -1.
        -11    1    4    4    0    0  0.25638323744E+02 -0.33295532631E+02 -0.15408086268E+03  0.15970857329E+03  0.00000000000E+00 0.  1.
         11    1    4    4    0    0 -0.55278380468E+02  0.85425017368E+01 -0.24302822535E+03  0.24938202020E+03  0.00000000000E+00 0. -1.
</event>
<event>
 8    1  0.3708258E-009  0.9137161E+02  0.7561462E-02  0.1299564E+00
          1   -1    0    0  501    0  0.00000000000E+00  0.00000000000E+00  0.10865613879E+03  0.10865613879E+03  0.00000000000E+00 0. -1.
         -1   -1    0    0    0  501 -0.00000000000E+00 -0.00000000000E+00 -0.15357881207E+03  0.15357881207E+03  0.00000000000E+00 0.  1.
         25    2    1    2    0    0  0.60685778205E+02  0.33476274285E+02 -0.15539988386E+02  0.14384853722E+03  0.12508991088E+03 0.  0.
         23    2    1    2    0    0 -0.60685778205E+02 -0.33476274285E+02 -0.29382684900E+02  0.11838641364E+03  0.91370543097E+02 0.  0.
          5    1    3    3  502    0  0.79207422262E+01 -0.53296224960E+01  0.50012768675E+02  0.51087106630E+02  0.41800000000E+01 0. -1.
         -5    1    3    3    0  502  0.52765035979E+02  0.38805896781E+02 -0.65552757060E+02  0.92761430590E+02  0.41800000000E+01 0. -1.
        -11    1    4    4    0    0 -0.15374043476E+01 -0.46169124809E+02  0.85544112614E+01  0.46980098444E+02  0.00000000000E+00 0. -1.
         11    1    4    4    0    0 -0.59148373857E+02  0.12692850524E+02 -0.37937096161E+02  0.71406315194E+02  0.00000000000E+00 0.  1.
</event>
<event>
 8    1  0.3708258E-009  0.1452338E+03  0.7561462E-02  0.1206455E+00
          1   -1    0    0  501    0  0.00000000000E+00  0.00000000000E+00  0.74021410791E+02  0.74021410791E+02  0.00000000000E+00 0. -1.
         -1   -1    0    0    0  501 -0.00000000000E+00 -0.00000000000E+00 -0.36726049795E+03  0.36726049795E+03  0.00000000000E+00 0.  1.
         25    2    1    2    0    0  0.11686811060E+03  0.38369233164E+02 -0.17582313446E+03  0.24837918147E+03  0.12509232529E+03 0.  0.
         23    2    1    2    0    0 -0.11686811060E+03 -0.38369233164E+02 -0.11741595270E+03  0.19290272727E+03  0.91074710609E+02 0.  0.
          5    1    3    3  502    0  0.20621614982E+02  0.36896309636E+02 -0.13881479820E+03  0.14516752139E+03  0.41800000000E+01 0. -1.
         -5    1    3    3    0  502  0.96246495618E+02  0.14729235281E+01 -0.37008336264E+02  0.10321166007E+03  0.41800000000E+01 0. -1.
        -11    1    4    4    0    0 -0.10720952946E+03  0.48895511762E+01 -0.94542922010E+02  0.14302501537E+03  0.00000000000E+00 0.  1.
         11    1    4    4    0    0 -0.96585811362E+01 -0.43258784340E+02 -0.22873030688E+02  0.49877711906E+02  0.00000000000E+00 0. -1.
</event>
<event>
 8    1  0.3708258E-009  0.1749807E+03  0.7561462E-02  0.1172751E+00
          2   -1    0    0  501    0  0.00000000000E+00  0.00000000000E+00  0.13893273524E+04  0.13893273524E+04  0.00000000000E+00 0. -1.
         -2   -1    0    0    0  501 -0.00000000000E+00 -0.00000000000E+00 -0.27240282312E+02  0.27240282312E+02  0.00000000000E+00 0.  1.
         25    2    1    2    0    0 -0.15677757548E+03  0.29637186873E+02  0.73347663180E+03  0.76098167948E+03  0.12509027176E+03 0.  0.
         23    2    1    2    0    0  0.15677757548E+03 -0.29637186873E+02  0.62861043824E+03  0.65558595518E+03  0.95834704311E+02 0.  0.
          5    1    3    3  502    0 -0.80553639121E+01 -0.83712147964E+01  0.31464481479E+03  0.31488696067E+03  0.41800000000E+01 0.  1.
         -5    1    3    3    0  502 -0.14872221157E+03  0.38008401670E+02  0.41883181701E+03  0.44609471882E+03  0.41800000000E+01 0.  1.
        -11    1    4    4    0    0  0.10628918526E+03 -0.62983667218E+02  0.46542490442E+03  0.48154405291E+03  0.00000000000E+00 0.  1.
         11    1    4    4    0    0  0.50488390225E+02  0.33346480345E+02  0.16318553381E+03  0.17404190227E+03  0.00000000000E+00 0. -1.
</event>
<event>
 8    1  0.3708258E-009  0.6705513E+02  0.7561462E-02  0.1370404E+00
         -2   -1    0    0    0  501 -0.00000000000E+00  0.00000000000E+00  0.31355706593E+02  0.31355706593E+02  0.00000000000E+00 0.  1.
          2   -1    0    0  501    0  0.00000000000E+00 -0.00000000000E+00 -0.52445853915E+03  0.52445853915E+03  0.00000000000E+00 0. -1.
         25    2    1    2    0    0  0.71609478998E+01 -0.63121914662E+02 -0.34066643725E+03  0.36842480955E+03  0.12509022160E+03 0.  0.
         23    2    1    2    0    0 -0.71609478998E+01  0.63121914662E+02 -0.15243639531E+03  0.18738943619E+03  0.88556710059E+02 0.  0.
          5    1    3    3  502    0  0.51013932763E+01 -0.13667717501E+02 -0.30931096116E+03  0.30968302150E+03  0.41800000000E+01 0.  1.
         -5    1    3    3    0  502  0.20595546235E+01 -0.49454197161E+02 -0.31355476090E+02  0.58741788046E+02  0.41800000000E+01 0.  1.
        -11    1    4    4    0    0  0.10453393219E+02  0.29629036505E+02 -0.11479230556E+01  0.31439958037E+02  0.00000000000E+00 0.  1.
         11    1    4    4    0    0 -0.17614341119E+02  0.33492878157E+02 -0.15128847225E+03  0.15594947816E+03  0.00000000000E+00 0. -1.
</event>
<event>
 8    1  0.3708258E-009  0.1333541E+03  0.7561462E-02  0.1222562E+00
          1   -1    0    0  501    0  0.00000000000E+00  0.00000000000E+00  0.19281890874E+03  0.19281890874E+03  0.00000000000E+00 0. -1.
         -1   -1    0    0    0  501 -0.00000000000E+00 -0.00000000000E+00 -0.15686880927E+03  0.15686880927E+03  0.00000000000E+00 0.  1.
         25    2    1    2    0    0 -0.12133055102E+03 -0.24324189262E+01  0.79020748368E+02  0.19136166374E+03  0.12509191982E+03 0.  0.
         23    2    1    2    0    0  0.12133055102E+03  0.24324189262E+01 -0.43070648889E+02  0.15832605427E+03  0.92114273555E+02 0.  0.
          5    1    3    3  502    0 -0.52113407354E+02 -0.36563794689E+02 -0.18970649747E+02  0.66558818048E+02  0.41800000000E+01 0. -1.
         -5    1    3    3    0  502 -0.69217143665E+02  0.34131375762E+02  0.97991398115E+02  0.12480284569E+03  0.41800000000E+01 0. -1.
        -11    1    4    4    0    0  0.43273298688E+02  0.16490849744E+02  0.26038871908E+02  0.53127670332E+02  0.00000000000E+00 0. -1.
         11    1    4    4    0    0  0.78057252331E+02 -0.14058430818E+02 -0.69109520797E+02  0.10519838394E+03  0.00000000000E+00 0.  1.
</event>
<event>
 8    1  0.3708258E-009  0.1104549E+03  0.7561462E-02  0.1259730E+00
         -1   -1    0    0    0  501 -0.00000000000E+00  0.00000000000E+00  0.21069100742E+02  0.21069100742E+02  0.00000000000E+00 0.  1.
          1   -1    0    0  501    0  0.00000000000E+00 -0.00000000000E+00 -0.11216185361E+04  0.11216185361E+04  0.00000000000E+00 0. -1.
         25    2    1    2    0    0  0.32158306527E+02  0.34227895951E+02 -0.95683685013E+03  0.96612133364E+03  0.12509183827E+03 0.  0.
         23    2    1    2    0    0 -0.32158306527E+02 -0.34227895951E+02 -0.14371258524E+03  0.17656630321E+03  0.91195650854E+02 0.  0.
          5    1    3    3  502    0 -0.23121063466E+02  0.60986616456E+02 -0.64236756697E+03  0.64568375731E+03  0.41800000000E+01 0. -1.
         -5    1    3    3    0  502  0.55279369993E+02 -0.26758720504E+02 -0.31446928317E+03  0.32043757633E+03  0.41800000000E+01 0. -1.
        -11    1    4    4    0    0 -0.57464060739E+02 -0.88212585371E+01 -0.51650586679E+02  0.77767062328E+02  0.00000000000E+00 0.  1.
         11    1    4    4    0    0  0.25305754212E+02 -0.25406637414E+02 -0.92061998558E+02  0.98799240885E+02  0.00000000000E+00 0. -1.
</event>
<event>
 8    1  0.3708258E-009  0.1334636E+03  0.7561462E-02  0.1222405E+00
          2   -1    0    0  501    0  0.00000000000E+00  0.00000000000E+00  0.66171456257E+03  0.66171456257E+03  0.00000000000E+00 0. -1.
         -2   -1    0    0    0  501 -0.00000000000E+00 -0.00000000000E+00 -0.40287620896E+02  0.40287620896E+02  0.00000000000E+00 0.  1.
         25    2    1    2    0    0  0.29625157215E+02  0.74392809575E+02  0.13518130096E+03  0.20083992222E+03  0.12510295829E+03 0.  0.
         23    2    1    2    0    0 -0.29625157215E+02 -0.74392809575E+02  0.48624564072E+03  0.50116226124E+03  0.91196759385E+02 0.  0.
          5    1    3    3  502    0  0.77841681688E+02  0.44273436567E+02  0.66712238552E+02  0.11174730317E+03  0.41800000000E+01 0. -1.
         -5    1    3    3    0  502 -0.48216524473E+02  0.30119373008E+02  0.68469062408E+02  0.89092619053E+02  0.41800000000E+01 0. -1.
        -11    1    4    4    0    0 -0.42888244285E+02  0.18091912562E+01  0.14267918744E+03  0.14899672882E+03  0.00000000000E+00 0.  1.
         11    1    4    4    0    0  0.13263087070E+02 -0.76202000832E+02  0.34356645328E+03  0.35216553242E+03  0.00000000000E+00 0. -1.
</event>
<event>
 8    1  0.3708258E-009  0.1327710E+03  0.7561462E-02  0.1223401E+00
         -2   -1    0    0    0  501 -0.00000000000E+00  0.00000000000E+00  0.38049017228E+02  0.38049017228E+02  0.00000000000E+00 0.  1.
          2   -1    0    0  501    0  0.00000000000E+00 -0.00000000000E+00 -0.73359756663E+03  0.73359756663E+03  0.00000000000E+00 0. -1.
         25    2    1    2    0    0 -0.10594332498E+03 -0.43465064666E+02 -0.24500392645E+03  0.29797240810E+03  0.12508969605E+03 0.  0.
         23    2    1    2    0    0  0.10594332498E+03  0.43465064666E+02 -0.45054462295E+03  0.47367417576E+03  0.90904166892E+02 0.  0.
          5    1    3    3  502    0 -0.76828985768E+02 -0.62759308031E+02 -0.75178075172E+02  0.12454171665E+03  0.41800000000E+01 0. -1.
         -5    1    3    3    0  502 -0.29114339210E+02  0.19294243366E+02 -0.16982585128E+03  0.17343069145E+03  0.41800000000E+01 0. -1.
        -11    1    4    4    0    0  0.64362477473E+02 -0.80579534712E+01 -0.32834699684E+03  0.33469270899E+03  0.00000000000E+00 0. -1.
         11    1    4    4    0    0  0.41580847505E+02  0.51523018137E+02 -0.12219762612E+03  0.13898146677E+03  0.00000000000E+00 0.  1.
</event>
<event>
 8    1  0.3708258E-009  0.9520444E+02  0.7561462E-02  0.1290716E+00
         -2   -1    0    0    0  501 -0.00000000000E+00  0.00000000000E+00  0.29809350922E+03  0.29809350922E+03  0.00000000000E+00 0.  1.
          2   -1    0    0  501    0  0.00000000000E+00 -0.00000000000E+00 -0.91080438093E+02  0.91080438093E+02  0.00000000000E+00 0. -1.
         25    2    1    2    0    0 -0.61860983835E+02  0.25180700029E+02  0.23334369715E+03  0.27305235041E+03  0.12508979210E+03 0.  0.
         23    2    1    2    0    0  0.61860983835E+02 -0.25180700029E+02 -0.26330626019E+02  0.11612159691E+03  0.91269241410E+02 0.  0.
          5    1    3    3  502    0 -0.60857294399E+01  0.57336776237E+02  0.18089064462E+03  0.18990376437E+03  0.41800000000E+01 0. -1.
         -5    1    3    3    0  502 -0.55775254395E+02 -0.32156076208E+02  0.52453052533E+02  0.83148586037E+02  0.41800000000E+01 0. -1.
        -11    1    4    4    0    0  0.11041809746E+02 -0.10372547446E+02  0.33180758356E+02  0.36475663504E+02  0.00000000000E+00 0.  1.
         11    1    4    4    0    0  0.50819174089E+02 -0.14808152582E+02 -0.59511384375E+02  0.79645933406E+02  0.00000000000E+00 0. -1.
</event>
<event>
 8    1  0.3708258E-009  0.1007449E+03  0.7561462E-02  0.1278737E+00
         -1   -1    0    0    0  501 -0.00000000000E+00  0.00000000000E+00  0.24656282952E+02  0.24656282952E+02  0.00000000000E+00 0.  1.
          1   -1    0    0  501    0  0.00000000000E+00 -0.00000000000E+00 -0.63470403336E+03  0.63470403336E+03  0.00000000000E+00 0. -1.
         25    2    1    2    0    0  0.85911175438E+01  0.58870055999E+02 -0.37636318149E+03  0.40104366672E+03  0.12508911798E+03 0.  0.
         23    2    1    2    0    0 -0.85911175438E+01 -0.58870055999E+02 -0.23368456892E+03  0.25831664960E+03  0.92625714111E+02 0.  0.
          5    1    3    3  502    0 -0.34395008375E+02  0.99116331320E+01 -0.29275952809E+03  0.29496927088E+03  0.41800000000E+01 0. -1.
         -5    1    3    3    0  502  0.42986125918E+02  0.48958422867E+02 -0.83603653396E+02  0.10607439584E+03  0.41800000000E+01 0. -1.
        -11    1    4    4    0    0  0.35798580750E+02 -0.19142995612E+02 -0.45737461639E+02  0.61154787727E+02  0.00000000000E+00 0.  1.
         11    1    4    4    0    0 -0.44389698293E+02 -0.39727060386E+02 -0.18794710728E+03  0.19716186187E+03  0.00000000000E+00 0. -1.
</event>
<event>
 8    1  0.3708258E-009  0.1412411E+03  0.7561462E-02  0.1211669E+00
          1   -1    0    0  501    0  0.00000000000E+00  0.00000000000E+00  0.22863999635E+03  0.22863999635E+03  0.00000000000E+00 0. -1.
         -1   -1    0    0    0  501 -0.00000000000E+00 -0.00000000000E+00 -0.15874620779E+03  0.15874620779E+03  0.00000000000E+00 0.  1.
         25    2    1    2    0    0 -0.91089587450E+02  0.75785481446E+02 -0.67340142804E+02  0.18499547173E+03  0.12509147688E+03 0.  0.
         23    2    1    2    0    0  0.91089587450E+02 -0.75785481446E+02  0.13723393136E+03  0.20239073240E+03  0.89933889641E+02 0.  0.
          5    1    3    3  502    0 -0.85622140403E+02  0.92865434351E+02 -0.12327370317E+02  0.12698258260E+03  0.41800000000E+01 0. -1.
         -5    1    3    3    0  502 -0.54674470468E+01 -0.17079952905E+02 -0.55012772488E+02  0.58012889130E+02  0.41800000000E+01 0. -1.
        -11    1    4    4    0    0  0.71522862480E+02 -0.14006555459E+02  0.11032060785E+03  0.13222080006E+03  0.00000000000E+00 0.  1.
         11    1    4    4    0    0  0.19566724970E+02 -0.61778925987E+02  0.26913323514E+02  0.70169932341E+02  0.00000000000E+00 0. -1.
</event>
<event>
 8    1  0.3708258E-009  0.1098260E+03  0.7561462E-02  0.1260892E+00
          2   -1    0    0  501    0  0.00000000000E+00  0.00000000000E+00  0.47796598081E+03  0.47796598081E+03  0.00000000000E+00 0. -1.
         -2   -1    0    0    0  501 -0.00000000000E+00 -0.00000000000E+00 -0.27848946734E+02  0.27848946734E+02  0.00000000000E+00 0.  1.
         25    2    1    2    0    0 -0.19663331770E+02 -0.33772228127E+02  0.23358484646E+03  0.26783552736E+03  0.12508708651E+03 0.  0.
         23    2    1    2    0    0  0.19663331770E+02  0.33772228127E+02  0.21653218762E+03  0.23797940019E+03  0.90668608845E+02 0.  0.
          5    1    3    3  502    0 -0.22699549583E+02 -0.75542126264E+02  0.19634237236E+03  0.21163572944E+03  0.41800000000E+01 0.  1.
         -5    1    3    3    0  502  0.30362178124E+01  0.41769898137E+02  0.37242474100E+02  0.56199797918E+02  0.41800000000E+01 0.  1.
        -11    1    4    4    0    0 -0.28545299515E+02  0.40864017500E+02  0.10276839538E+03  0.11421928533E+03  0.00000000000E+00 0. -1.
         11    1    4    4    0    0  0.48208631285E+02 -0.70917893732E+01  0.11376379224E+03  0.12376011486E+03  0.00000000000E+00 0.  1.
</event>
<event>
 8    1  0.3708258E-009  0.1050500E+03  0.7561462E-02  0.1270021E+00
         -2   -1    0    0    0  501 -0.00000000000E+00  0.00000000000E+00  0.23971692169E+02  0.23971692169E+02  0.00000000000E+00 0.  1.
          2   -1    0    0  501    0  0.00000000000E+00 -0.00000000000E+00 -0.85818390371E+03  0.85818390371E+03  0.00000000000E+00 0. -1.
         25    2    1    2    0    0  0.37893023601E+02 -0.31092753546E+02 -0.66723681677E+03  0.68062923421E+03  0.12509414154E+03 0.  0.
         23    2    1    2    0    0 -0.37893023601E+02  0.31092753546E+02 -0.16697539476E+03  0.20152636166E+03  0.10163390885E+03 0.  0.
          5    1    3    3  502    0  0.38499029348E+02  0.23233166772E+02 -0.54414713272E+03  0.54601788409E+03  0.41800000000E+01 0.  1.
         -5    1    3    3    0  502 -0.60600574695E+00 -0.54325920318E+02 -0.12308968405E+03  0.13461135012E+03  0.41800000000E+01 0.  1.
        -11    1    4    4    0    0  0.32114154953E+01 -0.33627287728E+02 -0.33358129007E+02  0.47474966459E+02  0.00000000000E+00 0.  1.
         11    1    4    4    0    0 -0.41104439096E+02  0.64720041274E+02 -0.13361726576E+03  0.15405139520E+03  0.00000000000E+00 0. -1.
</event>
<event>
 8    1  0.3708258E-009  0.1701846E+03  0.7561462E-02  0.1177655E+00
          1   -1    0    0  501    0  0.00000000000E+00  0.00000000000E+00  0.57206469977E+03  0.57206469977E+03  0.00000000000E+00 0. -1.
         -1   -1    0    0    0  501 -0.00000000000E+00 -0.00000000000E+00 -0.88016017846E+02  0.88016017846E+02  0.00000000000E+00 0.  1.
         25    2    1    2    0    0  0.13662138020E+03 -0.84672987129E+02  0.41509890392E+03  0.46237372739E+03  0.12508975765E+03 0.  0.
         23    2    1    2    0    0 -0.13662138020E+03  0.84672987129E+02  0.68949778005E+02  0.19770699022E+03  0.92190378124E+02 0.  0.
          5    1    3    3  502    0  0.31553966316E+01 -0.36736408099E+01  0.18008221101E+03  0.18019580263E+03  0.41800000000E+01 0. -1.
         -5    1    3    3    0  502  0.13346598357E+03 -0.80999346319E+02  0.23501669291E+03  0.28217792475E+03  0.41800000000E+01 0. -1.
        -11    1    4    4    0    0 -0.50277733174E+02  0.75850550100E+02  0.63059172852E+02  0.11071411692E+03  0.00000000000E+00 0. -1.
         11    1    4    4    0    0 -0.86343647029E+02  0.88224370284E+01  0.58906051529E+01  0.86992873309E+02  0.00000000000E+00 0.  1.
</event>
<event>
 8    1  0.3708258E-009  0.9214204E+02  0.7561462E-02  0.1297746E+00
          1   -1    0    0  501    0  0.00000000000E+00  0.00000000000E+00  0.16998978202E+03  0.16998978202E+03  0.00000000000E+00 0. -1.
         -1   -1    0    0    0  501 -0.00000000000E+00 -0.00000000000E+00 -0.87357240355E+02  0.87357240355E+02  0.00000000000E+00 0.  1.
         25    2    1    2    0    0  0.87417434122E+01  0.19490762657E+02  0.98094570436E+02  0.16039415118E+03  0.12508969213E+03 0.  0.
         23    2    1    2    0    0 -0.87417434122E+01 -0.19490762657E+02 -0.15462028766E+02  0.96952871202E+02  0.93297786650E+02 0.  0.
          5    1    3    3  502    0  0.48443096705E+02  0.32133262267E+02  0.52189235686E+01  0.58514867560E+02  0.41800000000E+01 0.  1.
         -5    1    3    3    0  502 -0.39701353293E+02 -0.12642499610E+02  0.92875646867E+02  0.10187928362E+03  0.41800000000E+01 0.  1.
        -11    1    4    4    0    0  0.48571823145E+01  0.31235092174E+02 -0.28806134218E+02  0.42767003306E+02  0.00000000000E+00 0.  1.
         11    1    4    4    0    0 -0.13598925727E+02 -0.50725854832E+02  0.13344105452E+02  0.54185867896E+02  0.00000000000E+00 0. -1.
</event>
<event>
 8    1  0.3708258E-009  0.1565956E+03  0.7561462E-02  0.1192595E+00
         -1   -1    0    0    0  501 -0.00000000000E+00  0.00000000000E+00  0.18307932377E+02  0.18307932377E+02  0.00000000000E+00 0.  1.
          1   -1    0    0  501    0  0.00000000000E+00 -0.00000000000E+00 -0.14004129752E+04  0.14004129752E+04  0.00000000000E+00 0. -1.
         25    2    1    2    0    0  0.24635377705E+02 -0.11080787304E+03 -0.59956072168E+03  0.62290095358E+03  0.12508897806E+03 0.  0.
         23    2    1    2    0    0 -0.24635377705E+02  0.11080787304E+03 -0.78254432116E+03  0.79581995401E+03  0.89824818721E+02 0.  0.
          5    1    3    3  502    0  0.74922105059E+02 -0.52257769827E+02 -0.33917688974E+03  0.35128710661E+03  0.41800000000E+01 0. -1.
         -5    1    3    3    0  502 -0.50286727354E+02 -0.58550103216E+02 -0.26038383194E+03  0.27161384698E+03  0.41800000000E+01 0. -1.
        -11    1    4    4    0    0 -0.57732212336E+02  0.83670715113E+02 -0.57338809928E+03  0.58232955387E+03  0.00000000000E+00 0.  1.
         11    1    4    4    0    0  0.33096834631E+02  0.27137157930E+02 -0.20915622188E+03  0.21349040014E+03  0.00000000000E+00 0. -1.
</event>
<event>
 8    1  0.3708258E-009  0.1332623E+03  0.7561462E-02  0.1222694E+00
          1   -1    0    0  501    0  0.00000000000E+00  0.00000000000E+00  0.41840252983E+03  0.41840252983E+03  0.00000000000E+00 0. -1.
         -1   -1    0    0    0  501 -0.00000000000E+00 -0.00000000000E+00 -0.56372141684E+02  0.56372141684E+02  0.00000000000E+00 0.  1.
         25    2    1    2    0    0  0.87757761734E+01  0.99310020303E+02  0.13443485211E+03  0.20895104766E+03  0.12509323115E+03 0.  0.
         23    2    1    2    0    0 -0.87757761734E+01 -0.99310020303E+02  0.22759553604E+03  0.26582362385E+03  0.94461508515E+02 0.  0.
          5    1    3    3  502    0  0.15283488150E+02 -0.26941824477E+02  0.13825308507E+02  0.34176870417E+02  0.41800000000E+01 0. -1.
         -5    1    3    3    0  502 -0.65077119767E+01  0.12625184478E+03  0.12060954360E+03  0.17477417725E+03  0.41800000000E+01 0. -1.
        -11    1    4    4    0    0 -0.26566520050E+02 -0.61580740623E+02  0.50693740874E+02  0.84070345349E+02  0.00000000000E+00 0.  1.
         11    1    4    4    0    0  0.17790743877E+02 -0.37729279680E+02  0.17690179516E+03  0.18175327850E+03  0.00000000000E+00 0. -1.
</event>
<event>
 8    1  0.3708258E-009  0.1947315E+03  0.7561462E-02  0.1154262E+00
          2   -1    0    0  501    0  0.00000000000E+00  0.00000000000E+00  0.88323056430E+03  0.88323056430E+03  0.00000000000E+00 0.  1.
         -2   -1    0    0    0  501 -0.00000000000E+00 -0.00000000000E+00 -0.56008681170E+02  0.56008681170E+02  0.00000000000E+00 0. -1.
         25    2    1    2    0    0  0.17860556732E+03  0.39477369798E+02  0.29356533409E+03  0.36781716907E+03  0.12510177088E+03 0.  0.
         23    2    1    2    0    0 -0.17860556732E+03 -0.39477369798E+02  0.53365654905E+03  0.57142207641E+03  0.90969586452E+02 0.  0.
          5    1    3    3  502    0  0.97096505903E+02  0.64807704931E+01  0.51369770837E+02  0.11011837994E+03  0.41800000000E+01 0.  1.
         -5    1    3    3    0  502  0.81509061422E+02  0.32996599305E+02  0.24219556325E+03  0.25769878913E+03  0.41800000000E+01 0.  1.
        -11    1    4    4    0    0 -0.13248437707E+03  0.14215428282E+02  0.36207969510E+03  0.38581847309E+03  0.00000000000E+00 0.  1.
         11    1    4    4    0    0 -0.46121190251E+02 -0.53692798080E+02  0.17157685394E+03  0.18560360332E+03  0.00000000000E+00 0. -1.
</event>
<event>
 8    1  0.3708258E-009  0.1126381E+03  0.7561462E-02  0.1255761E+00
         -2   -1    0    0    0  501 -0.00000000000E+00  0.00000000000E+00  0.72175927565E+02  0.72175927565E+02  0.00000000000E+00 0.  1.
          2   -1    0    0  501    0  0.00000000000E+00 -0.00000000000E+00 -0.19370190149E+03  0.19370190149E+03  0.00000000000E+00 0. -1.
         25    2    1    2    0    0  0.46193136125E+02 -0.15014278342E+02 -0.10479321486E+03  0.17026633260E+03  0.12509904778E+03 0.  0.
         23    2    1    2    0    0 -0.46193136125E+02  0.15014278342E+02 -0.16732759059E+02  0.95611496451E+02  0.80637079862E+02 0.  0.
          5    1    3    3  502    0 -0.43199041047E+02 -0.44488134173E+01 -0.27716793760E+02  0.51687930356E+02  0.41800000000E+01 0.  1.
         -5    1    3    3    0  502  0.89392177172E+02 -0.10565464924E+02 -0.77076421101E+02  0.11857840224E+03  0.41800000000E+01 0.  1.
        -11    1    4    4    0    0  0.19233466899E+02 -0.97703821661E+01  0.53853691672E+01  0.22234855918E+02  0.00000000000E+00 0.  1.
         11    1    4    4    0    0 -0.65426603024E+02  0.24784660508E+02 -0.22118128226E+02  0.73376640533E+02  0.00000000000E+00 0. -1.
</event>
<event>
 8    1  0.3708258E-009  0.1025317E+03  0.7561462E-02  0.1275060E+00
          1   -1    0    0  501    0  0.00000000000E+00  0.00000000000E+00  0.69777709324E+03  0.69777709324E+03  0.00000000000E+00 0. -1.
         -1   -1    0    0    0  501 -0.00000000000E+00 -0.00000000000E+00 -0.16971711808E+02  0.16971711808E+02  0.00000000000E+00 0.  1.
         25    2    1    2    0    0 -0.57159621424E+01 -0.18983766090E+00  0.43482781922E+03  0.45249989102E+03  0.12509280850E+03 0.  0.
         23    2    1    2    0    0  0.57159621424E+01  0.18983766090E+00  0.24597756221E+03  0.26224891404E+03  0.90756947606E+02 0.  0.
          5    1    3    3  502    0 -0.25011962372E+02 -0.53393405784E+02  0.13537048681E+03  0.14771288076E+03  0.41800000000E+01 0.  1.
         -5    1    3    3    0  502  0.19296000230E+02  0.53203568123E+02  0.29945733241E+03  0.30478701025E+03  0.41800000000E+01 0.  1.
        -11    1    4    4    0    0  0.47454276137E+02 -0.63854320460E+00  0.10514853441E+03  0.11536260377E+03  0.00000000000E+00 0.  1.
         11    1    4    4    0    0 -0.41738313994E+02  0.82838086549E+00  0.14082902781E+03  0.14688631026E+03  0.00000000000E+00 0. -1.
</event>
<event>
 8    1  0.3708258E-009  0.1192262E+03  0.7561462E-02  0.1244379E+00
         -1   -1    0    0    0  501 -0.00000000000E+00  0.00000000000E+00  0.23051110922E+02  0.23051110922E+02  0.00000000000E+00 0.  1.
          1   -1    0    0  501    0  0.00000000000E+00 -0.00000000000E+00 -0.84262167596E+03  0.84262167596E+03  0.00000000000E+00 0. -1.
         25    2    1    2    0    0 -0.30022989654E+01  0.84209811009E+02 -0.51926521455E+03  0.54072584327E+03  0.12509104074E+03 0.  0.
         23    2    1    2    0    0  0.30022989654E+01 -0.84209811009E+02 -0.30030535049E+03  0.32494694361E+03  0.91142232575E+02 0.  0.
          5    1    3    3  502    0  0.37369873268E+02  0.44075756217E+02 -0.43564880101E+03  0.43948439100E+03  0.41800000000E+01 0.  1.
         -5    1    3    3    0  502 -0.40372172233E+02  0.40134054792E+02 -0.83616413542E+02  0.10124145227E+03  0.41800000000E+01 0.  1.
        -11    1    4    4    0    0 -0.43343365000E+02 -0.33845209966E+02 -0.15097881008E+03  0.16068212912E+03  0.00000000000E+00 0.  1.
         11    1    4    4    0    0  0.46345663965E+02 -0.50364601043E+02 -0.14932654042E+03  0.16426481449E+03  0.00000000000E+00 0. -1.
</event>
<event>
 8    1  0.3708258E-009  0.1010920E+03  0.7561462E-02  0.1278016E+00
         -1   -1    0    0    0  501 -0.00000000000E+00  0.00000000000E+00  0.18378957906E+03  0.18378957906E+03  0.00000000000E+00 0.  1.
          1   -1    0    0  501    0  0.00000000000E+00 -0.00000000000E+00 -0.15363928728E+03  0.15363928728E+03  0.00000000000E+00 0. -1.
         25    2    1    2    0    0  0.61186212124E+02 -0.25650918876E+01 -0.96706212964E+02  0.16955561015E+03  0.12508669417E+03 0.  0.
         23    2    1    2    0    0 -0.61186212124E+02  0.25650918876E+01  0.12685650474E+03  0.16787325619E+03  0.91315524955E+02 0.  0.
          5    1    3    3  502    0  0.73664488549E+02 -0.50568578603E+02 -0.64290973559E+02  0.11015643284E+03  0.41800000000E+01 0.  1.
         -5    1    3    3    0  502 -0.12478276425E+02  0.48003486715E+02 -0.32415239405E+02  0.59399177309E+02  0.41800000000E+01 0.  1.
        -11    1    4    4    0    0 -0.31081255798E+02  0.86160120647E+01  0.13274462223E+03  0.13660678920E+03  0.00000000000E+00 0.  1.
         11    1    4    4    0    0 -0.30104956326E+02 -0.60509201771E+01 -0.58881174846E+01  0.31266466988E+02  0.00000000000E+00 0. -1.
</event>
<event>
 8    1  0.3708258E-009  0.1024219E+03  0.7561462E-02  0.1275284E+00
          2   -1    0    0  501    0  0.00000000000E+00  0.00000000000E+00  0.58475699408E+03  0.58475699408E+03  0.00000000000E+00 0. -1.
         -2   -1    0    0    0  501 -0.00000000000E+00 -0.00000000000E+00 -0.24975788702E+02  0.24975788702E+02  0.00000000000E+00 0.  1.
         25    2    1    2    0    0  0.34021831432E+02 -0.28165396813E+02  0.24560488533E+03  0.27915008735E+03  0.12510890047E+03 0.  0.
         23    2    1    2    0    0 -0.34021831432E+02  0.28165396813E+02  0.31417632004E+03  0.33058269543E+03  0.92883711434E+02 0.  0.
          5    1    3    3  502    0  0.50137961771E+02 -0.53558943633E+02  0.71888525583E+02  0.10279984516E+03  0.41800000000E+01 0. -1.
         -5    1    3    3    0  502 -0.16116130340E+02  0.25393546820E+02  0.17371635975E+03  0.17635024219E+03  0.41800000000E+01 0. -1.
        -11    1    4    4    0    0 -0.45992300470E+02 -0.20880051118E+02  0.12587460934E+03  0.13563069532E+03  0.00000000000E+00 0. -1.
         11    1    4    4    0    0  0.11970469038E+02  0.49045447931E+02  0.18830171071E+03  0.19495200011E+03  0.00000000000E+00 0.  1.
</event>
<event>
 8    1  0.3708258E-009  0.1555207E+03  0.7561462E-02  0.1193849E+00
          2   -1    0    0  501    0  0.00000000000E+00  0.00000000000E+00  0.13013333945E+04  0.13013333945E+04  0.00000000000E+00 0.  1.
         -2   -1    0    0    0  501 -0.00000000000E+00 -0.00000000000E+00 -0.22321456153E+02  0.22321456153E+02  0.00000000000E+00 0. -1.
         25    2    1    2    0    0 -0.23014291669E+02 -0.12800151919E+03  0.62352880880E+03  0.64911463460E+03  0.12509031505E+03 0.  0.
         23    2    1    2    0    0  0.23014291669E+02  0.12800151919E+03  0.65548312950E+03  0.67454021600E+03  0.91827683249E+02 0.  0.
          5    1    3    3  502    0  0.51497575448E+02 -0.58185962702E+02  0.24731179687E+03  0.25926473691E+03  0.41800000000E+01 0.  1.
         -5    1    3    3    0  502 -0.74511867117E+02 -0.69815556484E+02  0.37621701192E+03  0.38984989769E+03  0.41800000000E+01 0.  1.
        -11    1    4    4    0    0 -0.17905575039E+01  0.25875231444E+02  0.27415785056E+02  0.37740680554E+02  0.00000000000E+00 0. -1.
         11    1    4    4    0    0  0.24804849173E+02  0.10212628774E+03  0.62806734445E+03  0.63679953545E+03  0.00000000000E+00 0.  1.
</event>
<event>
 8    1  0.3708258E-009  0.1337560E+03  0.7561462E-02  0.1221987E+00
         -1   -1    0    0    0  501 -0.00000000000E+00  0.00000000000E+00  0.13225633150E+03  0.13225633150E+03  0.00000000000E+00 0.  1.
          1   -1    0    0  501    0  0.00000000000E+00 -0.00000000000E+00 -0.14000469335E+03  0.14000469335E+03  0.00000000000E+00 0. -1.
         25    2    1    2    0    0 -0.79427045266E+02 -0.66429297758E+01 -0.25696914076E+02  0.15053658527E+03  0.12509255804E+03 0.  0.
         23    2    1    2    0    0  0.79427045266E+02  0.66429297758E+01  0.17948552231E+02  0.12172443958E+03  0.90232503165E+02 0.  0.
          5    1    3    3  502    0 -0.73424175696E+02  0.50690302740E+02 -0.24928137937E+02  0.92733493569E+02  0.41800000000E+01 0. -1.
         -5    1    3    3    0  502 -0.60028695701E+01 -0.57333232516E+02 -0.76877613948E+00  0.57803091704E+02  0.41800000000E+01 0. -1.
        -11    1    4    4    0    0 -0.54213307370E+01 -0.28165905344E+02  0.42502055164E+01  0.28996091077E+02  0.00000000000E+00 0.  1.
         11    1    4    4    0    0  0.84848376003E+02  0.34808835120E+02  0.13698346715E+02  0.92728348499E+02  0.00000000000E+00 0. -1.
</event>
<event>
 8    1  0.3708258E-009  0.1301650E+03  0.7561462E-02  0.1227211E+00
         -2   -1    0    0    0  501 -0.00000000000E+00  0.00000000000E+00  0.40389732861E+02  0.40389732861E+02  0.00000000000E+00 0. -1.
          2   -1    0    0  501    0  0.00000000000E+00 -0.00000000000E+00 -0.69296464574E+03  0.69296464574E+03  0.00000000000E+00 0.  1.
         25    2    1    2    0    0  0.83187123223E+02 -0.71421849609E+02 -0.48688933593E+03  0.51451943177E+03  0.12509133525E+03 0.  0.
         23    2    1    2    0    0 -0.83187123223E+02  0.71421849609E+02 -0.16568557696E+03  0.21883494684E+03  0.91737917325E+02 0.  0.
          5    1    3    3  502    0  0.71828979717E+02 -0.32059142065E+02 -0.10949267265E+03  0.13488257368E+03  0.41800000000E+01 0. -1.
         -5    1    3    3    0  502  0.11358143505E+02 -0.39362707544E+02 -0.37739666328E+03  0.37963685809E+03  0.41800000000E+01 0. -1.
        -11    1    4    4    0    0 -0.10153571473E+03  0.66525286740E+02 -0.15554861137E+03  0.19730809826E+03  0.00000000000E+00 0.  1.
         11    1    4    4    0    0  0.18348591508E+02  0.48965628687E+01 -0.10136965587E+02  0.21526848575E+02  0.00000000000E+00 0. -1.
</event>
<event>
 8    1  0.3708258E-009  0.1209407E+03  0.7561462E-02  0.1241553E+00
         -2   -1    0    0    0  501 -0.00000000000E+00  0.00000000000E+00  0.11328621293E+03  0.11328621293E+03  0.00000000000E+00 0.  1.
          2   -1    0    0  501    0  0.00000000000E+00 -0.00000000000E+00 -0.14106311894E+03  0.14106311894E+03  0.00000000000E+00 0. -1.
         25    2    1    2    0    0  0.32756344197E+02 -0.51967435622E+02  0.79465132405E+01  0.13958877106E+03  0.12509310726E+03 0.  0.
         23    2    1    2    0    0 -0.32756344197E+02  0.51967435622E+02 -0.35723419252E+02  0.11476056080E+03  0.90112325359E+02 0.  0.
          5    1    3    3  502    0  0.73081617556E+02 -0.27591149790E+01 -0.84982399277E+01  0.73744342304E+02  0.41800000000E+01 0.  1.
         -5    1    3    3    0  502 -0.40325273359E+02 -0.49208320643E+02  0.16444753168E+02  0.65844428760E+02  0.41800000000E+01 0.  1.
        -11    1    4    4    0    0  0.23172913025E+02  0.42130493692E+02 -0.32189447612E+02  0.57862966865E+02  0.00000000000E+00 0.  1.
         11    1    4    4    0    0 -0.55929257222E+02  0.98369419300E+01 -0.35339716391E+01  0.56897593934E+02  0.00000000000E+00 0. -1.
</event>
<event>
 8    1  0.3708258E-009  0.1008102E+03  0.7561462E-02  0.1278601E+00
         -2   -1    0    0    0  501 -0.00000000000E+00  0.00000000000E+00  0.70089342458E+02  0.70089342458E+02  0.00000000000E+00 0.  1.
          2   -1    0    0  501    0  0.00000000000E+00 -0.00000000000E+00 -0.22002049107E+03  0.22002049107E+03  0.00000000000E+00 0. -1.
         25    2    1    2    0    0  0.46292865129E+02  0.13742767179E+02 -0.32229830769E+02  0.13790995541E+03  0.12509396787E+03 0.  0.
         23    2    1    2    0    0 -0.46292865129E+02 -0.13742767179E+02 -0.11770131784E+03  0.15219987812E+03  0.83542262756E+02 0.  0.
          5    1    3    3  502    0  0.14431654894E+02  0.61123518293E+02 -0.47271161156E+02  0.78717166034E+02  0.41800000000E+01 0. -1.
         -5    1    3    3    0  502  0.31861210236E+02 -0.47380751114E+02  0.15041330387E+02  0.59192789372E+02  0.41800000000E+01 0. -1.
        -11    1    4    4    0    0 -0.46082809471E+02  0.18154205808E+02 -0.27779598212E+02  0.56788261059E+02  0.00000000000E+00 0.  1.
         11    1    4    4    0    0 -0.21005565839E+00 -0.31896972987E+02 -0.89921719629E+02  0.95411617061E+02  0.00000000000E+00 0. -1.
</event>
<event>
 8    1  0.3708258E-009  0.1099179E+03  0.7561462E-02  0.1260722E+00
         -3   -1    0    0    0  501 -0.00000000000E+00  0.00000000000E+00  0.25635241683E+02  0.25635241683E+02  0.00000000000E+00 0.  1.
          3   -1    0    0  501    0  0.00000000000E+00 -0.00000000000E+00 -0.65518723472E+03  0.65518723472E+03  0.00000000000E+00 0. -1.
         25    2    1    2    0    0 -0.13727818659E+02 -0.58117804905E+02 -0.46092234909E+03  0.48131705853E+03  0.12510222495E+03 0.  0.
         23    2    1    2    0    0  0.13727818659E+02  0.58117804905E+02 -0.16862964395E+03  0.19950541788E+03  0.88319435527E+02 0.  0.
          5    1    3    3  502    0  0.34654939791E+02 -0.54284994638E+02 -0.11408238213E+03  0.13107283398E+03  0.41800000000E+01 0.  1.
         -5    1    3    3    0  502 -0.48382758450E+02 -0.38328102669E+01 -0.34683996696E+03  0.35024422455E+03  0.41800000000E+01 0.  1.
        -11    1    4    4    0    0 -0.37805472698E+02  0.25112843432E+02 -0.74189683965E+02  0.86971362402E+02  0.00000000000E+00 0. -1.
         11    1    4    4    0    0  0.51533291358E+02  0.33004961473E+02 -0.94439959988E+02  0.11253405548E+03  0.00000000000E+00 0.  1.
</event>
<event>
 8    1  0.3708258E-009  0.1061290E+03  0.7561462E-02  0.1267911E+00
          2   -1    0    0  501    0  0.00000000000E+00  0.00000000000E+00  0.33614102465E+03  0.33614102465E+03  0.00000000000E+00 0. -1.
         -2   -1    0    0    0  501 -0.00000000000E+00 -0.00000000000E+00 -0.44356393465E+02  0.44356393465E+02  0.00000000000E+00 0.  1.
         25    2    1    2    0    0  0.48645321097E+02  0.17541332639E+02  0.12982239075E+03  0.18755105768E+03  0.12508988960E+03 0.  0.
         23    2    1    2    0    0 -0.48645321097E+02 -0.17541332639E+02  0.16196224044E+03  0.19294636044E+03  0.91227545537E+02 0.  0.
          5    1    3    3  502    0  0.47824930341E+02  0.68707073341E+02  0.85371007075E+02  0.11963932104E+03  0.41800000000E+01 0.  1.
         -5    1    3    3    0  502  0.82039075624E+00 -0.51165740702E+02  0.44451383674E+02  0.67911736638E+02  0.41800000000E+01 0.  1.
        -11    1    4    4    0    0 -0.61846387481E+02 -0.13644993733E+02  0.16675073807E+03  0.17837312058E+03  0.00000000000E+00 0. -1.
         11    1    4    4    0    0  0.13201066384E+02 -0.38963389065E+01 -0.47884976313E+01  0.14573239863E+02  0.00000000000E+00 0.  1.
</event>
<event>
 8    1  0.3708258E-009  0.1020360E+03  0.7561462E-02  0.1276072E+00
          1   -1    0    0  501    0  0.00000000000E+00  0.00000000000E+00  0.26228912345E+03  0.26228912345E+03  0.00000000000E+00 0. -1.
         -1   -1    0    0    0  501 -0.00000000000E+00 -0.00000000000E+00 -0.74057256020E+02  0.74057256020E+02  0.00000000000E+00 0.  1.
         25    2    1    2    0    0 -0.40484944290E+02 -0.73913583342E+02  0.88442784480E+02  0.17484749669E+03  0.12508905810E+03 0.  0.
         23    2    1    2    0    0  0.40484944290E+02  0.73913583342E+02  0.99789082945E+02  0.16149888277E+03  0.94983048723E+02 0.  0.
          5    1    3    3  502    0 -0.22559864710E+02 -0.46993049111E+02 -0.24168167829E+02  0.57609607677E+02  0.41800000000E+01 0.  1.
         -5    1    3    3    0  502 -0.17925079580E+02 -0.26920534231E+02  0.11261095231E+03  0.11723788902E+03  0.41800000000E+01 0.  1.
        -11    1    4    4    0    0 -0.57801066104E+01  0.72653898967E+02  0.86975410060E+02  0.11347563890E+03  0.00000000000E+00 0.  1.
         11    1    4    4    0    0  0.46265050901E+02  0.12596843743E+01  0.12813672885E+02  0.48023243876E+02  0.00000000000E+00 0. -1.
</event>
<event>
 8    1  0.3708258E-009  0.7519112E+02  0.7561462E-02  0.1343280E+00
         -1   -1    0    0    0  501 -0.00000000000E+00  0.00000000000E+00  0.18736939171E+03  0.18736939171E+03  0.00000000000E+00 0.  1.
          1   -1    0    0  501    0  0.00000000000E+00 -0.00000000000E+00 -0.65066987408E+02  0.65066987408E+02  0.00000000000E+00 0. -1.
         25    2    1    2    0    0  0.12062317669E+02  0.13219948229E+02  0.63019349439E+02  0.14120809284E+03  0.12509204828E+03 0.  0.
         23    2    1    2    0    0 -0.12062317669E+02 -0.13219948229E+02  0.59283054859E+02  0.11122828627E+03  0.92395803661E+02 0.  0.
          5    1    3    3  502    0  0.36726540866E+02  0.45490884599E+02 -0.81286866091E+01  0.59176070599E+02  0.41800000000E+01 0.  1.
         -5    1    3    3    0  502 -0.24664223197E+02 -0.32270936370E+02  0.71148036048E+02  0.82032022245E+02  0.41800000000E+01 0.  1.
        -11    1    4    4    0    0 -0.28609700503E+02  0.16931061427E+01  0.77386960105E+02  0.82523470392E+02  0.00000000000E+00 0.  1.
         11    1    4    4    0    0  0.16547382834E+02 -0.14913054371E+02 -0.18103905246E+02  0.28704815876E+02  0.00000000000E+00 0. -1.
</event>
<event>
 8    1  0.3708258E-009  0.1304111E+03  0.7561462E-02  0.1226847E+00
          2   -1    0    0  501    0  0.00000000000E+00  0.00000000000E+00  0.57483209036E+03  0.57483209036E+03  0.00000000000E+00 0. -1.
         -2   -1    0    0    0  501 -0.00000000000E+00 -0.00000000000E+00 -0.49180156374E+02  0.49180156374E+02  0.00000000000E+00 0.  1.
         25    2    1    2    0    0 -0.82210798512E-01 -0.12629618636E+03  0.32766842040E+03  0.37277988868E+03  0.12509004050E+03 0.  0.
         23    2    1    2    0    0  0.82210798512E-01  0.12629618636E+03  0.19798351358E+03  0.25123235805E+03  0.89272014840E+02 0.  0.
          5    1    3    3  502    0  0.40967712408E+01 -0.12249331311E+03  0.14469746564E+03  0.18967399467E+03  0.41800000000E+01 0. -1.
         -5    1    3    3    0  502 -0.41789820393E+01 -0.38028732448E+01  0.18297095477E+03  0.18310589402E+03  0.41800000000E+01 0. -1.
        -11    1    4    4    0    0 -0.14827730992E+02  0.98576934833E+02  0.76273977284E+02  0.12551889618E+03  0.00000000000E+00 0.  1.
         11    1    4    4    0    0  0.14909941791E+02  0.27719251523E+02  0.12170953630E+03  0.12571346187E+03  0.00000000000E+00 0. -1.
</event>
<event>
 8    1  0.3708258E-009  0.9694812E+02  0.7561462E-02  0.1286848E+00
         -2   -1    0    0    0  501 -0.00000000000E+00  0.00000000000E+00  0.16697871118E+03  0.16697871118E+03  0.00000000000E+00 0.  1.
          2   -1    0    0  501    0  0.00000000000E+00 -0.00000000000E+00 -0.85419885444E+02  0.85419885444E+02  0.00000000000E+00 0. -1.
         25    2    1    2    0    0 -0.42043907332E+02  0.23901704015E+02  0.36242272769E+02  0.13892351089E+03  0.12508900009E+03 0.  0.
         23    2    1    2    0    0  0.42043907332E+02 -0.23901704015E+02  0.45316552964E+02  0.11347508573E+03  0.92108759141E+02 0.  0.
          5    1    3    3  502    0 -0.16620294469E+02 -0.33932984070E+02  0.60224939606E+02  0.71219360757E+02  0.41800000000E+01 0. -1.
         -5    1    3    3    0  502 -0.25423612863E+02  0.57834688085E+02 -0.23982666836E+02  0.67704150135E+02  0.41800000000E+01 0. -1.
        -11    1    4    4    0    0 -0.23691886617E+02 -0.64063788693E+01 -0.92924892930E+01  0.26243047440E+02  0.00000000000E+00 0. -1.
         11    1    4    4    0    0  0.65735793949E+02 -0.17495325146E+02  0.54609042257E+02  0.87232038290E+02  0.00000000000E+00 0.  1.
</event>
<event>
 8    1  0.3708258E-009  0.1017078E+03  0.7561462E-02  0.1276745E+00
          2   -1    0    0  501    0  0.00000000000E+00  0.00000000000E+00  0.28300035046E+03  0.28300035046E+03  0.00000000000E+00 0. -1.
         -2   -1    0    0    0  501 -0.00000000000E+00 -0.00000000000E+00 -0.52362878714E+02  0.52362878714E+02  0.00000000000E+00 0.  1.
         25    2    1    2    0    0 -0.17636156085E+02  0.50811710194E+02  0.10246978126E+03  0.17041191783E+03  0.12508917528E+03 0.  0.
         23    2    1    2    0    0  0.17636156085E+02 -0.50811710194E+02  0.12816769049E+03  0.16495131135E+03  0.88820686422E+02 0.  0.
          5    1    3    3  502    0 -0.31656802612E+02 -0.27913608939E+02  0.27206385744E+01  0.42499376347E+02  0.41800000000E+01 0.  1.
         -5    1    3    3    0  502  0.14020646527E+02  0.78725319133E+02  0.99749142685E+02  0.12791254148E+03  0.41800000000E+01 0.  1.
        -11    1    4    4    0    0 -0.11691430627E+02 -0.50255266410E+02  0.24322189528E+02  0.57042530234E+02  0.00000000000E+00 0.  1.
         11    1    4    4    0    0  0.29327586712E+02 -0.55644378409E+00  0.10384550096E+03  0.10790878112E+03  0.00000000000E+00 0. -1.
</event>
<event>
 8    1  0.3708258E-009  0.9068038E+02  0.7561462E-02  0.1301212E+00
         -1   -1    0    0    0  501 -0.00000000000E+00  0.00000000000E+00  0.68475132581E+02  0.68475132581E+02  0.00000000000E+00 0.  1.
          1   -1    0    0  501    0  0.00000000000E+00 -0.00000000000E+00 -0.22197687253E+03  0.22197687253E+03  0.00000000000E+00 0. -1.
         25    2    1    2    0    0  0.28682216646E+02  0.85729414582E+01 -0.14635512327E+03  0.19483801814E+03  0.12508343746E+03 0.  0.
         23    2    1    2    0    0 -0.28682216646E+02 -0.85729414582E+01 -0.71466166732E+01  0.95613986971E+02  0.90525109763E+02 0.  0.
          5    1    3    3  502    0  0.13001500334E+02  0.63892442665E+02 -0.10581381972E+03  0.12435964010E+03  0.41800000000E+01 0. -1.
         -5    1    3    3    0  502  0.15680716312E+02 -0.55319501206E+02 -0.40541303548E+02  0.70478378040E+02  0.41800000000E+01 0. -1.
        -11    1    4    4    0    0 -0.15729400122E+02 -0.29691152250E+02 -0.41413407917E+02  0.53329625026E+02  0.00000000000E+00 0. -1.
         11    1    4    4    0    0 -0.12952816525E+02  0.21118210792E+02  0.34266791243E+02  0.42284361945E+02  0.00000000000E+00 0.  1.
</event>
<event>
 8    1  0.3708258E-009  0.1340014E+03  0.7561462E-02  0.1221636E+00
          2   -1    0    0  501    0  0.00000000000E+00  0.00000000000E+00  0.24626028311E+04  0.24626028311E+04  0.00000000000E+00 0. -1.
         -2   -1    0    0    0  501 -0.00000000000E+00 -0.00000000000E+00 -0.11227691780E+02  0.11227691780E+02  0.00000000000E+00 0.  1.
         25    2    1    2    0    0  0.73734837184E+02  0.62709242927E+02  0.18992036210E+04  0.19057783760E+04  0.12509016282E+03 0.  0.
         23    2    1    2    0    0 -0.73734837184E+02 -0.62709242927E+02  0.55217151832E+03  0.56805214693E+03  0.91763721757E+02 0.  0.
          5    1    3    3  502    0 -0.14953880704E+02 -0.11167979446E+02  0.60517527746E+02  0.63467990968E+02  0.41800000000E+01 0.  1.
         -5    1    3    3    0  502  0.88688717889E+02  0.73877222373E+02  0.18386860933E+04  0.18423103850E+04  0.41800000000E+01 0.  1.
        -11    1    4    4    0    0  0.49881712670E+01  0.19158146633E+02  0.83795663909E+02  0.86102437393E+02  0.00000000000E+00 0.  1.
         11    1    4    4    0    0 -0.78723008451E+02 -0.81867389560E+02  0.46837585441E+03  0.48194970954E+03  0.00000000000E+00 0. -1.
</event>
<event>
 8    1  0.3708258E-009  0.6210814E+02  0.7561462E-02  0.1389192E+00
          2   -1    0    0  501    0  0.00000000000E+00  0.00000000000E+00  0.17446735887E+04  0.17446735887E+04  0.00000000000E+00 0. -1.
         -2   -1    0    0    0  501 -0.00000000000E+00 -0.00000000000E+00 -0.73390649948E+01  0.73390649948E+01  0.00000000000E+00 0.  1.
         25    2    1    2    0    0  0.11680363107E+01  0.97499796108E+01  0.12557398351E+04  0.12619931826E+04  0.12509129897E+03 0.  0.
         23    2    1    2    0    0 -0.11680363107E+01 -0.97499796108E+01  0.48159468867E+03  0.49001947115E+03  0.89940044152E+02 0.  0.
          5    1    3    3  502    0 -0.10124699079E+02  0.16892463093E+02  0.29742578903E+02  0.35915988648E+02  0.41800000000E+01 0. -1.
         -5    1    3    3    0  502  0.11292735390E+02 -0.71424834822E+01  0.12259972562E+04  0.12260771939E+04  0.41800000000E+01 0. -1.
        -11    1    4    4    0    0  0.41527691694E+02 -0.20121133609E+02  0.26941631791E+03  0.27333964504E+03  0.00000000000E+00 0.  1.
         11    1    4    4    0    0 -0.42695728005E+02  0.10371153998E+02  0.21217837075E+03  0.21667982610E+03  0.00000000000E+00 0. -1.
</event>
<event>
 8    1  0.3708258E-009  0.1996324E+03  0.7561462E-02  0.1150050E+00
          2   -1    0    0  501    0  0.00000000000E+00  0.00000000000E+00  0.63274199756E+02  0.63274199756E+02  0.00000000000E+00 0. -1.
         -2   -1    0    0    0  501 -0.00000000000E+00 -0.00000000000E+00 -0.68298529208E+03  0.68298529208E+03  0.00000000000E+00 0.  1.
         25    2    1    2    0    0 -0.17737814279E+02 -0.17073732115E+03 -0.40211511973E+03  0.45476435642E+03  0.12509271546E+03 0.  0.
         23    2    1    2    0    0  0.17737814279E+02  0.17073732115E+03 -0.21759597259E+03  0.29149513542E+03  0.90308049459E+02 0.  0.
          5    1    3    3  502    0  0.38711867612E+02 -0.14128005819E+03 -0.30759844047E+03  0.34072413551E+03  0.41800000000E+01 0. -1.
         -5    1    3    3    0  502 -0.56449681891E+02 -0.29457262960E+02 -0.94516679258E+02  0.11404022091E+03  0.41800000000E+01 0. -1.
        -11    1    4    4    0    0 -0.68701362141E+01  0.16295223915E+03 -0.16044538894E+03  0.22878669945E+03  0.00000000000E+00 0. -1.
         11    1    4    4    0    0  0.24607950493E+02  0.77850819972E+01 -0.57150583657E+02  0.62708435967E+02  0.00000000000E+00 0.  1.
</event>
<event>
 8    1  0.3708258E-009  0.1868390E+03  0.7561462E-02  0.1161344E+00
         -1   -1    0    0    0  501 -0.00000000000E+00  0.00000000000E+00  0.97162418576E+02  0.97162418576E+02  0.00000000000E+00 0.  1.
          1   -1    0    0  501    0  0.00000000000E+00 -0.00000000000E+00 -0.62284815808E+03  0.62284815808E+03  0.00000000000E+00 0. -1.
         25    2    1    2    0    0 -0.63093770312E+02  0.13851082110E+03 -0.50418671301E+03  0.54131116980E+03  0.12508984598E+03 0.  0.
         23    2    1    2    0    0  0.63093770312E+02 -0.13851082110E+03 -0.21499026497E+02  0.17869940685E+03  0.91132861553E+02 0.  0.
          5    1    3    3  502    0 -0.48195709670E+02  0.16170979056E+03 -0.44311186527E+03  0.47417136178E+03  0.41800000000E+01 0.  1.
         -5    1    3    3    0  502 -0.14898060642E+02 -0.23198969458E+02 -0.61074847737E+02  0.67139808019E+02  0.41800000000E+01 0.  1.
        -11    1    4    4    0    0 -0.19770593465E+02 -0.58748336566E+02 -0.18199146320E+01  0.62012543122E+02  0.00000000000E+00 0.  1.
         11    1    4    4    0    0  0.82864363777E+02 -0.79762484535E+02 -0.19679111865E+02  0.11668686373E+03  0.00000000000E+00 0. -1.
</event>
<event>
 8    1  0.3708258E-009  0.1303924E+03  0.7561462E-02  0.1226875E+00
         -2   -1    0    0    0  501 -0.00000000000E+00  0.00000000000E+00  0.27962866342E+02  0.27962866342E+02  0.00000000000E+00 0.  1.
          2   -1    0    0  501    0  0.00000000000E+00 -0.00000000000E+00 -0.76863697595E+03  0.76863697595E+03  0.00000000000E+00 0. -1.
         25    2    1    2    0    0  0.63726883651E+02 -0.51597454882E+02 -0.51729006070E+03  0.53847971294E+03  0.12509189145E+03 0.  0.
         23    2    1    2    0    0 -0.63726883651E+02  0.51597454882E+02 -0.22338404891E+03  0.25812012934E+03  0.10001077350E+03 0.  0.
          5    1    3    3  502    0  0.70712689858E+02 -0.82736233693E+02 -0.30716395515E+03  0.32590295583E+03  0.41800000000E+01 0.  1.
         -5    1    3    3    0  502 -0.69858062064E+01  0.31138778811E+02 -0.21012610554E+03  0.21257675712E+03  0.41800000000E+01 0.  1.
        -11    1    4    4    0    0 -0.36154047843E+02  0.75165885909E+02 -0.19490728800E+03  0.21200442565E+03  0.00000000000E+00 0. -1.
         11    1    4    4    0    0 -0.27572835808E+02 -0.23568431027E+02 -0.28476760910E+02  0.46115703697E+02  0.00000000000E+00 0.  1.
</event>
<event>
 8    1  0.3708258E-009  0.1229901E+03  0.7561462E-02  0.1238244E+00
         -1   -1    0    0    0  501 -0.00000000000E+00  0.00000000000E+00  0.47383863479E+02  0.47383863479E+02  0.00000000000E+00 0.  1.
          1   -1    0    0  501    0  0.00000000000E+00 -0.00000000000E+00 -0.44184171132E+03  0.44184171132E+03  0.00000000000E+00 0. -1.
         25    2    1    2    0    0 -0.84727140067E+02 -0.21422552833E+02 -0.15162186610E+03  0.21511448101E+03  0.12508971032E+03 0.  0.
         23    2    1    2    0    0  0.84727140067E+02  0.21422552833E+02 -0.24283598175E+03  0.27411109379E+03  0.92357802450E+02 0.  0.
          5    1    3    3  502    0 -0.75253183881E+02 -0.67809694057E+02 -0.12389423155E+03  0.16008887939E+03  0.41800000000E+01 0. -1.
         -5    1    3    3    0  502 -0.94739561856E+01  0.46387141223E+02 -0.27727634546E+02  0.55025601625E+02  0.41800000000E+01 0. -1.
        -11    1    4    4    0    0  0.39911141210E+02  0.31841117276E+02 -0.21355415714E+03  0.21957261663E+03  0.00000000000E+00 0. -1.
         11    1    4    4    0    0  0.44815998857E+02 -0.10418564442E+02 -0.29281824608E+02  0.54538477160E+02  0.00000000000E+00 0.  1.
</event>
<event>
 8    1  0.3708258E-009  0.3819341E+03  0.7561462E-02  0.1050221E+00
          2   -1    0    0  501    0  0.00000000000E+00  0.00000000000E+00  0.12359785452E+04  0.12359785452E+04  0.00000000000E+00 0. -1.
         -2   -1    0    0    0  501 -0.00000000000E+00 -0.00000000000E+00 -0.14947764754E+03  0.14947764754E+03  0.00000000000E+00 0.  1.
         25    2    1    2    0    0  0.92992868304E+02  0.36121976448E+03  0.84879749763E+03  0.93553812836E+03  0.12508799230E+03 0.  0.
         23    2    1    2    0    0 -0.92992868304E+02 -0.36121976448E+03  0.23770339998E+03  0.44991806434E+03  0.82437651874E+02 0.  0.
          5    1    3    3  502    0  0.87005519529E+02  0.36954122343E+03  0.83835580335E+03  0.92031983660E+03  0.41800000000E+01 0. -1.
         -5    1    3    3    0  502  0.59873487750E+01 -0.83214589470E+01  0.10441694284E+02  0.15218291753E+02  0.41800000000E+01 0. -1.
        -11    1    4    4    0    0 -0.45523195770E+02 -0.15715530996E+03  0.57055262037E+02  0.17327854953E+03  0.00000000000E+00 0.  1.
         11    1    4    4    0    0 -0.47469672535E+02 -0.20406445453E+03  0.18064813794E+03  0.27663951481E+03  0.00000000000E+00 0. -1.
</event>
<event>
 8    1  0.3708258E-009  0.1425053E+03  0.7561462E-02  0.1209997E+00
         -1   -1    0    0    0  501 -0.00000000000E+00  0.00000000000E+00  0.59276422456E+02  0.59276422456E+02  0.00000000000E+00 0.  1.
          1   -1    0    0  501    0  0.00000000000E+00 -0.00000000000E+00 -0.52329484217E+03  0.52329484217E+03  0.00000000000E+00 0. -1.
         25    2    1    2    0    0 -0.44807143980E+02 -0.13019141997E+03 -0.27062014253E+03  0.32839144176E+03  0.12509273158E+03 0.  0.
         23    2    1    2    0    0  0.44807143980E+02  0.13019141997E+03 -0.19339827718E+03  0.25417982287E+03  0.90813009801E+02 0.  0.
          5    1    3    3  502    0 -0.27801182920E+02 -0.12628199862E+03 -0.11921057450E+03  0.17592237611E+03  0.41800000000E+01 0. -1.
         -5    1    3    3    0  502 -0.17005961060E+02 -0.39094213520E+01 -0.15140956804E+03  0.15246906565E+03  0.41800000000E+01 0. -1.
        -11    1    4    4    0    0  0.89247612230E+01  0.27747372937E+02  0.34869431357E+01  0.29355184214E+02  0.00000000000E+00 0.  1.
         11    1    4    4    0    0  0.35882382757E+02  0.10244404703E+03 -0.19688522032E+03  0.22482463865E+03  0.00000000000E+00 0. -1.
</event>
<event>
 8    1  0.3708258E-009  0.1012564E+03  0.7561462E-02  0.1277676E+00
         -1   -1    0    0    0  501 -0.00000000000E+00  0.00000000000E+00  0.11405809841E+03  0.11405809841E+03  0.00000000000E+00 0.  1.
          1   -1    0    0  501    0  0.00000000000E+00 -0.00000000000E+00 -0.16067167856E+03  0.16067167856E+03  0.00000000000E+00 0. -1.
         25    2    1    2    0    0  0.70238497376E+02 -0.34177773921E+02 -0.35306418973E+00  0.14747787274E+03  0.12509209227E+03 0.  0.
         23    2    1    2    0    0 -0.70238497376E+02  0.34177773921E+02 -0.46260515953E+02  0.12725190423E+03  0.89170875572E+02 0.  0.
          5    1    3    3  502    0  0.16541864465E+02  0.46752909319E+01  0.57029553122E+02  0.59710417471E+02  0.41800000000E+01 0. -1.
         -5    1    3    3    0  502  0.53696632910E+02 -0.38853064853E+02 -0.57382617312E+02  0.87767455266E+02  0.41800000000E+01 0. -1.
        -11    1    4    4    0    0 -0.93569248026E+01  0.53674645189E+02 -0.24304851441E+02  0.59659411508E+02  0.00000000000E+00 0.  1.
         11    1    4    4    0    0 -0.60881572573E+02 -0.19496871268E+02 -0.21955664513E+02  0.67592492722E+02  0.00000000000E+00 0. -1.
</event>
<event>
 8    1  0.3708258E-009  0.3340749E+03  0.7561462E-02  0.1069348E+00
         -1   -1    0    0    0  501 -0.00000000000E+00  0.00000000000E+00  0.94784832903E+02  0.94784832903E+02  0.00000000000E+00 0.  1.
          1   -1    0    0  501    0  0.00000000000E+00 -0.00000000000E+00 -0.13240071091E+04  0.13240071091E+04  0.00000000000E+00 0. -1.
         25    2    1    2    0    0  0.27770139340E+03  0.16172474588E+03 -0.81495738345E+03  0.88491587806E+03  0.12509043558E+03 0.  0.
         23    2    1    2    0    0 -0.27770139340E+03 -0.16172474588E+03 -0.41426489271E+03  0.53387606391E+03  0.10067419208E+03 0.  0.
          5    1    3    3  502    0  0.46879460462E+02 -0.61429060167E+01 -0.21957118091E+03  0.22464281647E+03  0.41800000000E+01 0. -1.
         -5    1    3    3    0  502  0.23082193294E+03  0.16786765190E+03 -0.59538620254E+03  0.66027306158E+03  0.41800000000E+01 0. -1.
        -11    1    4    4    0    0 -0.20157610380E+03 -0.64252178760E+02 -0.28537205188E+03  0.35524424850E+03  0.00000000000E+00 0.  1.
         11    1    4    4    0    0 -0.76125289608E+02 -0.97472567119E+02 -0.12889284083E+03  0.17863181541E+03  0.00000000000E+00 0. -1.
</event>
<event>
 8    1  0.3708258E-009  0.6330384E+02  0.7561462E-02  0.1384468E+00
         -1   -1    0    0    0  501 -0.00000000000E+00  0.00000000000E+00  0.12927417147E+02  0.12927417147E+02  0.00000000000E+00 0.  1.
          1   -1    0    0  501    0  0.00000000000E+00 -0.00000000000E+00 -0.97623277343E+03  0.97623277343E+03  0.00000000000E+00 0. -1.
         25    2    1    2    0    0  0.29088868405E+02  0.81884589003E+01 -0.51908105912E+03  0.53479396780E+03  0.12508488690E+03 0.  0.
         23    2    1    2    0    0 -0.29088868405E+02 -0.81884589003E+01 -0.44422429716E+03  0.45436622278E+03  0.90555094215E+02 0.  0.
          5    1    3    3  502    0  0.14410887389E+02 -0.29168393167E+01  0.83953116845E-01  0.15285976419E+02  0.41800000000E+01 0.  1.
         -5    1    3    3    0  502  0.14677981016E+02  0.11105298217E+02 -0.51916501224E+03  0.51950799138E+03  0.41800000000E+01 0.  1.
        -11    1    4    4    0    0 -0.14892249319E+01  0.38329355783E+02 -0.13078172107E+03  0.13629092365E+03  0.00000000000E+00 0.  1.
         11    1    4    4    0    0 -0.27599643473E+02 -0.46517814684E+02 -0.31344257609E+03  0.31807529912E+03  0.00000000000E+00 0. -1.
</event>
<event>
 8    1  0.3708258E-009  0.1096498E+03  0.7561462E-02  0.1261220E+00
          2   -1    0    0  501    0  0.00000000000E+00  0.00000000000E+00  0.13759376654E+03  0.13759376654E+03  0.00000000000E+00 0. -1.
         -2   -1    0    0    0  501 -0.00000000000E+00 -0.00000000000E+00 -0.17382633798E+03  0.17382633798E+03  0.00000000000E+00 0.  1.
         25    2    1    2    0    0 -0.47184802699E+02 -0.49500197387E+02  0.68307389837E+02  0.15807549173E+03  0.12508111941E+03 0.  0.
         23    2    1    2    0    0  0.47184802699E+02  0.49500197387E+02 -0.10453996128E+03  0.15334461278E+03  0.88934198244E+02 0.  0.
          5    1    3    3  502    0 -0.15459028008E+02 -0.70975534752E+02  0.88498324075E+02  0.11456846793E+03  0.41800000000E+01 0.  1.
         -5    1    3    3    0  502 -0.31725774691E+02  0.21475337365E+02 -0.20190934237E+02  0.43507023802E+02  0.41800000000E+01 0.  1.
        -11    1    4    4    0    0 -0.62611902894E+01  0.54004446830E+02 -0.73344949014E+02  0.91297121133E+02  0.00000000000E+00 0.  1.
         11    1    4    4    0    0  0.53445992989E+02 -0.45042494436E+01 -0.31195012270E+02  0.62047491651E+02  0.00000000000E+00 0. -1.
</event>
<event>
 8    1  0.3708258E-009  0.1128283E+03  0.7561462E-02  0.1255420E+00
          2   -1    0    0  501    0  0.00000000000E+00  0.00000000000E+00  0.54671456294E+03  0.54671456294E+03  0.00000000000E+00 0. -1.
         -2   -1    0    0    0  501 -0.00000000000E+00 -0.00000000000E+00 -0.28413248584E+02  0.28413248584E+02  0.00000000000E+00 0.  1.
         25    2    1    2    0    0  0.54300264713E+02 -0.10957530427E+02  0.35811398518E+03  0.38335484289E+03  0.12508686166E+03 0.  0.
         23    2    1    2    0    0 -0.54300264713E+02  0.10957530427E+02  0.16018732917E+03  0.19177296864E+03  0.89712345031E+02 0.  0.
          5    1    3    3  502    0  0.16557333753E+02  0.56466266561E+02  0.17010919133E+03  0.18004775460E+03  0.41800000000E+01 0. -1.
         -5    1    3    3    0  502  0.37742930961E+02 -0.67423796988E+02  0.18800479385E+03  0.20330708829E+03  0.41800000000E+01 0. -1.
        -11    1    4    4    0    0  0.10022458562E+02 -0.16531389238E+02  0.27907971238E+01  0.19532666340E+02  0.00000000000E+00 0.  1.
         11    1    4    4    0    0 -0.64322723275E+02  0.27488919666E+02  0.15739653205E+03  0.17224030230E+03  0.00000000000E+00 0. -1.
</event>
<event>
 8    1  0.3708258E-009  0.2751575E+03  0.7561462E-02  0.1098364E+00
         -2   -1    0    0    0  501 -0.00000000000E+00  0.00000000000E+00  0.54342421073E+02  0.54342421073E+02  0.00000000000E+00 0. -1.
          2   -1    0    0  501    0  0.00000000000E+00 -0.00000000000E+00 -0.15719062120E+04  0.15719062120E+04  0.00000000000E+00 0.  1.
         25    2    1    2    0    0 -0.52098666528E+02 -0.25517090150E+03 -0.56698309047E+03  0.63635210880E+03  0.12509085282E+03 0.  0.
         23    2    1    2    0    0  0.52098666528E+02  0.25517090150E+03 -0.95058070050E+03  0.98989652432E+03  0.92005438289E+02 0.  0.
          5    1    3    3  502    0  0.25225516518E+02 -0.15473562637E+03 -0.37253184739E+03  0.40419907283E+03  0.41800000000E+01 0.  1.
         -5    1    3    3    0  502 -0.77324183046E+02 -0.10043527513E+03 -0.19445124308E+03  0.23215303597E+03  0.41800000000E+01 0.  1.
        -11    1    4    4    0    0  0.54008202948E+02  0.12136361073E+03 -0.60268040642E+03  0.61714640424E+03  0.00000000000E+00 0.  1.
         11    1    4    4    0    0 -0.19095364193E+01  0.13380729078E+03 -0.34790029408E+03  0.37275012007E+03  0.00000000000E+00 0. -1.
</event>
<event>
 8    1  0.3708258E-009  0.6658591E+02  0.7561462E-02  0.1372103E+00
          1   -1    0    0  501    0  0.00000000000E+00  0.00000000000E+00  0.19682260892E+03  0.19682260892E+03  0.00000000000E+00 0. -1.
         -1   -1    0    0    0  501 -0.00000000000E+00 -0.00000000000E+00 -0.68275828378E+02  0.68275828378E+02  0.00000000000E+00 0.  1.
         25    2    1    2    0    0  0.35854346716E+02 -0.13430737995E+02  0.52531957958E+02  0.14097053506E+03  0.12508863356E+03 0.  0.
         23    2    1    2    0    0 -0.35854346716E+02  0.13430737995E+02  0.76014822581E+02  0.12412790224E+03  0.90352443025E+02 0.  0.
          5    1    3    3  502    0  0.34671373830E+02 -0.16618078923E+02 -0.35664962200E+02  0.52609187782E+02  0.41800000000E+01 0.  1.
         -5    1    3    3    0  502  0.11829728854E+01  0.31873409278E+01  0.88196920158E+02  0.88361347276E+02  0.41800000000E+01 0.  1.
        -11    1    4    4    0    0  0.21769769639E+02  0.21884212144E+02  0.34185382019E+01  0.31056851334E+02  0.00000000000E+00 0.  1.
         11    1    4    4    0    0 -0.57624116355E+02 -0.84534741491E+01  0.72596284379E+02  0.93071050905E+02  0.00000000000E+00 0. -1.
</event>
<event>
 8    1  0.3708258E-009  0.1049327E+03  0.7561462E-02  0.1270252E+00
          2   -1    0    0  501    0  0.00000000000E+00  0.00000000000E+00  0.41837242318E+03  0.41837242318E+03  0.00000000000E+00 0. -1.
         -2   -1    0    0    0  501 -0.00000000000E+00 -0.00000000000E+00 -0.31457467288E+02  0.31457467288E+02  0.00000000000E+00 0.  1.
         25    2    1    2    0    0  0.17041038495E+02  0.26886349317E+02  0.19394717893E+03  0.23297457841E+03  0.12509345786E+03 0.  0.
         23    2    1    2    0    0 -0.17041038495E+02 -0.26886349317E+02  0.19296777697E+03  0.21685531206E+03  0.93682392416E+02 0.  0.
          5    1    3    3  502    0  0.17316140369E+02  0.71838898254E+02  0.73349508084E+02  0.10420316097E+03  0.41800000000E+01 0. -1.
         -5    1    3    3    0  502 -0.27510187463E+00 -0.44952548937E+02  0.12059767085E+03  0.12877141744E+03  0.41800000000E+01 0. -1.
        -11    1    4    4    0    0  0.63396782739E+01 -0.54302690539E+02  0.70604118411E+02  0.89296781896E+02  0.00000000000E+00 0.  1.
         11    1    4    4    0    0 -0.23380716769E+02  0.27416341222E+02  0.12236365855E+03  0.12755853016E+03  0.00000000000E+00 0. -1.
</event>
<event>
 8    1  0.3708258E-009  0.1023284E+03  0.7561462E-02  0.1275475E+00
          1   -1    0    0  501    0  0.00000000000E+00  0.00000000000E+00  0.34209373229E+03  0.34209373229E+03  0.00000000000E+00 0. -1.
         -1   -1    0    0    0  501 -0.00000000000E+00 -0.00000000000E+00 -0.36462050510E+02  0.36462050510E+02  0.00000000000E+00 0.  1.
         25    2    1    2    0    0  0.75097360958E+01  0.14046640755E+02  0.23536698384E+03  0.26701935744E+03  0.12509202977E+03 0.  0.
         23    2    1    2    0    0 -0.75097360958E+01 -0.14046640755E+02  0.70264697938E+02  0.11153642536E+03  0.85144243222E+02 0.  0.
          5    1    3    3  502    0  0.62154854097E+02  0.42331345778E+01  0.76903443679E+02  0.99059362838E+02  0.41800000000E+01 0. -1.
         -5    1    3    3    0  502 -0.54645118001E+02  0.98135061768E+01  0.15846354017E+03  0.16795999460E+03  0.41800000000E+01 0. -1.
        -11    1    4    4    0    0 -0.37316668978E+02 -0.34153664453E+02  0.38701220039E+02  0.63692943186E+02  0.00000000000E+00 0.  1.
         11    1    4    4    0    0  0.29806932882E+02  0.20107023698E+02  0.31563477899E+02  0.47843482178E+02  0.00000000000E+00 0. -1.
</event>
<event>
 8    1  0.3708258E-009  0.1373053E+03  0.7561462E-02  0.1217002E+00
         -1   -1    0    0    0  501 -0.00000000000E+00  0.00000000000E+00  0.12990576935E+03  0.12990576935E+03  0.00000000000E+00 0.  1.
          1   -1    0    0  501    0  0.00000000000E+00 -0.00000000000E+00 -0.15166437982E+03  0.15166437982E+03  0.00000000000E+00 0. -1.
         25    2    1    2    0    0 -0.17738244254E+02  0.86945859419E+02 -0.83576447490E+01  0.15359471264E+03  0.12508899930E+03 0.  0.
         23    2    1    2    0    0  0.17738244254E+02 -0.86945859419E+02 -0.13400965719E+02  0.12797543652E+03  0.91235402625E+02 0.  0.
          5    1    3    3  502    0 -0.63572063732E+02  0.11828941985E+02  0.24158880681E+01  0.64843196025E+02  0.41800000000E+01 0. -1.
         -5    1    3    3    0  502  0.45833819477E+02  0.75116917434E+02 -0.10773532817E+02  0.88751516618E+02  0.41800000000E+01 0. -1.
        -11    1    4    4    0    0  0.37977127278E+02 -0.93112746840E+02 -0.25310767693E+02  0.10369609820E+03  0.00000000000E+00 0. -1.
         11    1    4    4    0    0 -0.20238883024E+02  0.61668874214E+01  0.11909801974E+02  0.24279338326E+02  0.00000000000E+00 0.  1.
</event>
<event>
 8    1  0.3708258E-009  0.1149265E+03  0.7561462E-02  0.1251710E+00
         -2   -1    0    0    0  501 -0.00000000000E+00  0.00000000000E+00  0.16519304004E+02  0.16519304004E+02  0.00000000000E+00 0.  1.
          2   -1    0    0  501    0  0.00000000000E+00 -0.00000000000E+00 -0.80489224296E+03  0.80489224296E+03  0.00000000000E+00 0. -1.
         25    2    1    2    0    0 -0.34290474849E+02  0.23124788107E+02 -0.44734967768E+03  0.46634375328E+03  0.12507665495E+03 0.  0.
         23    2    1    2    0    0  0.34290474849E+02 -0.23124788107E+02 -0.34102326128E+03  0.35506779369E+03  0.89809135888E+02 0.  0.
          5    1    3    3  502    0  0.37491434976E+02 -0.24910104992E+02 -0.16026814926E+03  0.16652168956E+03  0.41800000000E+01 0. -1.
         -5    1    3    3    0  502 -0.71781909825E+02  0.48034893099E+02 -0.28708152842E+03  0.29982206372E+03  0.41800000000E+01 0. -1.
        -11    1    4    4    0    0 -0.30396528896E+02 -0.36230694653E+01 -0.87672248676E+02  0.92862795506E+02  0.00000000000E+00 0. -1.
         11    1    4    4    0    0  0.64687003744E+02 -0.19501718641E+02 -0.25335101260E+03  0.26220499818E+03  0.00000000000E+00 0.  1.
</event>
<event>
 8    1  0.3708258E-009  0.1050481E+03  0.7561462E-02  0.1270025E+00
         -2   -1    0    0    0  501 -0.00000000000E+00  0.00000000000E+00  0.84686869452E+02  0.84686869452E+02  0.00000000000E+00 0.  1.
          2   -1    0    0  501    0  0.00000000000E+00 -0.00000000000E+00 -0.21662561681E+03  0.21662561681E+03  0.00000000000E+00 0. -1.
         25    2    1    2    0    0  0.33815660863E+01 -0.69615637095E+02 -0.11349392736E+03  0.18272034602E+03  0.12509229146E+03 0.  0.
         23    2    1    2    0    0 -0.33815660863E+01  0.69615637095E+02 -0.18444820003E+02  0.11859214025E+03  0.94160036249E+02 0.  0.
          5    1    3    3  502    0  0.58872174277E+02 -0.58666548012E+02 -0.47943476141E+02  0.96040335611E+02  0.41800000000E+01 0.  1.
         -5    1    3    3    0  502 -0.55490608191E+02 -0.10949089082E+02 -0.65550451215E+02  0.86680010404E+02  0.41800000000E+01 0.  1.
        -11    1    4    4    0    0  0.26521260275E+01  0.25487748581E+02 -0.55192195514E+02  0.60850945316E+02  0.00000000000E+00 0. -1.
         11    1    4    4    0    0 -0.60336921138E+01  0.44127888514E+02  0.36747375511E+02  0.57741194932E+02  0.00000000000E+00 0.  1.
</event>
<event>
 8    1  0.3708258E-009  0.9816071E+02  0.7561462E-02  0.1284212E+00
          2   -1    0    0  501    0  0.00000000000E+00  0.00000000000E+00  0.51007840844E+03  0.51007840844E+03  0.00000000000E+00 0. -1.
         -2   -1    0    0    0  501 -0.00000000000E+00 -0.00000000000E+00 -0.23522620441E+02  0.23522620441E+02  0.00000000000E+00 0.  1.
         25    2    1    2    0    0  0.16738870618E+02  0.69160936518E+01  0.26725014772E+03  0.29563039536E+03  0.12508663823E+03 0.  0.
         23    2    1    2    0    0 -0.16738870618E+02 -0.69160936518E+01  0.21930564027E+03  0.23797063352E+03  0.90592695178E+02 0.  0.
          5    1    3    3  502    0  0.40686664828E+02  0.46729913162E+02  0.22243986365E+03  0.23094599979E+03  0.41800000000E+01 0. -1.
         -5    1    3    3    0  502 -0.23947794210E+02 -0.39813819511E+02  0.44810284072E+02  0.64684395569E+02  0.41800000000E+01 0. -1.
        -11    1    4    4    0    0 -0.49379456703E+02 -0.18796484312E+02  0.16718986460E+03  0.17533992526E+03  0.00000000000E+00 0. -1.
         11    1    4    4    0    0  0.32640586085E+02  0.11880390660E+02  0.52115775677E+02  0.62630708255E+02  0.00000000000E+00 0.  1.
</event>
<event>
 8    1  0.3708258E-009  0.1107204E+03  0.7561462E-02  0.1259242E+00
         -1   -1    0    0    0  501 -0.00000000000E+00  0.00000000000E+00  0.15431803090E+04  0.15431803090E+04  0.00000000000E+00 0.  1.
          1   -1    0    0  501    0  0.00000000000E+00 -0.00000000000E+00 -0.99657232686E+01  0.99657232686E+01  0.00000000000E+00 0. -1.
         25    2    1    2    0    0 -0.47741073544E+02  0.30226059451E+02  0.95601445649E+03  0.96581731555E+03  0.12508645504E+03 0.  0.
         23    2    1    2    0    0  0.47741073544E+02 -0.30226059451E+02  0.57720012921E+03  0.58732871668E+03  0.92748086272E+02 0.  0.
          5    1    3    3  502    0  0.11372549285E+02  0.50503670340E+02  0.18179358874E+03  0.18906701696E+03  0.41800000000E+01 0. -1.
         -5    1    3    3    0  502 -0.59113622829E+02 -0.20277610888E+02  0.77422086775E+03  0.77675029860E+03  0.41800000000E+01 0. -1.
        -11    1    4    4    0    0  0.64865034049E+02 -0.49124042198E+02  0.47951972679E+03  0.48637414872E+03  0.00000000000E+00 0. -1.
         11    1    4    4    0    0 -0.17123960505E+02  0.18897982747E+02  0.97680402418E+02  0.10095456796E+03  0.00000000000E+00 0.  1.
</event>
<event>
 8    1  0.3708258E-009  0.1303041E+03  0.7561462E-02  0.1227005E+00
          3   -1    0    0  501    0  0.00000000000E+00  0.00000000000E+00  0.26253393758E+03  0.26253393758E+03  0.00000000000E+00 0. -1.
         -3   -1    0    0    0  501 -0.00000000000E+00 -0.00000000000E+00 -0.68739624307E+02  0.68739624307E+02  0.00000000000E+00 0.  1.
         25    2    1    2    0    0 -0.35507128758E+02 -0.63107699259E+02  0.14038374662E+03  0.20149654070E+03  0.12509964707E+03 0.  0.
         23    2    1    2    0    0  0.35507128758E+02  0.63107699259E+02  0.53410566646E+02  0.12977702119E+03  0.93520311699E+02 0.  0.
          5    1    3    3  502    0 -0.19014065291E+02 -0.10076466828E+03  0.10810633568E+03  0.14906208527E+03  0.41800000000E+01 0. -1.
         -5    1    3    3    0  502 -0.16493063467E+02  0.37656969019E+02  0.32277410943E+02  0.52434455422E+02  0.41800000000E+01 0. -1.
        -11    1    4    4    0    0  0.22323973340E+01 -0.23641038834E+02  0.19981895274E+02  0.31034794243E+02  0.00000000000E+00 0. -1.
         11    1    4    4    0    0  0.33274731424E+02  0.86748738093E+02  0.33428671372E+02  0.98742226944E+02  0.00000000000E+00 0.  1.
</event>
<event>
 8    1  0.3708258E-009  0.1226034E+03  0.7561462E-02  0.1238863E+00
         -2   -1    0    0    0  501 -0.00000000000E+00  0.00000000000E+00  0.53375036717E+02  0.53375036717E+02  0.00000000000E+00 0.  1.
          2   -1    0    0  501    0  0.00000000000E+00 -0.00000000000E+00 -0.55853350153E+03  0.55853350153E+03  0.00000000000E+00 0. -1.
         25    2    1    2    0    0  0.43567987529E+02  0.11273210792E+03 -0.15476029172E+03  0.23281871615E+03  0.12508840474E+03 0.  0.
         23    2    1    2    0    0 -0.43567987529E+02 -0.11273210792E+03 -0.35039817309E+03  0.37908982210E+03  0.79520537089E+02 0.  0.
          5    1    3    3  502    0  0.96739661189E-01  0.94484927550E+01  0.21532774247E+02  0.23883386290E+02  0.41800000000E+01 0.  1.
         -5    1    3    3    0  502  0.43471247868E+02  0.10328361517E+03 -0.17629306597E+03  0.20893532986E+03  0.41800000000E+01 0.  1.
        -11    1    4    4    0    0 -0.11208425887E+02 -0.58666249026E+02 -0.27214378076E+03  0.27862088039E+03  0.00000000000E+00 0. -1.
         11    1    4    4    0    0 -0.32359561643E+02 -0.54065858899E+02 -0.78254392334E+02  0.10046894171E+03  0.00000000000E+00 0.  1.
</event>
<event>
 8    1  0.3708258E-009  0.2406724E+03  0.7561462E-02  0.1119346E+00
          2   -1    0    0  501    0  0.00000000000E+00  0.00000000000E+00  0.97157947897E+03  0.97157947897E+03  0.00000000000E+00 0.  1.
         -2   -1    0    0    0  501 -0.00000000000E+00 -0.00000000000E+00 -0.62961510721E+02  0.62961510721E+02  0.00000000000E+00 0. -1.
         25    2    1    2    0    0 -0.18095202168E+03 -0.12814510104E+03  0.43344227331E+03  0.50267611860E+03  0.12508507043E+03 0.  0.
         23    2    1    2    0    0  0.18095202168E+03  0.12814510104E+03  0.47517569494E+03  0.53186487110E+03  0.89014038087E+02 0.  0.
          5    1    3    3  502    0 -0.14361607680E+03 -0.15092719445E+03  0.38099315886E+03  0.43425551814E+03  0.41800000000E+01 0. -1.
         -5    1    3    3    0  502 -0.37335944872E+02  0.22782093407E+02  0.52449114456E+02  0.68420600456E+02  0.41800000000E+01 0. -1.
        -11    1    4    4    0    0  0.72267512039E+02  0.86309968792E+02  0.30964136011E+03  0.32946893010E+03  0.00000000000E+00 0.  1.
         11    1    4    4    0    0  0.10868450964E+03  0.41835132248E+02  0.16553433483E+03  0.20239594100E+03  0.00000000000E+00 0. -1.
</event>
<event>
 8    1  0.3708258E-009  0.1295873E+03  0.7561462E-02  0.1228069E+00
         -1   -1    0    0    0  501 -0.00000000000E+00  0.00000000000E+00  0.15959466156E+02  0.15959466156E+02  0.00000000000E+00 0.  1.
          1   -1    0    0  501    0  0.00000000000E+00 -0.00000000000E+00 -0.17475741362E+04  0.17475741362E+04  0.00000000000E+00 0. -1.
         25    2    1    2    0    0 -0.99096348727E+02 -0.38774226488E+02 -0.12784321667E+04  0.12889371544E+04  0.12508659385E+03 0.  0.
         23    2    1    2    0    0  0.99096348727E+02  0.38774226488E+02 -0.45318250328E+03  0.47459644797E+03  0.92433111919E+02 0.  0.
          5    1    3    3  502    0 -0.95594889242E+02 -0.66458898544E+02 -0.68514338212E+03  0.69497776548E+03  0.41800000000E+01 0. -1.
         -5    1    3    3    0  502 -0.35014594856E+01  0.27684672056E+02 -0.59328878462E+03  0.59395938888E+03  0.41800000000E+01 0. -1.
        -11    1    4    4    0    0  0.67029122920E+01  0.18757905408E+02 -0.11691282497E+02  0.23097059010E+02  0.00000000000E+00 0.  1.
         11    1    4    4    0    0  0.92393436435E+02  0.20016321080E+02 -0.44149122078E+03  0.45149938896E+03  0.00000000000E+00 0. -1.
</event>
<event>
 8    1  0.3708258E-009  0.1377407E+03  0.7561462E-02  0.1216402E+00
         -1   -1    0    0    0  501 -0.00000000000E+00  0.00000000000E+00  0.80421248787E+02  0.80421248787E+02  0.00000000000E+00 0.  1.
          1   -1    0    0  501    0  0.00000000000E+00 -0.00000000000E+00 -0.30954328302E+03  0.30954328302E+03  0.00000000000E+00 0. -1.
         25    2    1    2    0    0 -0.99301433324E+02  0.49956556062E+02 -0.95961435381E+02  0.19290488944E+03  0.12508903683E+03 0.  0.
         23    2    1    2    0    0  0.99301433324E+02 -0.49956556062E+02 -0.13316059885E+03  0.19705964236E+03  0.93511097789E+02 0.  0.
          5    1    3    3  502    0 -0.87267607215E+02 -0.22223187243E+02 -0.73292167241E+02  0.11618398986E+03  0.41800000000E+01 0.  1.
         -5    1    3    3    0  502 -0.12033826109E+02  0.72179743306E+02 -0.22669268141E+02  0.76720899581E+02  0.41800000000E+01 0.  1.
        -11    1    4    4    0    0  0.50590081474E+02 -0.17628476062E+02 -0.12753064731E+03  0.13832637317E+03  0.00000000000E+00 0. -1.
         11    1    4    4    0    0  0.48711351850E+02 -0.32328080001E+02 -0.56299515367E+01  0.58733269191E+02  0.00000000000E+00 0.  1.
</event>
<event>
 8    1  0.3708258E-009  0.9333832E+02  0.7561462E-02  0.1294963E+00
         -2   -1    0    0    0  501 -0.00000000000E+00  0.00000000000E+00  0.27041237936E+02  0.27041237936E+02  0.00000000000E+00 0.  1.
          2   -1    0    0  501    0  0.00000000000E+00 -0.00000000000E+00 -0.44319807263E+03  0.44319807263E+03  0.00000000000E+00 0. -1.
         25    2    1    2    0    0  0.80221843117E+01  0.15038217428E+02 -0.23880243252E+03  0.27011971674E+03  0.12509019213E+03 0.  0.
         23    2    1    2    0    0 -0.80221843117E+01 -0.15038217428E+02 -0.17735440217E+03  0.20011959383E+03  0.91119506359E+02 0.  0.
          5    1    3    3  502    0 -0.20979192728E+02 -0.46154504277E+02 -0.58776844742E+02  0.77733870806E+02  0.41800000000E+01 0.  1.
         -5    1    3    3    0  502  0.29001377040E+02  0.61192721705E+02 -0.18002558778E+03  0.19238584593E+03  0.41800000000E+01 0.  1.
        -11    1    4    4    0    0  0.28764599727E+02 -0.16482648972E+01 -0.13801686399E+02  0.31946917254E+02  0.00000000000E+00 0.  1.
         11    1    4    4    0    0 -0.36786784038E+02 -0.13389952530E+02 -0.16355271578E+03  0.16817267657E+03  0.00000000000E+00 0. -1.
</event>
<event>
 8    1  0.3708258E-009  0.1378594E+03  0.7561462E-02  0.1216239E+00
         -2   -1    0    0    0  501 -0.00000000000E+00  0.00000000000E+00  0.63560443404E+02  0.63560443404E+02  0.00000000000E+00 0.  1.
          2   -1    0    0  501    0  0.00000000000E+00 -0.00000000000E+00 -0.30882081708E+03  0.30882081708E+03  0.00000000000E+00 0. -1.
         25    2    1    2    0    0 -0.55801114874E+02 -0.66852076793E+02 -0.15099942875E+03  0.21454959985E+03  0.12509092182E+03 0.  0.
         23    2    1    2    0    0  0.55801114874E+02  0.66852076793E+02 -0.94260944930E+02  0.15783166063E+03  0.91884398925E+02 0.  0.
          5    1    3    3  502    0  0.37936467974E+02 -0.33069406239E+02 -0.68611462732E+02  0.85192525784E+02  0.41800000000E+01 0. -1.
         -5    1    3    3    0  502 -0.93737582847E+02 -0.33782670554E+02 -0.82387966016E+02  0.12935707407E+03  0.41800000000E+01 0. -1.
        -11    1    4    4    0    0 -0.15258792995E+02  0.50253836823E+02 -0.49829350645E+02  0.72396429918E+02  0.00000000000E+00 0. -1.
         11    1    4    4    0    0  0.71059907869E+02  0.16598239969E+02 -0.44431594285E+02  0.85435230714E+02  0.00000000000E+00 0.  1.
</event>
<event>
 8    1  0.3708258E-009  0.1098522E+03  0.7561462E-02  0.1260844E+00
          2   -1    0    0  501    0  0.00000000000E+00  0.00000000000E+00  0.11202869747E+04  0.11202869747E+04  0.00000000000E+00 0. -1.
         -2   -1    0    0    0  501 -0.00000000000E+00 -0.00000000000E+00 -0.14256613062E+02  0.14256613062E+02  0.00000000000E+00 0.  1.
         25    2    1    2    0    0 -0.56370959127E+00 -0.34418713634E+02  0.86219350214E+03  0.87190031290E+03  0.12509018698E+03 0.  0.
         23    2    1    2    0    0  0.56370959127E+00  0.34418713634E+02  0.24383685951E+03  0.26264327488E+03  0.91324203614E+02 0.  0.
          5    1    3    3  502    0  0.46708724189E+02 -0.53471824703E+02  0.34953571532E+03  0.35669823329E+03  0.41800000000E+01 0.  1.
         -5    1    3    3    0  502 -0.47272433780E+02  0.19053111069E+02  0.51265778682E+03  0.51520207960E+03  0.41800000000E+01 0.  1.
        -11    1    4    4    0    0  0.29777880727E+01  0.65850988465E+02  0.15792835857E+03  0.17113324149E+03  0.00000000000E+00 0.  1.
         11    1    4    4    0    0 -0.24140784815E+01 -0.31432274831E+02  0.85908500946E+02  0.91510033388E+02  0.00000000000E+00 0. -1.
</event>
<event>
 8    1  0.3708258E-009  0.1319323E+03  0.7561462E-02  0.1224616E+00
         -2   -1    0    0    0  501 -0.00000000000E+00  0.00000000000E+00  0.27486537085E+02  0.27486537085E+02  0.00000000000E+00 0.  1.
          2   -1    0    0  501    0  0.00000000000E+00 -0.00000000000E+00 -0.87986783360E+03  0.87986783360E+03  0.00000000000E+00 0. -1.
         25    2    1    2    0    0  0.56472482550E+02  0.85434411740E+02 -0.33580953911E+03  0.37269672959E+03  0.12508647286E+03 0.  0.
         23    2    1    2    0    0 -0.56472482550E+02 -0.85434411740E+02 -0.51657175740E+03  0.53465764109E+03  0.92326771004E+02 0.  0.
          5    1    3    3  502    0  0.83608004897E+02  0.45966434157E+02 -0.12978113330E+03  0.16113294670E+03  0.41800000000E+01 0.  1.
         -5    1    3    3    0  502 -0.27135522347E+02  0.39467977582E+02 -0.20602840581E+03  0.21156378289E+03  0.41800000000E+01 0.  1.
        -11    1    4    4    0    0 -0.23151170871E+02 -0.83781812732E+02 -0.46623718498E+03  0.47427047296E+03  0.00000000000E+00 0. -1.
         11    1    4    4    0    0 -0.33321311678E+02 -0.16525990080E+01 -0.50334572415E+02  0.60387168137E+02  0.00000000000E+00 0.  1.
</event>
<event>
 8    1  0.3708258E-009  0.1330069E+03  0.7561462E-02  0.1223061E+00
          2   -1    0    0  501    0  0.00000000000E+00  0.00000000000E+00  0.10459018008E+04  0.10459018008E+04  0.00000000000E+00 0. -1.
         -2   -1    0    0    0  501 -0.00000000000E+00 -0.00000000000E+00 -0.16979559075E+02  0.16979559075E+02  0.00000000000E+00 0.  1.
         25    2    1    2    0    0  0.46733678182E+02 -0.59858377855E+02  0.53976587796E+03  0.55925080261E+03  0.12508874901E+03 0.  0.
         23    2    1    2    0    0 -0.46733678182E+02  0.59858377855E+02  0.48915636374E+03  0.50363055724E+03  0.92750891785E+02 0.  0.
          5    1    3    3  502    0 -0.40746516139E+02 -0.14133772475E+01  0.14408705293E+03  0.14980262827E+03  0.41800000000E+01 0.  1.
         -5    1    3    3    0  502  0.87480194321E+02 -0.58445000608E+02  0.39567882503E+03  0.40944817434E+03  0.41800000000E+01 0.  1.
        -11    1    4    4    0    0 -0.63521559166E+02  0.74187719843E+02  0.38935112879E+03  0.40141388584E+03  0.00000000000E+00 0. -1.
         11    1    4    4    0    0  0.16787880984E+02 -0.14329341988E+02  0.99805234953E+02  0.10221667141E+03  0.00000000000E+00 0.  1.
</event>
<event>
 8    1  0.3708258E-009  0.6538760E+02  0.7561462E-02  0.1376519E+00
          4   -1    0    0  501    0  0.00000000000E+00  0.00000000000E+00  0.53183991929E+03  0.53183991929E+03  0.00000000000E+00 0. -1.
         -4   -1    0    0    0  501 -0.00000000000E+00 -0.00000000000E+00 -0.27470366797E+02  0.27470366797E+02  0.00000000000E+00 0.  1.
         25    2    1    2    0    0  0.35162523668E+02 -0.60407238021E+01  0.38284134539E+03  0.40433197306E+03  0.12507579814E+03 0.  0.
         23    2    1    2    0    0 -0.35162523668E+02  0.60407238021E+01  0.12152820710E+03  0.15497831303E+03  0.89310016088E+02 0.  0.
          5    1    3    3  502    0  0.47392805089E+02  0.66873006768E+01  0.44443919281E+02  0.65448699954E+02  0.41800000000E+01 0.  1.
         -5    1    3    3    0  502 -0.12230281421E+02 -0.12728024479E+02  0.33839742611E+03  0.33888327310E+03  0.41800000000E+01 0.  1.
        -11    1    4    4    0    0 -0.13245377728E+02 -0.23995461598E+02 -0.49796427379E+00  0.27412956369E+02  0.00000000000E+00 0.  1.
         11    1    4    4    0    0 -0.21917145940E+02  0.30036185400E+02  0.12202617138E+03  0.12756535666E+03  0.00000000000E+00 0. -1.
</event>
<event>
 8    1  0.3708258E-009  0.1115411E+03  0.7561462E-02  0.1257742E+00
          1   -1    0    0  501    0  0.00000000000E+00  0.00000000000E+00  0.10716948240E+03  0.10716948240E+03  0.00000000000E+00 0. -1.
         -1   -1    0    0    0  501 -0.00000000000E+00 -0.00000000000E+00 -0.16433513083E+03  0.16433513083E+03  0.00000000000E+00 0.  1.
         25    2    1    2    0    0  0.61412148875E+01 -0.76452365492E+02 -0.34990668957E+02  0.15084908823E+03  0.12509365210E+03 0.  0.
         23    2    1    2    0    0 -0.61412148875E+01  0.76452365492E+02 -0.22174979473E+02  0.12065552500E+03  0.90461855430E+02 0.  0.
          5    1    3    3  502    0  0.46254233691E+02 -0.18703267583E+02 -0.58119449941E+02  0.76711206574E+02  0.41800000000E+01 0.  1.
         -5    1    3    3    0  502 -0.40113018804E+02 -0.57749097909E+02  0.23128780984E+02  0.74137881657E+02  0.41800000000E+01 0.  1.
        -11    1    4    4    0    0 -0.30258207768E+01 -0.12859564369E+02 -0.28143817075E+02  0.31090166077E+02  0.00000000000E+00 0.  1.
         11    1    4    4    0    0 -0.31153941107E+01  0.89311929861E+02  0.59688376025E+01  0.89565358919E+02  0.00000000000E+00 0. -1.
</event>
<event>
 8    1  0.3708258E-009  0.1121760E+03  0.7561462E-02  0.1256593E+00
         -1   -1    0    0    0  501 -0.00000000000E+00  0.00000000000E+00  0.18618459235E+03  0.18618459235E+03  0.00000000000E+00 0.  1.
          1   -1    0    0  501    0  0.00000000000E+00 -0.00000000000E+00 -0.11904181316E+03  0.11904181316E+03  0.00000000000E+00 0. -1.
         25    2    1    2    0    0  0.93808691461E+02 -0.13752780499E+02  0.25292534799E+01  0.15698435056E+03  0.12509388327E+03 0.  0.
         23    2    1    2    0    0 -0.93808691461E+02  0.13752780499E+02  0.64613525709E+02  0.14824205496E+03  0.93870067590E+02 0.  0.
          5    1    3    3  502    0  0.22726380470E+02  0.35905302242E+02 -0.41589709923E+02  0.59605834193E+02  0.41800000000E+01 0. -1.
         -5    1    3    3    0  502  0.71082310991E+02 -0.49658082741E+02  0.44118963403E+02  0.97378516363E+02  0.41800000000E+01 0. -1.
        -11    1    4    4    0    0 -0.73601168589E+02  0.11802391798E+02  0.89272445131E+02  0.11630132385E+03  0.00000000000E+00 0.  1.
         11    1    4    4    0    0 -0.20207522872E+02  0.19503887012E+01 -0.24658919423E+02  0.31940731110E+02  0.00000000000E+00 0. -1.
</event>
<event>
 8    1  0.3708258E-009  0.1282619E+03  0.7561462E-02  0.1230058E+00
         -2   -1    0    0    0  501 -0.00000000000E+00  0.00000000000E+00  0.18092765867E+02  0.18092765867E+02  0.00000000000E+00 0.  1.
          2   -1    0    0  501    0  0.00000000000E+00 -0.00000000000E+00 -0.20187835053E+04  0.20187835053E+04  0.00000000000E+00 0. -1.
         25    2    1    2    0    0  0.10455098763E+03  0.58671575581E+02 -0.15949533210E+04  0.16043367138E+04  0.12508769803E+03 0.  0.
         23    2    1    2    0    0 -0.10455098763E+03 -0.58671575581E+02 -0.40573741841E+03  0.43253955738E+03  0.89968623399E+02 0.  0.
          5    1    3    3  502    0  0.77811793922E+02  0.87019916649E+01 -0.13725552049E+04  0.13747929527E+04  0.41800000000E+01 0.  1.
         -5    1    3    3    0  502  0.26739193711E+02  0.49969583916E+02 -0.22239811609E+03  0.22954376105E+03  0.41800000000E+01 0.  1.
        -11    1    4    4    0    0 -0.82275566003E+02 -0.37010532653E+02 -0.38440699408E+03  0.39485159919E+03  0.00000000000E+00 0. -1.
         11    1    4    4    0    0 -0.22275421630E+02 -0.21661042929E+02 -0.21330424334E+02  0.37687958180E+02  0.00000000000E+00 0.  1.
</event>
<event>
 8    1  0.3708258E-009  0.1486815E+03  0.7561462E-02  0.1202103E+00
         -2   -1    0    0    0  501 -0.00000000000E+00  0.00000000000E+00  0.12143719479E+03  0.12143719479E+03  0.00000000000E+00 0. -1.
          2   -1    0    0  501    0  0.00000000000E+00 -0.00000000000E+00 -0.31026577084E+03  0.31026577084E+03  0.00000000000E+00 0.  1.
         25    2    1    2    0    0  0.10388223297E+03  0.97423276150E+02 -0.16025338048E+02  0.19023269658E+03  0.12509538092E+03 0.  0.
         23    2    1    2    0    0 -0.10388223297E+03 -0.97423276150E+02 -0.17280323801E+03  0.24147026905E+03  0.90355512864E+02 0.  0.
          5    1    3    3  502    0  0.10726635226E+03  0.95628434701E+02  0.27473053734E+02  0.14636635178E+03  0.41800000000E+01 0. -1.
         -5    1    3    3    0  502 -0.33841192872E+01  0.17948414495E+01 -0.43498391783E+02  0.43866344809E+02  0.41800000000E+01 0. -1.
        -11    1    4    4    0    0 -0.25656836535E+01 -0.20652145199E+02  0.63883836098E+01  0.21769365610E+02  0.00000000000E+00 0. -1.
         11    1    4    4    0    0 -0.10131654932E+03 -0.76771130951E+02 -0.17919162162E+03  0.21970090344E+03  0.00000000000E+00 0.  1.
</event>
<event>
 8    1  0.3708258E-009  0.1601416E+03  0.7561462E-02  0.1188537E+00
          1   -1    0    0  501    0  0.00000000000E+00  0.00000000000E+00  0.19028735602E+03  0.19028735602E+03  0.00000000000E+00 0. -1.
         -1   -1    0    0    0  501 -0.00000000000E+00 -0.00000000000E+00 -0.19149465242E+03  0.19149465242E+03  0.00000000000E+00 0.  1.
         25    2    1    2    0    0  0.15556037331E+02  0.14829608834E+03  0.49660709720E+02  0.20086767639E+03  0.12509163527E+03 0.  0.
         23    2    1    2    0    0 -0.15556037331E+02 -0.14829608834E+03 -0.50868006123E+02  0.18091433204E+03  0.88930992217E+02 0.  0.
          5    1    3    3  502    0 -0.26863717731E+02  0.11009178683E+03  0.77364275357E+02  0.13727550532E+03  0.41800000000E+01 0.  1.
         -5    1    3    3    0  502  0.42419755063E+02  0.38204301506E+02 -0.27703565637E+02  0.63592171076E+02  0.41800000000E+01 0.  1.
        -11    1    4    4    0    0 -0.14468567953E+02 -0.77480602502E+02  0.19372700670E+02  0.81165785612E+02  0.00000000000E+00 0. -1.
         11    1    4    4    0    0 -0.10874693784E+01 -0.70815485838E+02 -0.70240706793E+02  0.99748546430E+02  0.00000000000E+00 0.  1.
</event>
<event>
 8    1  0.3708258E-009  0.1038930E+03  0.7561462E-02  0.1272316E+00
         -2   -1    0    0    0  501 -0.00000000000E+00  0.00000000000E+00  0.13534733382E+03  0.13534733382E+03  0.00000000000E+00 0.  1.
          2   -1    0    0  501    0  0.00000000000E+00 -0.00000000000E+00 -0.10165161370E+03  0.10165161370E+03  0.00000000000E+00 0. -1.
         25    2    1    2    0    0 -0.35407722131E+02 -0.16749028003E+01  0.47442475116E+02  0.13839001545E+03  0.12507795907E+03 0.  0.
         23    2    1    2    0    0  0.35407722131E+02  0.16749028003E+01 -0.13746754994E+02  0.98608932072E+02  0.90984812610E+02 0.  0.
          5    1    3    3  502    0 -0.72470425030E+02 -0.27693434267E+02  0.50739167842E+02  0.92794527634E+02  0.41800000000E+01 0. -1.
         -5    1    3    3    0  502  0.37062702899E+02  0.26018531466E+02 -0.32966927262E+01  0.45595487811E+02  0.41800000000E+01 0. -1.
        -11    1    4    4    0    0  0.43223173338E+02 -0.29594897476E+02  0.15974400872E+02  0.54765702345E+02  0.00000000000E+00 0. -1.
         11    1    4    4    0    0 -0.78154512070E+01  0.31269800277E+02 -0.29721155866E+02  0.43843229728E+02  0.00000000000E+00 0.  1.
</event>
<event>
 8    1  0.3708258E-009  0.1780018E+03  0.7561462E-02  0.1169751E+00
         -2   -1    0    0    0  501 -0.00000000000E+00  0.00000000000E+00  0.29749546212E+02  0.29749546212E+02  0.00000000000E+00 0.  1.
          2   -1    0    0  501    0  0.00000000000E+00 -0.00000000000E+00 -0.13896891352E+04  0.13896891352E+04  0.00000000000E+00 0. -1.
         25    2    1    2    0    0  0.16669302052E+03 -0.23242353261E+02 -0.59747303710E+03  0.63320490940E+03  0.12509059578E+03 0.  0.
         23    2    1    2    0    0 -0.16669302052E+03  0.23242353261E+02 -0.76246655188E+03  0.78623377201E+03  0.92095230210E+02 0.  0.
          5    1    3    3  502    0  0.11541328854E+03 -0.17516792931E+02 -0.55224355701E+03  0.56446211907E+03  0.41800000000E+01 0. -1.
         -5    1    3    3    0  502  0.51279731981E+02 -0.57255603300E+01 -0.45229480089E+02  0.68742790329E+02  0.41800000000E+01 0. -1.
        -11    1    4    4    0    0 -0.70501422842E+02 -0.30976627171E+02 -0.23367627459E+03  0.24603780880E+03  0.00000000000E+00 0.  1.
         11    1    4    4    0    0 -0.96191597677E+02  0.54218980432E+02 -0.52879027729E+03  0.54019596320E+03  0.00000000000E+00 0. -1.
</event>
<event>
 8    1  0.3708258E-009  0.8422634E+02  0.7561462E-02  0.1317468E+00
         -2   -1    0    0    0  501 -0.00000000000E+00  0.00000000000E+00  0.13829900656E+03  0.13829900656E+03  0.00000000000E+00 0.  1.
          2   -1    0    0  501    0  0.00000000000E+00 -0.00000000000E+00 -0.10664582211E+03  0.10664582211E+03  0.00000000000E+00 0. -1.
         25    2    1    2    0    0 -0.16885735778E+02  0.36777757263E+02  0.53836290040E+02  0.14206707054E+03  0.12508786874E+03 0.  0.
         23    2    1    2    0    0  0.16885735778E+02 -0.36777757263E+02 -0.22183105591E+02  0.10287775813E+03  0.91945698337E+02 0.  0.
          5    1    3    3  502    0 -0.20734639216E+02 -0.32337916252E+02 -0.17640132396E+02  0.42477202849E+02  0.41800000000E+01 0. -1.
         -5    1    3    3    0  502  0.38489034383E+01  0.69115673515E+02  0.71476422436E+02  0.99589867694E+02  0.41800000000E+01 0. -1.
        -11    1    4    4    0    0 -0.15494323742E+02 -0.13905674423E+02  0.30510425633E+02  0.36936809847E+02  0.00000000000E+00 0.  1.
         11    1    4    4    0    0  0.32380059520E+02 -0.22872082840E+02 -0.52693531224E+02  0.65940948286E+02  0.00000000000E+00 0. -1.
</event>
<event>
 8    1  0.3708258E-009  0.1192728E+03  0.7561462E-02  0.1244301E+00
         -1   -1    0    0    0  501 -0.00000000000E+00  0.00000000000E+00  0.13698760596E+03  0.13698760596E+03  0.00000000000E+00 0.  1.
          1   -1    0    0  501    0  0.00000000000E+00 -0.00000000000E+00 -0.10894001153E+03  0.10894001153E+03  0.00000000000E+00 0. -1.
         25    2    1    2    0    0 -0.22898804850E+02  0.46721928073E+02  0.47307004682E+01  0.13556159032E+03  0.12508905394E+03 0.  0.
         23    2    1    2    0    0  0.22898804850E+02 -0.46721928073E+02  0.23316893955E+02  0.11036602717E+03  0.94497029498E+02 0.  0.
          5    1    3    3  502    0 -0.52721247019E+02 -0.22858931863E+02  0.13680585814E+02  0.59217324166E+02  0.41800000000E+01 0. -1.
         -5    1    3    3    0  502  0.29822442169E+02  0.69580859935E+02 -0.89498853459E+01  0.76344266150E+02  0.41800000000E+01 0. -1.
        -11    1    4    4    0    0 -0.32023538097E+02 -0.37681484067E+02 -0.13831388460E+01  0.49470337646E+02  0.00000000000E+00 0. -1.
         11    1    4    4    0    0  0.54922342948E+02 -0.90404440062E+01  0.24700032801E+02  0.60895689528E+02  0.00000000000E+00 0.  1.
</event>
<event>
 8    1  0.3708258E-009  0.2404458E+03  0.7561462E-02  0.1119496E+00
         -1   -1    0    0    0  501 -0.00000000000E+00  0.00000000000E+00  0.68280140241E+02  0.68280140241E+02  0.00000000000E+00 0.  1.
          1   -1    0    0  501    0  0.00000000000E+00 -0.00000000000E+00 -0.10026008332E+04  0.10026008332E+04  0.00000000000E+00 0. -1.
         25    2    1    2    0    0  0.20002624744E+03  0.10209597429E+03 -0.32193710089E+03  0.41197620431E+03  0.12508720300E+03 0.  0.
         23    2    1    2    0    0 -0.20002624744E+03 -0.10209597429E+03 -0.61238359204E+03  0.65890476911E+03  0.93315289813E+02 0.  0.
          5    1    3    3  502    0  0.10998127189E+03  0.73733688128E+01 -0.22025989402E+03  0.24633745157E+03  0.41800000000E+01 0.  1.
         -5    1    3    3    0  502  0.90044975547E+02  0.94722605481E+02 -0.10167720687E+03  0.16563875273E+03  0.41800000000E+01 0.  1.
        -11    1    4    4    0    0 -0.13820558531E+03 -0.11113589120E+03 -0.49696186403E+03  0.52765809424E+03  0.00000000000E+00 0.  1.
         11    1    4    4    0    0 -0.61820662134E+02  0.90399169012E+01 -0.11542172802E+03  0.13124667486E+03  0.00000000000E+00 0. -1.
</event>
<event>
 8    1  0.3708258E-009  0.1280224E+03  0.7561462E-02  0.1230420E+00
          1   -1    0    0  501    0  0.00000000000E+00  0.00000000000E+00  0.12051492439E+04  0.12051492439E+04  0.00000000000E+00 0. -1.
         -1   -1    0    0    0  501 -0.00000000000E+00 -0.00000000000E+00 -0.21835837259E+02  0.21835837259E+02  0.00000000000E+00 0.  1.
         25    2    1    2    0    0 -0.10510522574E+03 -0.43799274676E+02  0.77115253558E+03  0.78948674272E+03  0.12509036281E+03 0.  0.
         23    2    1    2    0    0  0.10510522574E+03  0.43799274676E+02  0.41216087104E+03  0.43749833842E+03  0.92535007200E+02 0.  0.
          5    1    3    3  502    0 -0.74657168180E+02 -0.21142480715E+02  0.72688788659E+03  0.73102952699E+03  0.41800000000E+01 0. -1.
         -5    1    3    3    0  502 -0.30448057560E+02 -0.22656793961E+02  0.44264648983E+02  0.58457215733E+02  0.41800000000E+01 0. -1.
        -11    1    4    4    0    0  0.57680344978E+02 -0.19656067672E+02  0.24576449092E+03  0.25320657217E+03  0.00000000000E+00 0.  1.
         11    1    4    4    0    0  0.47424880762E+02  0.63455342348E+02  0.16639638013E+03  0.18429176625E+03  0.00000000000E+00 0. -1.
</event>
<event>
 8    1  0.3708258E-009  0.1017797E+03  0.7561462E-02  0.1276597E+00
          2   -1    0    0  501    0  0.00000000000E+00  0.00000000000E+00  0.24543915705E+03  0.24543915705E+03  0.00000000000E+00 0.  1.
         -2   -1    0    0    0  501 -0.00000000000E+00 -0.00000000000E+00 -0.60774584514E+02  0.60774584514E+02  0.00000000000E+00 0. -1.
         25    2    1    2    0    0  0.13230541082E+02  0.51353573373E+02  0.12466665927E+03  0.18439621475E+03  0.12509177178E+03 0.  0.
         23    2    1    2    0    0 -0.13230541082E+02 -0.51353573373E+02  0.59997913270E+02  0.12181752681E+03  0.91801544251E+02 0.  0.
          5    1    3    3  502    0 -0.24774734109E+02 -0.95359551849E+01  0.10704893299E+03  0.11037059547E+03  0.41800000000E+01 0.  1.
         -5    1    3    3    0  502  0.38005275191E+02  0.60889528558E+02  0.17617726281E+02  0.74025619280E+02  0.41800000000E+01 0.  1.
        -11    1    4    4    0    0  0.94468689238E+01 -0.72897803509E+02  0.50297019991E+02  0.89068082436E+02  0.00000000000E+00 0. -1.
         11    1    4    4    0    0 -0.22677410006E+02  0.21544230135E+02  0.97008932797E+01  0.32749444379E+02  0.00000000000E+00 0.  1.
</event>
<event>
 8    1  0.3708258E-009  0.1073793E+03  0.7561462E-02  0.1265501E+00
          1   -1    0    0  501    0  0.00000000000E+00  0.00000000000E+00  0.14275987835E+04  0.14275987835E+04  0.00000000000E+00 0. -1.
         -1   -1    0    0    0  501 -0.00000000000E+00 -0.00000000000E+00 -0.11597615945E+02  0.11597615945E+02  0.00000000000E+00 0.  1.
         25    2    1    2    0    0 -0.36295743435E+02 -0.31837972537E+01  0.10992024508E+04  0.11068971607E+04  0.12509108274E+03 0.  0.
         23    2    1    2    0    0  0.36295743435E+02  0.31837972537E+01  0.31679871674E+03  0.33229923873E+03  0.93455013622E+02 0.  0.
          5    1    3    3  502    0 -0.67984943093E+02  0.24322198485E+02  0.40443564961E+03  0.41085178459E+03  0.41800000000E+01 0.  1.
         -5    1    3    3    0  502  0.31689199658E+02 -0.27505995738E+02  0.69476680118E+03  0.69604537611E+03  0.41800000000E+01 0.  1.
        -11    1    4    4    0    0  0.37183287165E+02 -0.41413948821E+02  0.18065742175E+03  0.18903654682E+03  0.00000000000E+00 0.  1.
         11    1    4    4    0    0 -0.88754372999E+00  0.44597746075E+02  0.13614129499E+03  0.14326269190E+03  0.00000000000E+00 0. -1.
</event>
<event>
 8    1  0.3708258E-009  0.9140463E+02  0.7561462E-02  0.1299485E+00
          2   -1    0    0  501    0  0.00000000000E+00  0.00000000000E+00  0.10281069328E+03  0.10281069328E+03  0.00000000000E+00 0. -1.
         -2   -1    0    0    0  501 -0.00000000000E+00 -0.00000000000E+00 -0.14662416586E+03  0.14662416586E+03  0.00000000000E+00 0.  1.
         25    2    1    2    0    0  0.72102539653E+01 -0.46716617224E+02  0.99209593871E+01  0.13408992370E+03  0.12508897679E+03 0.  0.
         23    2    1    2    0    0 -0.72102539653E+01  0.46716617224E+02 -0.53734431969E+02  0.11534493544E+03  0.90457917656E+02 0.  0.
          5    1    3    3  502    0 -0.29183425936E+02 -0.17367593754E+01  0.53787330624E+02  0.61361535331E+02  0.41800000000E+01 0.  1.
         -5    1    3    3    0  502  0.36393679901E+02 -0.44979857849E+02 -0.43866371237E+02  0.72728388366E+02  0.41800000000E+01 0.  1.
        -11    1    4    4    0    0 -0.42558847907E+02  0.88575409801E+01 -0.41960165765E+01  0.43672853382E+02  0.00000000000E+00 0.  1.
         11    1    4    4    0    0  0.35348593942E+02  0.37859076244E+02 -0.49538415392E+02  0.71672082063E+02  0.00000000000E+00 0. -1.
</event>
<event>
 8    1  0.3708258E-009  0.1260426E+03  0.7561462E-02  0.1233449E+00
         -1   -1    0    0    0  501 -0.00000000000E+00  0.00000000000E+00  0.16738801012E+02  0.16738801012E+02  0.00000000000E+00 0.  1.
          1   -1    0    0  501    0  0.00000000000E+00 -0.00000000000E+00 -0.15966709166E+04  0.15966709166E+04  0.00000000000E+00 0. -1.
         25    2    1    2    0    0 -0.93443497331E+02 -0.22705565537E+02 -0.12286885370E+04  0.12387782221E+04  0.12509489475E+03 0.  0.
         23    2    1    2    0    0  0.93443497331E+02  0.22705565537E+02 -0.35124357862E+03  0.37463149554E+03  0.87917438732E+02 0.  0.
          5    1    3    3  502    0  0.18270761372E+02  0.50093114523E+01 -0.39318035151E+02  0.43843975760E+02  0.41800000000E+01 0. -1.
         -5    1    3    3    0  502 -0.11171425870E+03 -0.27714876989E+02 -0.11893705019E+04  0.11949342463E+04  0.41800000000E+01 0. -1.
        -11    1    4    4    0    0  0.70086065730E+02 -0.16380215717E+02 -0.12852357939E+03  0.14730471321E+03  0.00000000000E+00 0.  1.
         11    1    4    4    0    0  0.23357431601E+02  0.39085781253E+02 -0.22271999923E+03  0.22732678233E+03  0.00000000000E+00 0. -1.
</event>
<event>
 8    1  0.3708258E-009  0.7618228E+02  0.7561462E-02  0.1340248E+00
         -1   -1    0    0    0  501 -0.00000000000E+00  0.00000000000E+00  0.40255656218E+03  0.40255656218E+03  0.00000000000E+00 0.  1.
          1   -1    0    0  501    0  0.00000000000E+00 -0.00000000000E+00 -0.32827420851E+02  0.32827420851E+02  0.00000000000E+00 0. -1.
         25    2    1    2    0    0  0.69512336722E+01  0.37896376911E+02  0.19992834994E+03  0.23896269624E+03  0.12508944822E+03 0.  0.
         23    2    1    2    0    0 -0.69512336722E+01 -0.37896376911E+02  0.16980079140E+03  0.19642128679E+03  0.90909615079E+02 0.  0.
          5    1    3    3  502    0  0.25519647434E+02  0.51970146075E+01  0.19938643880E+03  0.20112355840E+03  0.41800000000E+01 0.  1.
         -5    1    3    3    0  502 -0.18568413762E+02  0.32699362303E+02  0.54191113145E+00  0.37839137839E+02  0.41800000000E+01 0.  1.
        -11    1    4    4    0    0 -0.37317188211E+02 -0.43457975894E+02  0.62548103347E+02  0.84814111073E+02  0.00000000000E+00 0. -1.
         11    1    4    4    0    0  0.30365954538E+02  0.55615989833E+01  0.10725268805E+03  0.11160717572E+03  0.00000000000E+00 0.  1.
</event>
<event>
 8    1  0.3708258E-009  0.1291973E+03  0.7561462E-02  0.1228652E+00
         -1   -1    0    0    0  501 -0.00000000000E+00  0.00000000000E+00  0.28843149223E+03  0.28843149223E+03  0.00000000000E+00 0.  1.
          1   -1    0    0  501    0  0.00000000000E+00 -0.00000000000E+00 -0.64266996551E+02  0.64266996551E+02  0.00000000000E+00 0. -1.
         25    2    1    2    0    0 -0.73357593928E+02  0.30220957906E+02  0.12291625814E+03  0.19248679864E+03  0.12509243883E+03 0.  0.
         23    2    1    2    0    0  0.73357593928E+02 -0.30220957906E+02  0.10124823754E+03  0.16021169014E+03  0.95508832940E+02 0.  0.
          5    1    3    3  502    0  0.10543629856E+02  0.56465943671E+02  0.31728266556E+02  0.65755047136E+02  0.41800000000E+01 0.  1.
         -5    1    3    3    0  502 -0.83901223785E+02 -0.26244985765E+02  0.91187991584E+02  0.12673175150E+03  0.41800000000E+01 0.  1.
        -11    1    4    4    0    0  0.66196736781E+01  0.25191982827E+02  0.57359651816E+02  0.62996712095E+02  0.00000000000E+00 0.  1.
         11    1    4    4    0    0  0.66737920250E+02 -0.55412940732E+02  0.43888585726E+02  0.97214978048E+02  0.00000000000E+00 0. -1.
</event>
<event>
 8    1  0.3708258E-009  0.2157378E+03  0.7561462E-02  0.1137101E+00
          1   -1    0    0  501    0  0.00000000000E+00  0.00000000000E+00  0.18363759521E+03  0.18363759521E+03  0.00000000000E+00 0. -1.
         -1   -1    0    0    0  501 -0.00000000000E+00 -0.00000000000E+00 -0.34031049067E+03  0.34031049067E+03  0.00000000000E+00 0.  1.
         25    2    1    2    0    0 -0.15953819310E+03 -0.13354481542E+03 -0.16840634428E+03  0.29545682710E+03  0.12508951637E+03 0.  0.
         23    2    1    2    0    0  0.15953819310E+03  0.13354481542E+03  0.11733448822E+02  0.22849125878E+03  0.93722615935E+02 0.  0.
          5    1    3    3  502    0 -0.73461739815E+01 -0.64805536244E+01 -0.75886234605E+02  0.76629999673E+02  0.41800000000E+01 0. -1.
         -5    1    3    3    0  502 -0.15219201912E+03 -0.12706426180E+03 -0.92520109676E+02  0.21882682743E+03  0.41800000000E+01 0. -1.
        -11    1    4    4    0    0  0.12649178639E+03  0.14017955551E+03 -0.88090887088E+01  0.18901872884E+03  0.00000000000E+00 0.  1.
         11    1    4    4    0    0  0.33046406702E+02 -0.66347400912E+01  0.20542537531E+02  0.39472529944E+02  0.00000000000E+00 0. -1.
</event>
<event>
 8    1  0.3708258E-009  0.6979402E+02  0.7561462E-02  0.1360795E+00
          2   -1    0    0  501    0  0.00000000000E+00  0.00000000000E+00  0.14841124181E+03  0.14841124181E+03  0.00000000000E+00 0. -1.
         -2   -1    0    0    0  501 -0.00000000000E+00 -0.00000000000E+00 -0.93346497507E+02  0.93346497507E+02  0.00000000000E+00 0.  1.
         25    2    1    2    0    0 -0.22560484003E+02  0.36729847380E+02  0.43368095442E+02  0.13922938242E+03  0.12508386027E+03 0.  0.
         23    2    1    2    0    0  0.22560484003E+02 -0.36729847380E+02  0.11696648859E+02  0.10252835690E+03  0.92288651773E+02 0.  0.
          5    1    3    3  502    0  0.21027386739E+02  0.46410840460E+01 -0.36543992700E+02  0.42621901139E+02  0.41800000000E+01 0.  1.
         -5    1    3    3    0  502 -0.43587870742E+02  0.32088763334E+02  0.79912088142E+02  0.96607481280E+02  0.41800000000E+01 0.  1.
        -11    1    4    4    0    0 -0.93233520786E+01 -0.29134194177E+02  0.45897934393E+02  0.55157470445E+02  0.00000000000E+00 0. -1.
         11    1    4    4    0    0  0.31883836081E+02 -0.75956532027E+01 -0.34201285534E+02  0.47370886450E+02  0.00000000000E+00 0.  1.
</event>
<event>
 8    1  0.3708258E-009  0.1393005E+03  0.7561462E-02  0.1214273E+00
          2   -1    0    0  501    0  0.00000000000E+00  0.00000000000E+00  0.84357512761E+03  0.84357512761E+03  0.00000000000E+00 0. -1.
         -2   -1    0    0    0  501 -0.00000000000E+00 -0.00000000000E+00 -0.29861446653E+02  0.29861446653E+02  0.00000000000E+00 0.  1.
         25    2    1    2    0    0  0.97084339877E+02  0.63438020076E+02  0.45872334736E+03  0.48941289229E+03  0.12509243894E+03 0.  0.
         23    2    1    2    0    0 -0.97084339877E+02 -0.63438020076E+02  0.35499033360E+03  0.38402368198E+03  0.89477929866E+02 0.  0.
          5    1    3    3  502    0  0.78745573966E+02  0.10073523549E+02  0.40016155693E+03  0.40798172182E+03  0.41800000000E+01 0.  1.
         -5    1    3    3    0  502  0.18338765911E+02  0.53364496527E+02  0.58561790433E+02  0.81431170466E+02  0.41800000000E+01 0.  1.
        -11    1    4    4    0    0 -0.76712291415E+02 -0.86666260097E+00  0.14615367179E+03  0.16506490401E+03  0.00000000000E+00 0.  1.
         11    1    4    4    0    0 -0.20372048462E+02 -0.62571357475E+02  0.20883666181E+03  0.21895877798E+03  0.00000000000E+00 0. -1.
</event>
<event>
 8    1  0.3708258E-009  0.1177547E+03  0.7561462E-02  0.1246848E+00
         -1   -1    0    0    0  501 -0.00000000000E+00  0.00000000000E+00  0.37049894462E+02  0.37049894462E+02  0.00000000000E+00 0.  1.
          1   -1    0    0  501    0  0.00000000000E+00 -0.00000000000E+00 -0.50211803798E+03  0.50211803798E+03  0.00000000000E+00 0. -1.
         25    2    1    2    0    0  0.71689899174E+02  0.37977803760E+02 -0.29282585889E+03  0.32859699499E+03  0.12508895339E+03 0.  0.
         23    2    1    2    0    0 -0.71689899174E+02 -0.37977803760E+02 -0.17224228463E+03  0.21057093745E+03  0.89949762998E+02 0.  0.
          5    1    3    3  502    0 -0.31335074123E+02 -0.11407187101E+02 -0.50565429900E+02  0.60715285462E+02  0.41800000000E+01 0. -1.
         -5    1    3    3    0  502  0.10302497330E+03  0.49384990861E+02 -0.24226042899E+03  0.26788170953E+03  0.41800000000E+01 0. -1.
        -11    1    4    4    0    0 -0.48525546061E+02 -0.41862688964E+02 -0.17552120684E+03  0.18685531140E+03  0.00000000000E+00 0. -1.
         11    1    4    4    0    0 -0.23164353114E+02  0.38848852034E+01  0.32789222108E+01  0.23715626053E+02  0.00000000000E+00 0.  1.
</event>
<event>
 8    1  0.3708258E-009  0.1075686E+03  0.7561462E-02  0.1265140E+00
          2   -1    0    0  501    0  0.00000000000E+00  0.00000000000E+00  0.18852357626E+04  0.18852357626E+04  0.00000000000E+00 0. -1.
         -2   -1    0    0    0  501 -0.00000000000E+00 -0.00000000000E+00 -0.13800833744E+02  0.13800833744E+02  0.00000000000E+00 0.  1.
         25    2    1    2    0    0 -0.19983733605E+02  0.42067632120E+02  0.16482247152E+04  0.16536207299E+04  0.12509105241E+03 0.  0.
         23    2    1    2    0    0  0.19983733605E+02 -0.42067632120E+02  0.22321021364E+03  0.24541586640E+03  0.90758540773E+02 0.  0.
          5    1    3    3  502    0  0.15163002620E+02 -0.30189813155E+02  0.17985263845E+03  0.18304585607E+03  0.41800000000E+01 0. -1.
         -5    1    3    3    0  502 -0.35146736225E+02  0.72257445275E+02  0.14683720767E+04  0.14705748738E+04  0.41800000000E+01 0. -1.
        -11    1    4    4    0    0  0.53291502660E+02 -0.96538702053E+01  0.13992073529E+03  0.15003664096E+03  0.00000000000E+00 0. -1.
         11    1    4    4    0    0 -0.33307769055E+02 -0.32413761914E+02  0.83289478355E+02  0.95379225440E+02  0.00000000000E+00 0.  1.
</event>
<event>
 8    1  0.3708258E-009  0.1260860E+03  0.7561462E-02  0.1233382E+00
          1   -1    0    0  501    0  0.00000000000E+00  0.00000000000E+00  0.56639599762E+03  0.56639599762E+03  0.00000000000E+00 0. -1.
         -1   -1    0    0    0  501 -0.00000000000E+00 -0.00000000000E+00 -0.34423841023E+02  0.34423841023E+02  0.00000000000E+00 0.  1.
         25    2    1    2    0    0 -0.42463661093E+02  0.69414735907E+02  0.22501307380E+03  0.27000005526E+03  0.12509028094E+03 0.  0.
         23    2    1    2    0    0  0.42463661093E+02 -0.69414735907E+02  0.30695908280E+03  0.33081978338E+03  0.92716139331E+02 0.  0.
          5    1    3    3  502    0 -0.59375932200E+02  0.88897820581E+02  0.21815992371E+03  0.24298055178E+03  0.41800000000E+01 0.  1.
         -5    1    3    3    0  502  0.16912271107E+02 -0.19483084674E+02  0.68531500936E+01  0.27019503486E+02  0.41800000000E+01 0.  1.
        -11    1    4    4    0    0  0.13141822076E+02  0.20569906228E+02  0.10478264787E+03  0.10758825133E+03  0.00000000000E+00 0. -1.
         11    1    4    4    0    0  0.29321839017E+02 -0.89984642135E+02  0.20217643493E+03  0.22323153206E+03  0.00000000000E+00 0.  1.
</event>
<event>
 8    1  0.3708258E-009  0.7712884E+02  0.7561462E-02  0.1337403E+00
         -2   -1    0    0    0  501 -0.00000000000E+00  0.00000000000E+00  0.61575802699E+02  0.61575802699E+02  0.00000000000E+00 0.  1.
          2   -1    0    0  501    0  0.00000000000E+00 -0.00000000000E+00 -0.31888652829E+03  0.31888652829E+03  0.00000000000E+00 0. -1.
         25    2    1    2    0    0  0.26490065306E+02  0.45730118831E+01 -0.25513320120E+03  0.28541692928E+03  0.12508891705E+03 0.  0.
         23    2    1    2    0    0 -0.26490065306E+02 -0.45730118831E+01 -0.21775243973E+01  0.95045401713E+02  0.91138634929E+02 0.  0.
          5    1    3    3  502    0  0.47077203561E+02 -0.47898304793E+02 -0.10210111885E+03  0.12228091252E+03  0.41800000000E+01 0.  1.
         -5    1    3    3    0  502 -0.20587138255E+02  0.52471316676E+02 -0.15303208235E+03  0.16313601675E+03  0.41800000000E+01 0.  1.
        -11    1    4    4    0    0 -0.16574269415E+02 -0.97827740086E+01 -0.45973646527E+02  0.49839595193E+02  0.00000000000E+00 0. -1.
         11    1    4    4    0    0 -0.99157958910E+01  0.52097621255E+01  0.43796122130E+02  0.45205806521E+02  0.00000000000E+00 0.  1.
</event>
<event>
 8    1  0.3708258E-009  0.1189204E+03  0.7561462E-02  0.1244889E+00
         -1   -1    0    0    0  501 -0.00000000000E+00  0.00000000000E+00  0.54764859767E+03  0.54764859767E+03  0.00000000000E+00 0.  1.
          1   -1    0    0  501    0  0.00000000000E+00 -0.00000000000E+00 -0.32116017765E+02  0.32116017765E+02  0.00000000000E+00 0. -1.
         25    2    1    2    0    0 -0.66271986221E+02  0.23985884190E+02  0.21603692814E+03  0.25939859477E+03  0.12509347644E+03 0.  0.
         23    2    1    2    0    0  0.66271986221E+02 -0.23985884190E+02  0.29949565176E+03  0.32036602066E+03  0.89271736718E+02 0.  0.
          5    1    3    3  502    0 -0.41748100048E+02 -0.38579810850E+02  0.16599583679E+03  0.17550896244E+03  0.41800000000E+01 0.  1.
         -5    1    3    3    0  502 -0.24523886173E+02  0.62565695040E+02  0.50041091351E+02  0.83889632330E+02  0.41800000000E+01 0.  1.
        -11    1    4    4    0    0  0.23181606439E+02 -0.55487478990E+02  0.14852350311E+03  0.16023569571E+03  0.00000000000E+00 0.  1.
         11    1    4    4    0    0  0.43090379782E+02  0.31501594799E+02  0.15097214865E+03  0.16013032496E+03  0.00000000000E+00 0. -1.
</event>
<event>
 8    1  0.3708258E-009  0.1704636E+03  0.7561462E-02  0.1177365E+00
         -1   -1    0    0    0  501 -0.00000000000E+00  0.00000000000E+00  0.21420684257E+03  0.21420684257E+03  0.00000000000E+00 0.  1.
          1   -1    0    0  501    0  0.00000000000E+00 -0.00000000000E+00 -0.18391665599E+03  0.18391665599E+03  0.00000000000E+00 0. -1.
         25    2    1    2    0    0  0.81733366496E+02 -0.12689841873E+03  0.86737269154E+02  0.21436748189E+03  0.12508601663E+03 0.  0.
         23    2    1    2    0    0 -0.81733366496E+02  0.12689841873E+03 -0.56447082582E+02  0.18375601667E+03  0.88297500834E+02 0.  0.
          5    1    3    3  502    0  0.76961785989E+02 -0.13558593673E+03  0.32807344023E+02  0.15937520812E+03  0.41800000000E+01 0.  1.
         -5    1    3    3    0  502  0.47715805060E+01  0.86875180014E+01  0.53929925131E+02  0.54992273768E+02  0.41800000000E+01 0.  1.
        -11    1    4    4    0    0 -0.83408488923E+02  0.13893855115E+03 -0.48207427564E+02  0.16907055655E+03  0.00000000000E+00 0.  1.
         11    1    4    4    0    0  0.16751224272E+01 -0.12040132422E+02 -0.82396550184E+01  0.14685460112E+02  0.00000000000E+00 0. -1.
</event>
<event>
 8    1  0.3708258E-009  0.8971022E+02  0.7561462E-02  0.1303555E+00
          3   -1    0    0  501    0  0.00000000000E+00  0.00000000000E+00  0.15450259618E+03  0.15450259618E+03  0.00000000000E+00 0. -1.
         -3   -1    0    0    0  501 -0.00000000000E+00 -0.00000000000E+00 -0.90946738054E+02  0.90946738054E+02  0.00000000000E+00 0.  1.
         25    2    1    2    0    0  0.74000745204E+01 -0.47061637597E+02  0.16126932851E+02  0.13482519431E+03  0.12509275048E+03 0.  0.
         23    2    1    2    0    0 -0.74000745204E+01  0.47061637597E+02  0.47428925279E+02  0.11062413993E+03  0.87855782649E+02 0.  0.
          5    1    3    3  502    0 -0.48996227417E+02 -0.29839975595E+02 -0.25096100588E+02  0.62756203752E+02  0.41800000000E+01 0. -1.
         -5    1    3    3    0  502  0.56396301937E+02 -0.17221662003E+02  0.41223033439E+02  0.72068990559E+02  0.41800000000E+01 0. -1.
        -11    1    4    4    0    0 -0.22640079575E+02  0.14641380363E+02 -0.20471541586E+02  0.33853024045E+02  0.00000000000E+00 0.  1.
         11    1    4    4    0    0  0.15240005054E+02  0.32420257234E+02  0.67900466865E+02  0.76771115881E+02  0.00000000000E+00 0. -1.
</event>
<event>
 8    1  0.3708258E-009  0.2029228E+03  0.7561462E-02  0.1147296E+00
         -1   -1    0    0    0  501 -0.00000000000E+00  0.00000000000E+00  0.81059123309E+02  0.81059123309E+02  0.00000000000E+00 0.  1.
          1   -1    0    0  501    0  0.00000000000E+00 -0.00000000000E+00 -0.61245774255E+03  0.61245774255E+03  0.00000000000E+00 0. -1.
         25    2    1    2    0    0 -0.14314984129E+03  0.96289127713E+02 -0.13748853320E+03  0.25360236797E+03  0.12509033177E+03 0.  0.
         23    2    1    2    0    0  0.14314984129E+03 -0.96289127713E+02 -0.39391008604E+03  0.43991449789E+03  0.92715351427E+02 0.  0.
          5    1    3    3  502    0 -0.41863881636E+02 -0.27293724943E+02 -0.52374797896E+02  0.72512922031E+02  0.41800000000E+01 0.  1.
         -5    1    3    3    0  502 -0.10128595965E+03  0.12358285266E+03 -0.85113735305E+02  0.18108944594E+03  0.41800000000E+01 0.  1.
        -11    1    4    4    0    0  0.24667690963E+02 -0.70373680324E+02 -0.14928141736E+03  0.16687088251E+03  0.00000000000E+00 0. -1.
         11    1    4    4    0    0  0.11848215033E+03 -0.25915447389E+02 -0.24462866868E+03  0.27304361538E+03  0.00000000000E+00 0.  1.
</event>
<event>
 8    1  0.3708258E-009  0.1587010E+03  0.7561462E-02  0.1190171E+00
         -2   -1    0    0    0  501 -0.00000000000E+00  0.00000000000E+00  0.25458207810E+02  0.25458207810E+02  0.00000000000E+00 0. -1.
          2   -1    0    0  501    0  0.00000000000E+00 -0.00000000000E+00 -0.10469598210E+04  0.10469598210E+04  0.00000000000E+00 0.  1.
         25    2    1    2    0    0 -0.80404492760E+02 -0.91109259426E+02 -0.54458311845E+03  0.57182488018E+03  0.12508853301E+03 0.  0.
         23    2    1    2    0    0  0.80404492760E+02  0.91109259426E+02 -0.47691849477E+03  0.50059314865E+03  0.91523058386E+02 0.  0.
          5    1    3    3  502    0 -0.99907579544E+02 -0.10844580274E+03 -0.47570529648E+03  0.49805122034E+03  0.41800000000E+01 0. -1.
         -5    1    3    3    0  502  0.19503086783E+02  0.17336543309E+02 -0.68877821969E+02  0.73773659847E+02  0.41800000000E+01 0. -1.
        -11    1    4    4    0    0  0.47489362158E+02  0.98836667264E+02 -0.42274539532E+03  0.43673515496E+03  0.00000000000E+00 0.  1.
         11    1    4    4    0    0  0.32915130603E+02 -0.77274078380E+01 -0.54173099447E+02  0.63857993690E+02  0.00000000000E+00 0. -1.
</event>
<event>
 8    1  0.3708258E-009  0.1498735E+03  0.7561462E-02  0.1200629E+00
          1   -1    0    0  501    0  0.00000000000E+00  0.00000000000E+00  0.23500656233E+03  0.23500656233E+03  0.00000000000E+00 0. -1.
         -1   -1    0    0    0  501 -0.00000000000E+00 -0.00000000000E+00 -0.14327856947E+03  0.14327856947E+03  0.00000000000E+00 0.  1.
         25    2    1    2    0    0  0.11053554339E+03 -0.29644937964E+02  0.14342370467E+03  0.22207201361E+03  0.12509472999E+03 0.  0.
         23    2    1    2    0    0 -0.11053554339E+03  0.29644937964E+02 -0.51695711806E+02  0.15621311819E+03  0.92914815698E+02 0.  0.
          5    1    3    3  502    0  0.11042045469E+03 -0.60855393193E+02  0.14285041362E+03  0.19057746133E+03  0.41800000000E+01 0.  1.
         -5    1    3    3    0  502  0.11508869706E+00  0.31210455229E+02  0.57329104877E+00  0.31494552286E+02  0.41800000000E+01 0.  1.
        -11    1    4    4    0    0 -0.81193595816E+02 -0.20741924971E+02 -0.50604831506E+02  0.97895231880E+02  0.00000000000E+00 0.  1.
         11    1    4    4    0    0 -0.29341947570E+02  0.50386862934E+02 -0.10908802998E+01  0.58317886307E+02  0.00000000000E+00 0. -1.
</event>
<event>
 8    1  0.3708258E-009  0.3825986E+03  0.7561462E-02  0.1049977E+00
         -2   -1    0    0    0  501 -0.00000000000E+00  0.00000000000E+00  0.15173813522E+03  0.15173813522E+03  0.00000000000E+00 0.  1.
          2   -1    0    0  501    0  0.00000000000E+00 -0.00000000000E+00 -0.11783751573E+04  0.11783751573E+04  0.00000000000E+00 0. -1.
         25    2    1    2    0    0  0.22137388693E+03  0.30538539873E+03 -0.76481395741E+03  0.86188851928E+03  0.12507913756E+03 0.  0.
         23    2    1    2    0    0 -0.22137388693E+03 -0.30538539873E+03 -0.26182306469E+03  0.46822477326E+03  0.91741383868E+02 0.  0.
          5    1    3    3  502    0  0.15374265181E+03  0.19488251883E+03 -0.61821727509E+03  0.66620272496E+03  0.41800000000E+01 0. -1.
         -5    1    3    3    0  502  0.67631235126E+02  0.11050287990E+03 -0.14659668232E+03  0.19568579432E+03  0.41800000000E+01 0. -1.
        -11    1    4    4    0    0 -0.19241525694E+03 -0.19801025223E+03 -0.17224016450E+03  0.32542029033E+03  0.00000000000E+00 0.  1.
         11    1    4    4    0    0 -0.28958629990E+02 -0.10737514650E+03 -0.89582900186E+02  0.14280448293E+03  0.00000000000E+00 0. -1.
</event>
<event>
 8    1  0.3708258E-009  0.3058778E+03  0.7561462E-02  0.1082339E+00
          4   -1    0    0  501    0  0.00000000000E+00  0.00000000000E+00  0.80194993898E+03  0.80194993898E+03  0.00000000000E+00 0. -1.
         -4   -1    0    0    0  501 -0.00000000000E+00 -0.00000000000E+00 -0.12474065819E+03  0.12474065819E+03  0.00000000000E+00 0.  1.
         25    2    1    2    0    0  0.13906119183E+03 -0.25368128502E+03  0.24750394073E+03  0.40074654220E+03  0.12508949184E+03 0.  0.
         23    2    1    2    0    0 -0.13906119183E+03  0.25368128502E+03  0.42970534007E+03  0.52594405496E+03  0.90984945018E+02 0.  0.
          5    1    3    3  502    0 -0.76190515074E+01  0.94393080798E+01  0.17564267342E+02  0.21751468230E+02  0.41800000000E+01 0.  1.
         -5    1    3    3    0  502  0.14668024334E+03 -0.26312059310E+03  0.22993967338E+03  0.37899507397E+03  0.41800000000E+01 0.  1.
        -11    1    4    4    0    0 -0.11920585108E+03  0.25066963703E+03  0.42050392129E+03  0.50385399639E+03  0.00000000000E+00 0. -1.
         11    1    4    4    0    0 -0.19855340753E+02  0.30116479926E+01  0.92014187820E+01  0.22090058570E+02  0.00000000000E+00 0.  1.
</event>
<event>
 8    1  0.3708258E-009  0.1513490E+03  0.7561462E-02  0.1198825E+00
         -2   -1    0    0    0  501 -0.00000000000E+00  0.00000000000E+00  0.56659679233E+02  0.56659679233E+02  0.00000000000E+00 0.  1.
          2   -1    0    0  501    0  0.00000000000E+00 -0.00000000000E+00 -0.43123544998E+03  0.43123544998E+03  0.00000000000E+00 0. -1.
         25    2    1    2    0    0  0.80566229306E+02  0.73430061878E+02 -0.16200382451E+03  0.23189734531E+03  0.12509295868E+03 0.  0.
         23    2    1    2    0    0 -0.80566229306E+02 -0.73430061878E+02 -0.21257194623E+03  0.25599778390E+03  0.92006204936E+02 0.  0.
          5    1    3    3  502    0 -0.24567936807E+01  0.82143605030E+02 -0.77386144290E+02  0.11295882175E+03  0.41800000000E+01 0. -1.
         -5    1    3    3    0  502  0.83023022987E+02 -0.87135431528E+01 -0.84617680225E+02  0.11893852356E+03  0.41800000000E+01 0. -1.
        -11    1    4    4    0    0 -0.37435429449E+02 -0.84394959005E+02 -0.17455588980E+03  0.19746817249E+03  0.00000000000E+00 0.  1.
         11    1    4    4    0    0 -0.43130799857E+02  0.10964897127E+02 -0.38016056432E+02  0.58529611412E+02  0.00000000000E+00 0. -1.
</event>
<event>
 8    1  0.3708258E-009  0.2139136E+03  0.7561462E-02  0.1138504E+00
          4   -1    0    0  501    0  0.00000000000E+00  0.00000000000E+00  0.75198874635E+02  0.75198874635E+02  0.00000000000E+00 0. -1.
         -4   -1    0    0    0  501 -0.00000000000E+00 -0.00000000000E+00 -0.77613800339E+03  0.77613800339E+03  0.00000000000E+00 0.  1.
         25    2    1    2    0    0 -0.20129310890E+03 -0.16496968137E+02 -0.22920906749E+03  0.33011450051E+03  0.12509085172E+03 0.  0.
         23    2    1    2    0    0  0.20129310890E+03  0.16496968137E+02 -0.47173006127E+03  0.52122237752E+03  0.91391741784E+02 0.  0.
          5    1    3    3  502    0  0.76022814059E+01  0.97419469761E+01 -0.55861366164E+02  0.57364316811E+02  0.41800000000E+01 0.  1.
         -5    1    3    3    0  502 -0.20889539030E+03 -0.26238915114E+02 -0.17334770132E+03  0.27275018370E+03  0.41800000000E+01 0.  1.
        -11    1    4    4    0    0  0.11901830161E+03 -0.51475385357E+01 -0.36946930860E+03  0.38820023604E+03  0.00000000000E+00 0. -1.
         11    1    4    4    0    0  0.82274807286E+02  0.21644506673E+02 -0.10226075268E+03  0.13302214147E+03  0.00000000000E+00 0.  1.
</event>
<event>
 8    1  0.3708258E-009  0.1290517E+03  0.7561462E-02  0.1228870E+00
          2   -1    0    0  501    0  0.00000000000E+00  0.00000000000E+00  0.47683768422E+03  0.47683768422E+03  0.00000000000E+00 0. -1.
         -2   -1    0    0    0  501 -0.00000000000E+00 -0.00000000000E+00 -0.41986858876E+02  0.41986858876E+02  0.00000000000E+00 0.  1.
         25    2    1    2    0    0 -0.55480968881E+02  0.64587981076E+02  0.19998403739E+03  0.25077735528E+03  0.12508365803E+03 0.  0.
         23    2    1    2    0    0  0.55480968881E+02 -0.64587981076E+02  0.23486678796E+03  0.26804718781E+03  0.97144951496E+02 0.  0.
          5    1    3    3  502    0 -0.12011188313E+02 -0.30054565218E+02  0.10091858848E+02  0.34159384511E+02  0.41800000000E+01 0. -1.
         -5    1    3    3    0  502 -0.43469780568E+02  0.94642546294E+02  0.18989217854E+03  0.21661797077E+03  0.41800000000E+01 0. -1.
        -11    1    4    4    0    0  0.53863934817E+02  0.26980312958E+01  0.15203949383E+03  0.16132145093E+03  0.00000000000E+00 0. -1.
         11    1    4    4    0    0  0.16170340643E+01 -0.67286012372E+02  0.82827294126E+02  0.10672573688E+03  0.00000000000E+00 0.  1.
</event>
<event>
 8    1  0.3708258E-009  0.4577247E+02  0.7561462E-02  0.1469576E+00
         -1   -1    0    0    0  501 -0.00000000000E+00  0.00000000000E+00  0.92928966949E+02  0.92928966949E+02  0.00000000000E+00 0.  1.
          1   -1    0    0  501    0  0.00000000000E+00 -0.00000000000E+00 -0.16140964462E+03  0.16140964462E+03  0.00000000000E+00 0. -1.
         25    2    1    2    0    0  0.18354466645E+02 -0.18770921666E-01 -0.10215706544E+03  0.16254195630E+03  0.12508770819E+03 0.  0.
         23    2    1    2    0    0 -0.18354466645E+02  0.18770921666E-01  0.33676387775E+02  0.91796655264E+02  0.83400479770E+02 0.  0.
          5    1    3    3  502    0 -0.85280988492E+00  0.51559200562E+01  0.29029059643E+02  0.29790426316E+02  0.41800000000E+01 0.  1.
         -5    1    3    3    0  502  0.19207276530E+02 -0.51746909778E+01 -0.13118612509E+03  0.13275152999E+03  0.41800000000E+01 0.  1.
        -11    1    4    4    0    0 -0.27448833794E+02 -0.25481296092E+02  0.48226129998E+02  0.61061399769E+02  0.00000000000E+00 0. -1.
         11    1    4    4    0    0  0.90943671493E+01  0.25500067014E+02 -0.14549742223E+02  0.30735255494E+02  0.00000000000E+00 0.  1.
</event>
<event>
 8    1  0.3708258E-009  0.1195185E+03  0.7561462E-02  0.1243894E+00
          1   -1    0    0  501    0  0.00000000000E+00  0.00000000000E+00  0.18557933644E+03  0.18557933644E+03  0.00000000000E+00 0. -1.
         -1   -1    0    0    0  501 -0.00000000000E+00 -0.00000000000E+00 -0.83418493711E+02  0.83418493711E+02  0.00000000000E+00 0.  1.
         25    2    1    2    0    0  0.21160588782E+01 -0.59740712842E+02  0.47555544373E+02  0.14656970867E+03  0.12509084388E+03 0.  0.
         23    2    1    2    0    0 -0.21160588782E+01  0.59740712842E+02  0.54605298359E+02  0.12242812149E+03  0.91833958020E+02 0.  0.
          5    1    3    3  502    0 -0.96942369813E+01  0.33953165838E+02  0.37227084636E+02  0.51479354421E+02  0.41800000000E+01 0. -1.
         -5    1    3    3    0  502  0.11810295860E+02 -0.93693878679E+02  0.10328459737E+02  0.95090354247E+02  0.41800000000E+01 0. -1.
        -11    1    4    4    0    0  0.43933414047E+02  0.37739534489E+02  0.22500354936E+02  0.62134397120E+02  0.00000000000E+00 0.  1.
         11    1    4    4    0    0 -0.46049472925E+02  0.22001178353E+02  0.32104943423E+02  0.60293724365E+02  0.00000000000E+00 0. -1.
</event>
<event>
 8    1  0.3708258E-009  0.1064234E+03  0.7561462E-02  0.1267340E+00
         -2   -1    0    0    0  501 -0.00000000000E+00  0.00000000000E+00  0.11787021631E+03  0.11787021631E+03  0.00000000000E+00 0.  1.
          2   -1    0    0  501    0  0.00000000000E+00 -0.00000000000E+00 -0.12401354849E+03  0.12401354849E+03  0.00000000000E+00 0. -1.
         25    2    1    2    0    0 -0.51342318695E+02  0.10549461569E+02  0.20850686492E+01  0.13563077721E+03  0.12507611837E+03 0.  0.
         23    2    1    2    0    0  0.51342318695E+02 -0.10549461569E+02 -0.82284008204E+01  0.10625298759E+03  0.92057948939E+02 0.  0.
          5    1    3    3  502    0  0.31852402698E+02 -0.15534646893E+02  0.27123521524E+02  0.44822523708E+02  0.41800000000E+01 0.  1.
         -5    1    3    3    0  502 -0.83194721393E+02  0.26084108463E+02 -0.25038452875E+02  0.90808253503E+02  0.41800000000E+01 0.  1.
        -11    1    4    4    0    0  0.49680165464E+02  0.24077617216E+02 -0.32380109786E+02  0.64002515584E+02  0.00000000000E+00 0.  1.
         11    1    4    4    0    0  0.16621532314E+01 -0.34627078785E+02  0.24151708965E+02  0.42250472003E+02  0.00000000000E+00 0. -1.
</event>
<event>
 8    1  0.3708258E-009  0.1756182E+03  0.7561462E-02  0.1172112E+00
          2   -1    0    0  501    0  0.00000000000E+00  0.00000000000E+00  0.17087053257E+03  0.17087053257E+03  0.00000000000E+00 0. -1.
         -2   -1    0    0    0  501 -0.00000000000E+00 -0.00000000000E+00 -0.21380231311E+03  0.21380231311E+03  0.00000000000E+00 0.  1.
         25    2    1    2    0    0 -0.27362354164E+02  0.14049237431E+03 -0.89677747547E+02  0.21018237809E+03  0.12509087892E+03 0.  0.
         23    2    1    2    0    0  0.27362354164E+02 -0.14049237431E+03  0.46745967010E+02  0.17449046759E+03  0.88175575889E+02 0.  0.
          5    1    3    3  502    0 -0.25599954647E+02  0.16120106605E+03 -0.60515017754E+02  0.17412834677E+03  0.41800000000E+01 0. -1.
         -5    1    3    3    0  502 -0.17623995166E+01 -0.20708691740E+02 -0.29162729793E+02  0.36054031322E+02  0.41800000000E+01 0. -1.
        -11    1    4    4    0    0 -0.30918263215E+02 -0.58485788954E+02  0.78203852895E+01  0.66615951062E+02  0.00000000000E+00 0.  1.
         11    1    4    4    0    0  0.58280617379E+02 -0.82006585355E+02  0.38925581720E+02  0.10787451653E+03  0.00000000000E+00 0. -1.
</event>
<event>
 8    1  0.3708258E-009  0.1369163E+03  0.7561462E-02  0.1217540E+00
         -2   -1    0    0    0  501 -0.00000000000E+00  0.00000000000E+00  0.55515402790E+02  0.55515402790E+02  0.00000000000E+00 0.  1.
          2   -1    0    0  501    0  0.00000000000E+00 -0.00000000000E+00 -0.40047218181E+03  0.40047218181E+03  0.00000000000E+00 0. -1.
         25    2    1    2    0    0 -0.37428861969E+02 -0.90327758421E+02 -0.14099919430E+03  0.21234717705E+03  0.12510206695E+03 0.  0.
         23    2    1    2    0    0  0.37428861969E+02  0.90327758421E+02 -0.20395758472E+03  0.24364040755E+03  0.90564497341E+02 0.  0.
          5    1    3    3  502    0 -0.40941507985E+02 -0.11724666931E+03 -0.86764506271E+02  0.15155375445E+03  0.41800000000E+01 0.  1.
         -5    1    3    3    0  502  0.35126460153E+01  0.26918910884E+02 -0.54234688031E+02  0.60793422597E+02  0.41800000000E+01 0.  1.
        -11    1    4    4    0    0  0.58701334956E+02  0.52727580073E+02 -0.79978993616E+02  0.11235071805E+03  0.00000000000E+00 0.  1.
         11    1    4    4    0    0 -0.21272472986E+02  0.37600178348E+02 -0.12397859110E+03  0.13128968950E+03  0.00000000000E+00 0. -1.
</event>
<event>
 8    1  0.3708258E-009  0.1739864E+03  0.7561462E-02  0.1173753E+00
          1   -1    0    0  501    0  0.00000000000E+00  0.00000000000E+00  0.12108887613E+03  0.12108887613E+03  0.00000000000E+00 0. -1.
         -1   -1    0    0    0  501 -0.00000000000E+00 -0.00000000000E+00 -0.27267719019E+03  0.27267719019E+03  0.00000000000E+00 0.  1.
         25    2    1    2    0    0  0.78715649497E+02  0.11259306038E+03 -0.13015804044E+03  0.22685207356E+03  0.12508955617E+03 0.  0.
         23    2    1    2    0    0 -0.78715649497E+02 -0.11259306038E+03 -0.21430273610E+02  0.16691399276E+03  0.92345403953E+02 0.  0.
          5    1    3    3  502    0  0.17061991109E+02  0.12202832650E+03 -0.86359648833E+02  0.15052403581E+03  0.41800000000E+01 0. -1.
         -5    1    3    3    0  502  0.61653658388E+02 -0.94352661163E+01 -0.43798391609E+02  0.76328037751E+02  0.41800000000E+01 0. -1.
        -11    1    4    4    0    0  0.18224301154E+02 -0.90928957605E+01  0.83504895504E+01  0.22012191658E+02  0.00000000000E+00 0. -1.
         11    1    4    4    0    0 -0.96939950651E+02 -0.10350016462E+03 -0.29780763160E+02  0.14490180110E+03  0.00000000000E+00 0.  1.
</event>
<event>
 8    1  0.3708258E-009  0.1175537E+03  0.7561462E-02  0.1247188E+00
         -1   -1    0    0    0  501 -0.00000000000E+00  0.00000000000E+00  0.40707394313E+02  0.40707394313E+02  0.00000000000E+00 0.  1.
          1   -1    0    0  501    0  0.00000000000E+00 -0.00000000000E+00 -0.50522585983E+03  0.50522585983E+03  0.00000000000E+00 0. -1.
         25    2    1    2    0    0  0.75515195303E+02  0.54000613403E+02 -0.28199805618E+03  0.32216256445E+03  0.12508878156E+03 0.  0.
         23    2    1    2    0    0 -0.75515195303E+02 -0.54000613403E+02 -0.18252040934E+03  0.22377068969E+03  0.90227549961E+02 0.  0.
          5    1    3    3  502    0  0.83400049998E+02  0.62550971205E+02 -0.11724278089E+03  0.15694436724E+03  0.41800000000E+01 0. -1.
         -5    1    3    3    0  502 -0.78848546951E+01 -0.85503578019E+01 -0.16475527529E+03  0.16521819721E+03  0.41800000000E+01 0. -1.
        -11    1    4    4    0    0  0.14931983694E+02 -0.72628167723E+01 -0.22749359681E+01  0.16759712950E+02  0.00000000000E+00 0.  1.
         11    1    4    4    0    0 -0.90447178997E+02 -0.46737796630E+02 -0.18024547337E+03  0.20701097674E+03  0.00000000000E+00 0. -1.
</event>
<event>
 8    1  0.3708258E-009  0.1157132E+03  0.7561462E-02  0.1250341E+00
         -2   -1    0    0    0  501 -0.00000000000E+00  0.00000000000E+00  0.31301272870E+02  0.31301272870E+02  0.00000000000E+00 0.  1.
          2   -1    0    0  501    0  0.00000000000E+00 -0.00000000000E+00 -0.55005910414E+03  0.55005910414E+03  0.00000000000E+00 0. -1.
         25    2    1    2    0    0  0.51650378591E+02 -0.43432018124E+02 -0.35971501680E+03  0.38677827400E+03  0.12509371735E+03 0.  0.
         23    2    1    2    0    0 -0.51650378591E+02  0.43432018124E+02 -0.15904281447E+03  0.19458210301E+03  0.89518021482E+02 0.  0.
          5    1    3    3  502    0 -0.14456647145E+02  0.32415988980E+02 -0.52741308505E+02  0.63709567657E+02  0.41800000000E+01 0.  1.
         -5    1    3    3    0  502  0.66107025736E+02 -0.75848007104E+02 -0.30697370830E+03  0.32306870634E+03  0.41800000000E+01 0.  1.
        -11    1    4    4    0    0 -0.51592261721E+02  0.36895651598E-01 -0.32914724861E+02  0.61197564850E+02  0.00000000000E+00 0.  1.
         11    1    4    4    0    0 -0.58116869494E-01  0.43395122472E+02 -0.12612808960E+03  0.13338453816E+03  0.00000000000E+00 0. -1.
</event>
<event>
 8    1  0.3708258E-009  0.9080636E+02  0.7561462E-02  0.1300911E+00
          2   -1    0    0  501    0  0.00000000000E+00  0.00000000000E+00  0.10509671431E+03  0.10509671431E+03  0.00000000000E+00 0.  1.
         -2   -1    0    0    0  501 -0.00000000000E+00 -0.00000000000E+00 -0.17366397404E+03  0.17366397404E+03  0.00000000000E+00 0. -1.
         25    2    1    2    0    0  0.15725782150E+02 -0.14683714772E+02 -0.11787248213E+03  0.17321989418E+03  0.12509315726E+03 0.  0.
         23    2    1    2    0    0 -0.15725782150E+02  0.14683714772E+02  0.49305222405E+02  0.10554079417E+03  0.90801666140E+02 0.  0.
          5    1    3    3  502    0  0.59588910910E+01 -0.64364204541E+02 -0.10042678889E+03  0.11950427413E+03  0.41800000000E+01 0. -1.
         -5    1    3    3    0  502  0.97668910587E+01  0.49680489769E+02 -0.17445693239E+02  0.53715620049E+02  0.41800000000E+01 0. -1.
        -11    1    4    4    0    0  0.60186550866E+01 -0.22318734794E+02  0.57387187781E+02  0.61867919419E+02  0.00000000000E+00 0.  1.
         11    1    4    4    0    0 -0.21744437236E+02  0.37002449566E+02 -0.80819653764E+01  0.43672874750E+02  0.00000000000E+00 0. -1.
</event>
<event>
 8    1  0.3708258E-009  0.1163066E+03  0.7561462E-02  0.1249317E+00
          2   -1    0    0  501    0  0.00000000000E+00  0.00000000000E+00  0.33517309261E+03  0.33517309261E+03  0.00000000000E+00 0. -1.
         -2   -1    0    0    0  501 -0.00000000000E+00 -0.00000000000E+00 -0.51718579568E+02  0.51718579568E+02  0.00000000000E+00 0.  1.
         25    2    1    2    0    0  0.37656580783E+02 -0.50333045666E+02  0.10332440490E+03  0.17399794488E+03  0.12509164086E+03 0.  0.
         23    2    1    2    0    0 -0.37656580783E+02  0.50333045666E+02  0.18013010814E+03  0.21289372729E+03  0.94474598163E+02 0.  0.
          5    1    3    3  502    0  0.31165053386E+02 -0.90629836007E+02  0.88064352410E+02  0.13022223425E+03  0.41800000000E+01 0.  1.
         -5    1    3    3    0  502  0.64915273970E+01  0.40296790341E+02  0.15260052486E+02  0.43775710635E+02  0.41800000000E+01 0.  1.
        -11    1    4    4    0    0  0.10358485073E+02  0.46328037493E+02  0.14685824230E+03  0.15434030129E+03  0.00000000000E+00 0. -1.
         11    1    4    4    0    0 -0.48015065857E+02  0.40050081733E+01  0.33271865842E+02  0.58553426000E+02  0.00000000000E+00 0.  1.
</event>
<event>
 8    1  0.3708258E-009  0.8142272E+02  0.7561462E-02  0.1325062E+00
         -2   -1    0    0    0  501 -0.00000000000E+00  0.00000000000E+00  0.23637647447E+03  0.23637647447E+03  0.00000000000E+00 0.  1.
          2   -1    0    0  501    0  0.00000000000E+00 -0.00000000000E+00 -0.68931906827E+02  0.68931906827E+02  0.00000000000E+00 0. -1.
         25    2    1    2    0    0 -0.60644259841E+02  0.47481591438E+00  0.10197907791E+03  0.17241108922E+03  0.12509156508E+03 0.  0.
         23    2    1    2    0    0  0.60644259841E+02 -0.47481591438E+00  0.65465489740E+02  0.13289729208E+03  0.98478465632E+02 0.  0.
          5    1    3    3  502    0 -0.31226075508E+02  0.15228130777E+02  0.12644047731E+03  0.13119310371E+03  0.41800000000E+01 0.  1.
         -5    1    3    3    0  502 -0.29418184333E+02 -0.14753314862E+02 -0.24461399404E+02  0.41217985512E+02  0.41800000000E+01 0.  1.
        -11    1    4    4    0    0 -0.13435666722E+02  0.13773255656E+02  0.53066975175E+02  0.56447529316E+02  0.00000000000E+00 0.  1.
         11    1    4    4    0    0  0.74079926563E+02 -0.14248071570E+02  0.12398514564E+02  0.76449762763E+02  0.00000000000E+00 0. -1.
</event>
<event>
 8    1  0.3708258E-009  0.1645427E+03  0.7561462E-02  0.1183661E+00
         -1   -1    0    0    0  501 -0.00000000000E+00  0.00000000000E+00  0.14212272723E+03  0.14212272723E+03  0.00000000000E+00 0.  1.
          1   -1    0    0  501    0  0.00000000000E+00 -0.00000000000E+00 -0.23218922668E+03  0.23218922668E+03  0.00000000000E+00 0. -1.
         25    2    1    2    0    0 -0.25354861406E+02  0.14380316114E+03 -0.42856329575E+02  0.19699682543E+03  0.12509542795E+03 0.  0.
         23    2    1    2    0    0  0.25354861406E+02 -0.14380316114E+03 -0.47210169877E+02  0.17731512848E+03  0.88823625789E+02 0.  0.
          5    1    3    3  502    0 -0.22597796599E+02  0.15824289016E+03 -0.93577241229E+01  0.16017650295E+03  0.41800000000E+01 0. -1.
         -5    1    3    3    0  502 -0.27570648065E+01 -0.14439729017E+02 -0.33498605452E+02  0.36820322482E+02  0.41800000000E+01 0. -1.
        -11    1    4    4    0    0 -0.43206683099E+01 -0.10480582282E+03  0.58876752153E+01  0.10505995141E+03  0.00000000000E+00 0. -1.
         11    1    4    4    0    0  0.29675529716E+02 -0.38997338321E+02 -0.53097845092E+02  0.72255177071E+02  0.00000000000E+00 0.  1.
</event>
<event>
 8    1  0.3708258E-009  0.1652115E+03  0.7561462E-02  0.1182935E+00
         -1   -1    0    0    0  501 -0.00000000000E+00  0.00000000000E+00  0.67572494318E+02  0.67572494318E+02  0.00000000000E+00 0.  1.
          1   -1    0    0  501    0  0.00000000000E+00 -0.00000000000E+00 -0.45494587004E+03  0.45494587004E+03  0.00000000000E+00 0. -1.
         25    2    1    2    0    0 -0.54306274023E+02 -0.12522856097E+03 -0.18399537302E+03  0.26102518758E+03  0.12509391424E+03 0.  0.
         23    2    1    2    0    0  0.54306274023E+02  0.12522856097E+03 -0.20337800270E+03  0.26149317678E+03  0.91568038290E+02 0.  0.
          5    1    3    3  502    0 -0.41679295972E+02 -0.66235684719E+00 -0.44972887553E+01  0.42134314228E+02  0.41800000000E+01 0. -1.
         -5    1    3    3    0  502 -0.12626978051E+02 -0.12456620412E+03 -0.17949808426E+03  0.21889087335E+03  0.41800000000E+01 0. -1.
        -11    1    4    4    0    0 -0.11041650528E+02  0.86688529690E+02 -0.12390524219E+03  0.15162232114E+03  0.00000000000E+00 0.  1.
         11    1    4    4    0    0  0.65347924552E+02  0.38540031277E+02 -0.79472760513E+02  0.10987085563E+03  0.00000000000E+00 0. -1.
</event>
<event>
 8    1  0.3708258E-009  0.1203084E+03  0.7561462E-02  0.1242589E+00
          2   -1    0    0  501    0  0.00000000000E+00  0.00000000000E+00  0.70523821110E+02  0.70523821110E+02  0.00000000000E+00 0. -1.
         -2   -1    0    0    0  501 -0.00000000000E+00 -0.00000000000E+00 -0.23128372073E+03  0.23128372073E+03  0.00000000000E+00 0.  1.
         25    2    1    2    0    0 -0.57674290726E+02  0.16529171553E+02 -0.51592469083E+02  0.14801697065E+03  0.12509078068E+03 0.  0.
         23    2    1    2    0    0  0.57674290726E+02 -0.16529171553E+02 -0.10916743054E+03  0.15379057119E+03  0.90191322057E+02 0.  0.
          5    1    3    3  502    0  0.24867530561E+02  0.40597292183E+02 -0.25876469092E+00  0.47791982256E+02  0.41800000000E+01 0. -1.
         -5    1    3    3    0  502 -0.82541821287E+02 -0.24068120630E+02 -0.51333704392E+02  0.10022498839E+03  0.41800000000E+01 0. -1.
        -11    1    4    4    0    0  0.37769991791E+02  0.35007197677E+02 -0.65795358207E+02  0.83553009106E+02  0.00000000000E+00 0.  1.
         11    1    4    4    0    0  0.19904298935E+02 -0.51536369230E+02 -0.43372072335E+02  0.70237562089E+02  0.00000000000E+00 0. -1.
</event>
<event>
 8    1  0.3708258E-009  0.1288166E+03  0.7561462E-02  0.1229222E+00
          1   -1    0    0  501    0  0.00000000000E+00  0.00000000000E+00  0.20838134309E+03  0.20838134309E+03  0.00000000000E+00 0. -1.
         -1   -1    0    0    0  501 -0.00000000000E+00 -0.00000000000E+00 -0.94766235086E+02  0.94766235086E+02  0.00000000000E+00 0.  1.
         25    2    1    2    0    0 -0.17420446341E+02  0.86549399787E+02  0.44921661788E+02  0.15956462682E+03  0.12509453978E+03 0.  0.
         23    2    1    2    0    0  0.17420446341E+02 -0.86549399787E+02  0.68693446213E+02  0.14358295135E+03  0.90016686292E+02 0.  0.
          5    1    3    3  502    0 -0.53732501688E+02  0.21335896189E+01 -0.62536706887E+01  0.54298386158E+02  0.41800000000E+01 0.  1.
         -5    1    3    3    0  502  0.36312055347E+02  0.84415810168E+02  0.51175332477E+02  0.10526624067E+03  0.41800000000E+01 0.  1.
        -11    1    4    4    0    0 -0.24618184618E+02 -0.51083399267E+02  0.14682898910E+01  0.56724990699E+02  0.00000000000E+00 0.  1.
         11    1    4    4    0    0  0.42038630958E+02 -0.35466000520E+02  0.67225156322E+02  0.86857960649E+02  0.00000000000E+00 0. -1.
</event>
<event>
 8    1  0.3708258E-009  0.1004851E+03  0.7561462E-02  0.1279279E+00
          2   -1    0    0  501    0  0.00000000000E+00  0.00000000000E+00  0.61654341616E+03  0.61654341616E+03  0.00000000000E+00 0. -1.
         -2   -1    0    0    0  501 -0.00000000000E+00 -0.00000000000E+00 -0.24521463013E+02  0.24521463013E+02  0.00000000000E+00 0.  1.
         25    2    1    2    0    0 -0.36516898800E+02 -0.10831203208E+02  0.41927854012E+03  0.43919458754E+03  0.12508634079E+03 0.  0.
         23    2    1    2    0    0  0.36516898800E+02  0.10831203208E+02  0.17274341302E+03  0.20187029163E+03  0.97265250944E+02 0.  0.
          5    1    3    3  502    0  0.13202186233E+02 -0.40612506559E+02  0.52323700771E+02  0.67667684110E+02  0.41800000000E+01 0.  1.
         -5    1    3    3    0  502 -0.49719085033E+02  0.29781303351E+02  0.36695483935E+03  0.37152690343E+03  0.41800000000E+01 0.  1.
        -11    1    4    4    0    0  0.22262264641E+02  0.51905087267E+02  0.67571967096E+02  0.88066550111E+02  0.00000000000E+00 0.  1.
         11    1    4    4    0    0  0.14254634158E+02 -0.41073884059E+02  0.10517144592E+03  0.11380374152E+03  0.00000000000E+00 0. -1.
</event>
<event>
 8    1  0.3708258E-009  0.1099893E+03  0.7561462E-02  0.1260590E+00
          2   -1    0    0  501    0  0.00000000000E+00  0.00000000000E+00  0.71986569638E+03  0.71986569638E+03  0.00000000000E+00 0. -1.
         -2   -1    0    0    0  501 -0.00000000000E+00 -0.00000000000E+00 -0.18870033418E+02  0.18870033418E+02  0.00000000000E+00 0.  1.
         25    2    1    2    0    0 -0.26395966798E+02 -0.31821085457E+02  0.34369776952E+03  0.36808056465E+03  0.12508323931E+03 0.  0.
         23    2    1    2    0    0  0.26395966798E+02  0.31821085457E+02  0.35729789344E+03  0.37065516515E+03  0.89521719442E+02 0.  0.
          5    1    3    3  502    0  0.43060882680E+02 -0.28304582610E+02  0.79354939446E+02  0.94710442024E+02  0.41800000000E+01 0.  1.
         -5    1    3    3    0  502 -0.69456849479E+02 -0.35165028475E+01  0.26434283007E+03  0.27337012262E+03  0.41800000000E+01 0.  1.
        -11    1    4    4    0    0 -0.31925103848E+02 -0.50048666395E+00  0.11586194060E+03  0.12018091372E+03  0.00000000000E+00 0. -1.
         11    1    4    4    0    0  0.58321070647E+02  0.32321572121E+02  0.24143595284E+03  0.25047425143E+03  0.00000000000E+00 0.  1.
</event>
<event>
 8    1  0.3708258E-009  0.1067024E+03  0.7561462E-02  0.1266801E+00
          3   -1    0    0  501    0  0.00000000000E+00  0.00000000000E+00  0.53174066941E+02  0.53174066941E+02  0.00000000000E+00 0. -1.
         -3   -1    0    0    0  501 -0.00000000000E+00 -0.00000000000E+00 -0.24802524382E+03  0.24802524382E+03  0.00000000000E+00 0.  1.
         25    2    1    2    0    0 -0.20429432213E+02 -0.29946961933E+02 -0.97769287518E+02  0.16285198855E+03  0.12509098435E+03 0.  0.
         23    2    1    2    0    0  0.20429432213E+02  0.29946961933E+02 -0.97081889361E+02  0.13834732221E+03  0.91656456895E+02 0.  0.
          5    1    3    3  502    0 -0.61130041276E+02 -0.52709587311E+02 -0.76999899616E+02  0.11163171360E+03  0.41800000000E+01 0. -1.
         -5    1    3    3    0  502  0.40700609063E+02  0.22762625379E+02 -0.20769387902E+02  0.51220274951E+02  0.41800000000E+01 0. -1.
        -11    1    4    4    0    0 -0.11846655288E+01 -0.25873475559E+02 -0.65999026342E+02  0.70899306400E+02  0.00000000000E+00 0.  1.
         11    1    4    4    0    0  0.21614097742E+02  0.55820437491E+02 -0.31082863018E+02  0.67448015807E+02  0.00000000000E+00 0. -1.
</event>
<event>
 8    1  0.3708258E-009  0.1532315E+03  0.7561462E-02  0.1196557E+00
         -1   -1    0    0    0  501 -0.00000000000E+00  0.00000000000E+00  0.38019951468E+02  0.38019951468E+02  0.00000000000E+00 0. -1.
          1   -1    0    0  501    0  0.00000000000E+00 -0.00000000000E+00 -0.83112321399E+03  0.83112321399E+03  0.00000000000E+00 0.  1.
         25    2    1    2    0    0  0.12100930523E+03 -0.39769331100E+02 -0.56478119611E+03  0.59232631383E+03  0.12509121044E+03 0.  0.
         23    2    1    2    0    0 -0.12100930523E+03  0.39769331100E+02 -0.22832206641E+03  0.27681685163E+03  0.90949170894E+02 0.  0.
          5    1    3    3  502    0  0.34047500285E+01 -0.42442817898E+02 -0.29359296089E+03  0.29669392343E+03  0.41800000000E+01 0. -1.
         -5    1    3    3    0  502  0.11760455520E+03  0.26734867988E+01 -0.27118823522E+03  0.29563239040E+03  0.41800000000E+01 0. -1.
        -11    1    4    4    0    0 -0.66449305445E+02  0.58248880040E+02 -0.18405393879E+03  0.20416732012E+03  0.00000000000E+00 0.  1.
         11    1    4    4    0    0 -0.54559999781E+02 -0.18479548941E+02 -0.44268127621E+02  0.72649531507E+02  0.00000000000E+00 0. -1.
</event>
<event>
 8    1  0.3708258E-009  0.1654583E+03  0.7561462E-02  0.1182669E+00
         -2   -1    0    0    0  501 -0.00000000000E+00  0.00000000000E+00  0.77559375035E+03  0.77559375035E+03  0.00000000000E+00 0.  1.
          2   -1    0    0  501    0  0.00000000000E+00 -0.00000000000E+00 -0.48223292405E+02  0.48223292405E+02  0.00000000000E+00 0. -1.
         25    2    1    2    0    0 -0.29694374888E+02 -0.14135474713E+03  0.24963660251E+03  0.31437391487E+03  0.12509837968E+03 0.  0.
         23    2    1    2    0    0  0.29694374888E+02  0.14135474713E+03  0.47773385543E+03  0.50944312789E+03  0.10217506297E+03 0.  0.
          5    1    3    3  502    0 -0.73840889873E+02 -0.82717616911E+02  0.18860980167E+03  0.21882826794E+03  0.41800000000E+01 0.  1.
         -5    1    3    3    0  502  0.44146514985E+02 -0.58637130215E+02  0.61026800848E+02  0.95545646928E+02  0.41800000000E+01 0.  1.
        -11    1    4    4    0    0  0.63735369453E+00  0.60823227131E+02  0.69632986281E+02  0.92458768956E+02  0.00000000000E+00 0. -1.
         11    1    4    4    0    0  0.29057021193E+02  0.80531519994E+02  0.40810086915E+03  0.41698435893E+03  0.00000000000E+00 0.  1.
</event>
<event>
 8    1  0.3708258E-009  0.1174701E+03  0.7561462E-02  0.1247330E+00
          3   -1    0    0  501    0  0.00000000000E+00  0.00000000000E+00  0.33465380120E+03  0.33465380120E+03  0.00000000000E+00 0. -1.
         -3   -1    0    0    0  501 -0.00000000000E+00 -0.00000000000E+00 -0.55980398930E+02  0.55980398930E+02  0.00000000000E+00 0.  1.
         25    2    1    2    0    0  0.77525979965E+02  0.27767296513E+02  0.12836222494E+03  0.19724242674E+03  0.12508562582E+03 0.  0.
         23    2    1    2    0    0 -0.77525979965E+02 -0.27767296513E+02  0.15031117733E+03  0.19339177340E+03  0.89585867536E+02 0.  0.
          5    1    3    3  502    0  0.10509822975E+03  0.47606144264E+02  0.10170886478E+03  0.15386405832E+03  0.41800000000E+01 0.  1.
         -5    1    3    3    0  502 -0.27572249785E+02 -0.19838847751E+02  0.26653360166E+02  0.43378368416E+02  0.41800000000E+01 0.  1.
        -11    1    4    4    0    0 -0.30549616671E+02 -0.22605605749E+02  0.13993928025E+03  0.14500791236E+03  0.00000000000E+00 0. -1.
         11    1    4    4    0    0 -0.46976363294E+02 -0.51616907646E+01  0.10371897080E+02  0.48383861038E+02  0.00000000000E+00 0.  1.
</event>
<event>
 8    1  0.3708258E-009  0.1107173E+03  0.7561462E-02  0.1259247E+00
          1   -1    0    0  501    0  0.00000000000E+00  0.00000000000E+00  0.10297165302E+04  0.10297165302E+04  0.00000000000E+00 0. -1.
         -1   -1    0    0    0  501 -0.00000000000E+00 -0.00000000000E+00 -0.26633461936E+02  0.26633461936E+02  0.00000000000E+00 0.  1.
         25    2    1    2    0    0  0.41975915859E+02 -0.58274648461E+02  0.86005072062E+03  0.87206191217E+03  0.12508726738E+03 0.  0.
         23    2    1    2    0    0 -0.41975915859E+02  0.58274648461E+02  0.14303234768E+03  0.18428808000E+03  0.91356071396E+02 0.  0.
          5    1    3    3  502    0 -0.14522440239E+02 -0.78564186638E+02  0.38575573452E+03  0.39396470883E+03  0.41800000000E+01 0. -1.
         -5    1    3    3    0  502  0.56498356097E+02  0.20289538177E+02  0.47429498610E+03  0.47809720334E+03  0.41800000000E+01 0. -1.
        -11    1    4    4    0    0 -0.25103491511E+02  0.52998144483E+01 -0.50179050199E+01  0.26142928107E+02  0.00000000000E+00 0.  1.
         11    1    4    4    0    0 -0.16872424348E+02  0.52974834013E+02  0.14805025270E+03  0.15814515189E+03  0.00000000000E+00 0. -1.
</event>
<event>
 8    1  0.3708258E-009  0.1204721E+03  0.7561462E-02  0.1242320E+00
         -1   -1    0    0    0  501 -0.00000000000E+00  0.00000000000E+00  0.63610339204E+02  0.63610339204E+02  0.00000000000E+00 0.  1.
          1   -1    0    0  501    0  0.00000000000E+00 -0.00000000000E+00 -0.32267981099E+03  0.32267981099E+03  0.00000000000E+00 0. -1.
         25    2    1    2    0    0 -0.60808393799E+02 -0.39305255734E+02 -0.21966848000E+03  0.26295261942E+03  0.12508906855E+03 0.  0.
         23    2    1    2    0    0  0.60808393799E+02  0.39305255734E+02 -0.39400991785E+02  0.12333753077E+03  0.91744996916E+02 0.  0.
          5    1    3    3  502    0 -0.81729308286E+02  0.12514181250E+02 -0.93411237010E+02  0.12481753148E+03  0.41800000000E+01 0.  1.
         -5    1    3    3    0  502  0.20920914488E+02 -0.51819436983E+02 -0.12625724299E+03  0.13813508794E+03  0.41800000000E+01 0.  1.
        -11    1    4    4    0    0  0.34366352124E+02 -0.18153483312E+02 -0.45445079977E+02  0.59798414768E+02  0.00000000000E+00 0. -1.
         11    1    4    4    0    0  0.26442041675E+02  0.57458739046E+02  0.60440881924E+01  0.63539116006E+02  0.00000000000E+00 0.  1.
</event>
<event>
 8    1  0.3708258E-009  0.9315057E+02  0.7561462E-02  0.1295397E+00
          1   -1    0    0  501    0  0.00000000000E+00  0.00000000000E+00  0.10067220795E+03  0.10067220795E+03  0.00000000000E+00 0. -1.
         -1   -1    0    0    0  501 -0.00000000000E+00 -0.00000000000E+00 -0.16735788366E+03  0.16735788366E+03  0.00000000000E+00 0.  1.
         25    2    1    2    0    0 -0.40190194246E+02 -0.20440218148E+02 -0.93799497576E+02  0.16272294145E+03  0.12508939083E+03 0.  0.
         23    2    1    2    0    0  0.40190194246E+02  0.20440218148E+02  0.27113821857E+02  0.10530715016E+03  0.91221610964E+02 0.  0.
          5    1    3    3  502    0  0.38005352669E+02  0.45682851614E+01 -0.65133350703E+02  0.75664402691E+02  0.41800000000E+01 0.  1.
         -5    1    3    3    0  502 -0.78195546915E+02 -0.25008503309E+02 -0.28666146872E+02  0.87058538764E+02  0.41800000000E+01 0.  1.
        -11    1    4    4    0    0  0.13112591371E+02 -0.15685146000E+02 -0.27615601454E+02  0.34359646407E+02  0.00000000000E+00 0.  1.
         11    1    4    4    0    0  0.27077602875E+02  0.36125364148E+02  0.54729423312E+02  0.70947503750E+02  0.00000000000E+00 0. -1.
</event>
<event>
 8    1  0.3708258E-009  0.7417233E+02  0.7561462E-02  0.1346453E+00
         -1   -1    0    0    0  501 -0.00000000000E+00  0.00000000000E+00  0.12326886649E+03  0.12326886649E+03  0.00000000000E+00 0.  1.
          1   -1    0    0  501    0  0.00000000000E+00 -0.00000000000E+00 -0.10758773744E+03  0.10758773744E+03  0.00000000000E+00 0. -1.
         25    2    1    2    0    0 -0.22776004904E+02  0.27832746196E+02 -0.11496389166E+02  0.13066151103E+03  0.12508739081E+03 0.  0.
         23    2    1    2    0    0  0.22776004904E+02 -0.27832746196E+02  0.27177518214E+02  0.10019509289E+03  0.89482014859E+02 0.  0.
          5    1    3    3  502    0  0.27102195720E+02  0.47559215152E+01  0.44245607858E+02  0.52271349868E+02  0.41800000000E+01 0.  1.
         -5    1    3    3    0  502 -0.49878200624E+02  0.23076824681E+02 -0.55741997024E+02  0.78390161163E+02  0.41800000000E+01 0.  1.
        -11    1    4    4    0    0  0.31920075883E+02  0.40977008778E+01  0.50307820631E+02  0.59720676599E+02  0.00000000000E+00 0.  1.
         11    1    4    4    0    0 -0.91440709787E+01 -0.31930447074E+02 -0.23130302416E+02  0.40474416293E+02  0.00000000000E+00 0. -1.
</event>
<event>
 8    1  0.3708258E-009  0.9483541E+02  0.7561462E-02  0.1291547E+00
         -2   -1    0    0    0  501 -0.00000000000E+00  0.00000000000E+00  0.46629002784E+02  0.46629002784E+02  0.00000000000E+00 0.  1.
          2   -1    0    0  501    0  0.00000000000E+00 -0.00000000000E+00 -0.36746956755E+03  0.36746956755E+03  0.00000000000E+00 0. -1.
         25    2    1    2    0    0 -0.71229666182E+02 -0.20346989669E+02 -0.15770190606E+03  0.21448768849E+03  0.12508961591E+03 0.  0.
         23    2    1    2    0    0  0.71229666182E+02  0.20346989669E+02 -0.16313865871E+03  0.19961088184E+03  0.87992140845E+02 0.  0.
          5    1    3    3  502    0 -0.26205117404E+02 -0.54677646845E+01 -0.16422016391E+03  0.16644019726E+03  0.41800000000E+01 0. -1.
         -5    1    3    3    0  502 -0.45024548778E+02 -0.14879224984E+02  0.65182578519E+01  0.48047491237E+02  0.41800000000E+01 0. -1.
        -11    1    4    4    0    0  0.38454546864E+02 -0.34117698921E+02 -0.75856329087E+02  0.91634885370E+02  0.00000000000E+00 0.  1.
         11    1    4    4    0    0  0.32775119318E+02  0.54464688590E+02 -0.87282329622E+02  0.10797599647E+03  0.00000000000E+00 0. -1.
</event>
<event>
 8    1  0.3708258E-009  0.2658052E+03  0.7561462E-02  0.1103705E+00
          1   -1    0    0  501    0  0.00000000000E+00  0.00000000000E+00  0.34281431184E+03  0.34281431184E+03  0.00000000000E+00 0. -1.
         -1   -1    0    0    0  501 -0.00000000000E+00 -0.00000000000E+00 -0.21675513639E+03  0.21675513639E+03  0.00000000000E+00 0.  1.
         25    2    1    2    0    0 -0.73937733542E+02 -0.23833831635E+03  0.63712531865E+02  0.28631786658E+03  0.12508674001E+03 0.  0.
         23    2    1    2    0    0  0.73937733542E+02  0.23833831635E+03  0.62346643584E+02  0.27325158165E+03  0.92235467292E+02 0.  0.
          5    1    3    3  502    0  0.21371263181E+02 -0.47154574285E+02  0.50187709762E+02  0.72225780558E+02  0.41800000000E+01 0.  1.
         -5    1    3    3    0  502 -0.95308996723E+02 -0.19118374206E+03  0.13524822102E+02  0.21409208602E+03  0.41800000000E+01 0.  1.
        -11    1    4    4    0    0  0.86167713556E+02  0.12390799835E+03  0.33091076707E+02  0.15450917860E+03  0.00000000000E+00 0.  1.
         11    1    4    4    0    0 -0.12229980014E+02  0.11443031799E+03  0.29255566876E+02  0.11874240304E+03  0.00000000000E+00 0. -1.
</event>
<event>
 8    1  0.3708258E-009  0.1172009E+03  0.7561462E-02  0.1247787E+00
         -2   -1    0    0    0  501 -0.00000000000E+00  0.00000000000E+00  0.50171199518E+02  0.50171199518E+02  0.00000000000E+00 0.  1.
          2   -1    0    0  501    0  0.00000000000E+00 -0.00000000000E+00 -0.51854245791E+03  0.51854245791E+03  0.00000000000E+00 0. -1.
         25    2    1    2    0    0 -0.44002580101E+02  0.67535527594E+02 -0.39647373138E+03  0.42348181264E+03  0.12509257140E+03 0.  0.
         23    2    1    2    0    0  0.44002580101E+02 -0.67535527594E+02 -0.71897527006E+02  0.14523184478E+03  0.97086352318E+02 0.  0.
          5    1    3    3  502    0 -0.55624806335E+02  0.75310868641E+02 -0.39792752313E+03  0.40881491176E+03  0.41800000000E+01 0.  1.
         -5    1    3    3    0  502  0.11622226234E+02 -0.77753410473E+01  0.14537917458E+01  0.14666900882E+02  0.41800000000E+01 0.  1.
        -11    1    4    4    0    0  0.69333117572E+01 -0.84879113641E+02 -0.45850759282E+02  0.96720353965E+02  0.00000000000E+00 0.  1.
         11    1    4    4    0    0  0.37069268344E+02  0.17343586047E+02 -0.26046767724E+02  0.48511490818E+02  0.00000000000E+00 0. -1.
</event>
<event>
 8    1  0.3708258E-009  0.1394200E+03  0.7561462E-02  0.1214112E+00
          3   -1    0    0  501    0  0.00000000000E+00  0.00000000000E+00  0.10026784582E+03  0.10026784582E+03  0.00000000000E+00 0. -1.
         -3   -1    0    0    0  501 -0.00000000000E+00 -0.00000000000E+00 -0.34930933303E+03  0.34930933303E+03  0.00000000000E+00 0.  1.
         25    2    1    2    0    0  0.66625995222E+02  0.64368744047E+02  0.13964632628E+02  0.15628252153E+03  0.12508739793E+03 0.  0.
         23    2    1    2    0    0 -0.66625995222E+02 -0.64368744047E+02 -0.26300611983E+03  0.29329465732E+03  0.90924025959E+02 0.  0.
          5    1    3    3  502    0  0.82697393944E+02 -0.13053521998E+01  0.27387359245E+02  0.87224438983E+02  0.41800000000E+01 0.  1.
         -5    1    3    3    0  502 -0.16071398723E+02  0.65674096247E+02 -0.13422726617E+02  0.69058082543E+02  0.41800000000E+01 0.  1.
        -11    1    4    4    0    0 -0.38618800484E+02  0.17027355422E+02 -0.10863571229E+03  0.11654638805E+03  0.00000000000E+00 0. -1.
         11    1    4    4    0    0 -0.28007194737E+02 -0.81396099469E+02 -0.15437040754E+03  0.17674826927E+03  0.00000000000E+00 0.  1.
</event>
<event>
 8    1  0.3708258E-009  0.9931888E+02  0.7561462E-02  0.1281735E+00
         -2   -1    0    0    0  501 -0.00000000000E+00  0.00000000000E+00  0.24711779262E+02  0.24711779262E+02  0.00000000000E+00 0. -1.
          2   -1    0    0  501    0  0.00000000000E+00 -0.00000000000E+00 -0.49460338891E+03  0.49460338891E+03  0.00000000000E+00 0.  1.
         25    2    1    2    0    0 -0.18956976135E+02 -0.22273131229E+02 -0.28386912820E+03  0.31158628737E+03  0.12509545640E+03 0.  0.
         23    2    1    2    0    0  0.18956976135E+02  0.22273131229E+02 -0.18602248145E+03  0.20772888081E+03  0.87700997695E+02 0.  0.
          5    1    3    3  502    0  0.36774757155E+02 -0.33277956760E+02 -0.22190707222E+03  0.22742037347E+03  0.41800000000E+01 0. -1.
         -5    1    3    3    0  502 -0.55731733291E+02  0.11004825531E+02 -0.61962055979E+02  0.84165913895E+02  0.41800000000E+01 0. -1.
        -11    1    4    4    0    0  0.41355682583E+02  0.44220246951E+02 -0.13289194887E+03  0.14603421790E+03  0.00000000000E+00 0.  1.
         11    1    4    4    0    0 -0.22398706448E+02 -0.21947115722E+02 -0.53130532579E+02  0.61694662906E+02  0.00000000000E+00 0. -1.
</event>
<event>
 8    1  0.3708258E-009  0.1445124E+03  0.7561462E-02  0.1207383E+00
         -2   -1    0    0    0  501 -0.00000000000E+00  0.00000000000E+00  0.46275018648E+02  0.46275018648E+02  0.00000000000E+00 0.  1.
          2   -1    0    0  501    0  0.00000000000E+00 -0.00000000000E+00 -0.65007493374E+03  0.65007493374E+03  0.00000000000E+00 0. -1.
         25    2    1    2    0    0 -0.12574176478E+03  0.92808087219E+01 -0.42178910130E+03  0.45765748864E+03  0.12508879290E+03 0.  0.
         23    2    1    2    0    0  0.12574176478E+03 -0.92808087219E+01 -0.18201081379E+03  0.23869246375E+03  0.89157338979E+02 0.  0.
          5    1    3    3  502    0 -0.45302617331E+02 -0.27015588249E+02 -0.31334442992E+03  0.31778038534E+03  0.41800000000E+01 0. -1.
         -5    1    3    3    0  502 -0.80439147450E+02  0.36296396971E+02 -0.10844467137E+03  0.13987710329E+03  0.41800000000E+01 0. -1.
        -11    1    4    4    0    0  0.83848875124E+02  0.31242368210E+02 -0.14254567742E+03  0.16830326670E+03  0.00000000000E+00 0.  1.
         11    1    4    4    0    0  0.41892889657E+02 -0.40523176932E+02 -0.39465136370E+02  0.70389197049E+02  0.00000000000E+00 0. -1.
</event>
<event>
 8    1  0.3708258E-009  0.7021597E+02  0.7561462E-02  0.1359360E+00
         -4   -1    0    0    0  501 -0.00000000000E+00  0.00000000000E+00  0.39850568442E+03  0.39850568442E+03  0.00000000000E+00 0.  1.
          4   -1    0    0  501    0  0.00000000000E+00 -0.00000000000E+00 -0.27606182966E+02  0.27606182966E+02  0.00000000000E+00 0. -1.
         25    2    1    2    0    0  0.28635578013E+01  0.39822431578E+01  0.26412539194E+03  0.29229063282E+03  0.12509010009E+03 0.  0.
         23    2    1    2    0    0 -0.28635578013E+01 -0.39822431578E+01  0.10677410951E+03  0.13382123457E+03  0.80519278036E+02 0.  0.
          5    1    3    3  502    0  0.38877843920E+02  0.25840270603E+02  0.23793894621E+03  0.24251107367E+03  0.41800000000E+01 0.  1.
         -5    1    3    3    0  502 -0.36014286119E+02 -0.21858027445E+02  0.26186445737E+02  0.49779559146E+02  0.41800000000E+01 0.  1.
        -11    1    4    4    0    0  0.80226908859E+01 -0.25706159887E+02  0.28329379222E+01  0.27077587826E+02  0.00000000000E+00 0. -1.
         11    1    4    4    0    0 -0.10886248687E+02  0.21723916729E+02  0.10394117159E+03  0.10674364674E+03  0.00000000000E+00 0.  1.
</event>
<event>
 8    1  0.3708258E-009  0.8276608E+02  0.7561462E-02  0.1321380E+00
          1   -1    0    0  501    0  0.00000000000E+00  0.00000000000E+00  0.75540431071E+02  0.75540431071E+02  0.00000000000E+00 0. -1.
         -1   -1    0    0    0  501 -0.00000000000E+00 -0.00000000000E+00 -0.19047385201E+03  0.19047385201E+03  0.00000000000E+00 0.  1.
         25    2    1    2    0    0 -0.12210501438E+02 -0.19627223357E+02 -0.11460735213E+03  0.17122298957E+03  0.12509253676E+03 0.  0.
         23    2    1    2    0    0  0.12210501438E+02  0.19627223357E+02 -0.32606880801E+00  0.94791293508E+02  0.91929096384E+02 0.  0.
          5    1    3    3  502    0  0.28307145126E+02  0.55435509982E+01  0.15196016772E+02  0.32869693467E+02  0.41800000000E+01 0.  1.
         -5    1    3    3    0  502 -0.40517646564E+02 -0.25170774356E+02 -0.12980336890E+03  0.13835329610E+03  0.41800000000E+01 0.  1.
        -11    1    4    4    0    0 -0.25031639628E+02 -0.21516239168E+02 -0.16615883645E+02  0.36954284187E+02  0.00000000000E+00 0.  1.
         11    1    4    4    0    0  0.37242141066E+02  0.41143462526E+02  0.16289814837E+02  0.57837009321E+02  0.00000000000E+00 0. -1.
</event>
<event>
 8    1  0.3708258E-009  0.2229036E+03  0.7561462E-02  0.1131737E+00
          1   -1    0    0  501    0  0.00000000000E+00  0.00000000000E+00  0.11680388826E+04  0.11680388826E+04  0.00000000000E+00 0. -1.
         -1   -1    0    0    0  501 -0.00000000000E+00 -0.00000000000E+00 -0.52049354098E+02  0.52049354098E+02  0.00000000000E+00 0.  1.
         25    2    1    2    0    0 -0.35760023890E+02  0.19073292401E+03  0.82440502330E+03  0.85612492507E+03  0.12509363399E+03 0.  0.
         23    2    1    2    0    0  0.35760023890E+02 -0.19073292401E+03  0.29158450523E+03  0.36396331166E+03  0.98944130360E+02 0.  0.
          5    1    3    3  502    0 -0.66684983974E+02  0.45802890340E+02  0.24453688509E+03  0.25760542001E+03  0.41800000000E+01 0.  1.
         -5    1    3    3    0  502  0.30924960083E+02  0.14493003367E+03  0.57986813821E+03  0.59851950505E+03  0.41800000000E+01 0.  1.
        -11    1    4    4    0    0  0.62205495637E+02 -0.73129486106E+02  0.14902288935E+03  0.17727173203E+03  0.00000000000E+00 0.  1.
         11    1    4    4    0    0 -0.26445471746E+02 -0.11760343791E+03  0.14256161588E+03  0.18669157964E+03  0.00000000000E+00 0. -1.
</event>
<event>
 8    1  0.3708258E-009  0.1084112E+03  0.7561462E-02  0.1263541E+00
         -2   -1    0    0    0  501 -0.00000000000E+00  0.00000000000E+00  0.35872602717E+02  0.35872602717E+02  0.00000000000E+00 0.  1.
          2   -1    0    0  501    0  0.00000000000E+00 -0.00000000000E+00 -0.46009649312E+03  0.46009649312E+03  0.00000000000E+00 0. -1.
         25    2    1    2    0    0  0.42371799530E+02 -0.14810952431E+02 -0.13614845472E+03  0.19025490479E+03  0.12508314581E+03 0.  0.
         23    2    1    2    0    0 -0.42371799530E+02  0.14810952431E+02 -0.28807543568E+03  0.30571419105E+03  0.91972693005E+02 0.  0.
          5    1    3    3  502    0 -0.99486682484E+01  0.42408491617E+02 -0.89624999290E+02  0.99737500765E+02  0.41800000000E+01 0.  1.
         -5    1    3    3    0  502  0.52320467779E+02 -0.57219444048E+02 -0.46523455434E+02  0.90517404024E+02  0.41800000000E+01 0.  1.
        -11    1    4    4    0    0 -0.43439441588E+02  0.46543639274E+02 -0.23843263321E+03  0.24678617470E+03  0.00000000000E+00 0. -1.
         11    1    4    4    0    0  0.10676420578E+01 -0.31732686843E+02 -0.49642802464E+02  0.58928016345E+02  0.00000000000E+00 0.  1.
</event>
<event>
 8    1  0.3708258E-009  0.7279185E+02  0.7561462E-02  0.1350849E+00
          2   -1    0    0  501    0  0.00000000000E+00  0.00000000000E+00  0.16576876093E+03  0.16576876093E+03  0.00000000000E+00 0. -1.
         -2   -1    0    0    0  501 -0.00000000000E+00 -0.00000000000E+00 -0.98638945163E+02  0.98638945163E+02  0.00000000000E+00 0.  1.
         25    2    1    2    0    0  0.40294564332E+02 -0.34309044482E+02 -0.13636229359E+00  0.13582348905E+03  0.12508892491E+03 0.  0.
         23    2    1    2    0    0 -0.40294564332E+02  0.34309044482E+02  0.67266178057E+02  0.12858421704E+03  0.95960407011E+02 0.  0.
          5    1    3    3  502    0  0.80221152616E+01  0.91694394864E+01 -0.56266102820E+02  0.57721570321E+02  0.41800000000E+01 0.  1.
         -5    1    3    3    0  502  0.32272449071E+02 -0.43478483968E+02  0.56129740526E+02  0.78101918726E+02  0.41800000000E+01 0.  1.
        -11    1    4    4    0    0 -0.14632717315E+02  0.47385804521E+02 -0.59094587655E+01  0.49944495082E+02  0.00000000000E+00 0.  1.
         11    1    4    4    0    0 -0.25661847018E+02 -0.13076760039E+02  0.73175636823E+02  0.78639721960E+02  0.00000000000E+00 0. -1.
</event>
<event>
 8    1  0.3708258E-009  0.1346316E+03  0.7561462E-02  0.1220741E+00
         -3   -1    0    0    0  501 -0.00000000000E+00  0.00000000000E+00  0.11405539778E+03  0.11405539778E+03  0.00000000000E+00 0.  1.
          3   -1    0    0  501    0  0.00000000000E+00 -0.00000000000E+00 -0.26478224950E+03  0.26478224950E+03  0.00000000000E+00 0. -1.
         25    2    1    2    0    0  0.59858564837E+02  0.61084815732E+02 -0.19461179465E+03  0.24665220962E+03  0.12509660026E+03 0.  0.
         23    2    1    2    0    0 -0.59858564837E+02 -0.61084815732E+02  0.43884942921E+02  0.13218543766E+03  0.90734222964E+02 0.  0.
          5    1    3    3  502    0 -0.23787228913E+02  0.58785463823E+02 -0.56093696600E+02  0.84767554020E+02  0.41800000000E+01 0.  1.
         -5    1    3    3    0  502  0.83645793751E+02  0.22993519086E+01 -0.13851809805E+03  0.16188465560E+03  0.41800000000E+01 0.  1.
        -11    1    4    4    0    0 -0.44687221652E+02 -0.83590820829E+02  0.21965593709E+02  0.97297792435E+02  0.00000000000E+00 0. -1.
         11    1    4    4    0    0 -0.15171343185E+02  0.22506005097E+02  0.21919349212E+02  0.34887645225E+02  0.00000000000E+00 0.  1.
</event>
<event>
 8    1  0.3708258E-009  0.1292041E+03  0.7561462E-02  0.1228642E+00
         -2   -1    0    0    0  501 -0.00000000000E+00  0.00000000000E+00  0.18556637085E+02  0.18556637085E+02  0.00000000000E+00 0.  1.
          2   -1    0    0  501    0  0.00000000000E+00 -0.00000000000E+00 -0.10634184415E+04  0.10634184415E+04  0.00000000000E+00 0. -1.
         25    2    1    2    0    0  0.79944479431E+02 -0.10869508543E+02 -0.72352000711E+03  0.73867404015E+03  0.12509544714E+03 0.  0.
         23    2    1    2    0    0 -0.79944479431E+02  0.10869508543E+02 -0.32134179730E+03  0.34330103843E+03  0.89921000265E+02 0.  0.
          5    1    3    3  502    0 -0.28707321289E+02 -0.12032098392E+02 -0.78444688323E+02  0.84498066329E+02  0.41800000000E+01 0. -1.
         -5    1    3    3    0  502  0.10865180072E+03  0.11625898491E+01 -0.64507531879E+03  0.65417597382E+03  0.41800000000E+01 0. -1.
        -11    1    4    4    0    0 -0.55064787053E+02 -0.35587615437E+02 -0.21227656942E+03  0.22217099512E+03  0.00000000000E+00 0.  1.
         11    1    4    4    0    0 -0.24879692378E+02  0.46457123979E+02 -0.10906522787E+03  0.12113004331E+03  0.00000000000E+00 0. -1.
</event>
<event>
 8    1  0.3708258E-009  0.1371746E+03  0.7561462E-02  0.1217182E+00
          2   -1    0    0  501    0  0.00000000000E+00  0.00000000000E+00  0.19780203599E+03  0.19780203599E+03  0.00000000000E+00 0. -1.
         -2   -1    0    0    0  501 -0.00000000000E+00 -0.00000000000E+00 -0.28175177633E+03  0.28175177633E+03  0.00000000000E+00 0.  1.
         25    2    1    2    0    0  0.23187975900E+02  0.12965623126E+03  0.12199760113E+03  0.21881363139E+03  0.12509024769E+03 0.  0.
         23    2    1    2    0    0 -0.23187975900E+02 -0.12965623126E+03 -0.20594734147E+03  0.26074018093E+03  0.90679181519E+02 0.  0.
          5    1    3    3  502    0  0.39698980361E+02  0.10332519223E+03  0.14313955192E+03  0.18099311621E+03  0.41800000000E+01 0.  1.
         -5    1    3    3    0  502 -0.16511004461E+02  0.26331039032E+02 -0.21141950793E+02  0.37820515175E+02  0.41800000000E+01 0.  1.
        -11    1    4    4    0    0  0.32836871927E+00 -0.23063416553E+02 -0.11892447546E+03  0.12114066152E+03  0.00000000000E+00 0.  1.
         11    1    4    4    0    0 -0.23516344619E+02 -0.10659281471E+03 -0.87022866012E+02  0.13959951941E+03  0.00000000000E+00 0. -1.
</event>
<event>
 8    1  0.3708258E-009  0.1418833E+03  0.7561462E-02  0.1210817E+00
          2   -1    0    0  501    0  0.00000000000E+00  0.00000000000E+00  0.17376600025E+03  0.17376600025E+03  0.00000000000E+00 0. -1.
         -2   -1    0    0    0  501 -0.00000000000E+00 -0.00000000000E+00 -0.22500282358E+03  0.22500282358E+03  0.00000000000E+00 0.  1.
         25    2    1    2    0    0 -0.11749235476E+03 -0.53643110053E+01 -0.14334779424E+03  0.22367291711E+03  0.12509098478E+03 0.  0.
         23    2    1    2    0    0  0.11749235476E+03  0.53643110053E+01  0.92110970905E+02  0.17509590672E+03  0.91328617244E+02 0.  0.
          5    1    3    3  502    0 -0.12726328756E+03 -0.46302521932E+01 -0.62125186292E+02  0.14175469928E+03  0.41800000000E+01 0. -1.
         -5    1    3    3    0  502  0.97709327990E+01 -0.73405881217E+00 -0.81222607948E+02  0.81918217827E+02  0.41800000000E+01 0. -1.
        -11    1    4    4    0    0  0.96670381238E+02  0.40535506349E+02  0.49074976279E+02  0.11574386887E+03  0.00000000000E+00 0.  1.
         11    1    4    4    0    0  0.20821973526E+02 -0.35171195344E+02  0.43035994627E+02  0.59352037850E+02  0.00000000000E+00 0. -1.
</event>
<event>
 8    1  0.3708258E-009  0.1116387E+03  0.7561462E-02  0.1257565E+00
          1   -1    0    0  501    0  0.00000000000E+00  0.00000000000E+00  0.30165639195E+03  0.30165639195E+03  0.00000000000E+00 0. -1.
         -1   -1    0    0    0  501 -0.00000000000E+00 -0.00000000000E+00 -0.83345841423E+02  0.83345841423E+02  0.00000000000E+00 0.  1.
         25    2    1    2    0    0  0.44344567989E+02 -0.81512213227E+02  0.35174936590E+02  0.15967311459E+03  0.12509015046E+03 0.  0.
         23    2    1    2    0    0 -0.44344567989E+02  0.81512213227E+02  0.18313561394E+03  0.22532911879E+03  0.92864832239E+02 0.  0.
          5    1    3    3  502    0  0.45265651039E+02 -0.48903816167E+02  0.79920707313E+02  0.10414103061E+03  0.41800000000E+01 0.  1.
         -5    1    3    3    0  502 -0.92108304990E+00 -0.32608397060E+02 -0.44745770723E+02  0.55532083973E+02  0.41800000000E+01 0.  1.
        -11    1    4    4    0    0  0.22502947607E+02  0.37012232998E+02  0.30889129875E+02  0.53201751728E+02  0.00000000000E+00 0. -1.
         11    1    4    4    0    0 -0.66847515596E+02  0.44499980229E+02  0.15224648407E+03  0.17212736706E+03  0.00000000000E+00 0.  1.
</event>
<event>
 8    1  0.3708258E-009  0.1776617E+03  0.7561462E-02  0.1170085E+00
         -1   -1    0    0    0  501 -0.00000000000E+00  0.00000000000E+00  0.91966996241E+02  0.91966996241E+02  0.00000000000E+00 0.  1.
          1   -1    0    0  501    0  0.00000000000E+00 -0.00000000000E+00 -0.46849350425E+03  0.46849350425E+03  0.00000000000E+00 0. -1.
         25    2    1    2    0    0  0.13455489258E+03  0.48855352184E+02 -0.56918607830E+02  0.19843932325E+03  0.12508626040E+03 0.  0.
         23    2    1    2    0    0 -0.13455489258E+03 -0.48855352184E+02 -0.31960790018E+03  0.36202117724E+03  0.91751067332E+02 0.  0.
          5    1    3    3  502    0  0.91173862404E+02  0.89464691353E+02 -0.54157559643E+02  0.13880604400E+03  0.41800000000E+01 0. -1.
         -5    1    3    3    0  502  0.43381030180E+02 -0.40609339169E+02 -0.27610481866E+01  0.59633279252E+02  0.41800000000E+01 0. -1.
        -11    1    4    4    0    0 -0.17773790219E+02 -0.47978488736E+02 -0.72842627973E+02  0.89016242620E+02  0.00000000000E+00 0. -1.
         11    1    4    4    0    0 -0.11678110236E+03 -0.87686344882E+00 -0.24676527220E+03  0.27300493462E+03  0.00000000000E+00 0.  1.
</event>
<event>
 8    1  0.3708258E-009  0.1313484E+03  0.7561462E-02  0.1225468E+00
          2   -1    0    0  501    0  0.00000000000E+00  0.00000000000E+00  0.15738858959E+03  0.15738858959E+03  0.00000000000E+00 0. -1.
         -2   -1    0    0    0  501 -0.00000000000E+00 -0.00000000000E+00 -0.11034867877E+03  0.11034867877E+03  0.00000000000E+00 0.  1.
         25    2    1    2    0    0 -0.75500268924E+02 -0.17088948948E+01  0.18522225227E+02  0.14728775164E+03  0.12508956003E+03 0.  0.
         23    2    1    2    0    0  0.75500268924E+02  0.17088948948E+01  0.28517685600E+02  0.12044951672E+03  0.89395843060E+02 0.  0.
          5    1    3    3  502    0 -0.53994301571E+02  0.59623645013E+02  0.45349618198E+01  0.80674667186E+02  0.41800000000E+01 0. -1.
         -5    1    3    3    0  502 -0.21505967353E+02 -0.61332539908E+02  0.13987263407E+02  0.66613084458E+02  0.41800000000E+01 0. -1.
        -11    1    4    4    0    0  0.46204416062E+02  0.45165569354E+02  0.16184425188E+02  0.66608650619E+02  0.00000000000E+00 0. -1.
         11    1    4    4    0    0  0.29295852863E+02 -0.43456674459E+02  0.12333260412E+02  0.53840866100E+02  0.00000000000E+00 0.  1.
</event>
<event>
 8    1  0.3708258E-009  0.7760187E+02  0.7561462E-02  0.1335998E+00
          3   -1    0    0  501    0  0.00000000000E+00  0.00000000000E+00  0.83144251035E+03  0.83144251035E+03  0.00000000000E+00 0. -1.
         -3   -1    0    0    0  501 -0.00000000000E+00 -0.00000000000E+00 -0.19548778277E+02  0.19548778277E+02  0.00000000000E+00 0.  1.
         25    2    1    2    0    0 -0.34382384980E+01 -0.47599732744E+02  0.62248950365E+03  0.63672421109E+03  0.12508790026E+03 0.  0.
         23    2    1    2    0    0  0.34382384980E+01  0.47599732744E+02  0.18940422842E+03  0.21426707754E+03  0.88084406851E+02 0.  0.
          5    1    3    3  502    0  0.16948757813E+02 -0.69736492951E+02  0.18961946390E+03  0.20278918198E+03  0.41800000000E+01 0.  1.
         -5    1    3    3    0  502 -0.20386996311E+02  0.22136760207E+02  0.43287003975E+03  0.43393502910E+03  0.41800000000E+01 0.  1.
        -11    1    4    4    0    0 -0.82051168582E+01  0.72935837479E+01 -0.72704631295E+01  0.13167381694E+02  0.00000000000E+00 0.  1.
         11    1    4    4    0    0  0.11643355356E+02  0.40306148996E+02  0.19667469155E+03  0.20109969584E+03  0.00000000000E+00 0. -1.
</event>
<event>
 8    1  0.3708258E-009  0.1252979E+03  0.7561462E-02  0.1234604E+00
          1   -1    0    0  501    0  0.00000000000E+00  0.00000000000E+00  0.28731739143E+03  0.28731739143E+03  0.00000000000E+00 0. -1.
         -1   -1    0    0    0  501 -0.00000000000E+00 -0.00000000000E+00 -0.78929354804E+02  0.78929354804E+02  0.00000000000E+00 0.  1.
         25    2    1    2    0    0 -0.53418125437E+02  0.75122950345E+02  0.56205996281E+02  0.16523929326E+03  0.12509179120E+03 0.  0.
         23    2    1    2    0    0  0.53418125437E+02 -0.75122950345E+02  0.15218204034E+03  0.20100745297E+03  0.93528973866E+02 0.  0.
          5    1    3    3  502    0 -0.11668172488E+02 -0.31344172125E+02 -0.71200055902E+01  0.34449532000E+02  0.41800000000E+01 0. -1.
         -5    1    3    3    0  502 -0.41749952948E+02  0.10646712247E+03  0.63326001871E+02  0.13078976126E+03  0.41800000000E+01 0. -1.
        -11    1    4    4    0    0 -0.85317268321E+00 -0.34877740262E+02  0.12221080975E+03  0.12709314179E+03  0.00000000000E+00 0. -1.
         11    1    4    4    0    0  0.54271298120E+02 -0.40245210083E+02  0.29971230592E+02  0.73914311181E+02  0.00000000000E+00 0.  1.
</event>
<event>
 8    1  0.3708258E-009  0.2195096E+03  0.7561462E-02  0.1134249E+00
          2   -1    0    0  501    0  0.00000000000E+00  0.00000000000E+00  0.49651808745E+03  0.49651808745E+03  0.00000000000E+00 0. -1.
         -2   -1    0    0    0  501 -0.00000000000E+00 -0.00000000000E+00 -0.11249573212E+03  0.11249573212E+03  0.00000000000E+00 0.  1.
         25    2    1    2    0    0  0.19442541148E+03  0.19240193722E+02  0.10614648247E+03  0.25511963487E+03  0.12509007424E+03 0.  0.
         23    2    1    2    0    0 -0.19442541148E+03 -0.19240193722E+02  0.27787587286E+03  0.35389418470E+03  0.99270678285E+02 0.  0.
          5    1    3    3  502    0  0.10548726780E+03 -0.51876921662E+02  0.61485620779E+02  0.13272804011E+03  0.41800000000E+01 0. -1.
         -5    1    3    3    0  502  0.88938143676E+02  0.71117115384E+02  0.44660861695E+02  0.12239159476E+03  0.41800000000E+01 0. -1.
        -11    1    4    4    0    0 -0.11091238696E+03 -0.45518471830E+02  0.21478617058E+03  0.24598086904E+03  0.00000000000E+00 0.  1.
         11    1    4    4    0    0 -0.83513024518E+02  0.26278278108E+02  0.63089702272E+02  0.10791331566E+03  0.00000000000E+00 0. -1.
</event>
<event>
 8    1  0.3708258E-009  0.1277284E+03  0.7561462E-02  0.1230866E+00
         -2   -1    0    0    0  501 -0.00000000000E+00  0.00000000000E+00  0.10403393826E+03  0.10403393826E+03  0.00000000000E+00 0.  1.
          2   -1    0    0  501    0  0.00000000000E+00 -0.00000000000E+00 -0.30996509921E+03  0.30996509921E+03  0.00000000000E+00 0. -1.
         25    2    1    2    0    0  0.16925491873E+02 -0.10237922367E+03  0.40172458423E+01  0.16258909197E+03  0.12510434385E+03 0.  0.
         23    2    1    2    0    0 -0.16925491873E+02  0.10237922367E+03 -0.20994840679E+03  0.25140994550E+03  0.91436587137E+02 0.  0.
          5    1    3    3  502    0 -0.58827061925E+01 -0.96975468610E+02 -0.45713551449E+02  0.10745254269E+03  0.41800000000E+01 0. -1.
         -5    1    3    3    0  502  0.22808198066E+02 -0.54037550583E+01  0.49730797291E+02  0.55136549284E+02  0.41800000000E+01 0. -1.
        -11    1    4    4    0    0 -0.54240051581E+01 -0.15264327726E+02 -0.49760449217E+02  0.52330888003E+02  0.00000000000E+00 0. -1.
         11    1    4    4    0    0 -0.11501486715E+02  0.11764355139E+03 -0.16018795757E+03  0.19907905750E+03  0.00000000000E+00 0.  1.
</event>
<event>
 8    1  0.3708258E-009  0.1969536E+03  0.7561462E-02  0.1152335E+00
          1   -1    0    0  501    0  0.00000000000E+00  0.00000000000E+00  0.18023186691E+04  0.18023186691E+04  0.00000000000E+00 0. -1.
         -1   -1    0    0    0  501 -0.00000000000E+00 -0.00000000000E+00 -0.23460240273E+02  0.23460240273E+02  0.00000000000E+00 0.  1.
         25    2    1    2    0    0  0.82153255228E+02  0.15250205443E+03  0.97511385786E+03  0.99824962111E+03  0.12509690763E+03 0.  0.
         23    2    1    2    0    0 -0.82153255228E+02 -0.15250205443E+03  0.80374457097E+03  0.82752928827E+03  0.93772883233E+02 0.  0.
          5    1    3    3  502    0  0.63111182756E+02  0.22798664003E+02  0.17526413877E+03  0.18771731728E+03  0.41800000000E+01 0. -1.
         -5    1    3    3    0  502  0.19042072472E+02  0.12970339043E+03  0.79984971909E+03  0.81053230382E+03  0.41800000000E+01 0. -1.
        -11    1    4    4    0    0 -0.13425223622E+02  0.11510093896E+02  0.10685824037E+03  0.10831159876E+03  0.00000000000E+00 0.  1.
         11    1    4    4    0    0 -0.68728031606E+02 -0.16401214833E+03  0.69688633060E+03  0.71921768951E+03  0.00000000000E+00 0. -1.
</event>
<event>
 8    1  0.3708258E-009  0.1029590E+03  0.7561462E-02  0.1274194E+00
          2   -1    0    0  501    0  0.00000000000E+00  0.00000000000E+00  0.90258446275E+03  0.90258446275E+03  0.00000000000E+00 0.  1.
         -2   -1    0    0    0  501 -0.00000000000E+00 -0.00000000000E+00 -0.15707454875E+02  0.15707454875E+02  0.00000000000E+00 0. -1.
         25    2    1    2    0    0  0.27944615324E+01 -0.84826871051E+01  0.68545945354E+03  0.69683678817E+03  0.12508829642E+03 0.  0.
         23    2    1    2    0    0 -0.27944615324E+01  0.84826871051E+01  0.20141755434E+03  0.22145512946E+03  0.91616473260E+02 0.  0.
          5    1    3    3  502    0 -0.70463006088E+01 -0.60360392225E+02  0.50805775166E+03  0.51169637357E+03  0.41800000000E+01 0. -1.
         -5    1    3    3    0  502  0.98407621412E+01  0.51877705120E+02  0.17740170188E+03  0.18514041460E+03  0.41800000000E+01 0. -1.
        -11    1    4    4    0    0 -0.45058760431E+02  0.18322405301E+02  0.10841695469E+03  0.11882860974E+03  0.00000000000E+00 0.  1.
         11    1    4    4    0    0  0.42264298899E+02 -0.98397181961E+01  0.93000599645E+02  0.10262651972E+03  0.00000000000E+00 0. -1.
</event>
<event>
 8    1  0.3708258E-009  0.9801754E+02  0.7561462E-02  0.1284521E+00
          2   -1    0    0  501    0  0.00000000000E+00  0.00000000000E+00  0.36616581571E+03  0.36616581571E+03  0.00000000000E+00 0. -1.
         -2   -1    0    0    0  501 -0.00000000000E+00 -0.00000000000E+00 -0.77854631322E+02  0.77854631322E+02  0.00000000000E+00 0.  1.
         25    2    1    2    0    0 -0.47726685849E+02  0.48422366866E+02  0.29396302539E+03  0.32662558653E+03  0.12508977307E+03 0.  0.
         23    2    1    2    0    0  0.47726685849E+02 -0.48422366866E+02 -0.56518409992E+01  0.11739486050E+03  0.95535584003E+02 0.  0.
          5    1    3    3  502    0 -0.59813567440E+01 -0.32918219092E+02  0.16546686093E+03  0.16886722666E+03  0.41800000000E+01 0.  1.
         -5    1    3    3    0  502 -0.41745329105E+02  0.81340585958E+02  0.12849616446E+03  0.15775835986E+03  0.41800000000E+01 0.  1.
        -11    1    4    4    0    0  0.31120505198E+02 -0.17520045091E+02  0.43956290678E+02  0.56635618774E+02  0.00000000000E+00 0.  1.
         11    1    4    4    0    0  0.16606180651E+02 -0.30902321775E+02 -0.49608131677E+02  0.60759241729E+02  0.00000000000E+00 0. -1.
</event>
<event>
 8    1  0.3708258E-009  0.9067254E+02  0.7561462E-02  0.1301231E+00
          2   -1    0    0  501    0  0.00000000000E+00  0.00000000000E+00  0.29575736880E+03  0.29575736880E+03  0.00000000000E+00 0. -1.
         -2   -1    0    0    0  501 -0.00000000000E+00 -0.00000000000E+00 -0.51052706817E+02  0.51052706817E+02  0.00000000000E+00 0.  1.
         25    2    1    2    0    0 -0.21604693629E+02 -0.17815112692E+02  0.68017956276E+02  0.14511260362E+03  0.12508830611E+03 0.  0.
         23    2    1    2    0    0  0.21604693629E+02  0.17815112692E+02  0.17668670571E+03  0.20169747200E+03  0.93164033890E+02 0.  0.
          5    1    3    3  502    0  0.33272818990E+02 -0.23042776516E+02 -0.16675356214E+02  0.43972604403E+02  0.41800000000E+01 0.  1.
         -5    1    3    3    0  502 -0.54877512620E+02  0.52276638241E+01  0.84693312490E+02  0.10113999921E+03  0.41800000000E+01 0.  1.
        -11    1    4    4    0    0  0.32350401667E+02 -0.25218043733E+02  0.37364041234E+02  0.55484860954E+02  0.00000000000E+00 0.  1.
         11    1    4    4    0    0 -0.10745708037E+02  0.43033156425E+02  0.13932266447E+03  0.14621261105E+03  0.00000000000E+00 0. -1.
</event>
<event>
 8    1  0.3708258E-009  0.1814070E+03  0.7561462E-02  0.1166448E+00
         -3   -1    0    0    0  501 -0.00000000000E+00  0.00000000000E+00  0.10510194993E+03  0.10510194993E+03  0.00000000000E+00 0.  1.
          3   -1    0    0  501    0  0.00000000000E+00 -0.00000000000E+00 -0.36628008199E+03  0.36628008199E+03  0.00000000000E+00 0. -1.
         25    2    1    2    0    0  0.69565457698E+02  0.13294198787E+03 -0.21567008639E+03  0.29098890010E+03  0.12509208118E+03 0.  0.
         23    2    1    2    0    0 -0.69565457698E+02 -0.13294198787E+03 -0.45508045663E+02  0.18039313182E+03  0.89206360456E+02 0.  0.
          5    1    3    3  502    0  0.87113013052E+02  0.14791444239E+03 -0.18537896594E+03  0.25268595672E+03  0.41800000000E+01 0.  1.
         -5    1    3    3    0  502 -0.17547555355E+02 -0.14972454521E+02 -0.30291120453E+02  0.38302943380E+02  0.41800000000E+01 0.  1.
        -11    1    4    4    0    0 -0.47832775508E+02 -0.13738824868E+03 -0.55963364527E+02  0.15586982856E+03  0.00000000000E+00 0.  1.
         11    1    4    4    0    0 -0.21732682190E+02  0.44462608055E+01  0.10455318865E+02  0.24523303262E+02  0.00000000000E+00 0. -1.
</event>
<event>
 8    1  0.3708258E-009  0.1196426E+03  0.7561462E-02  0.1243688E+00
          1   -1    0    0  501    0  0.00000000000E+00  0.00000000000E+00  0.11279167172E+04  0.11279167172E+04  0.00000000000E+00 0. -1.
         -1   -1    0    0    0  501 -0.00000000000E+00 -0.00000000000E+00 -0.13133600743E+02  0.13133600743E+02  0.00000000000E+00 0.  1.
         25    2    1    2    0    0 -0.70494014764E-01 -0.55466638294E+02  0.62754637954E+03  0.64229197791E+03  0.12509186020E+03 0.  0.
         23    2    1    2    0    0  0.70494014764E-01  0.55466638294E+02  0.48723673694E+03  0.49875834005E+03  0.91014784580E+02 0.  0.
          5    1    3    3  502    0 -0.13420629284E+02 -0.92278892221E+02  0.36197420170E+03  0.37381586689E+03  0.41800000000E+01 0.  1.
         -5    1    3    3    0  502  0.13350135269E+02  0.36812253927E+02  0.26557217784E+03  0.26847611103E+03  0.41800000000E+01 0.  1.
        -11    1    4    4    0    0 -0.38222073736E+01  0.80820150094E+02  0.36543330455E+03  0.37428332317E+03  0.00000000000E+00 0.  1.
         11    1    4    4    0    0  0.38927013884E+01 -0.25353511800E+02  0.12180343239E+03  0.12447501688E+03  0.00000000000E+00 0. -1.
</event>
<event>
 8    1  0.3708258E-009  0.2102149E+03  0.7561462E-02  0.1141396E+00
         -1   -1    0    0    0  501 -0.00000000000E+00  0.00000000000E+00  0.40081709770E+03  0.40081709770E+03  0.00000000000E+00 0.  1.
          1   -1    0    0  501    0  0.00000000000E+00 -0.00000000000E+00 -0.12408275815E+03  0.12408275815E+03  0.00000000000E+00 0. -1.
         25    2    1    2    0    0 -0.99421789483E+01  0.19220579295E+03  0.17808361063E+03  0.29052536300E+03  0.12509716387E+03 0.  0.
         23    2    1    2    0    0  0.99421789483E+01 -0.19220579295E+03  0.98650728924E+02  0.23437449284E+03  0.90319005822E+02 0.  0.
          5    1    3    3  502    0  0.51618164221E+02  0.46803698405E+02  0.38396955294E+02  0.79666929386E+02  0.41800000000E+01 0.  1.
         -5    1    3    3    0  502 -0.61560343169E+02  0.14540209454E+03  0.13968665534E+03  0.21085843362E+03  0.41800000000E+01 0.  1.
        -11    1    4    4    0    0  0.11671161210E+02 -0.17135175002E+03  0.11594954823E+03  0.20722436143E+03  0.00000000000E+00 0.  1.
         11    1    4    4    0    0 -0.17289822619E+01 -0.20854042933E+02 -0.17298819302E+02  0.27150131410E+02  0.00000000000E+00 0. -1.
</event>
<event>
 8    1  0.3708258E-009  0.5907076E+02  0.7561462E-02  0.1401773E+00
         -3   -1    0    0    0  501 -0.00000000000E+00  0.00000000000E+00  0.51821982088E+03  0.51821982088E+03  0.00000000000E+00 0.  1.
          3   -1    0    0  501    0  0.00000000000E+00 -0.00000000000E+00 -0.32852323931E+02  0.32852323931E+02  0.00000000000E+00 0. -1.
         25    2    1    2    0    0  0.21091216135E+02  0.29157552266E+02  0.40257189646E+03  0.42309039562E+03  0.12508536604E+03 0.  0.
         23    2    1    2    0    0 -0.21091216135E+02 -0.29157552266E+02  0.82795600491E+02  0.12798174919E+03  0.90715017570E+02 0.  0.
          5    1    3    3  502    0  0.34460814330E+02 -0.13090550466E+02  0.35863166351E+03  0.36054549326E+03  0.41800000000E+01 0. -1.
         -5    1    3    3    0  502 -0.13369598195E+02  0.42248102731E+02  0.43940232951E+02  0.62544902367E+02  0.41800000000E+01 0. -1.
        -11    1    4    4    0    0 -0.81066934911E+01 -0.63905154911E+01 -0.19671686087E+02  0.22215589146E+02  0.00000000000E+00 0. -1.
         11    1    4    4    0    0 -0.12984522644E+02 -0.22767036775E+02  0.10246728658E+03  0.10576616004E+03  0.00000000000E+00 0.  1.
</event>
<event>
 8    1  0.3708258E-009  0.9611986E+02  0.7561462E-02  0.1288674E+00
         -3   -1    0    0    0  501 -0.00000000000E+00  0.00000000000E+00  0.23955518413E+03  0.23955518413E+03  0.00000000000E+00 0.  1.
          3   -1    0    0  501    0  0.00000000000E+00 -0.00000000000E+00 -0.54755668077E+02  0.54755668077E+02  0.00000000000E+00 0. -1.
         25    2    1    2    0    0  0.26205258121E+02 -0.28115797391E+02  0.11926832232E+03  0.17705986057E+03  0.12509215763E+03 0.  0.
         23    2    1    2    0    0 -0.26205258121E+02  0.28115797391E+02  0.65531193735E+02  0.11725099163E+03  0.89309820685E+02 0.  0.
          5    1    3    3  502    0 -0.42096249745E+02 -0.35140120327E+02  0.25123104812E+02  0.60461269377E+02  0.41800000000E+01 0.  1.
         -5    1    3    3    0  502  0.68301507866E+02  0.70243229364E+01  0.94145217504E+02  0.11659859119E+03  0.41800000000E+01 0.  1.
        -11    1    4    4    0    0 -0.14330363310E+02 -0.16751164756E+02  0.67286884364E+02  0.70805971787E+02  0.00000000000E+00 0.  1.
         11    1    4    4    0    0 -0.11874894811E+02  0.44866962147E+02 -0.17556906288E+01  0.46445019848E+02  0.00000000000E+00 0. -1.
</event>
<event>
 8    1  0.3708258E-009  0.8456982E+02  0.7561462E-02  0.1316561E+00
          3   -1    0    0  501    0  0.00000000000E+00  0.00000000000E+00  0.69641945626E+02  0.69641945626E+02  0.00000000000E+00 0. -1.
         -3   -1    0    0    0  501 -0.00000000000E+00 -0.00000000000E+00 -0.19870096597E+03  0.19870096597E+03  0.00000000000E+00 0.  1.
         25    2    1    2    0    0 -0.12317334688E+02 -0.39325125138E+02 -0.95459040472E+02  0.16264569737E+03  0.12507202831E+03 0.  0.
         23    2    1    2    0    0  0.12317334688E+02  0.39325125138E+02 -0.33599979875E+02  0.10569721423E+03  0.91349659258E+02 0.  0.
          5    1    3    3  502    0 -0.21917272765E+02  0.83926534390E+01 -0.10930032426E+03  0.11186973121E+03  0.41800000000E+01 0.  1.
         -5    1    3    3    0  502  0.95999380777E+01 -0.47717778577E+02  0.13841283785E+02  0.50775966168E+02  0.41800000000E+01 0.  1.
        -11    1    4    4    0    0  0.45946265201E+02  0.16901670503E+01 -0.30413089286E+02  0.55125964395E+02  0.00000000000E+00 0.  1.
         11    1    4    4    0    0 -0.33628930513E+02  0.37634958088E+02 -0.31868905889E+01  0.50571249830E+02  0.00000000000E+00 0. -1.
</event>
<event>
 8    1  0.3708258E-009  0.1189162E+03  0.7561462E-02  0.1244896E+00
         -2   -1    0    0    0  501 -0.00000000000E+00  0.00000000000E+00  0.14253988124E+03  0.14253988124E+03  0.00000000000E+00 0.  1.
          2   -1    0    0  501    0  0.00000000000E+00 -0.00000000000E+00 -0.16107594491E+03  0.16107594491E+03  0.00000000000E+00 0. -1.
         25    2    1    2    0    0 -0.95422881323E+02 -0.18842020485E+02 -0.41810225496E+02  0.16387776420E+03  0.12508908277E+03 0.  0.
         23    2    1    2    0    0  0.95422881323E+02  0.18842020485E+02  0.23274161825E+02  0.13973806194E+03  0.97593500453E+02 0.  0.
          5    1    3    3  502    0  0.21573438458E+02 -0.14827343551E+01 -0.39825729918E+02  0.45510140755E+02  0.41800000000E+01 0. -1.
         -5    1    3    3    0  502 -0.11699631978E+03 -0.17359286129E+02 -0.19844955783E+01  0.11836762344E+03  0.41800000000E+01 0. -1.
        -11    1    4    4    0    0  0.14243734752E+02  0.61769584445E+00 -0.35245039141E+02  0.38019446496E+02  0.00000000000E+00 0. -1.
         11    1    4    4    0    0  0.81179146571E+02  0.18224324640E+02  0.58519200965E+02  0.10171861545E+03  0.00000000000E+00 0.  1.
</event>
<event>
 8    1  0.3708258E-009  0.1426315E+03  0.7561462E-02  0.1209831E+00
         -2   -1    0    0    0  501 -0.00000000000E+00  0.00000000000E+00  0.71070190152E+02  0.71070190152E+02  0.00000000000E+00 0. -1.
          2   -1    0    0  501    0  0.00000000000E+00 -0.00000000000E+00 -0.34774965562E+03  0.34774965562E+03  0.00000000000E+00 0.  1.
         25    2    1    2    0    0  0.26160709940E+02 -0.10999669340E+03 -0.16801152209E+03  0.23803334037E+03  0.12509334223E+03 0.  0.
         23    2    1    2    0    0 -0.26160709940E+02  0.10999669340E+03 -0.10866794337E+03  0.18078650540E+03  0.89952116780E+02 0.  0.
          5    1    3    3  502    0 -0.41327869251E+02 -0.93992294469E+01 -0.70945335757E+02  0.82746911463E+02  0.41800000000E+01 0.  1.
         -5    1    3    3    0  502  0.67488579191E+02 -0.10059746395E+03 -0.97066186336E+02  0.15528642891E+03  0.41800000000E+01 0.  1.
        -11    1    4    4    0    0  0.11172985569E+02  0.46327862716E+02 -0.94208308049E+02  0.10557609472E+03  0.00000000000E+00 0.  1.
         11    1    4    4    0    0 -0.37333695509E+02  0.63668830681E+02 -0.14459635325E+02  0.75210410678E+02  0.00000000000E+00 0. -1.
</event>
<event>
 8    1  0.3708258E-009  0.9292031E+02  0.7561462E-02  0.1295930E+00
         -2   -1    0    0    0  501 -0.00000000000E+00  0.00000000000E+00  0.19969779103E+02  0.19969779103E+02  0.00000000000E+00 0.  1.
          2   -1    0    0  501    0  0.00000000000E+00 -0.00000000000E+00 -0.62689079223E+03  0.62689079223E+03  0.00000000000E+00 0. -1.
         25    2    1    2    0    0  0.33623993746E+02  0.11093763763E+02 -0.30350493306E+03  0.33017707893E+03  0.12509202417E+03 0.  0.
         23    2    1    2    0    0 -0.33623993746E+02 -0.11093763763E+02 -0.30341608008E+03  0.31668349241E+03  0.83507318031E+02 0.  0.
          5    1    3    3  502    0  0.62317869735E+02 -0.29087870890E+02 -0.23961236085E+03  0.24932143308E+03  0.41800000000E+01 0. -1.
         -5    1    3    3    0  502 -0.28693875989E+02  0.40181634653E+02 -0.63892572202E+02  0.80855645846E+02  0.41800000000E+01 0. -1.
        -11    1    4    4    0    0  0.10641291567E+02  0.13153120883E+02 -0.11548871242E+02  0.20484582059E+02  0.00000000000E+00 0.  1.
         11    1    4    4    0    0 -0.44265285313E+02 -0.24246884646E+02 -0.29186720883E+03  0.29619891035E+03  0.00000000000E+00 0. -1.
</event>
<event>
 8    1  0.3708258E-009  0.1352558E+03  0.7561462E-02  0.1219859E+00
         -3   -1    0    0    0  501 -0.00000000000E+00  0.00000000000E+00  0.32906845854E+03  0.32906845854E+03  0.00000000000E+00 0.  1.
          3   -1    0    0  501    0  0.00000000000E+00 -0.00000000000E+00 -0.76304478975E+02  0.76304478975E+02  0.00000000000E+00 0. -1.
         25    2    1    2    0    0  0.41391130611E+02 -0.99224269394E+02  0.18908097011E+03  0.25091445749E+03  0.12509104840E+03 0.  0.
         23    2    1    2    0    0 -0.41391130611E+02  0.99224269394E+02  0.63683009457E+02  0.15445848003E+03  0.90792152905E+02 0.  0.
          5    1    3    3  502    0  0.24034704197E+02 -0.12658094108E+03  0.16905910597E+03  0.21260022427E+03  0.41800000000E+01 0.  1.
         -5    1    3    3    0  502  0.17356426413E+02  0.27356671681E+02  0.20021864140E+02  0.38314233216E+02  0.41800000000E+01 0.  1.
        -11    1    4    4    0    0 -0.20339977387E+02  0.27627590698E+02  0.71617318269E+02  0.79410570605E+02  0.00000000000E+00 0.  1.
         11    1    4    4    0    0 -0.21051153224E+02  0.71596678697E+02 -0.79343088120E+01  0.75047909423E+02  0.00000000000E+00 0. -1.
</event>
<event>
 8    1  0.3708258E-009  0.2242648E+03  0.7561462E-02  0.1130743E+00
         -2   -1    0    0    0  501 -0.00000000000E+00  0.00000000000E+00  0.61009575918E+02  0.61009575918E+02  0.00000000000E+00 0.  1.
          2   -1    0    0  501    0  0.00000000000E+00 -0.00000000000E+00 -0.95541991512E+03  0.95541991512E+03  0.00000000000E+00 0. -1.
         25    2    1    2    0    0 -0.14656931334E+03 -0.14523328315E+03 -0.32726691484E+03  0.40660441520E+03  0.12509295248E+03 0.  0.
         23    2    1    2    0    0  0.14656931334E+03  0.14523328315E+03 -0.56714342436E+03  0.60982507584E+03  0.87519650270E+02 0.  0.
          5    1    3    3  502    0 -0.43392520340E+01  0.20853654626E+02 -0.40570918687E+02  0.46012779340E+02  0.41800000000E+01 0. -1.
         -5    1    3    3    0  502 -0.14223006130E+03 -0.16608693778E+03 -0.28669599615E+03  0.36059163586E+03  0.41800000000E+01 0. -1.
        -11    1    4    4    0    0  0.29513166250E+02  0.46033610856E+02 -0.26915796547E+03  0.27465638658E+03  0.00000000000E+00 0. -1.
         11    1    4    4    0    0  0.11705614709E+03  0.99199672294E+02 -0.29798545888E+03  0.33516868926E+03  0.00000000000E+00 0.  1.
</event>
<event>
 8    1  0.3708258E-009  0.7531416E+02  0.7561462E-02  0.1342901E+00
          1   -1    0    0  501    0  0.00000000000E+00  0.00000000000E+00  0.29607216366E+03  0.29607216366E+03  0.00000000000E+00 0. -1.
         -1   -1    0    0    0  501 -0.00000000000E+00 -0.00000000000E+00 -0.43380444836E+02  0.43380444836E+02  0.00000000000E+00 0.  1.
         25    2    1    2    0    0 -0.11310307228E+02 -0.20025611248E+02  0.10494206349E+03  0.16490375802E+03  0.12510581347E+03 0.  0.
         23    2    1    2    0    0  0.11310307228E+02  0.20025611248E+02  0.14774965533E+03  0.17454885047E+03  0.90046612347E+02 0.  0.
          5    1    3    3  502    0  0.41160782554E+02 -0.70175692708E+01 -0.50573044608E+01  0.42267067882E+02  0.41800000000E+01 0.  1.
         -5    1    3    3    0  502 -0.52471089782E+02 -0.13008041977E+02  0.10999936795E+03  0.12263669014E+03  0.41800000000E+01 0.  1.
        -11    1    4    4    0    0  0.30135159810E+02  0.54224092078E+01  0.64967455116E+01  0.31300768052E+02  0.00000000000E+00 0.  1.
         11    1    4    4    0    0 -0.18824852582E+02  0.14603202040E+02  0.14125290982E+03  0.14324808242E+03  0.00000000000E+00 0. -1.
</event>
<event>
 8    1  0.3708258E-009  0.7952924E+02  0.7561462E-02  0.1330393E+00
         -2   -1    0    0    0  501 -0.00000000000E+00  0.00000000000E+00  0.33871828243E+03  0.33871828243E+03  0.00000000000E+00 0. -1.
          2   -1    0    0  501    0  0.00000000000E+00 -0.00000000000E+00 -0.38968488162E+02  0.38968488162E+02  0.00000000000E+00 0.  1.
         25    2    1    2    0    0 -0.21416265537E+02  0.31658811153E+02  0.18999931394E+03  0.23067128692E+03  0.12509423072E+03 0.  0.
         23    2    1    2    0    0  0.21416265537E+02 -0.31658811153E+02  0.10975048033E+03  0.14701548367E+03  0.90041366906E+02 0.  0.
          5    1    3    3  502    0 -0.33684849656E+02 -0.19746601978E+02  0.66712203733E+01  0.39831833592E+02  0.41800000000E+01 0.  1.
         -5    1    3    3    0  502  0.12268584119E+02  0.51405413131E+02  0.18332809357E+03  0.19083945333E+03  0.41800000000E+01 0.  1.
        -11    1    4    4    0    0  0.37947199483E+02 -0.94801791978E+01  0.59144420925E+01  0.39558113851E+02  0.00000000000E+00 0.  1.
         11    1    4    4    0    0 -0.16530933946E+02 -0.22178631955E+02  0.10383603824E+03  0.10745736982E+03  0.00000000000E+00 0. -1.
</event>
<event>
 8    1  0.3708258E-009  0.1019388E+03  0.7561462E-02  0.1276271E+00
          2   -1    0    0  501    0  0.00000000000E+00  0.00000000000E+00  0.10028406432E+04  0.10028406432E+04  0.00000000000E+00 0.  1.
         -2   -1    0    0    0  501 -0.00000000000E+00 -0.00000000000E+00 -0.14592008260E+02  0.14592008260E+02  0.00000000000E+00 0. -1.
         25    2    1    2    0    0  0.34444897857E+02  0.30266410519E+02  0.62756256772E+03  0.64155016666E+03  0.12509729554E+03 0.  0.
         23    2    1    2    0    0 -0.34444897857E+02 -0.30266410519E+02  0.36068606717E+03  0.37588248475E+03  0.95345145095E+02 0.  0.
          5    1    3    3  502    0 -0.31827940071E+02 -0.17562434878E+02  0.80827894754E+02  0.88724730816E+02  0.41800000000E+01 0. -1.
         -5    1    3    3    0  502  0.66272837928E+02  0.47828845397E+02  0.54673467296E+03  0.55282543585E+03  0.41800000000E+01 0. -1.
        -11    1    4    4    0    0 -0.52159067990E+02 -0.21310567456E+01  0.31546287596E+03  0.31975292944E+03  0.00000000000E+00 0.  1.
         11    1    4    4    0    0  0.17714170133E+02 -0.28135353773E+02  0.45223191209E+02  0.56129555304E+02  0.00000000000E+00 0. -1.
</event>
<event>
 8    1  0.3708258E-009  0.1194636E+03  0.7561462E-02  0.1243985E+00
          1   -1    0    0  501    0  0.00000000000E+00  0.00000000000E+00  0.17064226406E+03  0.17064226406E+03  0.00000000000E+00 0. -1.
         -1   -1    0    0    0  501 -0.00000000000E+00 -0.00000000000E+00 -0.11433839682E+03  0.11433839682E+03  0.00000000000E+00 0.  1.
         25    2    1    2    0    0 -0.17376274271E+02 -0.75001200772E+02 -0.12267672521E+02  0.14739387997E+03  0.12508934822E+03 0.  0.
         23    2    1    2    0    0  0.17376274271E+02  0.75001200772E+02  0.68571539756E+02  0.13758678091E+03  0.91109555985E+02 0.  0.
          5    1    3    3  502    0  0.37777581104E+02  0.95010514719E+01 -0.23644679858E+02  0.45759795659E+02  0.41800000000E+01 0. -1.
         -5    1    3    3    0  502 -0.55153855376E+02 -0.84502252244E+02  0.11377007337E+02  0.10163408431E+03  0.41800000000E+01 0. -1.
        -11    1    4    4    0    0  0.37639884268E+02  0.26051223155E+02 -0.59414001475E+01  0.46159802332E+02  0.00000000000E+00 0.  1.
         11    1    4    4    0    0 -0.20263609997E+02  0.48949977617E+02  0.74512939903E+02  0.91426978578E+02  0.00000000000E+00 0. -1.
</event>
<event>
 8    1  0.3708258E-009  0.6458426E+02  0.7561462E-02  0.1379542E+00
         -2   -1    0    0    0  501 -0.00000000000E+00  0.00000000000E+00  0.20983327489E+02  0.20983327489E+02  0.00000000000E+00 0.  1.
          2   -1    0    0  501    0  0.00000000000E+00 -0.00000000000E+00 -0.56207153099E+03  0.56207153099E+03  0.00000000000E+00 0. -1.
         25    2    1    2    0    0  0.13143658891E+02 -0.79970542107E+01 -0.33954954001E+03  0.36218468484E+03  0.12508855732E+03 0.  0.
         23    2    1    2    0    0 -0.13143658891E+02  0.79970542107E+01 -0.20153866349E+03  0.22087017363E+03  0.89045449481E+02 0.  0.
          5    1    3    3  502    0  0.13975984432E+02 -0.31381943264E+02 -0.16636441492E+02  0.38397891731E+02  0.41800000000E+01 0. -1.
         -5    1    3    3    0  502 -0.83232554129E+00  0.23384889054E+02 -0.32291309852E+03  0.32378679311E+03  0.41800000000E+01 0. -1.
        -11    1    4    4    0    0  0.49517565342E+01  0.36606481715E+02 -0.17206458261E+03  0.17598515558E+03  0.00000000000E+00 0. -1.
         11    1    4    4    0    0 -0.18095415425E+02 -0.28609427505E+02 -0.29474080879E+02  0.44885018049E+02  0.00000000000E+00 0.  1.
</event>
<event>
 8    1  0.3708258E-009  0.2536915E+03  0.7561462E-02  0.1110994E+00
          2   -1    0    0  501    0  0.00000000000E+00  0.00000000000E+00  0.82578866845E+03  0.82578866845E+03  0.00000000000E+00 0. -1.
         -2   -1    0    0    0  501 -0.00000000000E+00 -0.00000000000E+00 -0.14049081276E+03  0.14049081276E+03  0.00000000000E+00 0.  1.
         25    2    1    2    0    0  0.60095745361E+02 -0.24388956048E+03  0.62758870488E+02  0.28753764412E+03  0.12508239141E+03 0.  0.
         23    2    1    2    0    0 -0.60095745361E+02  0.24388956048E+03  0.62253898520E+03  0.67874183709E+03  0.10021016415E+03 0.  0.
          5    1    3    3  502    0  0.28412908637E+02 -0.72255128315E+02  0.80665008127E+02  0.11203755121E+03  0.41800000000E+01 0. -1.
         -5    1    3    3    0  502  0.31682836724E+02 -0.17163443216E+03 -0.17906137638E+02  0.17550009291E+03  0.41800000000E+01 0. -1.
        -11    1    4    4    0    0 -0.56024734054E+02  0.13611342984E+03  0.46562555907E+03  0.48833676686E+03  0.00000000000E+00 0. -1.
         11    1    4    4    0    0 -0.40710113071E+01  0.10777613064E+03  0.15691342613E+03  0.19040507023E+03  0.00000000000E+00 0.  1.
</event>
<event>
 8    1  0.3708258E-009  0.1381445E+03  0.7561462E-02  0.1215848E+00
         -1   -1    0    0    0  501 -0.00000000000E+00  0.00000000000E+00  0.20037248712E+03  0.20037248712E+03  0.00000000000E+00 0.  1.
          1   -1    0    0  501    0  0.00000000000E+00 -0.00000000000E+00 -0.12233174562E+03  0.12233174562E+03  0.00000000000E+00 0. -1.
         25    2    1    2    0    0  0.72133002204E+02  0.79637020806E+02  0.73229042568E+02  0.18043497609E+03  0.12509621430E+03 0.  0.
         23    2    1    2    0    0 -0.72133002204E+02 -0.79637020806E+02  0.48116989323E+01  0.14226925664E+03  0.93124453543E+02 0.  0.
          5    1    3    3  502    0 -0.20048335773E+02  0.92291114500E+01  0.59447733808E+02  0.63550119751E+02  0.41800000000E+01 0. -1.
         -5    1    3    3    0  502  0.92181337978E+02  0.70407909356E+02  0.13781308760E+02  0.11688485634E+03  0.41800000000E+01 0. -1.
        -11    1    4    4    0    0 -0.81497674644E+02 -0.29375949720E+02  0.20050603508E+02  0.88920436882E+02  0.00000000000E+00 0.  1.
         11    1    4    4    0    0  0.93646724392E+01 -0.50261071086E+02 -0.15238904576E+02  0.53348819755E+02  0.00000000000E+00 0. -1.
</event>
<event>
 8    1  0.3708258E-009  0.8026935E+02  0.7561462E-02  0.1328289E+00
         -3   -1    0    0    0  501 -0.00000000000E+00  0.00000000000E+00  0.76044421941E+03  0.76044421941E+03  0.00000000000E+00 0.  1.
          3   -1    0    0  501    0  0.00000000000E+00 -0.00000000000E+00 -0.22111691952E+02  0.22111691952E+02  0.00000000000E+00 0. -1.
         25    2    1    2    0    0 -0.19367314250E+02  0.68082528706E+02  0.35977941081E+03  0.38742590797E+03  0.12508911282E+03 0.  0.
         23    2    1    2    0    0  0.19367314250E+02 -0.68082528706E+02  0.37855311664E+03  0.39513000339E+03  0.88402114697E+02 0.  0.
          5    1    3    3  502    0 -0.13334211899E+02  0.21390306616E+02  0.33121591019E+03  0.33219993676E+03  0.41800000000E+01 0. -1.
         -5    1    3    3    0  502 -0.60331023504E+01  0.46692222090E+02  0.28563500624E+02  0.55225971205E+02  0.41800000000E+01 0. -1.
        -11    1    4    4    0    0  0.23035891642E+02 -0.38137983887E+01  0.19702941397E+02  0.30551649082E+02  0.00000000000E+00 0. -1.
         11    1    4    4    0    0 -0.36685773925E+01 -0.64268730317E+02  0.35885017525E+03  0.36457835431E+03  0.00000000000E+00 0.  1.
</event>
<event>
 8    1  0.3708258E-009  0.8690673E+02  0.7561462E-02  0.1310520E+00
         -2   -1    0    0    0  501 -0.00000000000E+00  0.00000000000E+00  0.35754610463E+02  0.35754610463E+02  0.00000000000E+00 0.  1.
          2   -1    0    0  501    0  0.00000000000E+00 -0.00000000000E+00 -0.51430340140E+03  0.51430340140E+03  0.00000000000E+00 0. -1.
         25    2    1    2    0    0  0.13002124716E+02  0.22543388811E+02 -0.42078924259E+03  0.43975987183E+03  0.12509156072E+03 0.  0.
         23    2    1    2    0    0 -0.13002124716E+02 -0.22543388811E+02 -0.57759548345E+02  0.11029814003E+03  0.90289836880E+02 0.  0.
          5    1    3    3  502    0  0.42069122804E+02  0.27325157123E+02 -0.40072404428E+03  0.40387338037E+03  0.41800000000E+01 0. -1.
         -5    1    3    3    0  502 -0.29066998088E+02 -0.47817683112E+01 -0.20065198308E+02  0.35886491458E+02  0.41800000000E+01 0. -1.
        -11    1    4    4    0    0 -0.45822081847E+02 -0.35978409216E+02 -0.32021284520E+02  0.66479107822E+02  0.00000000000E+00 0. -1.
         11    1    4    4    0    0  0.32819957131E+02  0.13435020404E+02 -0.25738263825E+02  0.43819032213E+02  0.00000000000E+00 0.  1.
</event>
<event>
 8    1  0.3708258E-009  0.1269832E+03  0.7561462E-02  0.1232002E+00
          2   -1    0    0  501    0  0.00000000000E+00  0.00000000000E+00  0.33203121497E+03  0.33203121497E+03  0.00000000000E+00 0. -1.
         -2   -1    0    0    0  501 -0.00000000000E+00 -0.00000000000E+00 -0.63210496230E+02  0.63210496230E+02  0.00000000000E+00 0.  1.
         25    2    1    2    0    0  0.81260927432E+02  0.35305064243E+02  0.99615212427E+02  0.18281144527E+03  0.12508816125E+03 0.  0.
         23    2    1    2    0    0 -0.81260927432E+02 -0.35305064243E+02  0.16920550631E+03  0.21243026593E+03  0.92985636684E+02 0.  0.
          5    1    3    3  502    0  0.11284386753E+03  0.16043867410E+02  0.61699569211E+02  0.12967441290E+03  0.41800000000E+01 0.  1.
         -5    1    3    3    0  502 -0.31582940094E+02  0.19261196833E+02  0.37915643216E+02  0.53137032368E+02  0.41800000000E+01 0.  1.
        -11    1    4    4    0    0 -0.66730255566E+02 -0.24697164365E+01  0.16279183159E+03  0.17595512763E+03  0.00000000000E+00 0. -1.
         11    1    4    4    0    0 -0.14530671866E+02 -0.32835347806E+02  0.64136747169E+01  0.36475138297E+02  0.00000000000E+00 0.  1.
</event>
<event>
 8    1  0.3708258E-009  0.1912917E+03  0.7561462E-02  0.1157301E+00
         -1   -1    0    0    0  501 -0.00000000000E+00  0.00000000000E+00  0.36376089520E+03  0.36376089520E+03  0.00000000000E+00 0.  1.
          1   -1    0    0  501    0  0.00000000000E+00 -0.00000000000E+00 -0.12901256780E+03  0.12901256780E+03  0.00000000000E+00 0. -1.
         25    2    1    2    0    0  0.14438358384E+03 -0.87433355803E+02  0.30934901433E+02  0.21235773466E+03  0.12509048067E+03 0.  0.
         23    2    1    2    0    0 -0.14438358384E+03  0.87433355803E+02  0.20381342597E+03  0.28041572834E+03  0.92746197255E+02 0.  0.
          5    1    3    3  502    0  0.16593437850E+03 -0.87004329737E+02  0.22160644389E+02  0.18871284514E+03  0.41800000000E+01 0. -1.
         -5    1    3    3    0  502 -0.21550794659E+02 -0.42902606617E+00  0.87742570441E+01  0.23644889521E+02  0.41800000000E+01 0. -1.
        -11    1    4    4    0    0 -0.12024337390E+02  0.23126094317E+02  0.91942453451E+02  0.95565766227E+02  0.00000000000E+00 0.  1.
         11    1    4    4    0    0 -0.13235924645E+03  0.64307261486E+02  0.11187097252E+03  0.18484996211E+03  0.00000000000E+00 0. -1.
</event>
<event>
 8    1  0.3708258E-009  0.9899409E+02  0.7561462E-02  0.1282426E+00
          2   -1    0    0  501    0  0.00000000000E+00  0.00000000000E+00  0.56589868797E+03  0.56589868797E+03  0.00000000000E+00 0. -1.
         -2   -1    0    0    0  501 -0.00000000000E+00 -0.00000000000E+00 -0.27146544562E+02  0.27146544562E+02  0.00000000000E+00 0.  1.
         25    2    1    2    0    0  0.12475590413E+02  0.59673164785E+02  0.34459039606E+03  0.37162613164E+03  0.12508762411E+03 0.  0.
         23    2    1    2    0    0 -0.12475590413E+02 -0.59673164785E+02  0.19416174734E+03  0.22141910089E+03  0.87241659525E+02 0.  0.
          5    1    3    3  502    0 -0.37946736938E+02  0.38550265515E+02  0.28710637186E+03  0.29218764343E+03  0.41800000000E+01 0.  1.
         -5    1    3    3    0  502  0.50422327351E+02  0.21122899270E+02  0.57484024207E+02  0.79438488204E+02  0.41800000000E+01 0.  1.
        -11    1    4    4    0    0  0.17318994273E+02 -0.56320841660E+02  0.60564569576E+02  0.84498827542E+02  0.00000000000E+00 0.  1.
         11    1    4    4    0    0 -0.29794584686E+02 -0.33523231248E+01  0.13359717777E+03  0.13692027335E+03  0.00000000000E+00 0. -1.
</event>
<event>
 8    1  0.3708258E-009  0.1058326E+03  0.7561462E-02  0.1268488E+00
         -1   -1    0    0    0  501 -0.00000000000E+00  0.00000000000E+00  0.96416731978E+02  0.96416731978E+02  0.00000000000E+00 0.  1.
          1   -1    0    0  501    0  0.00000000000E+00 -0.00000000000E+00 -0.15573260292E+03  0.15573260292E+03  0.00000000000E+00 0. -1.
         25    2    1    2    0    0 -0.16685088657E+02 -0.42169691759E+02 -0.64697193855E+02  0.14794871443E+03  0.12508565115E+03 0.  0.
         23    2    1    2    0    0  0.16685088657E+02  0.42169691759E+02  0.53813229116E+01  0.10420062047E+03  0.93659679601E+02 0.  0.
          5    1    3    3  502    0 -0.34243538158E+02  0.22154074479E+02  0.15266939408E+02  0.43748997251E+02  0.41800000000E+01 0.  1.
         -5    1    3    3    0  502  0.17558449501E+02 -0.64323766239E+02 -0.79964133263E+02  0.10419971718E+03  0.41800000000E+01 0.  1.
        -11    1    4    4    0    0  0.54893793201E+02  0.34655114954E+02  0.20940853077E+00  0.64918020429E+02  0.00000000000E+00 0.  1.
         11    1    4    4    0    0 -0.38208704544E+02  0.75145768059E+01  0.51719143808E+01  0.39282600039E+02  0.00000000000E+00 0. -1.
</event>
<event>
 8    1  0.3708258E-009  0.1437366E+03  0.7561462E-02  0.1208388E+00
          1   -1    0    0  501    0  0.00000000000E+00  0.00000000000E+00  0.10158100494E+03  0.10158100494E+03  0.00000000000E+00 0. -1.
         -1   -1    0    0    0  501 -0.00000000000E+00 -0.00000000000E+00 -0.28127993469E+03  0.28127993469E+03  0.00000000000E+00 0.  1.
         25    2    1    2    0    0 -0.32801399548E+02 -0.10201775057E+03 -0.17886285974E+03  0.24315480901E+03  0.12509510505E+03 0.  0.
         23    2    1    2    0    0  0.32801399548E+02  0.10201775057E+03 -0.83607001501E+00  0.13970613062E+03  0.89630076861E+02 0.  0.
          5    1    3    3  502    0  0.41772764639E+02 -0.62677400799E+02 -0.55420458242E+02  0.93607264826E+02  0.41800000000E+01 0. -1.
         -5    1    3    3    0  502 -0.74574164187E+02 -0.39340349767E+02 -0.12344240150E+03  0.14954754418E+03  0.41800000000E+01 0. -1.
        -11    1    4    4    0    0  0.54230260239E+02  0.81882990554E+02 -0.25341238838E+02  0.10142940231E+03  0.00000000000E+00 0.  1.
         11    1    4    4    0    0 -0.21428860691E+02  0.20134760013E+02  0.24505168823E+02  0.38276728312E+02  0.00000000000E+00 0. -1.
</event>
<event>
 8    1  0.3708258E-009  0.1483095E+03  0.7561462E-02  0.1202566E+00
          2   -1    0    0  501    0  0.00000000000E+00  0.00000000000E+00  0.31576254828E+03  0.31576254828E+03  0.00000000000E+00 0. -1.
         -2   -1    0    0    0  501 -0.00000000000E+00 -0.00000000000E+00 -0.70638482088E+02  0.70638482088E+02  0.00000000000E+00 0.  1.
         25    2    1    2    0    0 -0.68175956785E+02  0.78893230387E+02  0.14276213689E+03  0.21656730156E+03  0.12509302736E+03 0.  0.
         23    2    1    2    0    0  0.68175956785E+02 -0.78893230387E+02  0.10236192931E+03  0.16983372880E+03  0.86564588509E+02 0.  0.
          5    1    3    3  502    0 -0.10037836291E+03  0.81873729152E+02  0.10602388844E+03  0.16744450002E+03  0.41800000000E+01 0. -1.
         -5    1    3    3    0  502  0.32202406125E+02 -0.29804987649E+01  0.36738248446E+02  0.49122801549E+02  0.41800000000E+01 0. -1.
        -11    1    4    4    0    0  0.30411468280E+02  0.14483374818E+02  0.16638863090E+02  0.37569632870E+02  0.00000000000E+00 0.  1.
         11    1    4    4    0    0  0.37764488505E+02 -0.93376605205E+02  0.85723066217E+02  0.13226409593E+03  0.00000000000E+00 0. -1.
</event>
<event>
 8    1  0.3708258E-009  0.2421904E+03  0.7561462E-02  0.1118342E+00
          1   -1    0    0  501    0  0.00000000000E+00  0.00000000000E+00  0.15923555493E+04  0.15923555493E+04  0.00000000000E+00 0. -1.
         -1   -1    0    0    0  501 -0.00000000000E+00 -0.00000000000E+00 -0.42903070646E+02  0.42903070646E+02  0.00000000000E+00 0.  1.
         25    2    1    2    0    0 -0.54441509743E+02  0.21493753063E+03  0.10681257126E+04  0.10980445570E+04  0.12508913256E+03 0.  0.
         23    2    1    2    0    0  0.54441509743E+02 -0.21493753063E+03  0.48132676601E+03  0.53721406295E+03  0.88099226439E+02 0.  0.
          5    1    3    3  502    0 -0.38220991609E+02  0.22548463795E+03  0.10299251670E+04  0.10550201364E+04  0.41800000000E+01 0.  1.
         -5    1    3    3    0  502 -0.16220518134E+02 -0.10547107329E+02  0.38200545632E+02  0.43024420602E+02  0.41800000000E+01 0.  1.
        -11    1    4    4    0    0  0.63637479282E+02 -0.88117963355E+02  0.18179338811E+03  0.21180967918E+03  0.00000000000E+00 0. -1.
         11    1    4    4    0    0 -0.91959695389E+01 -0.12681956727E+03  0.29953337790E+03  0.32540438377E+03  0.00000000000E+00 0.  1.
</event>
<event>
 8    1  0.3708258E-009  0.1065519E+03  0.7561462E-02  0.1267092E+00
         -3   -1    0    0    0  501 -0.00000000000E+00  0.00000000000E+00  0.62310805896E+02  0.62310805896E+02  0.00000000000E+00 0.  1.
          3   -1    0    0  501    0  0.00000000000E+00 -0.00000000000E+00 -0.22160643884E+03  0.22160643884E+03  0.00000000000E+00 0. -1.
         25    2    1    2    0    0 -0.28633136592E+02 -0.16697052305E+02 -0.54686414595E+02  0.14048779660E+03  0.12509024336E+03 0.  0.
         23    2    1    2    0    0  0.28633136592E+02  0.16697052305E+02 -0.10460921835E+03  0.14342944814E+03  0.92359460604E+02 0.  0.
          5    1    3    3  502    0 -0.73042139997E+02  0.11817866544E+02 -0.44898745945E+02  0.86649789223E+02  0.41800000000E+01 0. -1.
         -5    1    3    3    0  502  0.44409003404E+02 -0.28514918850E+02 -0.97876686505E+01  0.53838007374E+02  0.41800000000E+01 0. -1.
        -11    1    4    4    0    0 -0.24860740553E+02  0.20782607175E+02 -0.87265009748E+01  0.33557785998E+02  0.00000000000E+00 0.  1.
         11    1    4    4    0    0  0.53493877145E+02 -0.40855548692E+01 -0.95882717374E+02  0.10987166214E+03  0.00000000000E+00 0. -1.
</event>
<event>
 8    1  0.3708258E-009  0.1100851E+03  0.7561462E-02  0.1260412E+00
         -3   -1    0    0    0  501 -0.00000000000E+00  0.00000000000E+00  0.45507614461E+03  0.45507614461E+03  0.00000000000E+00 0.  1.
          3   -1    0    0  501    0  0.00000000000E+00 -0.00000000000E+00 -0.36315882639E+02  0.36315882639E+02  0.00000000000E+00 0. -1.
         25    2    1    2    0    0 -0.59698361157E+02 -0.14332175976E+02  0.17368742350E+03  0.22267485817E+03  0.12508983087E+03 0.  0.
         23    2    1    2    0    0  0.59698361157E+02  0.14332175976E+02  0.24507283846E+03  0.26871716907E+03  0.91536414658E+02 0.  0.
          5    1    3    3  502    0 -0.29682751245E+02 -0.54473443803E+02  0.15830692175E+03  0.17007932172E+03  0.41800000000E+01 0.  1.
         -5    1    3    3    0  502 -0.30015609912E+02  0.40141267828E+02  0.15380501754E+02  0.52595536459E+02  0.41800000000E+01 0.  1.
        -11    1    4    4    0    0  0.74588257056E+02 -0.13812861377E+02  0.14415409209E+03  0.16289446122E+03  0.00000000000E+00 0. -1.
         11    1    4    4    0    0 -0.14889895899E+02  0.28145037352E+02  0.10091874637E+03  0.10582270785E+03  0.00000000000E+00 0.  1.
</event>
<event>
 8    1  0.3708258E-009  0.1035996E+03  0.7561462E-02  0.1272904E+00
         -4   -1    0    0    0  501 -0.00000000000E+00  0.00000000000E+00  0.12753887448E+03  0.12753887448E+03  0.00000000000E+00 0. -1.
          4   -1    0    0  501    0  0.00000000000E+00 -0.00000000000E+00 -0.12126161733E+03  0.12126161733E+03  0.00000000000E+00 0.  1.
         25    2    1    2    0    0 -0.20426676231E+02  0.42130193280E+02 -0.28335626143E+02  0.13653769994E+03  0.12508970184E+03 0.  0.
         23    2    1    2    0    0  0.20426676231E+02 -0.42130193280E+02  0.34612883295E+02  0.11226279188E+03  0.95982709186E+02 0.  0.
          5    1    3    3  502    0 -0.11473665480E+02  0.81954850236E+02 -0.42507961895E+02  0.93127019179E+02  0.41800000000E+01 0. -1.
         -5    1    3    3    0  502 -0.89530107507E+01 -0.39824656956E+02  0.14172335752E+02  0.43410680758E+02  0.41800000000E+01 0. -1.
        -11    1    4    4    0    0  0.45880235766E+02 -0.22142256599E+02 -0.14929474912E+02  0.53086389804E+02  0.00000000000E+00 0.  1.
         11    1    4    4    0    0 -0.25453559535E+02 -0.19987936681E+02  0.49542358207E+02  0.59176402075E+02  0.00000000000E+00 0. -1.
</event>
<event>
 8    1  0.3708258E-009  0.9651053E+02  0.7561462E-02  0.1287810E+00
         -1   -1    0    0    0  501 -0.00000000000E+00  0.00000000000E+00  0.69043328422E+03  0.69043328422E+03  0.00000000000E+00 0.  1.
          1   -1    0    0  501    0  0.00000000000E+00 -0.00000000000E+00 -0.22381526499E+02  0.22381526499E+02  0.00000000000E+00 0. -1.
         25    2    1    2    0    0 -0.35765770703E+02 -0.43510914589E+02  0.42429228799E+03  0.44591957157E+03  0.12509168088E+03 0.  0.
         23    2    1    2    0    0  0.35765770703E+02  0.43510914589E+02  0.24375946974E+03  0.26689523915E+03  0.92962355560E+02 0.  0.
          5    1    3    3  502    0  0.16338370220E+01 -0.82430358643E+02  0.27447157532E+03  0.28661743058E+03  0.41800000000E+01 0. -1.
         -5    1    3    3    0  502 -0.37399607725E+02  0.38919444054E+02  0.14982071266E+03  0.15930214100E+03  0.41800000000E+01 0. -1.
        -11    1    4    4    0    0  0.28428577199E+02  0.34028429840E+02  0.24963564112E+03  0.25354303650E+03  0.00000000000E+00 0.  1.
         11    1    4    4    0    0  0.73371935036E+01  0.94824847485E+01 -0.58761713829E+01  0.13352202651E+02  0.00000000000E+00 0. -1.
</event>
<event>
 8    1  0.3708258E-009  0.1688518E+03  0.7561462E-02  0.1179051E+00
          1   -1    0    0  501    0  0.00000000000E+00  0.00000000000E+00  0.24723246612E+03  0.24723246612E+03  0.00000000000E+00 0. -1.
         -1   -1    0    0    0  501 -0.00000000000E+00 -0.00000000000E+00 -0.15317545488E+03  0.15317545488E+03  0.00000000000E+00 0.  1.
         25    2    1    2    0    0 -0.22509155005E+02  0.13895249246E+03  0.13254411901E+03  0.23028030258E+03  0.12508643833E+03 0.  0.
         23    2    1    2    0    0  0.22509155005E+02 -0.13895249246E+03 -0.38487107774E+02  0.17012761842E+03  0.87451082686E+02 0.  0.
          5    1    3    3  502    0  0.43203905279E+02  0.10248849111E+03  0.63500404632E+02  0.12814149222E+03  0.41800000000E+01 0.  1.
         -5    1    3    3    0  502 -0.65713060284E+02  0.36464001354E+02  0.69043714379E+02  0.10213881036E+03  0.41800000000E+01 0.  1.
        -11    1    4    4    0    0 -0.17760834207E+02 -0.28627425254E+02  0.19734056299E+02  0.39043689456E+02  0.00000000000E+00 0. -1.
         11    1    4    4    0    0  0.40269989212E+02 -0.11032506721E+03 -0.58221164073E+02  0.13108392896E+03  0.00000000000E+00 0.  1.
</event>
<event>
 8    1  0.3708258E-009  0.1612099E+03  0.7561462E-02  0.1187338E+00
          1   -1    0    0  501    0  0.00000000000E+00  0.00000000000E+00  0.44867660446E+03  0.44867660446E+03  0.00000000000E+00 0. -1.
         -1   -1    0    0    0  501 -0.00000000000E+00 -0.00000000000E+00 -0.73806494092E+02  0.73806494092E+02  0.00000000000E+00 0.  1.
         25    2    1    2    0    0 -0.89894125800E+02  0.11175464638E+03  0.24025800358E+03  0.30649907645E+03  0.12509084993E+03 0.  0.
         23    2    1    2    0    0  0.89894125800E+02 -0.11175464638E+03  0.13461210679E+03  0.21598402211E+03  0.89211118532E+02 0.  0.
          5    1    3    3  502    0 -0.10505307218E+03  0.10232026631E+03  0.24673076060E+03  0.28705247865E+03  0.41800000000E+01 0. -1.
         -5    1    3    3    0  502  0.15158946376E+02  0.94343800747E+01 -0.64727570166E+01  0.19446597801E+02  0.41800000000E+01 0. -1.
        -11    1    4    4    0    0  0.45904920029E+02 -0.10265882762E+03  0.12832487490E+03  0.17062640502E+03  0.00000000000E+00 0. -1.
         11    1    4    4    0    0  0.43989205771E+02 -0.90958187691E+01  0.62872318889E+01  0.45357617092E+02  0.00000000000E+00 0.  1.
</event>
<event>
 8    1  0.3708258E-009  0.5044770E+02  0.7561462E-02  0.1442942E+00
          2   -1    0    0  501    0  0.00000000000E+00  0.00000000000E+00  0.20069627250E+03  0.20069627250E+03  0.00000000000E+00 0. -1.
         -2   -1    0    0    0  501 -0.00000000000E+00 -0.00000000000E+00 -0.10321104928E+03  0.10321104928E+03  0.00000000000E+00 0.  1.
         25    2    1    2    0    0  0.31510002562E+02  0.10983325493E+01 -0.35678023508E+02  0.13384524347E+03  0.12509013247E+03 0.  0.
         23    2    1    2    0    0 -0.31510002562E+02 -0.10983325493E+01  0.13316324673E+03  0.17006207831E+03  0.10096818115E+03 0.  0.
          5    1    3    3  502    0  0.10148805565E+02 -0.52124402653E+01  0.46778618641E+02  0.48330935744E+02  0.41800000000E+01 0.  1.
         -5    1    3    3    0  502  0.21361196997E+02  0.63107728146E+01 -0.82456642149E+02  0.85514307722E+02  0.41800000000E+01 0.  1.
        -11    1    4    4    0    0  0.12997976166E+02 -0.14622710030E+02 -0.82212934994E+01  0.21221703510E+02  0.00000000000E+00 0.  1.
         11    1    4    4    0    0 -0.44507978729E+02  0.13524377481E+02  0.14138454023E+03  0.14884037480E+03  0.00000000000E+00 0. -1.
</event>
<event>
 8    1  0.3708258E-009  0.1493588E+03  0.7561462E-02  0.1201263E+00
         -4   -1    0    0    0  501 -0.00000000000E+00  0.00000000000E+00  0.21529290854E+03  0.21529290854E+03  0.00000000000E+00 0.  1.
          4   -1    0    0  501    0  0.00000000000E+00 -0.00000000000E+00 -0.11954230810E+03  0.11954230810E+03  0.00000000000E+00 0. -1.
         25    2    1    2    0    0  0.93285415362E+02 -0.70509392092E+02  0.82111428128E+02  0.18990336562E+03  0.12508900252E+03 0.  0.
         23    2    1    2    0    0 -0.93285415362E+02  0.70509392092E+02  0.13639172314E+02  0.14493185101E+03  0.84530889766E+02 0.  0.
          5    1    3    3  502    0  0.52846203655E+02 -0.94555440703E+02  0.17403039560E+02  0.10978975723E+03  0.41800000000E+01 0. -1.
         -5    1    3    3    0  502  0.40439211707E+02  0.24046048612E+02  0.64708388568E+02  0.80113608384E+02  0.41800000000E+01 0. -1.
        -11    1    4    4    0    0 -0.15252800447E+02  0.62850327273E+02 -0.31328310956E+01  0.64750491817E+02  0.00000000000E+00 0.  1.
         11    1    4    4    0    0 -0.78032614915E+02  0.76590648182E+01  0.16772003409E+02  0.80181359198E+02  0.00000000000E+00 0. -1.
</event>
<event>
 8    1  0.3708258E-009  0.7875914E+02  0.7561462E-02  0.1332610E+00
         -1   -1    0    0    0  501 -0.00000000000E+00  0.00000000000E+00  0.41574337722E+02  0.41574337722E+02  0.00000000000E+00 0.  1.
          1   -1    0    0  501    0  0.00000000000E+00 -0.00000000000E+00 -0.35667271054E+03  0.35667271054E+03  0.00000000000E+00 0. -1.
         25    2    1    2    0    0  0.26706573626E+02 -0.43379613110E+02 -0.15214816269E+03  0.20344929545E+03  0.12509004956E+03 0.  0.
         23    2    1    2    0    0 -0.26706573626E+02  0.43379613110E+02 -0.16295021013E+03  0.19479775282E+03  0.93799582154E+02 0.  0.
          5    1    3    3  502    0  0.15282001354E+01  0.97773367077E+01  0.19330678809E+02  0.22115136264E+02  0.41800000000E+01 0. -1.
         -5    1    3    3    0  502  0.25178373491E+02 -0.53156949817E+02 -0.17147884150E+03  0.18133415918E+03  0.41800000000E+01 0. -1.
        -11    1    4    4    0    0 -0.51448735503E+02  0.26647484348E+02 -0.15252949065E+03  0.16316343440E+03  0.00000000000E+00 0. -1.
         11    1    4    4    0    0  0.24742161876E+02  0.16732128761E+02 -0.10420719481E+02  0.31634318417E+02  0.00000000000E+00 0.  1.
</event>
<event>
 8    1  0.3708258E-009  0.1039884E+03  0.7561462E-02  0.1272126E+00
          4   -1    0    0  501    0  0.00000000000E+00  0.00000000000E+00  0.10819655890E+03  0.10819655890E+03  0.00000000000E+00 0. -1.
         -4   -1    0    0    0  501 -0.00000000000E+00 -0.00000000000E+00 -0.12427907131E+03  0.12427907131E+03  0.00000000000E+00 0.  1.
         25    2    1    2    0    0 -0.63725020994E+01 -0.22197622937E+02 -0.46900373341E+02  0.13557639547E+03  0.12509184923E+03 0.  0.
         23    2    1    2    0    0  0.63725020994E+01  0.22197622937E+02  0.30817860930E+02  0.96899234741E+02  0.88917815392E+02 0.  0.
          5    1    3    3  502    0  0.18350807355E+02  0.43496683127E+02  0.57377799667E+01  0.47740005160E+02  0.41800000000E+01 0. -1.
         -5    1    3    3    0  502 -0.24723309455E+02 -0.65694306065E+02 -0.52638153308E+02  0.87836390314E+02  0.41800000000E+01 0. -1.
        -11    1    4    4    0    0 -0.38584299931E+02  0.23704199154E+02  0.24467020699E+02  0.51471082761E+02  0.00000000000E+00 0. -1.
         11    1    4    4    0    0  0.44956802030E+02 -0.15065762167E+01  0.63508402305E+01  0.45428151980E+02  0.00000000000E+00 0.  1.
</event>
<event>
 8    1  0.3708258E-009  0.9365211E+02  0.7561462E-02  0.1294241E+00
         -1   -1    0    0    0  501 -0.00000000000E+00  0.00000000000E+00  0.41073579340E+02  0.41073579340E+02  0.00000000000E+00 0.  1.
          1   -1    0    0  501    0  0.00000000000E+00 -0.00000000000E+00 -0.34797470718E+03  0.34797470718E+03  0.00000000000E+00 0. -1.
         25    2    1    2    0    0 -0.32510811851E+02  0.42627245535E+01 -0.10500027163E+03  0.16657535688E+03  0.12508864365E+03 0.  0.
         23    2    1    2    0    0  0.32510811851E+02 -0.42627245535E+01 -0.20190085622E+03  0.22247292965E+03  0.87493571057E+02 0.  0.
          5    1    3    3  502    0 -0.57449537840E+02  0.48512810413E+02 -0.44517486747E+02  0.87482690850E+02  0.41800000000E+01 0. -1.
         -5    1    3    3    0  502  0.24938725989E+02 -0.44250085860E+02 -0.60482784880E+02  0.79092666028E+02  0.41800000000E+01 0. -1.
        -11    1    4    4    0    0  0.32818042089E+01 -0.24985567488E+02 -0.97668578276E+01  0.27026659679E+02  0.00000000000E+00 0.  1.
         11    1    4    4    0    0  0.29229007642E+02  0.20722842935E+02 -0.19213399839E+03  0.19544626997E+03  0.00000000000E+00 0. -1.
</event>
<event>
 8    1  0.3708258E-009  0.1224250E+03  0.7561462E-02  0.1239149E+00
         -2   -1    0    0    0  501 -0.00000000000E+00  0.00000000000E+00  0.31783871594E+02  0.31783871594E+02  0.00000000000E+00 0.  1.
          2   -1    0    0  501    0  0.00000000000E+00 -0.00000000000E+00 -0.62902560312E+03  0.62902560312E+03  0.00000000000E+00 0. -1.
         25    2    1    2    0    0 -0.32977052582E+02  0.80061267033E+02 -0.39039184458E+03  0.41898714812E+03  0.12508855062E+03 0.  0.
         23    2    1    2    0    0  0.32977052582E+02 -0.80061267033E+02 -0.20684988695E+03  0.24182232660E+03  0.90519994679E+02 0.  0.
          5    1    3    3  502    0 -0.73487095612E+02  0.55387222300E+02 -0.16842327799E+03  0.19196867084E+03  0.41800000000E+01 0.  1.
         -5    1    3    3    0  502  0.40510043029E+02  0.24674044733E+02 -0.22196856659E+03  0.22701847728E+03  0.41800000000E+01 0.  1.
        -11    1    4    4    0    0  0.50521111965E+02 -0.61150505287E+02 -0.81053108073E+02  0.11340799522E+03  0.00000000000E+00 0.  1.
         11    1    4    4    0    0 -0.17544059383E+02 -0.18910761746E+02 -0.12579677888E+03  0.12841433138E+03  0.00000000000E+00 0. -1.
</event>
<event>
 8    1  0.3708258E-009  0.1478228E+03  0.7561462E-02  0.1203174E+00
          1   -1    0    0  501    0  0.00000000000E+00  0.00000000000E+00  0.89986312474E+03  0.89986312474E+03  0.00000000000E+00 0. -1.
         -1   -1    0    0    0  501 -0.00000000000E+00 -0.00000000000E+00 -0.30094516511E+02  0.30094516511E+02  0.00000000000E+00 0.  1.
         25    2    1    2    0    0  0.27658849913E+02 -0.10734904094E+03  0.30467616701E+03  0.34750405976E+03  0.12507068496E+03 0.  0.
         23    2    1    2    0    0 -0.27658849913E+02  0.10734904094E+03  0.56509244122E+03  0.58245358150E+03  0.87372071638E+02 0.  0.
          5    1    3    3  502    0  0.68945834700E+02 -0.29519378609E+02  0.10390838333E+03  0.12821601445E+03  0.41800000000E+01 0. -1.
         -5    1    3    3    0  502 -0.41286984787E+02 -0.77829662327E+02  0.20076778368E+03  0.21928804530E+03  0.41800000000E+01 0. -1.
        -11    1    4    4    0    0  0.24146003081E+02  0.23040327449E+02  0.69744962931E+02  0.77319117998E+02  0.00000000000E+00 0.  1.
         11    1    4    4    0    0 -0.51804852994E+02  0.84308713486E+02  0.49534747829E+03  0.50513446350E+03  0.00000000000E+00 0. -1.
</event>
<event>
 8    1  0.3708258E-009  0.1069846E+03  0.7561462E-02  0.1266258E+00
          4   -1    0    0  501    0  0.00000000000E+00  0.00000000000E+00  0.28689949807E+03  0.28689949807E+03  0.00000000000E+00 0.  1.
         -4   -1    0    0    0  501 -0.00000000000E+00 -0.00000000000E+00 -0.57916245669E+02  0.57916245669E+02  0.00000000000E+00 0. -1.
         25    2    1    2    0    0  0.52750379814E+02 -0.41933711456E+02  0.10268658116E+03  0.17530979401E+03  0.12509177111E+03 0.  0.
         23    2    1    2    0    0 -0.52750379814E+02  0.41933711456E+02  0.12629667124E+03  0.16950594973E+03  0.90776533864E+02 0.  0.
          5    1    3    3  502    0  0.99621660441E+01  0.25036892268E+02 -0.16592044164E+02  0.31919571680E+02  0.41800000000E+01 0. -1.
         -5    1    3    3    0  502  0.42788213769E+02 -0.66970603723E+02  0.11927862532E+03  0.14339022233E+03  0.41800000000E+01 0. -1.
        -11    1    4    4    0    0  0.53196822805E+00  0.52747107893E+02  0.35191459974E+02  0.63411191729E+02  0.00000000000E+00 0. -1.
         11    1    4    4    0    0 -0.53282348042E+02 -0.10813396438E+02  0.91105211270E+02  0.10609475800E+03  0.00000000000E+00 0.  1.
</event>
<event>
 8    1  0.3708258E-009  0.1290721E+03  0.7561462E-02  0.1228839E+00
         -1   -1    0    0    0  501 -0.00000000000E+00  0.00000000000E+00  0.32518130436E+03  0.32518130436E+03  0.00000000000E+00 0.  1.
          1   -1    0    0  501    0  0.00000000000E+00 -0.00000000000E+00 -0.86334804581E+02  0.86334804581E+02  0.00000000000E+00 0. -1.
         25    2    1    2    0    0 -0.88416345678E+02 -0.59702116358E+02  0.41832561479E+02  0.16964366667E+03  0.12508883868E+03 0.  0.
         23    2    1    2    0    0  0.88416345678E+02  0.59702116358E+02  0.19701393830E+03  0.24187244227E+03  0.91137223813E+02 0.  0.
          5    1    3    3  502    0 -0.94113460459E+02 -0.46987975351E+02  0.77762903836E+02  0.13088068949E+03  0.41800000000E+01 0.  1.
         -5    1    3    3    0  502  0.56971147818E+01 -0.12714141008E+02 -0.35930342357E+02  0.38762977186E+02  0.41800000000E+01 0.  1.
        -11    1    4    4    0    0 -0.15874683813E+02 -0.36636426989E+01  0.38662355046E+02  0.41954803798E+02  0.00000000000E+00 0.  1.
         11    1    4    4    0    0  0.10429102949E+03  0.63365759057E+02  0.15835158326E+03  0.19991763847E+03  0.00000000000E+00 0. -1.
</event>
<event>
 8    1  0.3708258E-009  0.2792772E+03  0.7561462E-02  0.1096084E+00
          1   -1    0    0  501    0  0.00000000000E+00  0.00000000000E+00  0.17078512927E+03  0.17078512927E+03  0.00000000000E+00 0. -1.
         -1   -1    0    0    0  501 -0.00000000000E+00 -0.00000000000E+00 -0.53137670682E+03  0.53137670682E+03  0.00000000000E+00 0.  1.
         25    2    1    2    0    0  0.11673955294E+02  0.27728809477E+03 -0.13359003908E+03  0.33244451468E+03  0.12509231816E+03 0.  0.
         23    2    1    2    0    0 -0.11673955294E+02 -0.27728809477E+03 -0.22700153847E+03  0.36971732142E+03  0.90201056287E+02 0.  0.
          5    1    3    3  502    0 -0.15432080740E+02  0.70953136440E+02  0.18022721522E+02  0.74931886255E+02  0.41800000000E+01 0.  1.
         -5    1    3    3    0  502  0.27106036034E+02  0.20633495833E+03 -0.15161276061E+03  0.25751262842E+03  0.41800000000E+01 0.  1.
        -11    1    4    4    0    0 -0.10253694153E+02 -0.13922799521E+03 -0.17093663090E+03  0.22070093945E+03  0.00000000000E+00 0.  1.
         11    1    4    4    0    0 -0.14202611406E+01 -0.13806009956E+03 -0.56064907575E+02  0.14901638196E+03  0.00000000000E+00 0. -1.
</event>
<event>
 8    1  0.3708258E-009  0.1068823E+03  0.7561462E-02  0.1266455E+00
         -1   -1    0    0    0  501 -0.00000000000E+00  0.00000000000E+00  0.29725385692E+03  0.29725385692E+03  0.00000000000E+00 0.  1.
          1   -1    0    0  501    0  0.00000000000E+00 -0.00000000000E+00 -0.47124051845E+02  0.47124051845E+02  0.00000000000E+00 0. -1.
         25    2    1    2    0    0 -0.40628613788E+02  0.24308496045E+02  0.13083103029E+03  0.18709787584E+03  0.12508904595E+03 0.  0.
         23    2    1    2    0    0  0.40628613788E+02 -0.24308496045E+02  0.11929877479E+03  0.15728003293E+03  0.90902276401E+02 0.  0.
          5    1    3    3  502    0 -0.17338564506E+02 -0.46505742949E+02  0.87741031807E+02  0.10089286897E+03  0.41800000000E+01 0.  1.
         -5    1    3    3    0  502 -0.23290049281E+02  0.70814238994E+02  0.43089998485E+02  0.86205006869E+02  0.41800000000E+01 0.  1.
        -11    1    4    4    0    0  0.34462731138E+02  0.23098087563E+02  0.17914366684E+02  0.45189888474E+02  0.00000000000E+00 0. -1.
         11    1    4    4    0    0  0.61658826493E+01 -0.47406583608E+02  0.10138440810E+03  0.11209014446E+03  0.00000000000E+00 0.  1.
</event>
<event>
 8    1  0.3708258E-009  0.1263363E+03  0.7561462E-02  0.1232996E+00
          1   -1    0    0  501    0  0.00000000000E+00  0.00000000000E+00  0.91971071652E+02  0.91971071652E+02  0.00000000000E+00 0. -1.
         -1   -1    0    0    0  501 -0.00000000000E+00 -0.00000000000E+00 -0.21158557062E+03  0.21158557062E+03  0.00000000000E+00 0.  1.
         25    2    1    2    0    0  0.42346082624E+02  0.72905292589E+02 -0.72698182172E+02  0.16745555535E+03  0.12509182597E+03 0.  0.
         23    2    1    2    0    0 -0.42346082624E+02 -0.72905292589E+02 -0.46916316793E+02  0.13610108692E+03  0.95989544629E+02 0.  0.
          5    1    3    3  502    0  0.68291862666E+02  0.79943514869E+02 -0.18536736097E+02  0.10684487382E+03  0.41800000000E+01 0.  1.
         -5    1    3    3    0  502 -0.25945780042E+02 -0.70382222797E+01 -0.54161446075E+02  0.60610681532E+02  0.41800000000E+01 0.  1.
        -11    1    4    4    0    0  0.16651212128E+02  0.92878688649E+01 -0.26889138554E+02  0.32962905599E+02  0.00000000000E+00 0.  1.
         11    1    4    4    0    0 -0.58997294752E+02 -0.82193161454E+02 -0.20027178239E+02  0.10313818132E+03  0.00000000000E+00 0. -1.
</event>
<event>
 8    1  0.3708258E-009  0.1533424E+03  0.7561462E-02  0.1196425E+00
          1   -1    0    0  501    0  0.00000000000E+00  0.00000000000E+00  0.59436527530E+02  0.59436527530E+02  0.00000000000E+00 0. -1.
         -1   -1    0    0    0  501 -0.00000000000E+00 -0.00000000000E+00 -0.48272746806E+03  0.48272746806E+03  0.00000000000E+00 0.  1.
         25    2    1    2    0    0  0.75506849232E+02  0.10604547022E+03 -0.21365704604E+03  0.27971844955E+03  0.12508457804E+03 0.  0.
         23    2    1    2    0    0 -0.75506849232E+02 -0.10604547022E+03 -0.20963389450E+03  0.26244554604E+03  0.89355295753E+02 0.  0.
          5    1    3    3  502    0 -0.17940428853E+02  0.59774164483E+02 -0.32097483791E+02  0.70303133592E+02  0.41800000000E+01 0.  1.
         -5    1    3    3    0  502  0.93447278085E+02  0.46271305738E+02 -0.18155956225E+03  0.20941531596E+03  0.41800000000E+01 0.  1.
        -11    1    4    4    0    0 -0.47371077321E+02 -0.10049331549E+03 -0.20531158678E+03  0.23344329738E+03  0.00000000000E+00 0.  1.
         11    1    4    4    0    0 -0.28135771911E+02 -0.55521547268E+01 -0.43223077117E+01  0.29002248656E+02  0.00000000000E+00 0. -1.
</event>
<event>
 8    1  0.3708258E-009  0.9672264E+02  0.7561462E-02  0.1287343E+00
         -1   -1    0    0    0  501 -0.00000000000E+00  0.00000000000E+00  0.79091625186E+02  0.79091625186E+02  0.00000000000E+00 0.  1.
          1   -1    0    0  501    0  0.00000000000E+00 -0.00000000000E+00 -0.18417586485E+03  0.18417586485E+03  0.00000000000E+00 0. -1.
         25    2    1    2    0    0  0.22956538365E+02 -0.47566325884E+02 -0.70849093096E+02  0.15314318454E+03  0.12507470954E+03 0.  0.
         23    2    1    2    0    0 -0.22956538365E+02  0.47566325884E+02 -0.34235146563E+02  0.11012430549E+03  0.90364591454E+02 0.  0.
          5    1    3    3  502    0 -0.50427748732E+02 -0.34145512251E+02 -0.31092452821E+02  0.68506108279E+02  0.41800000000E+01 0.  1.
         -5    1    3    3    0  502  0.73384287098E+02 -0.13420813633E+02 -0.39756640275E+02  0.84637076257E+02  0.41800000000E+01 0.  1.
        -11    1    4    4    0    0 -0.26376112692E+02  0.30704498622E+02  0.25580469020E+02  0.47883462194E+02  0.00000000000E+00 0.  1.
         11    1    4    4    0    0  0.34195743265E+01  0.16861827262E+02 -0.59815615583E+02  0.62240843301E+02  0.00000000000E+00 0. -1.
</event>
<event>
 8    1  0.3708258E-009  0.6550141E+02  0.7561462E-02  0.1376095E+00
          1   -1    0    0  501    0  0.00000000000E+00  0.00000000000E+00  0.45143463975E+02  0.45143463975E+02  0.00000000000E+00 0. -1.
         -1   -1    0    0    0  501 -0.00000000000E+00 -0.00000000000E+00 -0.27398755318E+03  0.27398755318E+03  0.00000000000E+00 0.  1.
         25    2    1    2    0    0  0.10190594300E+02 -0.12205010624E+02 -0.11032546325E+03  0.16755692122E+03  0.12510317147E+03 0.  0.
         23    2    1    2    0    0 -0.10190594300E+02  0.12205010624E+02 -0.11851862595E+03  0.15157409593E+03  0.93140922067E+02 0.  0.
          5    1    3    3  502    0 -0.17701825283E+02 -0.11873893598E+02  0.22791564724E+02  0.31484469030E+02  0.41800000000E+01 0.  1.
         -5    1    3    3    0  502  0.27892419584E+02 -0.33111702617E+00 -0.13311702798E+03  0.13607245219E+03  0.41800000000E+01 0.  1.
        -11    1    4    4    0    0 -0.16292264695E+01 -0.34022773951E+02 -0.90843667174E+02  0.97019458831E+02  0.00000000000E+00 0.  1.
         11    1    4    4    0    0 -0.85613678309E+01  0.46227784576E+02 -0.27674958779E+02  0.54554637102E+02  0.00000000000E+00 0. -1.
</event>
<event>
 8    1  0.3708258E-009  0.1339687E+03  0.7561462E-02  0.1221683E+00
          2   -1    0    0  501    0  0.00000000000E+00  0.00000000000E+00  0.91293264479E+02  0.91293264479E+02  0.00000000000E+00 0. -1.
         -2   -1    0    0    0  501 -0.00000000000E+00 -0.00000000000E+00 -0.23431546889E+03  0.23431546889E+03  0.00000000000E+00 0.  1.
         25    2    1    2    0    0 -0.28284925001E+02  0.83122693671E+02 -0.12697529726E+03  0.19869516802E+03  0.12509046524E+03 0.  0.
         23    2    1    2    0    0  0.28284925001E+02 -0.83122693671E+02 -0.16046907156E+02  0.12691356535E+03  0.90222672627E+02 0.  0.
          5    1    3    3  502    0  0.40951926248E+02 -0.39761357014E+01 -0.38082474389E+02  0.56219366540E+02  0.41800000000E+01 0. -1.
         -5    1    3    3    0  502 -0.69236851249E+02  0.87098829373E+02 -0.88892822869E+02  0.14247580148E+03  0.41800000000E+01 0. -1.
        -11    1    4    4    0    0  0.45567448831E+02 -0.19949832296E+02 -0.32455871045E+02  0.59395048337E+02  0.00000000000E+00 0.  1.
         11    1    4    4    0    0 -0.17282523830E+02 -0.63172861375E+02  0.16408963889E+02  0.67518517017E+02  0.00000000000E+00 0. -1.
</event>
<event>
 8    1  0.3708258E-009  0.1386586E+03  0.7561462E-02  0.1215145E+00
         -1   -1    0    0    0  501 -0.00000000000E+00  0.00000000000E+00  0.37797252980E+02  0.37797252980E+02  0.00000000000E+00 0.  1.
          1   -1    0    0  501    0  0.00000000000E+00 -0.00000000000E+00 -0.83926566346E+03  0.83926566346E+03  0.00000000000E+00 0. -1.
         25    2    1    2    0    0 -0.11246285129E+03  0.67684815467E+02 -0.55673085985E+03  0.58551257936E+03  0.12508638261E+03 0.  0.
         23    2    1    2    0    0  0.11246285129E+03 -0.67684815467E+02 -0.24473755063E+03  0.29155033708E+03  0.88746848943E+02 0.  0.
          5    1    3    3  502    0 -0.93497124135E+02  0.57578763777E+02 -0.55236466330E+03  0.56318844086E+03  0.41800000000E+01 0. -1.
         -5    1    3    3    0  502 -0.18965727156E+02  0.10106051689E+02 -0.43661965499E+01  0.22324138496E+02  0.41800000000E+01 0. -1.
        -11    1    4    4    0    0  0.53601042823E+02  0.28434468162E+01 -0.39350906942E+02  0.66555622292E+02  0.00000000000E+00 0.  1.
         11    1    4    4    0    0  0.58861808468E+02 -0.70528262283E+02 -0.20538664369E+03  0.22499471479E+03  0.00000000000E+00 0. -1.
</event>
<event>
 8    1  0.3708258E-009  0.1083174E+03  0.7561462E-02  0.1263718E+00
          2   -1    0    0  501    0  0.00000000000E+00  0.00000000000E+00  0.13447056223E+03  0.13447056223E+03  0.00000000000E+00 0. -1.
         -2   -1    0    0    0  501 -0.00000000000E+00 -0.00000000000E+00 -0.11113390932E+03  0.11113390932E+03  0.00000000000E+00 0.  1.
         25    2    1    2    0    0 -0.11697309204E+02  0.22216125124E+02  0.64054610901E+02  0.14276273293E+03  0.12509125260E+03 0.  0.
         23    2    1    2    0    0  0.11697309204E+02 -0.22216125124E+02 -0.40717957993E+02  0.10284173862E+03  0.91038935850E+02 0.  0.
          5    1    3    3  502    0 -0.24602616657E+02 -0.46761552973E+02  0.96602673626E+01  0.53876940785E+02  0.41800000000E+01 0.  1.
         -5    1    3    3    0  502  0.12905307453E+02  0.68977678097E+02  0.54394343538E+02  0.88885792144E+02  0.41800000000E+01 0.  1.
        -11    1    4    4    0    0 -0.33964160374E+02  0.12268167476E+02 -0.82148115741E+01  0.37034514339E+02  0.00000000000E+00 0.  1.
         11    1    4    4    0    0  0.45661469578E+02 -0.34484292600E+02 -0.32503146419E+02  0.65807224279E+02  0.00000000000E+00 0. -1.
</event>
<event>
 8    1  0.3708258E-009  0.7955170E+02  0.7561462E-02  0.1330328E+00
          2   -1    0    0  501    0  0.00000000000E+00  0.00000000000E+00  0.11332457719E+03  0.11332457719E+03  0.00000000000E+00 0. -1.
         -2   -1    0    0    0  501 -0.00000000000E+00 -0.00000000000E+00 -0.14804258395E+03  0.14804258395E+03  0.00000000000E+00 0.  1.
         25    2    1    2    0    0  0.32045107299E+02  0.37890990110E+02  0.32542608403E+02  0.13845921130E+03  0.12509722538E+03 0.  0.
         23    2    1    2    0    0 -0.32045107299E+02 -0.37890990110E+02 -0.67260615169E+02  0.12290794984E+03  0.90109698410E+02 0.  0.
          5    1    3    3  502    0  0.35809975461E+02  0.35180634697E+02  0.77848606475E+02  0.92724912134E+02  0.41800000000E+01 0.  1.
         -5    1    3    3    0  502 -0.37648681622E+01  0.27103554132E+01 -0.45305998072E+02  0.45734299164E+02  0.41800000000E+01 0.  1.
        -11    1    4    4    0    0 -0.17796818955E+02 -0.67403492003E+02 -0.50621383584E+02  0.86153827397E+02  0.00000000000E+00 0.  1.
         11    1    4    4    0    0 -0.14248288344E+02  0.29512501894E+02 -0.16639231584E+02  0.36754122442E+02  0.00000000000E+00 0. -1.
</event>
<event>
 8    1  0.3708258E-009  0.1077497E+03  0.7561462E-02  0.1264795E+00
         -2   -1    0    0    0  501 -0.00000000000E+00  0.00000000000E+00  0.50280919768E+02  0.50280919768E+02  0.00000000000E+00 0. -1.
          2   -1    0    0  501    0  0.00000000000E+00 -0.00000000000E+00 -0.25345117901E+03  0.25345117901E+03  0.00000000000E+00 0.  1.
         25    2    1    2    0    0 -0.35405019203E+02  0.67706064203E+01 -0.12366537669E+03  0.17955374296E+03  0.12508822776E+03 0.  0.
         23    2    1    2    0    0  0.35405019203E+02 -0.67706064203E+01 -0.79504882546E+02  0.12417835581E+03  0.88316936127E+02 0.  0.
          5    1    3    3  502    0  0.41153986701E+02  0.18126305464E+02 -0.18252206845E+02  0.48711692907E+02  0.41800000000E+01 0. -1.
         -5    1    3    3    0  502 -0.76559005904E+02 -0.11355699044E+02 -0.10541316985E+03  0.13084205006E+03  0.41800000000E+01 0. -1.
        -11    1    4    4    0    0  0.58900677119E+02  0.15016231427E+02 -0.65039989450E+02  0.89022341011E+02  0.00000000000E+00 0.  1.
         11    1    4    4    0    0 -0.23495657916E+02 -0.21786837847E+02 -0.14464893096E+02  0.35156014799E+02  0.00000000000E+00 0. -1.
</event>
<event>
 8    1  0.3708258E-009  0.1269486E+03  0.7561462E-02  0.1232055E+00
          1   -1    0    0  501    0  0.00000000000E+00  0.00000000000E+00  0.14231874801E+04  0.14231874801E+04  0.00000000000E+00 0. -1.
         -1   -1    0    0    0  501 -0.00000000000E+00 -0.00000000000E+00 -0.18725275468E+02  0.18725275468E+02  0.00000000000E+00 0.  1.
         25    2    1    2    0    0 -0.63078174715E+02  0.45136127165E+02  0.11730491012E+04  0.11822468123E+04  0.12508878896E+03 0.  0.
         23    2    1    2    0    0  0.63078174715E+02 -0.45136127165E+02  0.23141310337E+03  0.25966594326E+03  0.88646779864E+02 0.  0.
          5    1    3    3  502    0 -0.86199700450E+02  0.62813388281E+02  0.10627122465E+04  0.10680593155E+04  0.41800000000E+01 0. -1.
         -5    1    3    3    0  502  0.23121525735E+02 -0.17677261116E+02  0.11033685469E+03  0.11418749676E+03  0.41800000000E+01 0. -1.
        -11    1    4    4    0    0  0.82580623494E+02 -0.18306912833E+02  0.16906787899E+03  0.18904668773E+03  0.00000000000E+00 0.  1.
         11    1    4    4    0    0 -0.19502448779E+02 -0.26829214332E+02  0.62345224372E+02  0.70619255533E+02  0.00000000000E+00 0. -1.
</event>
<event>
 8    1  0.3708258E-009  0.1423685E+03  0.7561462E-02  0.1210177E+00
          3   -1    0    0  501    0  0.00000000000E+00  0.00000000000E+00  0.21522856988E+03  0.21522856988E+03  0.00000000000E+00 0. -1.
         -3   -1    0    0    0  501 -0.00000000000E+00 -0.00000000000E+00 -0.13397292535E+03  0.13397292535E+03  0.00000000000E+00 0.  1.
         25    2    1    2    0    0  0.84788996861E+02 -0.67851783480E+02  0.11959161703E+03  0.20431154497E+03  0.12509202226E+03 0.  0.
         23    2    1    2    0    0 -0.84788996861E+02  0.67851783480E+02 -0.38335972500E+02  0.14488995026E+03  0.87922763762E+02 0.  0.
          5    1    3    3  502    0 -0.10316589575E+02 -0.48843969538E+02  0.89693283483E+02  0.10273520761E+03  0.41800000000E+01 0.  1.
         -5    1    3    3    0  502  0.95105586437E+02 -0.19007813942E+02  0.29898333547E+02  0.10157633736E+03  0.41800000000E+01 0.  1.
        -11    1    4    4    0    0  0.11146575637E+02  0.34082315857E+02  0.92220997456E+00  0.35870612956E+02  0.00000000000E+00 0. -1.
         11    1    4    4    0    0 -0.95935572498E+02  0.33769467623E+02 -0.39258182474E+02  0.10901933730E+03  0.00000000000E+00 0.  1.
</event>
<event>
 8    1  0.3708258E-009  0.7843923E+02  0.7561462E-02  0.1333540E+00
         -2   -1    0    0    0  501 -0.00000000000E+00  0.00000000000E+00  0.60654163160E+02  0.60654163160E+02  0.00000000000E+00 0.  1.
          2   -1    0    0  501    0  0.00000000000E+00 -0.00000000000E+00 -0.38554632756E+03  0.38554632756E+03  0.00000000000E+00 0. -1.
         25    2    1    2    0    0 -0.14472578140E+02 -0.41505881732E+02 -0.32902721216E+02  0.13660210172E+03  0.12508137908E+03 0.  0.
         23    2    1    2    0    0  0.14472578140E+02  0.41505881732E+02 -0.29198944318E+03  0.30959838900E+03  0.93065212653E+02 0.  0.
          5    1    3    3  502    0  0.15176607562E+02 -0.13554178990E+02  0.44454956601E+02  0.49068938766E+02  0.41800000000E+01 0.  1.
         -5    1    3    3    0  502 -0.29649185702E+02 -0.27951702742E+02 -0.77357677817E+02  0.87533162951E+02  0.41800000000E+01 0.  1.
        -11    1    4    4    0    0  0.13850216469E+01  0.66720637746E+02 -0.14145565046E+03  0.15640736183E+03  0.00000000000E+00 0.  1.
         11    1    4    4    0    0  0.13087556493E+02 -0.25214756014E+02 -0.15053379272E+03  0.15319102718E+03  0.00000000000E+00 0. -1.
</event>
<event>
 8    1  0.3708258E-009  0.2726784E+03  0.7561462E-02  0.1099756E+00
          2   -1    0    0  501    0  0.00000000000E+00  0.00000000000E+00  0.39131452190E+03  0.39131452190E+03  0.00000000000E+00 0.  1.
         -2   -1    0    0    0  501 -0.00000000000E+00 -0.00000000000E+00 -0.22900235641E+03  0.22900235641E+03  0.00000000000E+00 0. -1.
         25    2    1    2    0    0 -0.10375199006E+03 -0.23449495897E+03 -0.31185745008E+02  0.28700479074E+03  0.12508732145E+03 0.  0.
         23    2    1    2    0    0  0.10375199006E+03  0.23449495897E+03  0.19349791050E+03  0.33331208757E+03  0.88899635139E+02 0.  0.
          5    1    3    3  502    0 -0.48646627236E+02 -0.71112857063E+01  0.72349097132E+01  0.49868637884E+02  0.41800000000E+01 0.  1.
         -5    1    3    3    0  502 -0.55105362827E+02 -0.22738367327E+03 -0.38420654721E+02  0.23713615285E+03  0.41800000000E+01 0.  1.
        -11    1    4    4    0    0  0.79715576617E+02  0.11376854390E+03  0.14556244995E+03  0.20121203137E+03  0.00000000000E+00 0.  1.
         11    1    4    4    0    0  0.24036413446E+02  0.12072641508E+03  0.47935460552E+02  0.13210005620E+03  0.00000000000E+00 0. -1.
</event>
<event>
 8    1  0.3708258E-009  0.1381298E+03  0.7561462E-02  0.1215868E+00
          4   -1    0    0  501    0  0.00000000000E+00  0.00000000000E+00  0.47154205302E+03  0.47154205302E+03  0.00000000000E+00 0.  1.
         -4   -1    0    0    0  501 -0.00000000000E+00 -0.00000000000E+00 -0.44695158827E+02  0.44695158827E+02  0.00000000000E+00 0. -1.
         25    2    1    2    0    0  0.30735483403E+02 -0.80128006062E+02  0.31115192858E+03  0.34616214429E+03  0.12509012826E+03 0.  0.
         23    2    1    2    0    0 -0.30735483403E+02  0.80128006062E+02  0.11569496561E+03  0.17007506755E+03  0.90415907007E+02 0.  0.
          5    1    3    3  502    0  0.53633802515E+02  0.13263508585E+02  0.11769397819E+03  0.13008401260E+03  0.41800000000E+01 0. -1.
         -5    1    3    3    0  502 -0.22898319113E+02 -0.93391514647E+02  0.19345795039E+03  0.21607813169E+03  0.41800000000E+01 0. -1.
        -11    1    4    4    0    0 -0.41253262151E+02  0.96611488705E+02  0.95638973649E+02  0.14206486078E+03  0.00000000000E+00 0. -1.
         11    1    4    4    0    0  0.10517778748E+02 -0.16483482643E+02  0.20055991965E+02  0.28010206774E+02  0.00000000000E+00 0.  1.
</event>
<event>
 8    1  0.3708258E-009  0.1029204E+03  0.7561462E-02  0.1274272E+00
         -1   -1    0    0    0  501 -0.00000000000E+00  0.00000000000E+00  0.76739224161E+02  0.76739224161E+02  0.00000000000E+00 0.  1.
          1   -1    0    0  501    0  0.00000000000E+00 -0.00000000000E+00 -0.20342939635E+03  0.20342939635E+03  0.00000000000E+00 0. -1.
         25    2    1    2    0    0  0.36929570160E+02 -0.40520500748E+02 -0.89763938700E+02  0.16343347653E+03  0.12508889810E+03 0.  0.
         23    2    1    2    0    0 -0.36929570160E+02  0.40520500748E+02 -0.36926233489E+02  0.11673514398E+03  0.96217685420E+02 0.  0.
          5    1    3    3  502    0 -0.43950296242E+02 -0.10877379566E+02 -0.52589554353E+02  0.69520353516E+02  0.41800000000E+01 0.  1.
         -5    1    3    3    0  502  0.80879866402E+02 -0.29643121182E+02 -0.37174384347E+02  0.93913123014E+02  0.41800000000E+01 0.  1.
        -11    1    4    4    0    0 -0.15296951249E+02  0.48666559114E+02 -0.63539724471E+02  0.81484521716E+02  0.00000000000E+00 0. -1.
         11    1    4    4    0    0 -0.21632618911E+02 -0.81460583655E+01  0.26613490982E+02  0.35250622265E+02  0.00000000000E+00 0.  1.
</event>
<event>
 8    1  0.3708258E-009  0.2125696E+03  0.7561462E-02  0.1139547E+00
          1   -1    0    0  501    0  0.00000000000E+00  0.00000000000E+00  0.49639447724E+03  0.49639447724E+03  0.00000000000E+00 0. -1.
         -1   -1    0    0    0  501 -0.00000000000E+00 -0.00000000000E+00 -0.11364127558E+03  0.11364127558E+03  0.00000000000E+00 0.  1.
         25    2    1    2    0    0  0.19266871568E+03  0.40151305260E+02  0.10017402392E+03  0.25380363080E+03  0.12509231241E+03 0.  0.
         23    2    1    2    0    0 -0.19266871568E+03 -0.40151305260E+02  0.28257917773E+03  0.35623212201E+03  0.91197432818E+02 0.  0.
          5    1    3    3  502    0  0.95487204960E+02  0.59806167678E+02  0.10551902510E+03  0.15442254065E+03  0.41800000000E+01 0. -1.
         -5    1    3    3    0  502  0.97181510716E+02 -0.19654862418E+02 -0.53450011744E+01  0.99381090150E+02  0.41800000000E+01 0. -1.
        -11    1    4    4    0    0 -0.22637009246E+02  0.22528831419E+02  0.21790560015E+02  0.38662784929E+02  0.00000000000E+00 0.  1.
         11    1    4    4    0    0 -0.17003170643E+03 -0.62680136680E+02  0.26078861772E+03  0.31756933709E+03  0.00000000000E+00 0. -1.
</event>
<event>
 8    1  0.3708258E-009  0.1077963E+03  0.7561462E-02  0.1264706E+00
         -2   -1    0    0    0  501 -0.00000000000E+00  0.00000000000E+00  0.14386172204E+02  0.14386172204E+02  0.00000000000E+00 0.  1.
          2   -1    0    0  501    0  0.00000000000E+00 -0.00000000000E+00 -0.14006246745E+04  0.14006246745E+04  0.00000000000E+00 0. -1.
         25    2    1    2    0    0  0.81846597271E+02  0.78872217552E+01 -0.95617549223E+03  0.96782243576E+03  0.12509045308E+03 0.  0.
         23    2    1    2    0    0 -0.81846597271E+02 -0.78872217552E+01 -0.43006301007E+03  0.44718841096E+03  0.90896691419E+02 0.  0.
          5    1    3    3  502    0  0.86913490140E+02 -0.23558270046E+02 -0.88680266360E+03  0.89137275223E+03  0.41800000000E+01 0. -1.
         -5    1    3    3    0  502 -0.50668928693E+01  0.31445491802E+02 -0.69372828637E+02  0.76449683525E+02  0.41800000000E+01 0. -1.
        -11    1    4    4    0    0 -0.17579364107E+02  0.16951902586E+02 -0.20542729123E+02  0.31912454677E+02  0.00000000000E+00 0.  1.
         11    1    4    4    0    0 -0.64267233164E+02 -0.24839124341E+02 -0.40952028095E+03  0.41527595628E+03  0.00000000000E+00 0. -1.
</event>
<event>
 8    1  0.3708258E-009  0.2412596E+03  0.7561462E-02  0.1118957E+00
          2   -1    0    0  501    0  0.00000000000E+00  0.00000000000E+00  0.86105577932E+03  0.86105577932E+03  0.00000000000E+00 0. -1.
         -2   -1    0    0    0  501 -0.00000000000E+00 -0.00000000000E+00 -0.81476764102E+02  0.81476764102E+02  0.00000000000E+00 0.  1.
         25    2    1    2    0    0 -0.13203664467E+03 -0.18912513473E+03  0.27575738050E+03  0.38064583208E+03  0.12508846652E+03 0.  0.
         23    2    1    2    0    0  0.13203664467E+03  0.18912513473E+03  0.50382163472E+03  0.56188671135E+03  0.93158170112E+02 0.  0.
          5    1    3    3  502    0 -0.50350015308E+02 -0.10455279369E+03  0.50732292301E+02  0.12671877758E+03  0.41800000000E+01 0. -1.
         -5    1    3    3    0  502 -0.81686629358E+02 -0.84572341040E+02  0.22502508820E+03  0.25392705449E+03  0.41800000000E+01 0. -1.
        -11    1    4    4    0    0  0.51310797539E+02  0.15097801895E+03  0.32015930623E+03  0.35767183495E+03  0.00000000000E+00 0. -1.
         11    1    4    4    0    0  0.80725847127E+02  0.38147115775E+02  0.18366232849E+03  0.20421487640E+03  0.00000000000E+00 0.  1.
</event>
<event>
 8    1  0.3708258E-009  0.1086291E+03  0.7561462E-02  0.1263130E+00
          2   -1    0    0  501    0  0.00000000000E+00  0.00000000000E+00  0.38167041554E+03  0.38167041554E+03  0.00000000000E+00 0. -1.
         -2   -1    0    0    0  501 -0.00000000000E+00 -0.00000000000E+00 -0.36224151228E+02  0.36224151228E+02  0.00000000000E+00 0.  1.
         25    2    1    2    0    0  0.34149854259E+02 -0.23976768155E+02  0.22724786851E+03  0.26273622546E+03  0.12509049713E+03 0.  0.
         23    2    1    2    0    0 -0.34149854259E+02  0.23976768155E+02  0.11819839581E+03  0.15515834131E+03  0.91444803838E+02 0.  0.
          5    1    3    3  502    0  0.23884765614E+01 -0.72253059213E+02  0.14568702350E+03  0.16269108950E+03  0.41800000000E+01 0.  1.
         -5    1    3    3    0  502  0.31761377697E+02  0.48276291058E+02  0.81560845002E+02  0.10004513596E+03  0.41800000000E+01 0.  1.
        -11    1    4    4    0    0  0.10099461113E+02  0.38914699426E+02  0.16898372146E+02  0.43610869372E+02  0.00000000000E+00 0.  1.
         11    1    4    4    0    0 -0.44249315372E+02 -0.14937931271E+02  0.10130002366E+03  0.11154747194E+03  0.00000000000E+00 0. -1.
</event>
<event>
 8    1  0.3708258E-009  0.1201929E+03  0.7561462E-02  0.1242779E+00
          2   -1    0    0  501    0  0.00000000000E+00  0.00000000000E+00  0.75369875815E+03  0.75369875815E+03  0.00000000000E+00 0.  1.
         -2   -1    0    0    0  501 -0.00000000000E+00 -0.00000000000E+00 -0.53402000108E+02  0.53402000108E+02  0.00000000000E+00 0. -1.
         25    2    1    2    0    0 -0.49528235666E+02  0.10312709524E+03  0.61707717041E+03  0.63993816691E+03  0.12509348235E+03 0.  0.
         23    2    1    2    0    0  0.49528235666E+02 -0.10312709524E+03  0.83219587632E+02  0.16716259135E+03  0.89048235689E+02 0.  0.
          5    1    3    3  502    0 -0.41323224530E+02  0.76192201582E+02  0.60102764525E+03  0.60725988112E+03  0.41800000000E+01 0.  1.
         -5    1    3    3    0  502 -0.82050111361E+01  0.26934893660E+02  0.16049525164E+02  0.32678285790E+02  0.41800000000E+01 0.  1.
        -11    1    4    4    0    0 -0.49310275790E+01 -0.45826741738E+02  0.74535793472E+02  0.87635551004E+02  0.00000000000E+00 0.  1.
         11    1    4    4    0    0  0.54459263245E+02 -0.57300353504E+02  0.86837941608E+01  0.79527040344E+02  0.00000000000E+00 0. -1.
</event>
<event>
 8    1  0.3708258E-009  0.1322289E+03  0.7561462E-02  0.1224185E+00
         -1   -1    0    0    0  501 -0.00000000000E+00  0.00000000000E+00  0.21575089520E+03  0.21575089520E+03  0.00000000000E+00 0.  1.
          1   -1    0    0  501    0  0.00000000000E+00 -0.00000000000E+00 -0.13157634509E+03  0.13157634509E+03  0.00000000000E+00 0. -1.
         25    2    1    2    0    0 -0.28706103623E+02 -0.12102154251E+03  0.13207663634E+02  0.17689530995E+03  0.12508898499E+03 0.  0.
         23    2    1    2    0    0  0.28706103623E+02  0.12102154251E+03  0.70966886483E+02  0.17043193034E+03  0.92414770275E+02 0.  0.
          5    1    3    3  502    0 -0.99150178769E+01  0.35914006190E+01  0.45370321713E+02  0.46766913841E+02  0.41800000000E+01 0. -1.
         -5    1    3    3    0  502 -0.18791085746E+02 -0.12461294313E+03 -0.32162658078E+02  0.13012839611E+03  0.41800000000E+01 0. -1.
        -11    1    4    4    0    0  0.32749820605E+02  0.90668329572E+02  0.92020886333E+02  0.13327092803E+03  0.00000000000E+00 0.  1.
         11    1    4    4    0    0 -0.40437169819E+01  0.30353212940E+02 -0.21053999850E+02  0.37161002308E+02  0.00000000000E+00 0. -1.
</event>
<event>
 8    1  0.3708258E-009  0.1015304E+03  0.7561462E-02  0.1277110E+00
          1   -1    0    0  501    0  0.00000000000E+00  0.00000000000E+00  0.27016846502E+02  0.27016846502E+02  0.00000000000E+00 0. -1.
         -1   -1    0    0    0  501 -0.00000000000E+00 -0.00000000000E+00 -0.52879467502E+03  0.52879467502E+03  0.00000000000E+00 0.  1.
         25    2    1    2    0    0 -0.19687809221E+02 -0.22837975318E+02 -0.18815116331E+03  0.22794123277E+03  0.12508861815E+03 0.  0.
         23    2    1    2    0    0  0.19687809221E+02  0.22837975318E+02 -0.31362666520E+03  0.32787028875E+03  0.90708644425E+02 0.  0.
          5    1    3    3  502    0 -0.93223076423E+01 -0.72148273632E+02 -0.78007620717E+02  0.10674708473E+03  0.41800000000E+01 0.  1.
         -5    1    3    3    0  502 -0.10365501578E+02  0.49310298314E+02 -0.11014354260E+03  0.12119414804E+03  0.41800000000E+01 0.  1.
        -11    1    4    4    0    0  0.34936579811E+02  0.42329009209E+02 -0.28406003664E+03  0.28931369488E+03  0.00000000000E+00 0.  1.
         11    1    4    4    0    0 -0.15248770590E+02 -0.19491033891E+02 -0.29566628564E+02  0.38556593876E+02  0.00000000000E+00 0. -1.
</event>
<event>
 8    1  0.3708258E-009  0.8913052E+02  0.7561462E-02  0.1304971E+00
         -1   -1    0    0    0  501 -0.00000000000E+00  0.00000000000E+00  0.10727387313E+02  0.10727387313E+02  0.00000000000E+00 0.  1.
          1   -1    0    0  501    0  0.00000000000E+00 -0.00000000000E+00 -0.11862146984E+04  0.11862146984E+04  0.00000000000E+00 0. -1.
         25    2    1    2    0    0  0.25571959470E+02 -0.10778141473E+02 -0.75304121673E+03  0.76386428663E+03  0.12508989104E+03 0.  0.
         23    2    1    2    0    0 -0.25571959470E+02  0.10778141473E+02 -0.42244609439E+03  0.43307779912E+03  0.91244638105E+02 0.  0.
          5    1    3    3  502    0 -0.15510451795E+02  0.24813566848E+02 -0.61109119771E+03  0.61180569753E+03  0.41800000000E+01 0. -1.
         -5    1    3    3    0  502  0.41082411265E+02 -0.35591708320E+02 -0.14195001902E+03  0.15205858909E+03  0.41800000000E+01 0. -1.
        -11    1    4    4    0    0 -0.46643953040E+02 -0.24806250399E+02 -0.20252766995E+03  0.20930471927E+03  0.00000000000E+00 0.  1.
         11    1    4    4    0    0  0.21071993570E+02  0.35584391871E+02 -0.21991842444E+03  0.22377307985E+03  0.00000000000E+00 0. -1.
</event>
<event>
 8    1  0.3708258E-009  0.1432132E+03  0.7561462E-02  0.1209070E+00
          2   -1    0    0  501    0  0.00000000000E+00  0.00000000000E+00  0.14453653660E+03  0.14453653660E+03  0.00000000000E+00 0.  1.
         -2   -1    0    0    0  501 -0.00000000000E+00 -0.00000000000E+00 -0.17653981475E+03  0.17653981475E+03  0.00000000000E+00 0. -1.
         25    2    1    2    0    0 -0.18095956708E+01 -0.10304128593E+03 -0.73229658701E+02  0.17785054949E+03  0.12508978294E+03 0.  0.
         23    2    1    2    0    0  0.18095956708E+01  0.10304128593E+03  0.41226380550E+02  0.14322580187E+03  0.90516488136E+02 0.  0.
          5    1    3    3  502    0  0.39190305855E+02 -0.10493540617E+03 -0.77646321594E+02  0.13635887649E+03  0.41800000000E+01 0.  1.
         -5    1    3    3    0  502 -0.40999901525E+02  0.18941202416E+01  0.44166628930E+01  0.41491672992E+02  0.41800000000E+01 0.  1.
        -11    1    4    4    0    0  0.22813674396E+02 -0.47128985663E+01  0.21469710526E+02  0.31680019293E+02  0.00000000000E+00 0.  1.
         11    1    4    4    0    0 -0.21004078725E+02  0.10775418450E+03  0.19756670024E+02  0.11154578257E+03  0.00000000000E+00 0. -1.
</event>
<event>
 8    1  0.3708258E-009  0.1846106E+03  0.7561462E-02  0.1163414E+00
         -1   -1    0    0    0  501 -0.00000000000E+00  0.00000000000E+00  0.69451654610E+02  0.69451654610E+02  0.00000000000E+00 0.  1.
          1   -1    0    0  501    0  0.00000000000E+00 -0.00000000000E+00 -0.49807768364E+03  0.49807768364E+03  0.00000000000E+00 0. -1.
         25    2    1    2    0    0 -0.70016448265E+02 -0.13279349402E+03 -0.20997498438E+03  0.28682783735E+03  0.12507717272E+03 0.  0.
         23    2    1    2    0    0  0.70016448265E+02  0.13279349402E+03 -0.21865104465E+03  0.28070150089E+03  0.91916474004E+02 0.  0.
          5    1    3    3  502    0  0.28160925393E+02 -0.74857170898E+02 -0.70978238563E+02  0.10701409488E+03  0.41800000000E+01 0.  1.
         -5    1    3    3    0  502 -0.98177373657E+02 -0.57936323127E+02 -0.13899674581E+03  0.17981374247E+03  0.41800000000E+01 0.  1.
        -11    1    4    4    0    0  0.70967041183E+02  0.38455726326E+02 -0.11555328214E+03  0.14095291709E+03  0.00000000000E+00 0.  1.
         11    1    4    4    0    0 -0.95059291819E+00  0.94337767699E+02 -0.10309776251E+03  0.13974858381E+03  0.00000000000E+00 0. -1.
</event>
<event>
 8    1  0.3708258E-009  0.1349446E+03  0.7561462E-02  0.1220298E+00
          1   -1    0    0  501    0  0.00000000000E+00  0.00000000000E+00  0.15460589904E+04  0.15460589904E+04  0.00000000000E+00 0. -1.
         -1   -1    0    0    0  501 -0.00000000000E+00 -0.00000000000E+00 -0.13784988927E+02  0.13784988927E+02  0.00000000000E+00 0.  1.
         25    2    1    2    0    0 -0.59863238859E+02 -0.55426593356E+02  0.11194936518E+04  0.11294110419E+04  0.12509016939E+03 0.  0.
         23    2    1    2    0    0  0.59863238859E+02  0.55426593356E+02  0.41278034966E+03  0.43043293743E+03  0.90714838619E+02 0.  0.
          5    1    3    3  502    0 -0.20698720451E+01  0.38596535000E+02  0.28317016797E+03  0.28582650912E+03  0.41800000000E+01 0.  1.
         -5    1    3    3    0  502 -0.57793366813E+02 -0.94023128356E+02  0.83632348386E+03  0.84358453279E+03  0.41800000000E+01 0.  1.
        -11    1    4    4    0    0  0.66914161623E+02  0.22773552967E+01  0.19596389903E+03  0.20708583026E+03  0.00000000000E+00 0. -1.
         11    1    4    4    0    0 -0.70509227644E+01  0.53149238059E+02  0.21681645063E+03  0.22334710717E+03  0.00000000000E+00 0.  1.
</event>
<event>
 8    1  0.3708258E-009  0.1172135E+03  0.7561462E-02  0.1247766E+00
          1   -1    0    0  501    0  0.00000000000E+00  0.00000000000E+00  0.10170982468E+04  0.10170982468E+04  0.00000000000E+00 0. -1.
         -1   -1    0    0    0  501 -0.00000000000E+00 -0.00000000000E+00 -0.14363987361E+02  0.14363987361E+02  0.00000000000E+00 0.  1.
         25    2    1    2    0    0  0.39512940805E+02  0.44200838219E-01  0.68233059011E+03  0.69482628090E+03  0.12508897625E+03 0.  0.
         23    2    1    2    0    0 -0.39512940805E+02 -0.44200838219E-01  0.32040366932E+03  0.33663595326E+03  0.95414774887E+02 0.  0.
          5    1    3    3  502    0  0.80600887277E+02  0.23009381814E+02  0.43546608902E+03  0.44347956184E+03  0.41800000000E+01 0.  1.
         -5    1    3    3    0  502 -0.41087946472E+02 -0.22965180976E+02  0.24686450109E+03  0.25134671906E+03  0.41800000000E+01 0.  1.
        -11    1    4    4    0    0  0.26060095446E+02 -0.21990183153E+02  0.10942137927E+03  0.11461123405E+03  0.00000000000E+00 0.  1.
         11    1    4    4    0    0 -0.65573036251E+02  0.21945982315E+02  0.21098229005E+03  0.22202471920E+03  0.00000000000E+00 0. -1.
</event>
<event>
 8    1  0.3708258E-009  0.1193319E+03  0.7561462E-02  0.1244203E+00
         -4   -1    0    0    0  501 -0.00000000000E+00  0.00000000000E+00  0.86057493386E+02  0.86057493386E+02  0.00000000000E+00 0.  1.
          4   -1    0    0  501    0  0.00000000000E+00 -0.00000000000E+00 -0.22425668684E+03  0.22425668684E+03  0.00000000000E+00 0. -1.
         25    2    1    2    0    0  0.27852105819E+02  0.49275318118E+02 -0.14860572749E+03  0.20232046259E+03  0.12508441376E+03 0.  0.
         23    2    1    2    0    0 -0.27852105819E+02 -0.49275318118E+02  0.10406534034E+02  0.10799371764E+03  0.91381345602E+02 0.  0.
          5    1    3    3  502    0 -0.37735969845E+02  0.55856611601E+02 -0.98432862613E+02  0.11937531287E+03  0.41800000000E+01 0.  1.
         -5    1    3    3    0  502  0.65588075664E+02 -0.65812934824E+01 -0.50172864878E+02  0.82945149727E+02  0.41800000000E+01 0.  1.
        -11    1    4    4    0    0 -0.48825066398E+02 -0.63228016918E+02  0.17590697182E+02  0.81799155616E+02  0.00000000000E+00 0.  1.
         11    1    4    4    0    0  0.20972960580E+02  0.13952698800E+02 -0.71841631477E+01  0.26194562020E+02  0.00000000000E+00 0. -1.
</event>
<event>
 8    1  0.3708258E-009  0.1579407E+03  0.7561462E-02  0.1191042E+00
          2   -1    0    0  501    0  0.00000000000E+00  0.00000000000E+00  0.19087862213E+04  0.19087862213E+04  0.00000000000E+00 0. -1.
         -2   -1    0    0    0  501 -0.00000000000E+00 -0.00000000000E+00 -0.14118402136E+02  0.14118402136E+02  0.00000000000E+00 0.  1.
         25    2    1    2    0    0 -0.11453284503E+03  0.10554721835E+02  0.12660248375E+04  0.12773782810E+04  0.12508880392E+03 0.  0.
         23    2    1    2    0    0  0.11453284503E+03 -0.10554721835E+02  0.62864298160E+03  0.64552634237E+03  0.91011458801E+02 0.  0.
          5    1    3    3  502    0 -0.13396019900E+03  0.34258034088E+02  0.10752761973E+04  0.10841380542E+04  0.41800000000E+01 0.  1.
         -5    1    3    3    0  502  0.19427353961E+02 -0.23703312253E+02  0.19074864028E+03  0.19324022683E+03  0.41800000000E+01 0.  1.
        -11    1    4    4    0    0  0.58144288361E+02 -0.50903441365E+02  0.34014949683E+03  0.34881742905E+03  0.00000000000E+00 0. -1.
         11    1    4    4    0    0  0.56388556674E+02  0.40348719530E+02  0.28849348476E+03  0.29670891332E+03  0.00000000000E+00 0.  1.
</event>
<event>
 8    1  0.3708258E-009  0.1092720E+03  0.7561462E-02  0.1261924E+00
         -1   -1    0    0    0  501 -0.00000000000E+00  0.00000000000E+00  0.11324780253E+03  0.11324780253E+03  0.00000000000E+00 0.  1.
          1   -1    0    0  501    0  0.00000000000E+00 -0.00000000000E+00 -0.12071239425E+03  0.12071239425E+03  0.00000000000E+00 0. -1.
         25    2    1    2    0    0  0.42402858886E+01 -0.43538469208E+02  0.31346411783E+01  0.13255523660E+03  0.12508991346E+03 0.  0.
         23    2    1    2    0    0 -0.42402858886E+01  0.43538469208E+02 -0.10599232898E+02  0.10140496018E+03  0.90868277669E+02 0.  0.
          5    1    3    3  502    0  0.86653316504E+01 -0.82456598061E+02  0.26020374928E+02  0.86998338190E+02  0.41800000000E+01 0.  1.
         -5    1    3    3    0  502 -0.44250457618E+01  0.38918128853E+02 -0.22885733749E+02  0.45556898409E+02  0.41800000000E+01 0.  1.
        -11    1    4    4    0    0 -0.23354371205E+02 -0.19399365516E+02  0.10817089953E+02  0.32229977845E+02  0.00000000000E+00 0.  1.
         11    1    4    4    0    0  0.19114085316E+02  0.62937834725E+02 -0.21416322852E+02  0.69174982340E+02  0.00000000000E+00 0. -1.
</event>
<event>
 8    1  0.3708258E-009  0.1633326E+03  0.7561462E-02  0.1184985E+00
          2   -1    0    0  501    0  0.00000000000E+00  0.00000000000E+00  0.55704821749E+03  0.55704821749E+03  0.00000000000E+00 0. -1.
         -2   -1    0    0    0  501 -0.00000000000E+00 -0.00000000000E+00 -0.60529629409E+02  0.60529629409E+02  0.00000000000E+00 0.  1.
         25    2    1    2    0    0 -0.11221139798E+03  0.95625809574E+02  0.27078326111E+03  0.33272476287E+03  0.12508597059E+03 0.  0.
         23    2    1    2    0    0  0.11221139798E+03 -0.95625809574E+02  0.22573532696E+03  0.28485308402E+03  0.91919249044E+02 0.  0.
          5    1    3    3  502    0 -0.25506036346E+02  0.73787064745E+02  0.21117300200E+03  0.22518125585E+03  0.41800000000E+01 0. -1.
         -5    1    3    3    0  502 -0.86705361629E+02  0.21838744828E+02  0.59610259113E+02  0.10754350702E+03  0.41800000000E+01 0. -1.
        -11    1    4    4    0    0  0.42070010466E+02 -0.74773231497E+02  0.63060906385E+02  0.10647816604E+03  0.00000000000E+00 0.  1.
         11    1    4    4    0    0  0.70141387509E+02 -0.20852578077E+02  0.16267442058E+03  0.17837491798E+03  0.00000000000E+00 0. -1.
</event>
<event>
 8    1  0.3708258E-009  0.1959278E+03  0.7561462E-02  0.1153221E+00
          1   -1    0    0  501    0  0.00000000000E+00  0.00000000000E+00  0.69372980784E+03  0.69372980784E+03  0.00000000000E+00 0. -1.
         -1   -1    0    0    0  501 -0.00000000000E+00 -0.00000000000E+00 -0.61040554774E+02  0.61040554774E+02  0.00000000000E+00 0.  1.
         25    2    1    2    0    0 -0.50436383211E+02 -0.16253936384E+03  0.39730761029E+03  0.44995999627E+03  0.12509111677E+03 0.  0.
         23    2    1    2    0    0  0.50436383211E+02  0.16253936384E+03  0.23538164277E+03  0.30481036635E+03  0.92422768468E+02 0.  0.
          5    1    3    3  502    0 -0.90680969216E+02 -0.88199699881E+02  0.23975912045E+03  0.27111645741E+03  0.41800000000E+01 0.  1.
         -5    1    3    3    0  502  0.40244586005E+02 -0.74339663957E+02  0.15754848984E+03  0.17884353886E+03  0.41800000000E+01 0.  1.
        -11    1    4    4    0    0 -0.80182212008E+00  0.99096152904E+02  0.72942806089E+02  0.12305016619E+03  0.00000000000E+00 0.  1.
         11    1    4    4    0    0  0.51238205331E+02  0.63443210934E+02  0.16243883668E+03  0.18176020016E+03  0.00000000000E+00 0. -1.
</event>
<event>
 8    1  0.3708258E-009  0.1064618E+03  0.7561462E-02  0.1267266E+00
          2   -1    0    0  501    0  0.00000000000E+00  0.00000000000E+00  0.33632027441E+03  0.33632027441E+03  0.00000000000E+00 0.  1.
         -2   -1    0    0    0  501 -0.00000000000E+00 -0.00000000000E+00 -0.41638839504E+02  0.41638839504E+02  0.00000000000E+00 0. -1.
         25    2    1    2    0    0 -0.36588516694E+02  0.23376819128E+02  0.19858445210E+03  0.23867655198E+03  0.12508203957E+03 0.  0.
         23    2    1    2    0    0  0.36588516694E+02 -0.23376819128E+02  0.96096982803E+02  0.13928256193E+03  0.90993443321E+02 0.  0.
          5    1    3    3  502    0  0.35845699705E+02  0.16437281289E+02  0.17255089219E+02  0.43247068195E+02  0.41800000000E+01 0.  1.
         -5    1    3    3    0  502 -0.72434216399E+02  0.69395378386E+01  0.18132936288E+03  0.19542948379E+03  0.41800000000E+01 0.  1.
        -11    1    4    4    0    0 -0.28153707444E+01  0.32161950688E+02  0.37128123673E+02  0.49201777935E+02  0.00000000000E+00 0.  1.
         11    1    4    4    0    0  0.39403887439E+02 -0.55538769816E+02  0.58968859130E+02  0.90080783995E+02  0.00000000000E+00 0. -1.
</event>
<event>
 8    1  0.3708258E-009  0.1132072E+03  0.7561462E-02  0.1254743E+00
         -1   -1    0    0    0  501 -0.00000000000E+00  0.00000000000E+00  0.48632307508E+02  0.48632307508E+02  0.00000000000E+00 0.  1.
          1   -1    0    0  501    0  0.00000000000E+00 -0.00000000000E+00 -0.34147670658E+03  0.34147670658E+03  0.00000000000E+00 0. -1.
         25    2    1    2    0    0 -0.68819644497E+02  0.99642574951E+01 -0.17784594143E+03  0.22828138022E+03  0.12509108592E+03 0.  0.
         23    2    1    2    0    0  0.68819644497E+02 -0.99642574951E+01 -0.11499845765E+03  0.16182763387E+03  0.90156019920E+02 0.  0.
          5    1    3    3  502    0 -0.87945052577E+02  0.21910946323E+02 -0.18346078775E+03  0.20466986804E+03  0.41800000000E+01 0. -1.
         -5    1    3    3    0  502  0.19125408080E+02 -0.11946688828E+02  0.56148463211E+01  0.23611512180E+02  0.41800000000E+01 0. -1.
        -11    1    4    4    0    0  0.43510605871E+02  0.38485287100E+02 -0.47961650174E+02  0.75330007526E+02  0.00000000000E+00 0.  1.
         11    1    4    4    0    0  0.25309038626E+02 -0.48449544595E+02 -0.67036807473E+02  0.86497626347E+02  0.00000000000E+00 0. -1.
</event>
<event>
 8    1  0.3708258E-009  0.1962880E+03  0.7561462E-02  0.1152909E+00
          1   -1    0    0  501    0  0.00000000000E+00  0.00000000000E+00  0.29509168072E+03  0.29509168072E+03  0.00000000000E+00 0. -1.
         -1   -1    0    0    0  501 -0.00000000000E+00 -0.00000000000E+00 -0.13466689623E+03  0.13466689623E+03  0.00000000000E+00 0.  1.
         25    2    1    2    0    0 -0.46777584726E+02  0.15637136685E+03  0.47974979531E+02  0.21116899055E+03  0.12510234651E+03 0.  0.
         23    2    1    2    0    0  0.46777584726E+02 -0.15637136685E+03  0.11244980496E+03  0.21858958641E+03  0.92175386348E+02 0.  0.
          5    1    3    3  502    0  0.30110426909E+02 -0.63107325716E+00  0.26442578946E+01  0.30520494130E+02  0.41800000000E+01 0.  1.
         -5    1    3    3    0  502 -0.76888011635E+02  0.15700244011E+03  0.45330721636E+02  0.18064849642E+03  0.41800000000E+01 0.  1.
        -11    1    4    4    0    0 -0.17884818548E+01  0.11965812551E+02  0.94616283142E+01  0.15359093323E+02  0.00000000000E+00 0.  1.
         11    1    4    4    0    0  0.48566066581E+02 -0.16833717940E+03  0.10298817665E+03  0.20323049309E+03  0.00000000000E+00 0. -1.
</event>
<event>
 8    1  0.3708258E-009  0.9533782E+02  0.7561462E-02  0.1290417E+00
         -2   -1    0    0    0  501 -0.00000000000E+00  0.00000000000E+00  0.10534946622E+02  0.10534946622E+02  0.00000000000E+00 0.  1.
          2   -1    0    0  501    0  0.00000000000E+00 -0.00000000000E+00 -0.13096539737E+04  0.13096539737E+04  0.00000000000E+00 0. -1.
         25    2    1    2    0    0  0.35798398175E+02 -0.19883452420E+01 -0.89427115138E+03  0.90368946373E+03  0.12509306870E+03 0.  0.
         23    2    1    2    0    0 -0.35798398175E+02  0.19883452420E+01 -0.40484787571E+03  0.41649945661E+03  0.91019316942E+02 0.  0.
          5    1    3    3  502    0  0.76582161869E+01  0.43767845321E+02 -0.12857934700E+03  0.13610434759E+03  0.41800000000E+01 0.  1.
         -5    1    3    3    0  502  0.28140181988E+02 -0.45756190563E+02 -0.76569180438E+03  0.76758511614E+03  0.41800000000E+01 0.  1.
        -11    1    4    4    0    0 -0.21671225602E+02  0.43347090564E+02 -0.14197991019E+03  0.15002302215E+03  0.00000000000E+00 0.  1.
         11    1    4    4    0    0 -0.14127172572E+02 -0.41358745322E+02 -0.26286796552E+03  0.26647643445E+03  0.00000000000E+00 0. -1.
</event>
<event>
 8    1  0.3708258E-009  0.8931546E+02  0.7561462E-02  0.1304518E+00
          4   -1    0    0  501    0  0.00000000000E+00  0.00000000000E+00  0.17792365728E+03  0.17792365728E+03  0.00000000000E+00 0. -1.
         -4   -1    0    0    0  501 -0.00000000000E+00 -0.00000000000E+00 -0.73537332269E+02  0.73537332269E+02  0.00000000000E+00 0.  1.
         25    2    1    2    0    0 -0.61477670385E+01  0.37395400392E+02  0.67900532880E+02  0.14728772703E+03  0.12508789374E+03 0.  0.
         23    2    1    2    0    0  0.61477670385E+01 -0.37395400392E+02  0.36485792134E+02  0.10417326252E+03  0.89914651676E+02 0.  0.
          5    1    3    3  502    0 -0.13042959340E+02  0.82832461873E+02  0.36987800797E+02  0.91743693713E+02  0.41800000000E+01 0.  1.
         -5    1    3    3    0  502  0.68951923015E+01 -0.45437061481E+02  0.30912732083E+02  0.55544033322E+02  0.41800000000E+01 0.  1.
        -11    1    4    4    0    0  0.17251094764E+02 -0.31599380582E+02 -0.23435151213E+02  0.42957274543E+02  0.00000000000E+00 0.  1.
         11    1    4    4    0    0 -0.11103327725E+02 -0.57960198095E+01  0.59920943347E+02  0.61215987976E+02  0.00000000000E+00 0. -1.
</event>
<event>
 8    1  0.3708258E-009  0.1661987E+03  0.7561462E-02  0.1181871E+00
          1   -1    0    0  501    0  0.00000000000E+00  0.00000000000E+00  0.31939453535E+03  0.31939453535E+03  0.00000000000E+00 0.  1.
         -1   -1    0    0    0  501 -0.00000000000E+00 -0.00000000000E+00 -0.11445120896E+03  0.11445120896E+03  0.00000000000E+00 0. -1.
         25    2    1    2    0    0  0.12065405038E+03 -0.94506840903E+02  0.14733046444E+03  0.24665970261E+03  0.12508317349E+03 0.  0.
         23    2    1    2    0    0 -0.12065405038E+03  0.94506840903E+02  0.57612861952E+02  0.18718604170E+03  0.90721714575E+02 0.  0.
          5    1    3    3  502    0  0.97296996952E+02 -0.11174091392E+03  0.15687043344E+03  0.21582062633E+03  0.41800000000E+01 0. -1.
         -5    1    3    3    0  502  0.23357053431E+02  0.17234073014E+02 -0.95399690047E+01  0.30839076287E+02  0.41800000000E+01 0. -1.
        -11    1    4    4    0    0 -0.39357906340E+02  0.18248022192E+02  0.61958131452E+02  0.75636268802E+02  0.00000000000E+00 0.  1.
         11    1    4    4    0    0 -0.81296144044E+02  0.76258818711E+02 -0.43452694997E+01  0.11154977290E+03  0.00000000000E+00 0. -1.
</event>
<event>
 8    1  0.3708258E-009  0.9503324E+02  0.7561462E-02  0.1291101E+00
          2   -1    0    0  501    0  0.00000000000E+00  0.00000000000E+00  0.14138042278E+03  0.14138042278E+03  0.00000000000E+00 0. -1.
         -2   -1    0    0    0  501 -0.00000000000E+00 -0.00000000000E+00 -0.10693536670E+03  0.10693536670E+03  0.00000000000E+00 0.  1.
         25    2    1    2    0    0  0.38557946064E+02  0.41415023203E+02  0.32685378481E+02  0.14112202175E+03  0.12508066080E+03 0.  0.
         23    2    1    2    0    0 -0.38557946064E+02 -0.41415023203E+02  0.17596775990E+01  0.10719376773E+03  0.91024656124E+02 0.  0.
          5    1    3    3  502    0 -0.18056984151E+02  0.68210382353E+02  0.33772489200E+02  0.78337502922E+02  0.41800000000E+01 0. -1.
         -5    1    3    3    0  502  0.56614930215E+02 -0.26795359149E+02 -0.10871107190E+01  0.62784518831E+02  0.41800000000E+01 0. -1.
        -11    1    4    4    0    0 -0.26562197271E+02 -0.27440934483E+02 -0.43764686230E+02  0.58085307695E+02  0.00000000000E+00 0.  1.
         11    1    4    4    0    0 -0.11995748793E+02 -0.13974088720E+02  0.45524363829E+02  0.49108460031E+02  0.00000000000E+00 0. -1.
</event>
<event>
 8    1  0.3708258E-009  0.2892087E+03  0.7561462E-02  0.1090763E+00
         -1   -1    0    0    0  501 -0.00000000000E+00  0.00000000000E+00  0.16264801771E+03  0.16264801771E+03  0.00000000000E+00 0.  1.
          1   -1    0    0  501    0  0.00000000000E+00 -0.00000000000E+00 -0.68493101459E+03  0.68493101459E+03  0.00000000000E+00 0. -1.
         25    2    1    2    0    0  0.28808541742E+03 -0.44315563893E+01 -0.42797881056E+03  0.53087283923E+03  0.12508901920E+03 0.  0.
         23    2    1    2    0    0 -0.28808541742E+03  0.44315563893E+01 -0.94304186323E+02  0.31670619306E+03  0.91633436813E+02 0.  0.
          5    1    3    3  502    0  0.10368011743E+03  0.13598966492E+02 -0.64663622807E+02  0.12301770261E+03  0.41800000000E+01 0. -1.
         -5    1    3    3    0  502  0.18440529999E+03 -0.18030522881E+02 -0.36331518775E+03  0.40785513662E+03  0.41800000000E+01 0. -1.
        -11    1    4    4    0    0 -0.19085130289E+03  0.93014965281E+01 -0.15961870574E+02  0.19174336746E+03  0.00000000000E+00 0.  1.
         11    1    4    4    0    0 -0.97234114538E+02 -0.48699401388E+01 -0.78342315749E+02  0.12496282561E+03  0.00000000000E+00 0. -1.
</event>
<event>
 8    1  0.3708258E-009  0.9823296E+02  0.7561462E-02  0.1284056E+00
          1   -1    0    0  501    0  0.00000000000E+00  0.00000000000E+00  0.32679167940E+03  0.32679167940E+03  0.00000000000E+00 0. -1.
         -1   -1    0    0    0  501 -0.00000000000E+00 -0.00000000000E+00 -0.43062425275E+02  0.43062425275E+02  0.00000000000E+00 0.  1.
         25    2    1    2    0    0 -0.23063131999E+02  0.26054996034E+02  0.10501402571E+03  0.16699117963E+03  0.12508931850E+03 0.  0.
         23    2    1    2    0    0  0.23063131999E+02 -0.26054996034E+02  0.17871522841E+03  0.20286292504E+03  0.89462073600E+02 0.  0.
          5    1    3    3  502    0  0.20652338459E+02  0.47868036371E+02  0.13529451424E+01  0.52317978271E+02  0.41800000000E+01 0. -1.
         -5    1    3    3    0  502 -0.43715470458E+02 -0.21813040337E+02  0.10366108057E+03  0.11467320136E+03  0.41800000000E+01 0. -1.
        -11    1    4    4    0    0 -0.23585118208E+02  0.18993563448E+02  0.70100170305E+02  0.76361293403E+02  0.00000000000E+00 0. -1.
         11    1    4    4    0    0  0.46648250207E+02 -0.45048559483E+02  0.10861505811E+03  0.12650163164E+03  0.00000000000E+00 0.  1.
</event>
<event>
 8    1  0.3708258E-009  0.8639821E+02  0.7561462E-02  0.1311816E+00
         -2   -1    0    0    0  501 -0.00000000000E+00  0.00000000000E+00  0.57819435533E+02  0.57819435533E+02  0.00000000000E+00 0.  1.
          2   -1    0    0  501    0  0.00000000000E+00 -0.00000000000E+00 -0.21267666352E+03  0.21267666352E+03  0.00000000000E+00 0. -1.
         25    2    1    2    0    0 -0.11178585051E+01 -0.12509812689E+02 -0.61856316597E+02  0.14011223077E+03  0.12508992081E+03 0.  0.
         23    2    1    2    0    0  0.11178585051E+01  0.12509812689E+02 -0.93000911394E+02  0.13038386829E+03  0.90515405144E+02 0.  0.
          5    1    3    3  502    0  0.31137705503E+02 -0.33295850869E+02  0.19735043799E+02  0.49850925195E+02  0.41800000000E+01 0. -1.
         -5    1    3    3    0  502 -0.32255564008E+02  0.20786038180E+02 -0.81591360396E+02  0.90261305574E+02  0.41800000000E+01 0. -1.
        -11    1    4    4    0    0 -0.37699513115E+02 -0.15280411487E+02 -0.26603329711E+02  0.48605364067E+02  0.00000000000E+00 0.  1.
         11    1    4    4    0    0  0.38817371620E+02  0.27790224176E+02 -0.66397581683E+02  0.81778504221E+02  0.00000000000E+00 0. -1.
</event>
<event>
 8    1  0.3708258E-009  0.1510282E+03  0.7561462E-02  0.1199215E+00
         -2   -1    0    0    0  501 -0.00000000000E+00  0.00000000000E+00  0.68129816551E+02  0.68129816551E+02  0.00000000000E+00 0. -1.
          2   -1    0    0  501    0  0.00000000000E+00 -0.00000000000E+00 -0.49311131846E+03  0.49311131846E+03  0.00000000000E+00 0.  1.
         25    2    1    2    0    0 -0.13686505989E+03 -0.16825970389E+02 -0.14399369612E+03  0.23536631342E+03  0.12509180258E+03 0.  0.
         23    2    1    2    0    0  0.13686505989E+03  0.16825970389E+02 -0.28098780579E+03  0.32587482159E+03  0.90692306419E+02 0.  0.
          5    1    3    3  502    0 -0.50572706088E+02  0.43847556592E+01  0.15069673153E+02  0.53116778255E+02  0.41800000000E+01 0.  1.
         -5    1    3    3    0  502 -0.86292353806E+02 -0.21210726048E+02 -0.15906336927E+03  0.18224953517E+03  0.41800000000E+01 0.  1.
        -11    1    4    4    0    0  0.49942422381E+02  0.48531301583E+02 -0.91323368264E+02  0.11484550656E+03  0.00000000000E+00 0.  1.
         11    1    4    4    0    0  0.86922637512E+02 -0.31705331194E+02 -0.18966443753E+03  0.21102931503E+03  0.00000000000E+00 0. -1.
</event>
<event>
 8    1  0.3708258E-009  0.1065610E+03  0.7561462E-02  0.1267074E+00
          3   -1    0    0  501    0  0.00000000000E+00  0.00000000000E+00  0.36883939557E+03  0.36883939557E+03  0.00000000000E+00 0. -1.
         -3   -1    0    0    0  501 -0.00000000000E+00 -0.00000000000E+00 -0.52119658186E+02  0.52119658186E+02  0.00000000000E+00 0.  1.
         25    2    1    2    0    0 -0.27813385914E+02 -0.74144266431E+02  0.22400438439E+03  0.26850700733E+03  0.12508833710E+03 0.  0.
         23    2    1    2    0    0  0.27813385914E+02  0.74144266431E+02  0.92715352992E+02  0.15245204642E+03  0.91512475092E+02 0.  0.
          5    1    3    3  502    0  0.35263425713E+02 -0.30534823604E+02  0.20743363272E+02  0.51221520530E+02  0.41800000000E+01 0. -1.
         -5    1    3    3    0  502 -0.63076811626E+02 -0.43609442827E+02  0.20326102112E+03  0.21728548680E+03  0.41800000000E+01 0. -1.
        -11    1    4    4    0    0 -0.54174154436E+01  0.44895715571E+02 -0.46848743349E+01  0.45463410719E+02  0.00000000000E+00 0.  1.
         11    1    4    4    0    0  0.33230801357E+02  0.29248550860E+02  0.97400227327E+02  0.10698863570E+03  0.00000000000E+00 0. -1.
</event>
<event>
 8    1  0.3708258E-009  0.1083839E+03  0.7561462E-02  0.1263592E+00
         -2   -1    0    0    0  501 -0.00000000000E+00  0.00000000000E+00  0.85052551877E+01  0.85052551877E+01  0.00000000000E+00 0.  1.
          2   -1    0    0  501    0  0.00000000000E+00 -0.00000000000E+00 -0.19770566128E+04  0.19770566128E+04  0.00000000000E+00 0. -1.
         25    2    1    2    0    0  0.56527953665E+01  0.40659413562E+02 -0.15353731042E+04  0.15410071567E+04  0.12508935166E+03 0.  0.
         23    2    1    2    0    0 -0.56527953665E+01 -0.40659413562E+02 -0.43317825343E+03  0.44455471131E+03  0.91106257143E+02 0.  0.
          5    1    3    3  502    0  0.55461511418E+02  0.51672334931E+00 -0.10424353225E+04  0.10439181578E+04  0.41800000000E+01 0. -1.
         -5    1    3    3    0  502 -0.49808716052E+02  0.40142690213E+02 -0.49293778170E+03  0.49708899887E+03  0.41800000000E+01 0. -1.
        -11    1    4    4    0    0 -0.32215902261E+02  0.14870681079E+02 -0.11048827921E+03  0.11604594503E+03  0.00000000000E+00 0.  1.
         11    1    4    4    0    0  0.26563106895E+02 -0.55530094641E+02 -0.32268997422E+03  0.32850876627E+03  0.00000000000E+00 0. -1.
</event>
<event>
 8    1  0.3708258E-009  0.1255313E+03  0.7561462E-02  0.1234241E+00
         -1   -1    0    0    0  501 -0.00000000000E+00  0.00000000000E+00  0.43411505657E+03  0.43411505657E+03  0.00000000000E+00 0.  1.
          1   -1    0    0  501    0  0.00000000000E+00 -0.00000000000E+00 -0.45764287329E+02  0.45764287329E+02  0.00000000000E+00 0. -1.
         25    2    1    2    0    0  0.37944662905E+02 -0.54833163308E+02  0.31482631923E+03  0.34526905031E+03  0.12509449462E+03 0.  0.
         23    2    1    2    0    0 -0.37944662905E+02  0.54833163308E+02  0.73524450018E+02  0.13461029359E+03  0.90926416123E+02 0.  0.
          5    1    3    3  502    0  0.82258690516E+02 -0.30041787847E+02  0.23216610791E+03  0.24816844127E+03  0.41800000000E+01 0.  1.
         -5    1    3    3    0  502 -0.44314027612E+02 -0.24791375461E+02  0.82660211318E+02  0.97100609038E+02  0.41800000000E+01 0.  1.
        -11    1    4    4    0    0 -0.21312132590E+02  0.79713358881E+02  0.58312273742E+02  0.10103834841E+03  0.00000000000E+00 0.  1.
         11    1    4    4    0    0 -0.16632530315E+02 -0.24880195574E+02  0.15212176276E+02  0.33571945185E+02  0.00000000000E+00 0. -1.
</event>
<event>
 8    1  0.3708258E-009  0.8657418E+02  0.7561462E-02  0.1311366E+00
          1   -1    0    0  501    0  0.00000000000E+00  0.00000000000E+00  0.35842901089E+03  0.35842901089E+03  0.00000000000E+00 0. -1.
         -1   -1    0    0    0  501 -0.00000000000E+00 -0.00000000000E+00 -0.43577379581E+02  0.43577379581E+02  0.00000000000E+00 0.  1.
         25    2    1    2    0    0 -0.34171988208E+02 -0.12203471443E+02  0.25711116818E+03  0.28821964015E+03  0.12509100157E+03 0.  0.
         23    2    1    2    0    0  0.34171988208E+02  0.12203471443E+02  0.57740463127E+02  0.11378675031E+03  0.91086848511E+02 0.  0.
          5    1    3    3  502    0 -0.12328936971E+02 -0.67153564443E+02  0.16576635028E+03  0.17932528876E+03  0.41800000000E+01 0.  1.
         -5    1    3    3    0  502 -0.21843051238E+02  0.54950093000E+02  0.91344817898E+02  0.10889435139E+03  0.41800000000E+01 0.  1.
        -11    1    4    4    0    0  0.18595209933E+02  0.20614439883E+02 -0.19897449130E+02  0.34156191914E+02  0.00000000000E+00 0.  1.
         11    1    4    4    0    0  0.15576778275E+02 -0.84109684401E+01  0.77637912257E+02  0.79630558401E+02  0.00000000000E+00 0. -1.
</event>
<event>
 8    1  0.3708258E-009  0.8466308E+02  0.7561462E-02  0.1316316E+00
          2   -1    0    0  501    0  0.00000000000E+00  0.00000000000E+00  0.32486170389E+03  0.32486170389E+03  0.00000000000E+00 0. -1.
         -2   -1    0    0    0  501 -0.00000000000E+00 -0.00000000000E+00 -0.42204412389E+02  0.42204412389E+02  0.00000000000E+00 0.  1.
         25    2    1    2    0    0 -0.34269068866E+02 -0.26072221064E+02  0.15406264473E+03  0.20307166772E+03  0.12509465990E+03 0.  0.
         23    2    1    2    0    0  0.34269068866E+02  0.26072221064E+02  0.12859464677E+03  0.16399444857E+03  0.92214240708E+02 0.  0.
          5    1    3    3  502    0 -0.20691132008E+02  0.15187179646E+02 -0.13932370294E+02  0.29501808612E+02  0.41800000000E+01 0. -1.
         -5    1    3    3    0  502 -0.13577936857E+02 -0.41259400710E+02  0.16799501502E+03  0.17356985910E+03  0.41800000000E+01 0. -1.
        -11    1    4    4    0    0  0.61039292119E+02 -0.17638873344E+01  0.62070459013E+02  0.87072661399E+02  0.00000000000E+00 0.  1.
         11    1    4    4    0    0 -0.26770223254E+02  0.27836108398E+02  0.66524187760E+02  0.76921787167E+02  0.00000000000E+00 0. -1.
</event>
<event>
 8    1  0.3708258E-009  0.9951549E+02  0.7561462E-02  0.1281318E+00
         -1   -1    0    0    0  501 -0.00000000000E+00  0.00000000000E+00  0.32038422848E+02  0.32038422848E+02  0.00000000000E+00 0.  1.
          1   -1    0    0  501    0  0.00000000000E+00 -0.00000000000E+00 -0.44824271309E+03  0.44824271309E+03  0.00000000000E+00 0. -1.
         25    2    1    2    0    0  0.13419843559E+02  0.46837987345E+02 -0.26711659094E+03  0.29895250175E+03  0.12508971134E+03 0.  0.
         23    2    1    2    0    0 -0.13419843559E+02 -0.46837987345E+02 -0.14908769930E+03  0.18132863419E+03  0.90989242417E+02 0.  0.
          5    1    3    3  502    0  0.52122521068E+02 -0.24453871816E+01 -0.48032754484E+02  0.71044739596E+02  0.41800000000E+01 0.  1.
         -5    1    3    3    0  502 -0.38702677510E+02  0.49283374527E+02 -0.21908383646E+03  0.22790776215E+03  0.41800000000E+01 0.  1.
        -11    1    4    4    0    0  0.28021000899E+02 -0.16453106649E+02 -0.11518574314E+02  0.34475480621E+02  0.00000000000E+00 0.  1.
         11    1    4    4    0    0 -0.41440844458E+02 -0.30384880696E+02 -0.13756912499E+03  0.14685315357E+03  0.00000000000E+00 0. -1.
</event>
<event>
 8    1  0.3708258E-009  0.7210453E+02  0.7561462E-02  0.1353079E+00
         -1   -1    0    0    0  501 -0.00000000000E+00  0.00000000000E+00  0.33825304110E+02  0.33825304110E+02  0.00000000000E+00 0.  1.
          1   -1    0    0  501    0  0.00000000000E+00 -0.00000000000E+00 -0.39680407293E+03  0.39680407293E+03  0.00000000000E+00 0. -1.
         25    2    1    2    0    0 -0.38546513309E+02 -0.18492489547E+01 -0.19637602227E+03  0.23601022783E+03  0.12509209450E+03 0.  0.
         23    2    1    2    0    0  0.38546513309E+02  0.18492489547E+01 -0.16660274655E+03  0.19461914921E+03  0.92902554719E+02 0.  0.
          5    1    3    3  502    0  0.10931797305E+02 -0.14812069353E+02 -0.18163910601E+03  0.18261746582E+03  0.41800000000E+01 0.  1.
         -5    1    3    3    0  502 -0.49478310614E+02  0.12962820398E+02 -0.14736916265E+02  0.53392762008E+02  0.41800000000E+01 0.  1.
        -11    1    4    4    0    0  0.56764752154E+00  0.27933213361E+02 -0.74266903896E+01  0.28909208957E+02  0.00000000000E+00 0.  1.
         11    1    4    4    0    0  0.37978865787E+02 -0.26083964406E+02 -0.15917605616E+03  0.16570994026E+03  0.00000000000E+00 0. -1.
</event>
<event>
 8    1  0.3708258E-009  0.9985051E+02  0.7561462E-02  0.1280611E+00
          2   -1    0    0  501    0  0.00000000000E+00  0.00000000000E+00  0.17005979052E+04  0.17005979052E+04  0.00000000000E+00 0. -1.
         -2   -1    0    0    0  501 -0.00000000000E+00 -0.00000000000E+00 -0.12313240759E+02  0.12313240759E+02  0.00000000000E+00 0.  1.
         25    2    1    2    0    0 -0.15511314119E+02 -0.18887113362E+01  0.15313627044E+04  0.15365427766E+04  0.12509118246E+03 0.  0.
         23    2    1    2    0    0  0.15511314119E+02  0.18887113362E+01  0.15692196006E+03  0.17636836934E+03  0.78975515550E+02 0.  0.
          5    1    3    3  502    0  0.13525610092E+02  0.54265218129E+02  0.96922614091E+03  0.97084727977E+03  0.41800000000E+01 0.  1.
         -5    1    3    3    0  502 -0.29036924210E+02 -0.56153929465E+02  0.56213656346E+03  0.56569549684E+03  0.41800000000E+01 0.  1.
        -11    1    4    4    0    0  0.16361807231E+02 -0.37475192229E+02  0.86769121751E+02  0.95921735065E+02  0.00000000000E+00 0. -1.
         11    1    4    4    0    0 -0.85049311167E+00  0.39363903566E+02  0.70152838313E+02  0.80446634273E+02  0.00000000000E+00 0.  1.
</event>
<event>
 8    1  0.3708258E-009  0.1546115E+03  0.7561462E-02  0.1194918E+00
         -2   -1    0    0    0  501 -0.00000000000E+00  0.00000000000E+00  0.19477392088E+03  0.19477392088E+03  0.00000000000E+00 0.  1.
          2   -1    0    0  501    0  0.00000000000E+00 -0.00000000000E+00 -0.20272029398E+03  0.20272029398E+03  0.00000000000E+00 0. -1.
         25    2    1    2    0    0  0.12133117906E+03 -0.49224233401E+02  0.98102368608E+02  0.20594999798E+03  0.12508815601E+03 0.  0.
         23    2    1    2    0    0 -0.12133117906E+03  0.49224233401E+02 -0.10604874172E+03  0.19154421688E+03  0.91096494089E+02 0.  0.
          5    1    3    3  502    0  0.13397617805E+03 -0.31255327651E+02  0.11382864013E+03  0.17860835228E+03  0.41800000000E+01 0.  1.
         -5    1    3    3    0  502 -0.12644998989E+02 -0.17968905750E+02 -0.15726271520E+02  0.27341645693E+02  0.41800000000E+01 0.  1.
        -11    1    4    4    0    0 -0.95743317741E+02  0.22985785922E+01 -0.33559332275E+02  0.10148051605E+03  0.00000000000E+00 0.  1.
         11    1    4    4    0    0 -0.25587861321E+02  0.46925654808E+02 -0.72489409440E+02  0.90063700830E+02  0.00000000000E+00 0. -1.
</event>
<event>
 8    1  0.3708258E-009  0.1031016E+03  0.7561462E-02  0.1273906E+00
         -1   -1    0    0    0  501 -0.00000000000E+00  0.00000000000E+00  0.17935555154E+03  0.17935555154E+03  0.00000000000E+00 0.  1.
          1   -1    0    0  501    0  0.00000000000E+00 -0.00000000000E+00 -0.75342452683E+02  0.75342452683E+02  0.00000000000E+00 0. -1.
         25    2    1    2    0    0  0.44997470051E+01  0.13879131491E+02  0.18246143464E+02  0.12725377998E+03  0.12509086599E+03 0.  0.
         23    2    1    2    0    0 -0.44997470051E+01 -0.13879131491E+02  0.85766955397E+02  0.12744422425E+03  0.93129918087E+02 0.  0.
          5    1    3    3  502    0  0.54935181253E+02  0.30896538717E+02 -0.14244575976E+02  0.64752224586E+02  0.41800000000E+01 0.  1.
         -5    1    3    3    0  502 -0.50435434248E+02 -0.17017407227E+02  0.32490719440E+02  0.62501555391E+02  0.41800000000E+01 0.  1.
        -11    1    4    4    0    0  0.18566503676E+02  0.32736005837E+02  0.17187576847E+02  0.41373589823E+02  0.00000000000E+00 0. -1.
         11    1    4    4    0    0 -0.23066250681E+02 -0.46615137328E+02  0.68579378550E+02  0.86070634428E+02  0.00000000000E+00 0.  1.
</event>
<event>
 8    1  0.3708258E-009  0.1161345E+03  0.7561462E-02  0.1249614E+00
         -2   -1    0    0    0  501 -0.00000000000E+00  0.00000000000E+00  0.35702916091E+02  0.35702916091E+02  0.00000000000E+00 0.  1.
          2   -1    0    0  501    0  0.00000000000E+00 -0.00000000000E+00 -0.62145911458E+03  0.62145911458E+03  0.00000000000E+00 0. -1.
         25    2    1    2    0    0 -0.29707399515E+02 -0.93139186741E+02 -0.38824295991E+03  0.41944937631E+03  0.12509094961E+03 0.  0.
         23    2    1    2    0    0  0.29707399515E+02  0.93139186741E+02 -0.19751323858E+03  0.23771265436E+03  0.89097637100E+02 0.  0.
          5    1    3    3  502    0 -0.16217026446E+02 -0.82008077480E+02 -0.98970269798E+02  0.12961829895E+03  0.41800000000E+01 0.  1.
         -5    1    3    3    0  502 -0.13490373069E+02 -0.11131109261E+02 -0.28927269011E+03  0.28983107736E+03  0.41800000000E+01 0.  1.
        -11    1    4    4    0    0  0.53729324793E+02  0.26821673753E+02 -0.10988538635E+03  0.12522396200E+03  0.00000000000E+00 0. -1.
         11    1    4    4    0    0 -0.24021925278E+02  0.66317512989E+02 -0.87627852233E+02  0.11248869237E+03  0.00000000000E+00 0.  1.
</event>
<event>
 8    1  0.3708258E-009  0.1570244E+03  0.7561462E-02  0.1192098E+00
         -2   -1    0    0    0  501 -0.00000000000E+00  0.00000000000E+00  0.39713109039E+02  0.39713109039E+02  0.00000000000E+00 0.  1.
          2   -1    0    0  501    0  0.00000000000E+00 -0.00000000000E+00 -0.68754116242E+03  0.68754116242E+03  0.00000000000E+00 0. -1.
         25    2    1    2    0    0 -0.12202468552E+03  0.20702703795E+02 -0.31863533900E+03  0.36400010195E+03  0.12509583980E+03 0.  0.
         23    2    1    2    0    0  0.12202468552E+03 -0.20702703795E+02 -0.32919271438E+03  0.36325416951E+03  0.90923718833E+02 0.  0.
          5    1    3    3  502    0 -0.49255746702E+02 -0.41653412949E+02 -0.20677651028E+03  0.21664517765E+03  0.41800000000E+01 0. -1.
         -5    1    3    3    0  502 -0.72768938821E+02  0.62356116745E+02 -0.11185882872E+03  0.14735492430E+03  0.41800000000E+01 0. -1.
        -11    1    4    4    0    0  0.54740380024E+02  0.35980226305E+02 -0.14674896320E+03  0.16070576869E+03  0.00000000000E+00 0. -1.
         11    1    4    4    0    0  0.67284305499E+02 -0.56682930100E+02 -0.18244375117E+03  0.20254840082E+03  0.00000000000E+00 0.  1.
</event>
<event>
 8    1  0.3708258E-009  0.7214389E+02  0.7561462E-02  0.1352951E+00
         -1   -1    0    0    0  501 -0.00000000000E+00  0.00000000000E+00  0.34423397339E+02  0.34423397339E+02  0.00000000000E+00 0.  1.
          1   -1    0    0  501    0  0.00000000000E+00 -0.00000000000E+00 -0.44589104496E+03  0.44589104496E+03  0.00000000000E+00 0. -1.
         25    2    1    2    0    0 -0.23361250281E+02  0.23669965081E+02 -0.33074112172E+03  0.35516277418E+03  0.12507953990E+03 0.  0.
         23    2    1    2    0    0  0.23361250281E+02 -0.23669965081E+02 -0.80726525898E+02  0.12515166812E+03  0.89666899067E+02 0.  0.
          5    1    3    3  502    0 -0.25737025565E+02  0.31722518300E+02 -0.22585743117E+02  0.46864707876E+02  0.41800000000E+01 0.  1.
         -5    1    3    3    0  502  0.23757752838E+01 -0.80525532187E+01 -0.30815537860E+03  0.30829806630E+03  0.41800000000E+01 0.  1.
        -11    1    4    4    0    0  0.37740411778E+01  0.33346182043E+02 -0.17724657931E+02  0.37952269266E+02  0.00000000000E+00 0.  1.
         11    1    4    4    0    0  0.19587209103E+02 -0.57016147124E+02 -0.63001867967E+02  0.87199398855E+02  0.00000000000E+00 0. -1.
</event>
<event>
 8    1  0.3708258E-009  0.1524467E+03  0.7561462E-02  0.1197498E+00
         -1   -1    0    0    0  501 -0.00000000000E+00  0.00000000000E+00  0.98655820066E+02  0.98655820066E+02  0.00000000000E+00 0.  1.
          1   -1    0    0  501    0  0.00000000000E+00 -0.00000000000E+00 -0.31284712607E+03  0.31284712607E+03  0.00000000000E+00 0. -1.
         25    2    1    2    0    0 -0.13134325514E+03 -0.28087283826E+02 -0.78341756671E+02  0.19956093748E+03  0.12508873149E+03 0.  0.
         23    2    1    2    0    0  0.13134325514E+03  0.28087283826E+02 -0.13584954934E+03  0.21194200867E+03  0.91784360318E+02 0.  0.
          5    1    3    3  502    0 -0.37419512792E+02 -0.34253092033E+02 -0.91225375976E+02  0.10446547695E+03  0.41800000000E+01 0.  1.
         -5    1    3    3    0  502 -0.93923742346E+02  0.61658082067E+01  0.12883619305E+02  0.95095460531E+02  0.41800000000E+01 0.  1.
        -11    1    4    4    0    0  0.10801114628E+03 -0.16678998580E+02 -0.11063180393E+03  0.15551203411E+03  0.00000000000E+00 0. -1.
         11    1    4    4    0    0  0.23332108862E+02  0.44766282407E+02 -0.25217745409E+02  0.56429974552E+02  0.00000000000E+00 0.  1.
</event>
<event>
 8    1  0.3708258E-009  0.1038418E+03  0.7561462E-02  0.1272419E+00
         -3   -1    0    0    0  501 -0.00000000000E+00  0.00000000000E+00  0.50923810301E+02  0.50923810301E+02  0.00000000000E+00 0.  1.
          3   -1    0    0  501    0  0.00000000000E+00 -0.00000000000E+00 -0.27243526834E+03  0.27243526834E+03  0.00000000000E+00 0. -1.
         25    2    1    2    0    0 -0.61236693708E+01 -0.30876456012E+02 -0.17045635102E+03  0.21376158665E+03  0.12509114063E+03 0.  0.
         23    2    1    2    0    0  0.61236693708E+01  0.30876456012E+02 -0.51055107027E+02  0.10959749199E+03  0.91728574802E+02 0.  0.
          5    1    3    3  502    0 -0.51998575500E+02  0.22080606390E+02 -0.57080810349E+02  0.80418258764E+02  0.41800000000E+01 0.  1.
         -5    1    3    3    0  502  0.45874906129E+02 -0.52957062402E+02 -0.11337554067E+03  0.13334332789E+03  0.41800000000E+01 0.  1.
        -11    1    4    4    0    0  0.32733551325E+02  0.40923722451E+02 -0.14600047682E+01  0.52424880119E+02  0.00000000000E+00 0.  1.
         11    1    4    4    0    0 -0.26609881954E+02 -0.10047266438E+02 -0.49595102259E+02  0.57172611875E+02  0.00000000000E+00 0. -1.
</event>
<event>
 8    1  0.3708258E-009  0.7223169E+02  0.7561462E-02  0.1352664E+00
          1   -1    0    0  501    0  0.00000000000E+00  0.00000000000E+00  0.78299601838E+03  0.78299601838E+03  0.00000000000E+00 0. -1.
         -1   -1    0    0    0  501 -0.00000000000E+00 -0.00000000000E+00 -0.15904060604E+02  0.15904060604E+02  0.00000000000E+00 0.  1.
         25    2    1    2    0    0 -0.72219216037E+01  0.34957135383E+02  0.51047453006E+03  0.52678924966E+03  0.12509400565E+03 0.  0.
         23    2    1    2    0    0  0.72219216037E+01 -0.34957135383E+02  0.25661742771E+03  0.27211082932E+03  0.83172361776E+02 0.  0.
          5    1    3    3  502    0 -0.18657488290E+02  0.37197733656E+02  0.51253525982E+03  0.51423889217E+03  0.41800000000E+01 0.  1.
         -5    1    3    3    0  502  0.11435566686E+02 -0.22405982735E+01 -0.20607297577E+01  0.12550357493E+02  0.41800000000E+01 0.  1.
        -11    1    4    4    0    0  0.16135984951E+02 -0.60809180540E+02  0.16931506024E+03  0.18062590089E+03  0.00000000000E+00 0.  1.
         11    1    4    4    0    0 -0.89140633475E+01  0.25852045157E+02  0.87302367468E+02  0.91484928429E+02  0.00000000000E+00 0. -1.
</event>
<event>
 8    1  0.3708258E-009  0.2282870E+03  0.7561462E-02  0.1127851E+00
          1   -1    0    0  501    0  0.00000000000E+00  0.00000000000E+00  0.18864039553E+03  0.18864039553E+03  0.00000000000E+00 0. -1.
         -1   -1    0    0    0  501 -0.00000000000E+00 -0.00000000000E+00 -0.33486696274E+03  0.33486696274E+03  0.00000000000E+00 0.  1.
         25    2    1    2    0    0  0.19885062663E+03  0.91083651366E+02 -0.13222172495E+03  0.28454875279E+03  0.12509038696E+03 0.  0.
         23    2    1    2    0    0 -0.19885062663E+03 -0.91083651366E+02 -0.14004842264E+02  0.23895860548E+03  0.95222246705E+02 0.  0.
          5    1    3    3  502    0  0.54385515429E+02  0.39001961159E+02 -0.11069985642E+03  0.12942514391E+03  0.41800000000E+01 0. -1.
         -5    1    3    3    0  502  0.14446511120E+03  0.52081690207E+02 -0.21521868529E+02  0.15512360889E+03  0.41800000000E+01 0. -1.
        -11    1    4    4    0    0 -0.20185238984E+03 -0.10087449366E+03 -0.56224959798E+01  0.22572475100E+03  0.00000000000E+00 0. -1.
         11    1    4    4    0    0  0.30017632074E+01  0.97908422890E+01 -0.83823462847E+01  0.13233854477E+02  0.00000000000E+00 0.  1.
</event>
<event>
 8    1  0.3708258E-009  0.1713904E+03  0.7561462E-02  0.1176406E+00
          1   -1    0    0  501    0  0.00000000000E+00  0.00000000000E+00  0.11348979228E+04  0.11348979228E+04  0.00000000000E+00 0. -1.
         -1   -1    0    0    0  501 -0.00000000000E+00 -0.00000000000E+00 -0.33487104178E+02  0.33487104178E+02  0.00000000000E+00 0.  1.
         25    2    1    2    0    0  0.11746820579E+03 -0.10563883133E+03  0.65681749773E+03  0.68703352561E+03  0.12508995936E+03 0.  0.
         23    2    1    2    0    0 -0.11746820579E+03  0.10563883133E+03  0.44459332085E+03  0.48135150133E+03  0.95276990012E+02 0.  0.
          5    1    3    3  502    0  0.94081185317E+02 -0.20627658705E+02  0.20322704851E+03  0.22493438016E+03  0.41800000000E+01 0. -1.
         -5    1    3    3    0  502  0.23387020477E+02 -0.85011172625E+02  0.45359044922E+03  0.46209914545E+03  0.41800000000E+01 0. -1.
        -11    1    4    4    0    0 -0.46570940902E+02  0.46019734226E+02  0.31692565620E+03  0.32361789202E+03  0.00000000000E+00 0. -1.
         11    1    4    4    0    0 -0.70897264892E+02  0.59619097104E+02  0.12766766465E+03  0.15773360931E+03  0.00000000000E+00 0.  1.
</event>
<event>
 8    1  0.3708258E-009  0.1149888E+03  0.7561462E-02  0.1251601E+00
         -2   -1    0    0    0  501 -0.00000000000E+00  0.00000000000E+00  0.74689496126E+03  0.74689496126E+03  0.00000000000E+00 0.  1.
          2   -1    0    0  501    0  0.00000000000E+00 -0.00000000000E+00 -0.18284275843E+02  0.18284275843E+02  0.00000000000E+00 0. -1.
         25    2    1    2    0    0 -0.23719714631E+02  0.33580550711E+02  0.41385961735E+03  0.43430630992E+03  0.12510759256E+03 0.  0.
         23    2    1    2    0    0  0.23719714631E+02 -0.33580550711E+02  0.31475106807E+03  0.33087292718E+03  0.93372270206E+02 0.  0.
          5    1    3    3  502    0 -0.56674377666E+00  0.79414425829E+02  0.22976905822E+03  0.24314247828E+03  0.41800000000E+01 0. -1.
         -5    1    3    3    0  502 -0.23152970855E+02 -0.45833875118E+02  0.18409055913E+03  0.19116383164E+03  0.41800000000E+01 0. -1.
        -11    1    4    4    0    0  0.54005679956E+02 -0.40933930863E+02  0.24984725387E+03  0.25887419807E+03  0.00000000000E+00 0.  1.
         11    1    4    4    0    0 -0.30285965325E+02  0.73533801516E+01  0.64903814202E+02  0.71998729109E+02  0.00000000000E+00 0. -1.
</event>
<event>
 8    1  0.3708258E-009  0.1661585E+03  0.7561462E-02  0.1181914E+00
         -2   -1    0    0    0  501 -0.00000000000E+00  0.00000000000E+00  0.16659180317E+03  0.16659180317E+03  0.00000000000E+00 0.  1.
          2   -1    0    0  501    0  0.00000000000E+00 -0.00000000000E+00 -0.19504662223E+03  0.19504662223E+03  0.00000000000E+00 0. -1.
         25    2    1    2    0    0  0.52845875133E+02  0.13251941065E+03 -0.24506014771E+02  0.19131432432E+03  0.12508615116E+03 0.  0.
         23    2    1    2    0    0 -0.52845875133E+02 -0.13251941065E+03 -0.39488042918E+01  0.17032410108E+03  0.92954965635E+02 0.  0.
          5    1    3    3  502    0  0.33826753365E+02  0.15567105140E+03 -0.18016939473E+02  0.16037396296E+03  0.41800000000E+01 0.  1.
         -5    1    3    3    0  502  0.19019121768E+02 -0.23151640756E+02 -0.64890752983E+01  0.30940361355E+02  0.41800000000E+01 0.  1.
        -11    1    4    4    0    0 -0.27596038856E+02 -0.64742124627E+02 -0.48413014553E+02  0.85421917795E+02  0.00000000000E+00 0. -1.
         11    1    4    4    0    0 -0.25249836277E+02 -0.67777286018E+02  0.44464210261E+02  0.84902183283E+02  0.00000000000E+00 0.  1.
</event>
<event>
 8    1  0.3708258E-009  0.7568343E+02  0.7561462E-02  0.1341768E+00
         -3   -1    0    0    0  501 -0.00000000000E+00  0.00000000000E+00  0.96585778288E+02  0.96585778288E+02  0.00000000000E+00 0.  1.
          3   -1    0    0  501    0  0.00000000000E+00 -0.00000000000E+00 -0.16209138618E+03  0.16209138618E+03  0.00000000000E+00 0. -1.
         25    2    1    2    0    0  0.54831562442E+02  0.31041351637E+02 -0.37841162579E+02  0.14508681615E+03  0.12509262522E+03 0.  0.
         23    2    1    2    0    0 -0.54831562442E+02 -0.31041351637E+02 -0.27664445311E+02  0.11359034832E+03  0.90373557774E+02 0.  0.
          5    1    3    3  502    0  0.41040871107E+02  0.84580673208E+01  0.42841522025E+02  0.60072959087E+02  0.41800000000E+01 0.  1.
         -5    1    3    3    0  502  0.13790691335E+02  0.22583284316E+02 -0.80682684604E+02  0.85013857064E+02  0.41800000000E+01 0.  1.
        -11    1    4    4    0    0 -0.60622307694E+02 -0.39397689593E+02  0.11428218482E+02  0.73197310832E+02  0.00000000000E+00 0.  1.
         11    1    4    4    0    0  0.57907452517E+01  0.83563379557E+01 -0.39092663794E+02  0.40393037483E+02  0.00000000000E+00 0. -1.
</event>
<event>
 8    1  0.3708258E-009  0.1199599E+03  0.7561462E-02  0.1243163E+00
          2   -1    0    0  501    0  0.00000000000E+00  0.00000000000E+00  0.35499396883E+03  0.35499396883E+03  0.00000000000E+00 0. -1.
         -2   -1    0    0    0  501 -0.00000000000E+00 -0.00000000000E+00 -0.58677308378E+02  0.58677308378E+02  0.00000000000E+00 0.  1.
         25    2    1    2    0    0  0.88565234469E+02  0.98480376925E+01  0.21182540953E+03  0.26164477235E+03  0.12508876116E+03 0.  0.
         23    2    1    2    0    0 -0.88565234469E+02 -0.98480376925E+01  0.84491250920E+02  0.15202650486E+03  0.89624227171E+02 0.  0.
          5    1    3    3  502    0  0.76001837859E+02 -0.33020910561E+02  0.19802292306E+03  0.21470260908E+03  0.41800000000E+01 0. -1.
         -5    1    3    3    0  502  0.12563396611E+02  0.42868948254E+02  0.13802486479E+02  0.46942163263E+02  0.41800000000E+01 0. -1.
        -11    1    4    4    0    0 -0.51858462638E+02 -0.39261563939E+02  0.12815861469E+02  0.66294923299E+02  0.00000000000E+00 0.  1.
         11    1    4    4    0    0 -0.36706771832E+02  0.29413526246E+02  0.71675389451E+02  0.85731581564E+02  0.00000000000E+00 0. -1.
</event>
<event>
 8    1  0.3708258E-009  0.1159174E+03  0.7561462E-02  0.1249988E+00
         -2   -1    0    0    0  501 -0.00000000000E+00  0.00000000000E+00  0.57622250508E+02  0.57622250508E+02  0.00000000000E+00 0. -1.
          2   -1    0    0  501    0  0.00000000000E+00 -0.00000000000E+00 -0.11091778139E+04  0.11091778139E+04  0.00000000000E+00 0.  1.
         25    2    1    2    0    0 -0.10979350996E+03 -0.14183968132E+02 -0.10022986639E+04  0.10161224607E+04  0.12508574527E+03 0.  0.
         23    2    1    2    0    0  0.10979350996E+03  0.14183968132E+02 -0.49256899472E+02  0.15067760371E+03  0.89563934331E+02 0.  0.
          5    1    3    3  502    0 -0.72346971821E+02 -0.14994726305E+01 -0.19814077778E+03  0.21098239966E+03  0.41800000000E+01 0.  1.
         -5    1    3    3    0  502 -0.37446538134E+02 -0.12684495502E+02 -0.80415788616E+03  0.80514006106E+03  0.41800000000E+01 0.  1.
        -11    1    4    4    0    0  0.34953679664E+02 -0.16570085439E+02  0.20560601070E+02  0.43807142909E+02  0.00000000000E+00 0. -1.
         11    1    4    4    0    0  0.74839830291E+02  0.30754053571E+02 -0.69817500542E+02  0.10687046080E+03  0.00000000000E+00 0.  1.
</event>
<event>
 8    1  0.3708258E-009  0.7435244E+02  0.7561462E-02  0.1345888E+00
          1   -1    0    0  501    0  0.00000000000E+00  0.00000000000E+00  0.53843074826E+03  0.53843074826E+03  0.00000000000E+00 0. -1.
         -1   -1    0    0    0  501 -0.00000000000E+00 -0.00000000000E+00 -0.44836372968E+02  0.44836372968E+02  0.00000000000E+00 0.  1.
         25    2    1    2    0    0  0.92564838963E+01  0.29198145467E+01  0.47241616379E+03  0.48879330900E+03  0.12509060437E+03 0.  0.
         23    2    1    2    0    0 -0.92564838963E+01 -0.29198145467E+01  0.21178211502E+02  0.94473812228E+02  0.91556412901E+02 0.  0.
          5    1    3    3  502    0 -0.41767238412E+02 -0.80102055829E+00  0.38604235394E+03  0.38831857446E+03  0.41800000000E+01 0. -1.
         -5    1    3    3    0  502  0.51023722308E+02  0.37208351050E+01  0.86373809848E+02  0.10047473453E+03  0.41800000000E+01 0. -1.
        -11    1    4    4    0    0 -0.30135253361E+02 -0.12241184435E+02  0.48780995544E+02  0.58630756585E+02  0.00000000000E+00 0. -1.
         11    1    4    4    0    0  0.20878769465E+02  0.93213698885E+01 -0.27602784042E+02  0.35843055643E+02  0.00000000000E+00 0.  1.
</event>
<event>
 8    1  0.3708258E-009  0.1163677E+03  0.7561462E-02  0.1249212E+00
         -3   -1    0    0    0  501 -0.00000000000E+00  0.00000000000E+00  0.29624585431E+03  0.29624585431E+03  0.00000000000E+00 0.  1.
          3   -1    0    0  501    0  0.00000000000E+00 -0.00000000000E+00 -0.79209464733E+02  0.79209464733E+02  0.00000000000E+00 0. -1.
         25    2    1    2    0    0 -0.85580573662E+02  0.19060927704E+02  0.19485962787E+03  0.24760036537E+03  0.12509321646E+03 0.  0.
         23    2    1    2    0    0  0.85580573662E+02 -0.19060927704E+02  0.22176761700E+02  0.12785495366E+03  0.90375477115E+02 0.  0.
          5    1    3    3  502    0 -0.82044206552E+02 -0.13504185571E+02  0.45988194737E+02  0.95110468992E+02  0.41800000000E+01 0. -1.
         -5    1    3    3    0  502 -0.35363671103E+01  0.32565113274E+02  0.14887143313E+03  0.15248989638E+03  0.41800000000E+01 0. -1.
        -11    1    4    4    0    0  0.94655090347E+02  0.76269039579E+00  0.36846934863E+02  0.10157688927E+03  0.00000000000E+00 0.  1.
         11    1    4    4    0    0 -0.90745166850E+01 -0.19823618099E+02 -0.14670173163E+02  0.26278064393E+02  0.00000000000E+00 0. -1.
</event>
<event>
 8    1  0.3708258E-009  0.1088393E+03  0.7561462E-02  0.1262734E+00
          2   -1    0    0  501    0  0.00000000000E+00  0.00000000000E+00  0.24226890675E+03  0.24226890675E+03  0.00000000000E+00 0. -1.
         -2   -1    0    0    0  501 -0.00000000000E+00 -0.00000000000E+00 -0.79819702410E+02  0.79819702410E+02  0.00000000000E+00 0.  1.
         25    2    1    2    0    0  0.60459791741E+01  0.85172707610E+02  0.10572572541E+03  0.18471828953E+03  0.12510784743E+03 0.  0.
         23    2    1    2    0    0 -0.60459791741E+01 -0.85172707610E+02  0.56723478930E+02  0.13737031963E+03  0.91444560620E+02 0.  0.
          5    1    3    3  502    0 -0.19156127557E+02  0.26479553078E+02 -0.23525079807E+02  0.40484882785E+02  0.41800000000E+01 0.  1.
         -5    1    3    3    0  502  0.25202106731E+02  0.58693154532E+02  0.12925080522E+03  0.14423340675E+03  0.41800000000E+01 0.  1.
        -11    1    4    4    0    0  0.28469356119E+02  0.37348549582E+00  0.29934576792E+02  0.41312499524E+02  0.00000000000E+00 0. -1.
         11    1    4    4    0    0 -0.34515335293E+02 -0.85546193106E+02  0.26788902138E+02  0.96057820104E+02  0.00000000000E+00 0.  1.
</event>
<event>
 8    1  0.3708258E-009  0.1106656E+03  0.7561462E-02  0.1259342E+00
         -1   -1    0    0    0  501 -0.00000000000E+00  0.00000000000E+00  0.39401249673E+02  0.39401249673E+02  0.00000000000E+00 0.  1.
          1   -1    0    0  501    0  0.00000000000E+00 -0.00000000000E+00 -0.36740501758E+03  0.36740501758E+03  0.00000000000E+00 0. -1.
         25    2    1    2    0    0 -0.21491082005E+02  0.16572141128E+02 -0.10869241996E+03  0.16792545093E+03  0.12509361473E+03 0.  0.
         23    2    1    2    0    0  0.21491082005E+02 -0.16572141128E+02 -0.21931134795E+03  0.23888081632E+03  0.90719758594E+02 0.  0.
          5    1    3    3  502    0 -0.26958354130E+02  0.68854758090E+02 -0.74662239007E+02  0.10516488436E+03  0.41800000000E+01 0. -1.
         -5    1    3    3    0  502  0.54672721257E+01 -0.52282616962E+02 -0.34030180952E+02  0.62760566572E+02  0.41800000000E+01 0. -1.
        -11    1    4    4    0    0  0.57240904991E+02 -0.82828397778E+01 -0.12739963265E+03  0.13991351986E+03  0.00000000000E+00 0. -1.
         11    1    4    4    0    0 -0.35749822986E+02 -0.82893013503E+01 -0.91911715295E+02  0.98967296461E+02  0.00000000000E+00 0.  1.
</event>
<event>
 8    1  0.3708258E-009  0.1289254E+03  0.7561462E-02  0.1229059E+00
         -1   -1    0    0    0  501 -0.00000000000E+00  0.00000000000E+00  0.59489332833E+02  0.59489332833E+02  0.00000000000E+00 0.  1.
          1   -1    0    0  501    0  0.00000000000E+00 -0.00000000000E+00 -0.41119135652E+03  0.41119135652E+03  0.00000000000E+00 0. -1.
         25    2    1    2    0    0  0.85233620882E+01 -0.88319168127E+02 -0.85792499631E+02  0.17572056804E+03  0.12507774334E+03 0.  0.
         23    2    1    2    0    0 -0.85233620882E+01  0.88319168127E+02 -0.26590952405E+03  0.29496012131E+03  0.91764236068E+02 0.  0.
          5    1    3    3  502    0 -0.57683406040E+02 -0.48185995946E+02 -0.34886186900E+02  0.82968572207E+02  0.41800000000E+01 0.  1.
         -5    1    3    3    0  502  0.66206768128E+02 -0.40133172181E+02 -0.50906312732E+02  0.92751995834E+02  0.41800000000E+01 0.  1.
        -11    1    4    4    0    0 -0.31358078165E+02  0.34753929354E+02 -0.20662870155E+03  0.21186454393E+03  0.00000000000E+00 0. -1.
         11    1    4    4    0    0  0.22834716077E+02  0.53565238773E+02 -0.59280822507E+02  0.83095577381E+02  0.00000000000E+00 0.  1.
</event>
<event>
 8    1  0.3708258E-009  0.3426867E+03  0.7561462E-02  0.1065657E+00
         -2   -1    0    0    0  501 -0.00000000000E+00  0.00000000000E+00  0.29760879752E+03  0.29760879752E+03  0.00000000000E+00 0. -1.
          2   -1    0    0  501    0  0.00000000000E+00 -0.00000000000E+00 -0.42583018080E+03  0.42583018080E+03  0.00000000000E+00 0.  1.
         25    2    1    2    0    0 -0.33837340169E+03 -0.18868499894E+02 -0.77812560817E+02  0.36953482510E+03  0.12509441668E+03 0.  0.
         23    2    1    2    0    0  0.33837340169E+03  0.18868499894E+02 -0.50408822460E+02  0.35390415323E+03  0.88625735724E+02 0.  0.
          5    1    3    3  502    0 -0.28491153270E+03 -0.31410364119E+02 -0.10847118069E+03  0.30650393453E+03  0.41800000000E+01 0.  1.
         -5    1    3    3    0  502 -0.53461868984E+02  0.12541864225E+02  0.30658619876E+02  0.63030890571E+02  0.41800000000E+01 0.  1.
        -11    1    4    4    0    0  0.29951883415E+03 -0.20072037565E+01 -0.66738891518E+02  0.30687072281E+03  0.00000000000E+00 0.  1.
         11    1    4    4    0    0  0.38854567541E+02  0.20875703650E+02  0.16330069058E+02  0.47033430420E+02  0.00000000000E+00 0. -1.
</event>
<event>
 8    1  0.3708258E-009  0.1488974E+03  0.7561462E-02  0.1201834E+00
          1   -1    0    0  501    0  0.00000000000E+00  0.00000000000E+00  0.61827700035E+02  0.61827700035E+02  0.00000000000E+00 0. -1.
         -1   -1    0    0    0  501 -0.00000000000E+00 -0.00000000000E+00 -0.40881861056E+03  0.40881861056E+03  0.00000000000E+00 0.  1.
         25    2    1    2    0    0 -0.10622371512E+03 -0.46727801126E+02 -0.20608983205E+03  0.26756428003E+03  0.12510259797E+03 0.  0.
         23    2    1    2    0    0  0.10622371512E+03  0.46727801126E+02 -0.14090107848E+03  0.20308203057E+03  0.89006922044E+02 0.  0.
          5    1    3    3  502    0 -0.10730008801E+03  0.11617201721E+02 -0.10423108540E+03  0.15009949975E+03  0.41800000000E+01 0. -1.
         -5    1    3    3    0  502  0.10763728862E+01 -0.58345002847E+02 -0.10185874665E+03  0.11746478028E+03  0.41800000000E+01 0. -1.
        -11    1    4    4    0    0  0.32787527458E+02  0.47649542987E+02 -0.10819813015E+03  0.12268796303E+03  0.00000000000E+00 0.  1.
         11    1    4    4    0    0  0.73436187663E+02 -0.92174186068E+00 -0.32702948324E+02  0.80394067540E+02  0.00000000000E+00 0. -1.
</event>
<event>
 8    1  0.3708258E-009  0.1344140E+03  0.7561462E-02  0.1221049E+00
         -1   -1    0    0    0  501 -0.00000000000E+00  0.00000000000E+00  0.25813390405E+02  0.25813390405E+02  0.00000000000E+00 0.  1.
          1   -1    0    0  501    0  0.00000000000E+00 -0.00000000000E+00 -0.89142820094E+03  0.89142820094E+03  0.00000000000E+00 0. -1.
         25    2    1    2    0    0 -0.20230087249E+02  0.86770934060E+02 -0.63145064438E+03  0.64985901358E+03  0.12509344432E+03 0.  0.
         23    2    1    2    0    0  0.20230087249E+02 -0.86770934060E+02 -0.23416416615E+03  0.26738257776E+03  0.93392369896E+02 0.  0.
          5    1    3    3  502    0  0.44289023680E+02  0.43677963147E+02 -0.15422344238E+03  0.16634790249E+03  0.41800000000E+01 0.  1.
         -5    1    3    3    0  502 -0.64519110929E+02  0.43092970913E+02 -0.47722720200E+03  0.48351111109E+03  0.41800000000E+01 0.  1.
        -11    1    4    4    0    0 -0.36087309956E+02 -0.49473471283E+02 -0.12033420661E+03  0.13501940446E+03  0.00000000000E+00 0.  1.
         11    1    4    4    0    0  0.56317397205E+02 -0.37297462777E+02 -0.11382995954E+03  0.13236317330E+03  0.00000000000E+00 0. -1.
</event>
<event>
 8    1  0.3708258E-009  0.1218230E+03  0.7561462E-02  0.1240120E+00
         -2   -1    0    0    0  501 -0.00000000000E+00  0.00000000000E+00  0.48699940888E+02  0.48699940888E+02  0.00000000000E+00 0.  1.
          2   -1    0    0  501    0  0.00000000000E+00 -0.00000000000E+00 -0.32276057352E+03  0.32276057352E+03  0.00000000000E+00 0. -1.
         25    2    1    2    0    0  0.53918308805E+02  0.37849612849E+02 -0.15532772658E+03  0.21003494666E+03  0.12509276141E+03 0.  0.
         23    2    1    2    0    0 -0.53918308805E+02 -0.37849612849E+02 -0.11873290605E+03  0.16142556775E+03  0.87297959464E+02 0.  0.
          5    1    3    3  502    0  0.88262942725E+02  0.49125530311E+02 -0.13398549045E+03  0.16784888692E+03  0.41800000000E+01 0. -1.
         -5    1    3    3    0  502 -0.34344633920E+02 -0.11275917462E+02 -0.21342236125E+02  0.42186059742E+02  0.41800000000E+01 0. -1.
        -11    1    4    4    0    0  0.22604320155E+02 -0.71781843431E+01 -0.44794623556E+02  0.50685697388E+02  0.00000000000E+00 0.  1.
         11    1    4    4    0    0 -0.76522628959E+02 -0.30671428506E+02 -0.73938282498E+02  0.11073987036E+03  0.00000000000E+00 0. -1.
</event>
<event>
 8    1  0.3708258E-009  0.1033087E+03  0.7561462E-02  0.1273488E+00
         -2   -1    0    0    0  501 -0.00000000000E+00  0.00000000000E+00  0.57373816583E+02  0.57373816583E+02  0.00000000000E+00 0.  1.
          2   -1    0    0  501    0  0.00000000000E+00 -0.00000000000E+00 -0.24922301879E+03  0.24922301879E+03  0.00000000000E+00 0. -1.
         25    2    1    2    0    0 -0.28243119873E+02  0.34829678566E+02 -0.68584217036E+02  0.14953789898E+03  0.12508800132E+03 0.  0.
         23    2    1    2    0    0  0.28243119873E+02 -0.34829678566E+02 -0.12326498517E+03  0.15705893639E+03  0.86385604144E+02 0.  0.
          5    1    3    3  502    0  0.36142249873E+02 -0.16349467727E+02 -0.51989380145E+02  0.65528126546E+02  0.41800000000E+01 0.  1.
         -5    1    3    3    0  502 -0.64385369745E+02  0.51179146293E+02 -0.16594836891E+02  0.84009772432E+02  0.41800000000E+01 0.  1.
        -11    1    4    4    0    0 -0.19146108817E+02  0.77609382586E+01 -0.28890389626E+01  0.20860301810E+02  0.00000000000E+00 0.  1.
         11    1    4    4    0    0  0.47389228690E+02 -0.42590616825E+02 -0.12037594621E+03  0.13619863458E+03  0.00000000000E+00 0. -1.
</event>
<event>
 8    1  0.3708258E-009  0.1082591E+03  0.7561462E-02  0.1263828E+00
          3   -1    0    0  501    0  0.00000000000E+00  0.00000000000E+00  0.52947389742E+03  0.52947389742E+03  0.00000000000E+00 0. -1.
         -3   -1    0    0    0  501 -0.00000000000E+00 -0.00000000000E+00 -0.36075803321E+02  0.36075803321E+02  0.00000000000E+00 0.  1.
         25    2    1    2    0    0 -0.63814536356E+02  0.51501671549E+02  0.31946610957E+03  0.35274703907E+03  0.12508861334E+03 0.  0.
         23    2    1    2    0    0  0.63814536356E+02 -0.51501671549E+02  0.17393198453E+03  0.21280266167E+03  0.91147793993E+02 0.  0.
          5    1    3    3  502    0 -0.74187304861E+00  0.33139671892E+02  0.79377030599E+01  0.34340468235E+02  0.41800000000E+01 0. -1.
         -5    1    3    3    0  502 -0.63072663307E+02  0.18361999657E+02  0.31152840651E+03  0.31840657084E+03  0.41800000000E+01 0. -1.
        -11    1    4    4    0    0  0.37620757540E+02  0.18947322710E+02  0.94415962605E+02  0.10338615202E+03  0.00000000000E+00 0. -1.
         11    1    4    4    0    0  0.26193778816E+02 -0.70448994259E+02  0.79516021921E+02  0.10941650964E+03  0.00000000000E+00 0.  1.
</event>
<event>
 8    1  0.3708258E-009  0.1997031E+03  0.7561462E-02  0.1149990E+00
         -2   -1    0    0    0  501 -0.00000000000E+00  0.00000000000E+00  0.49109966178E+03  0.49109966178E+03  0.00000000000E+00 0.  1.
          2   -1    0    0  501    0  0.00000000000E+00 -0.00000000000E+00 -0.10300932894E+03  0.10300932894E+03  0.00000000000E+00 0. -1.
         25    2    1    2    0    0  0.62935261184E+02  0.16079314076E+03  0.32942111631E+03  0.39240427495E+03  0.12509021510E+03 0.  0.
         23    2    1    2    0    0 -0.62935261184E+02 -0.16079314076E+03  0.58669216525E+02  0.20170471577E+03  0.86182563089E+02 0.  0.
          5    1    3    3  502    0  0.49144872740E+02  0.18099961440E+03  0.30096781744E+03  0.35464796413E+03  0.41800000000E+01 0. -1.
         -5    1    3    3    0  502  0.13790388444E+02 -0.20206473635E+02  0.28453298867E+02  0.37756310819E+02  0.41800000000E+01 0. -1.
        -11    1    4    4    0    0 -0.77589089216E+02 -0.14968924213E+03  0.67117555219E+02  0.18147094036E+03  0.00000000000E+00 0.  1.
         11    1    4    4    0    0  0.14653828032E+02 -0.11103898626E+02 -0.84483386948E+01  0.20233775412E+02  0.00000000000E+00 0. -1.
</event>
<event>
 8    1  0.3708258E-009  0.1227531E+03  0.7561462E-02  0.1238623E+00
          1   -1    0    0  501    0  0.00000000000E+00  0.00000000000E+00  0.25223221247E+02  0.25223221247E+02  0.00000000000E+00 0. -1.
         -1   -1    0    0    0  501 -0.00000000000E+00 -0.00000000000E+00 -0.74945380965E+03  0.74945380965E+03  0.00000000000E+00 0.  1.
         25    2    1    2    0    0 -0.28693315721E+02 -0.50869600583E+02 -0.56132708927E+03  0.57805372556E+03  0.12508791247E+03 0.  0.
         23    2    1    2    0    0  0.28693315721E+02  0.50869600583E+02 -0.16290349913E+03  0.19662330534E+03  0.93338906913E+02 0.  0.
          5    1    3    3  502    0  0.48945345693E+02 -0.15031683421E+02 -0.17686150840E+03  0.18417128963E+03  0.41800000000E+01 0.  1.
         -5    1    3    3    0  502 -0.77638661414E+02 -0.35837917163E+02 -0.38446558087E+03  0.39388243592E+03  0.41800000000E+01 0.  1.
        -11    1    4    4    0    0  0.61521478498E+02  0.23773336797E+02 -0.82268610719E+02  0.10544281943E+03  0.00000000000E+00 0.  1.
         11    1    4    4    0    0 -0.32828162777E+02  0.27096263786E+02 -0.80634888408E+02  0.91180485912E+02  0.00000000000E+00 0. -1.
</event>
<event>
 8    1  0.3708258E-009  0.8374459E+02  0.7561462E-02  0.1318749E+00
         -2   -1    0    0    0  501 -0.00000000000E+00  0.00000000000E+00  0.10637323575E+03  0.10637323575E+03  0.00000000000E+00 0.  1.
          2   -1    0    0  501    0  0.00000000000E+00 -0.00000000000E+00 -0.12618192703E+03  0.12618192703E+03  0.00000000000E+00 0. -1.
         25    2    1    2    0    0  0.16087050999E+02 -0.10104807590E+02 -0.45631441289E+02  0.13450006559E+03  0.12508852410E+03 0.  0.
         23    2    1    2    0    0 -0.16087050999E+02  0.10104807590E+02  0.25822750010E+02  0.98055097191E+02  0.92666538301E+02 0.  0.
          5    1    3    3  502    0 -0.16697690486E+02  0.46765695253E+02 -0.47293845667E+02  0.68702426143E+02  0.41800000000E+01 0. -1.
         -5    1    3    3    0  502  0.32784741485E+02 -0.56870502843E+02  0.16624043780E+01  0.65797639442E+02  0.41800000000E+01 0. -1.
        -11    1    4    4    0    0 -0.21702465358E+02  0.26672433549E+02  0.54513059674E+02  0.64452225633E+02  0.00000000000E+00 0.  1.
         11    1    4    4    0    0  0.56154143592E+01 -0.16567625959E+02 -0.28690309664E+02  0.33602871558E+02  0.00000000000E+00 0. -1.
</event>
<event>
 8    1  0.3708258E-009  0.1046049E+03  0.7561462E-02  0.1270900E+00
          1   -1    0    0  501    0  0.00000000000E+00  0.00000000000E+00  0.46554805808E+03  0.46554805808E+03  0.00000000000E+00 0. -1.
         -1   -1    0    0    0  501 -0.00000000000E+00 -0.00000000000E+00 -0.42705320686E+02  0.42705320686E+02  0.00000000000E+00 0.  1.
         25    2    1    2    0    0  0.17468216283E+02 -0.83469362533E+02  0.17832350737E+03  0.23392234190E+03  0.12509242862E+03 0.  0.
         23    2    1    2    0    0 -0.17468216283E+02  0.83469362533E+02  0.24451923003E+03  0.27433103687E+03  0.90529502782E+02 0.  0.
          5    1    3    3  502    0 -0.33050562827E+02 -0.48712810592E+02  0.17194212593E+02  0.61468617730E+02  0.41800000000E+01 0.  1.
         -5    1    3    3    0  502  0.50518779110E+02 -0.34756551941E+02  0.16112929477E+03  0.17245372417E+03  0.41800000000E+01 0.  1.
        -11    1    4    4    0    0 -0.17430494290E+02  0.26231648011E+02  0.10174412152E+02  0.33097434208E+02  0.00000000000E+00 0.  1.
         11    1    4    4    0    0 -0.37721992897E-01  0.57237714522E+02  0.23434481788E+03  0.24123360266E+03  0.00000000000E+00 0. -1.
</event>
<event>
 8    1  0.3708258E-009  0.1082020E+03  0.7561462E-02  0.1263936E+00
          3   -1    0    0  501    0  0.00000000000E+00  0.00000000000E+00  0.13464025103E+03  0.13464025103E+03  0.00000000000E+00 0. -1.
         -3   -1    0    0    0  501 -0.00000000000E+00 -0.00000000000E+00 -0.12884463491E+03  0.12884463491E+03  0.00000000000E+00 0.  1.
         25    2    1    2    0    0 -0.61672944391E+02  0.39357448400E+01  0.44845891942E+02  0.14655862072E+03  0.12509689495E+03 0.  0.
         23    2    1    2    0    0  0.61672944391E+02 -0.39357448400E+01 -0.39050275819E+02  0.11692626522E+03  0.91256700027E+02 0.  0.
          5    1    3    3  502    0  0.23148252772E+02  0.38220246158E+02  0.68481205310E+00  0.44883963621E+02  0.41800000000E+01 0.  1.
         -5    1    3    3    0  502 -0.84821197163E+02 -0.34284501318E+02  0.44161079889E+02  0.10167465710E+03  0.41800000000E+01 0.  1.
        -11    1    4    4    0    0  0.48059741782E+02 -0.25526071406E+02 -0.62075790834E+02  0.82551334994E+02  0.00000000000E+00 0.  1.
         11    1    4    4    0    0  0.13613202609E+02  0.21590326566E+02  0.23025515015E+02  0.34374930228E+02  0.00000000000E+00 0. -1.
</event>
<event>
 8    1  0.3708258E-009  0.9480540E+02  0.7561462E-02  0.1291615E+00
         -2   -1    0    0    0  501 -0.00000000000E+00  0.00000000000E+00  0.16099829134E+02  0.16099829134E+02  0.00000000000E+00 0.  1.
          2   -1    0    0  501    0  0.00000000000E+00 -0.00000000000E+00 -0.85704675232E+03  0.85704675232E+03  0.00000000000E+00 0. -1.
         25    2    1    2    0    0  0.23647508008E+02  0.30346290280E+02 -0.38693432253E+03  0.40846734532E+03  0.12508916930E+03 0.  0.
         23    2    1    2    0    0 -0.23647508008E+02 -0.30346290280E+02 -0.45401260066E+03  0.46467923613E+03  0.91209917033E+02 0.  0.
          5    1    3    3  502    0 -0.28382564515E+02 -0.90866531232E+01 -0.28979735812E+03  0.29135565621E+03  0.41800000000E+01 0.  1.
         -5    1    3    3    0  502  0.52030072523E+02  0.39432943404E+02 -0.97136964404E+02  0.11711168911E+03  0.41800000000E+01 0.  1.
        -11    1    4    4    0    0  0.22969578677E+02  0.16289524849E+02 -0.77971902725E+02  0.82900951617E+02  0.00000000000E+00 0. -1.
         11    1    4    4    0    0 -0.46617086685E+02 -0.46635815129E+02 -0.37604069794E+03  0.38177828452E+03  0.00000000000E+00 0.  1.
</event>
<event>
 8    1  0.3708258E-009  0.9752049E+02  0.7561462E-02  0.1285598E+00
         -1   -1    0    0    0  501 -0.00000000000E+00  0.00000000000E+00  0.37921495990E+02  0.37921495990E+02  0.00000000000E+00 0.  1.
          1   -1    0    0  501    0  0.00000000000E+00 -0.00000000000E+00 -0.35047761692E+03  0.35047761692E+03  0.00000000000E+00 0. -1.
         25    2    1    2    0    0  0.82724335750E+01 -0.19904265999E+02 -0.11578602153E+03  0.17180343037E+03  0.12508158515E+03 0.  0.
         23    2    1    2    0    0 -0.82724335750E+01  0.19904265999E+02 -0.19677009940E+03  0.21659568254E+03  0.87923857478E+02 0.  0.
          5    1    3    3  502    0  0.48931601908E+02 -0.36313175805E+02 -0.11203224019E+03  0.12759954406E+03  0.41800000000E+01 0. -1.
         -5    1    3    3    0  502 -0.40659168333E+02  0.16408909806E+02 -0.37537813363E+01  0.44203886310E+02  0.41800000000E+01 0. -1.
        -11    1    4    4    0    0 -0.46253908648E+02  0.23291761397E+02 -0.10074024274E+03  0.11327191498E+03  0.00000000000E+00 0. -1.
         11    1    4    4    0    0  0.37981475073E+02 -0.33874953979E+01 -0.96029856658E+02  0.10332376756E+03  0.00000000000E+00 0.  1.
</event>
<event>
 8    1  0.3708258E-009  0.1627784E+03  0.7561462E-02  0.1185595E+00
         -2   -1    0    0    0  501 -0.00000000000E+00  0.00000000000E+00  0.16511555128E+02  0.16511555128E+02  0.00000000000E+00 0.  1.
          2   -1    0    0  501    0  0.00000000000E+00 -0.00000000000E+00 -0.25305370413E+04  0.25305370413E+04  0.00000000000E+00 0. -1.
         25    2    1    2    0    0 -0.53400593699E+02 -0.14301718832E+03 -0.18198584882E+04  0.18305295628E+04  0.12509206113E+03 0.  0.
         23    2    1    2    0    0  0.53400593699E+02  0.14301718832E+03 -0.69416699795E+03  0.71651903358E+03  0.90698207657E+02 0.  0.
          5    1    3    3  502    0 -0.32225845045E+02 -0.13705169823E+03 -0.95019053734E+03  0.96057337186E+03  0.41800000000E+01 0.  1.
         -5    1    3    3    0  502 -0.21174748653E+02 -0.59654900887E+01 -0.86966795087E+03  0.86995619098E+03  0.41800000000E+01 0.  1.
        -11    1    4    4    0    0  0.64449907018E+02  0.13094983015E+03 -0.67794893791E+03  0.69348137029E+03  0.00000000000E+00 0. -1.
         11    1    4    4    0    0 -0.11049313319E+02  0.12067358174E+02 -0.16218060040E+02  0.23037663284E+02  0.00000000000E+00 0.  1.
</event>
<event>
 8    1  0.3708258E-009  0.1096788E+03  0.7561462E-02  0.1261166E+00
          3   -1    0    0  501    0  0.00000000000E+00  0.00000000000E+00  0.28458107665E+03  0.28458107665E+03  0.00000000000E+00 0. -1.
         -3   -1    0    0    0  501 -0.00000000000E+00 -0.00000000000E+00 -0.87224036596E+02  0.87224036596E+02  0.00000000000E+00 0.  1.
         25    2    1    2    0    0 -0.57804041620E+02 -0.42308037882E+02  0.20351213892E+01  0.14417964573E+03  0.12510935707E+03 0.  0.
         23    2    1    2    0    0  0.57804041620E+02  0.42308037882E+02  0.19532191867E+03  0.22762546752E+03  0.92365709299E+02 0.  0.
          5    1    3    3  502    0 -0.71933452316E+02 -0.60089839757E+02  0.38174788222E+02  0.10129164457E+03  0.41800000000E+01 0.  1.
         -5    1    3    3    0  502  0.14129410696E+02  0.17781801875E+02 -0.36139666833E+02  0.42888001158E+02  0.41800000000E+01 0.  1.
        -11    1    4    4    0    0  0.59293690192E+02  0.60194467384E+02  0.19144761873E+03  0.20926372432E+03  0.00000000000E+00 0. -1.
         11    1    4    4    0    0 -0.14896485718E+01 -0.17886429502E+02  0.38742999387E+01  0.18361743197E+02  0.00000000000E+00 0.  1.
</event>
<event>
 8    1  0.3708258E-009  0.8561728E+02  0.7561462E-02  0.1313826E+00
          2   -1    0    0  501    0  0.00000000000E+00  0.00000000000E+00  0.43240327369E+03  0.43240327369E+03  0.00000000000E+00 0.  1.
         -2   -1    0    0    0  501 -0.00000000000E+00 -0.00000000000E+00 -0.99334354770E+02  0.99334354770E+02  0.00000000000E+00 0. -1.
         25    2    1    2    0    0  0.11996230178E+02  0.50523442972E+02 -0.42275423555E+02  0.14188146319E+03  0.12508641146E+03 0.  0.
         23    2    1    2    0    0 -0.11996230178E+02 -0.50523442972E+02  0.37534434247E+03  0.38985616527E+03  0.91694745470E+02 0.  0.
          5    1    3    3  502    0 -0.27545911476E+01 -0.57655265018E+01 -0.74732076805E+02  0.75121133990E+02  0.41800000000E+01 0. -1.
         -5    1    3    3    0  502  0.14750821326E+02  0.56288969473E+02  0.32456653251E+02  0.66760329196E+02  0.41800000000E+01 0. -1.
        -11    1    4    4    0    0 -0.51430454615E+02 -0.37786143591E+02  0.23650406553E+03  0.24496337955E+03  0.00000000000E+00 0.  1.
         11    1    4    4    0    0  0.39434224436E+02 -0.12737299380E+02  0.13884027694E+03  0.14489278572E+03  0.00000000000E+00 0. -1.
</event>
<event>
 8    1  0.3708258E-009  0.1907185E+03  0.7561462E-02  0.1157815E+00
         -2   -1    0    0    0  501 -0.00000000000E+00  0.00000000000E+00  0.51930261996E+02  0.51930261996E+02  0.00000000000E+00 0.  1.
          2   -1    0    0  501    0  0.00000000000E+00 -0.00000000000E+00 -0.85357611685E+03  0.85357611685E+03  0.00000000000E+00 0. -1.
         25    2    1    2    0    0  0.18578316327E+02  0.16170679842E+03 -0.58538333693E+03  0.62033520895E+03  0.12509147778E+03 0.  0.
         23    2    1    2    0    0 -0.18578316327E+02 -0.16170679842E+03 -0.21626251793E+03  0.28517116990E+03  0.89771248132E+02 0.  0.
          5    1    3    3  502    0 -0.51748770083E+02  0.51291266977E+02 -0.24432102049E+03  0.25498816193E+03  0.41800000000E+01 0. -1.
         -5    1    3    3    0  502  0.70327086411E+02  0.11041553144E+03 -0.34106231644E+03  0.36534704701E+03  0.41800000000E+01 0. -1.
        -11    1    4    4    0    0 -0.45418334541E+02 -0.87840995954E+02 -0.16154318235E+03  0.18940714201E+03  0.00000000000E+00 0. -1.
         11    1    4    4    0    0  0.26840018214E+02 -0.73865802463E+02 -0.54719335583E+02  0.95764027891E+02  0.00000000000E+00 0.  1.
</event>
<event>
 8    1  0.3708258E-009  0.3092648E+03  0.7561462E-02  0.1080699E+00
          2   -1    0    0  501    0  0.00000000000E+00  0.00000000000E+00  0.11975204298E+03  0.11975204298E+03  0.00000000000E+00 0.  1.
         -2   -1    0    0    0  501 -0.00000000000E+00 -0.00000000000E+00 -0.82339745252E+03  0.82339745252E+03  0.00000000000E+00 0. -1.
         25    2    1    2    0    0 -0.59539180321E+02 -0.28808794141E+03 -0.36171050003E+03  0.48272241471E+03  0.12508744083E+03 0.  0.
         23    2    1    2    0    0  0.59539180321E+02  0.28808794141E+03 -0.34193490951E+03  0.46042708080E+03  0.92379859320E+02 0.  0.
          5    1    3    3  502    0 -0.34701141692E+02 -0.28605155198E+03 -0.35365371726E+03  0.45619960955E+03  0.41800000000E+01 0.  1.
         -5    1    3    3    0  502 -0.24838038629E+02 -0.20363894311E+01 -0.80567827694E+01  0.26522805158E+02  0.41800000000E+01 0.  1.
        -11    1    4    4    0    0  0.78348738030E+02  0.25766114565E+03 -0.32088732128E+03  0.41892298062E+03  0.00000000000E+00 0. -1.
         11    1    4    4    0    0 -0.18809557709E+02  0.30426795760E+02 -0.21047588230E+02  0.41504100179E+02  0.00000000000E+00 0.  1.
</event>
<event>
 8    1  0.3708258E-009  0.1052109E+03  0.7561462E-02  0.1269705E+00
         -2   -1    0    0    0  501 -0.00000000000E+00  0.00000000000E+00  0.15762708546E+03  0.15762708546E+03  0.00000000000E+00 0. -1.
          2   -1    0    0  501    0  0.00000000000E+00 -0.00000000000E+00 -0.34642587575E+03  0.34642587575E+03  0.00000000000E+00 0.  1.
         25    2    1    2    0    0 -0.39054585796E+02  0.33761083463E+02 -0.31365213065E+03  0.34159943977E+03  0.12508975483E+03 0.  0.
         23    2    1    2    0    0  0.39054585796E+02 -0.33761083463E+02  0.12485334036E+03  0.16245352143E+03  0.90209304387E+02 0.  0.
          5    1    3    3  502    0 -0.62635783660E+01  0.76406729390E+02 -0.13890089396E+03  0.15870775486E+03  0.41800000000E+01 0. -1.
         -5    1    3    3    0  502 -0.32791007430E+02 -0.42645645927E+02 -0.17475123669E+03  0.18289168491E+03  0.41800000000E+01 0. -1.
        -11    1    4    4    0    0 -0.55055080698E+01 -0.34683791868E+02  0.61418916529E+01  0.35651071099E+02  0.00000000000E+00 0.  1.
         11    1    4    4    0    0  0.44560093866E+02  0.92270840496E+00  0.11871144871E+03  0.12680245033E+03  0.00000000000E+00 0. -1.
</event>
<event>
 8    1  0.3708258E-009  0.1369175E+03  0.7561462E-02  0.1217538E+00
          2   -1    0    0  501    0  0.00000000000E+00  0.00000000000E+00  0.88811338447E+03  0.88811338447E+03  0.00000000000E+00 0. -1.
         -2   -1    0    0    0  501 -0.00000000000E+00 -0.00000000000E+00 -0.33637963177E+02  0.33637963177E+02  0.00000000000E+00 0.  1.
         25    2    1    2    0    0 -0.16697210111E+02 -0.11759885546E+03  0.62648169988E+03  0.64979603810E+03  0.12508910108E+03 0.  0.
         23    2    1    2    0    0  0.16697210111E+02  0.11759885546E+03  0.22799372141E+03  0.27195530955E+03  0.88714518304E+02 0.  0.
          5    1    3    3  502    0  0.30223311582E+01  0.25945116050E+01 -0.43945495758E+01  0.72560624358E+01  0.41800000000E+01 0. -1.
         -5    1    3    3    0  502 -0.19719541269E+02 -0.12019336707E+03  0.63087624946E+03  0.64253997566E+03  0.41800000000E+01 0. -1.
        -11    1    4    4    0    0 -0.34332987152E+02  0.34500051431E+02  0.55619782248E+02  0.73909185713E+02  0.00000000000E+00 0.  1.
         11    1    4    4    0    0  0.51030197262E+02  0.83098804030E+02  0.17237393916E+03  0.19804612384E+03  0.00000000000E+00 0. -1.
</event>
<event>
 8    1  0.3708258E-009  0.1904185E+03  0.7561462E-02  0.1158084E+00
         -3   -1    0    0    0  501 -0.00000000000E+00  0.00000000000E+00  0.48335258263E+02  0.48335258263E+02  0.00000000000E+00 0.  1.
          3   -1    0    0  501    0  0.00000000000E+00 -0.00000000000E+00 -0.10867010062E+04  0.10867010062E+04  0.00000000000E+00 0. -1.
         25    2    1    2    0    0 -0.44777711379E+02 -0.18042087136E+03 -0.72834378714E+03  0.76202930177E+03  0.12508896930E+03 0.  0.
         23    2    1    2    0    0  0.44777711379E+02  0.18042087136E+03 -0.31002196080E+03  0.37300696270E+03  0.91999150972E+02 0.  0.
          5    1    3    3  502    0 -0.52878269885E+02 -0.12098378358E+03 -0.64989909436E+03  0.66318888151E+03  0.41800000000E+01 0.  1.
         -5    1    3    3    0  502  0.81005585053E+01 -0.59437087780E+02 -0.78444692783E+02  0.98840420263E+02  0.41800000000E+01 0.  1.
        -11    1    4    4    0    0  0.10819934448E+02  0.10884300605E+03 -0.98721050933E+02  0.14734217606E+03  0.00000000000E+00 0.  1.
         11    1    4    4    0    0  0.33957776931E+02  0.71577865309E+02 -0.21130090987E+03  0.22566478664E+03  0.00000000000E+00 0. -1.
</event>
<event>
 8    1  0.3708258E-009  0.7703414E+02  0.7561462E-02  0.1337685E+00
          2   -1    0    0  501    0  0.00000000000E+00  0.00000000000E+00  0.10691809329E+03  0.10691809329E+03  0.00000000000E+00 0. -1.
         -2   -1    0    0    0  501 -0.00000000000E+00 -0.00000000000E+00 -0.11380624302E+03  0.11380624302E+03  0.00000000000E+00 0.  1.
         25    2    1    2    0    0 -0.40508330502E+01  0.37932870714E+01 -0.27075075826E+02  0.12810570481E+03  0.12508882284E+03 0.  0.
         23    2    1    2    0    0  0.40508330502E+01 -0.37932870714E+01  0.20186926095E+02  0.92618631491E+02  0.90221397899E+02 0.  0.
          5    1    3    3  502    0  0.28637989253E+02  0.35133841913E+02  0.30457501157E+02  0.54769088478E+02  0.41800000000E+01 0.  1.
         -5    1    3    3    0  502 -0.32688822303E+02 -0.31340554841E+02 -0.57532576983E+02  0.73336616336E+02  0.41800000000E+01 0.  1.
        -11    1    4    4    0    0 -0.27182418445E+02 -0.13518811839E+02  0.43072090984E+02  0.52695798388E+02  0.00000000000E+00 0. -1.
         11    1    4    4    0    0  0.31233251495E+02  0.97255247680E+01 -0.22885164888E+02  0.39922833103E+02  0.00000000000E+00 0.  1.
</event>
<event>
 8    1  0.3708258E-009  0.9789751E+02  0.7561462E-02  0.1284780E+00
         -1   -1    0    0    0  501 -0.00000000000E+00  0.00000000000E+00  0.39196695505E+03  0.39196695505E+03  0.00000000000E+00 0.  1.
          1   -1    0    0  501    0  0.00000000000E+00 -0.00000000000E+00 -0.50506370717E+02  0.50506370717E+02  0.00000000000E+00 0. -1.
         25    2    1    2    0    0 -0.75791979042E+01  0.38450130463E+02  0.58988875830E+02  0.14374334839E+03  0.12508639399E+03 0.  0.
         23    2    1    2    0    0  0.75791979042E+01 -0.38450130463E+02  0.28247170851E+03  0.29872997738E+03  0.88957723126E+02 0.  0.
          5    1    3    3  502    0  0.10703890118E+02  0.77742794187E+02  0.62000458966E+02  0.10010017295E+03  0.41800000000E+01 0.  1.
         -5    1    3    3    0  502 -0.18283088022E+02 -0.39292663724E+02 -0.30115831357E+01  0.43643175447E+02  0.41800000000E+01 0.  1.
        -11    1    4    4    0    0  0.12520696031E+02 -0.54994525450E+02  0.27353185115E+03  0.27928630337E+03  0.00000000000E+00 0.  1.
         11    1    4    4    0    0 -0.49414981266E+01  0.16544394987E+02  0.89398573571E+01  0.19443674004E+02  0.00000000000E+00 0. -1.
</event>
<event>
 8    1  0.3708258E-009  0.9567708E+02  0.7561462E-02  0.1289658E+00
          2   -1    0    0  501    0  0.00000000000E+00  0.00000000000E+00  0.33502108575E+03  0.33502108575E+03  0.00000000000E+00 0. -1.
         -2   -1    0    0    0  501 -0.00000000000E+00 -0.00000000000E+00 -0.46657724091E+02  0.46657724091E+02  0.00000000000E+00 0.  1.
         25    2    1    2    0    0  0.39688596749E+02 -0.45679426043E+01  0.88449839891E+02  0.15832033414E+03  0.12508358491E+03 0.  0.
         23    2    1    2    0    0 -0.39688596749E+02  0.45679426043E+01  0.19991352177E+03  0.22335847570E+03  0.91255365157E+02 0.  0.
          5    1    3    3  502    0 -0.93043365758E+01  0.42589998733E+02  0.77917036648E+02  0.89381293743E+02  0.41800000000E+01 0.  1.
         -5    1    3    3    0  502  0.48992933324E+02 -0.47157941337E+02  0.10532803243E+02  0.68939040398E+02  0.41800000000E+01 0.  1.
        -11    1    4    4    0    0  0.10111541583E+01  0.30924828535E+02  0.19571584618E+02  0.36611669958E+02  0.00000000000E+00 0.  1.
         11    1    4    4    0    0 -0.40699750907E+02 -0.26356885931E+02  0.18034193715E+03  0.18674680574E+03  0.00000000000E+00 0. -1.
</event>
<event>
 8    1  0.3708258E-009  0.1140463E+03  0.7561462E-02  0.1253255E+00
          1   -1    0    0  501    0  0.00000000000E+00  0.00000000000E+00  0.66819584303E+02  0.66819584303E+02  0.00000000000E+00 0. -1.
         -1   -1    0    0    0  501 -0.00000000000E+00 -0.00000000000E+00 -0.37126995588E+03  0.37126995588E+03  0.00000000000E+00 0.  1.
         25    2    1    2    0    0  0.18948018231E+02 -0.80318720699E+02 -0.27336131758E+03  0.31174362925E+03  0.12509019201E+03 0.  0.
         23    2    1    2    0    0 -0.18948018231E+02  0.80318720699E+02 -0.31089053992E+02  0.12634591093E+03  0.90480028965E+02 0.  0.
          5    1    3    3  502    0  0.42435179114E+02 -0.66014993240E+02 -0.27282954444E+03  0.28392280021E+03  0.41800000000E+01 0.  1.
         -5    1    3    3    0  502 -0.23487160883E+02 -0.14303727459E+02 -0.53177313888E+00  0.27820829035E+02  0.41800000000E+01 0.  1.
        -11    1    4    4    0    0  0.35078186001E+02  0.45346637920E+02 -0.75819543879E+01  0.57829773786E+02  0.00000000000E+00 0.  1.
         11    1    4    4    0    0 -0.54026204232E+02  0.34972082779E+02 -0.23507099604E+02  0.68516137146E+02  0.00000000000E+00 0. -1.
</event>
<event>
 8    1  0.3708258E-009  0.9712685E+02  0.7561462E-02  0.1286456E+00
          2   -1    0    0  501    0  0.00000000000E+00  0.00000000000E+00  0.70555979276E+03  0.70555979276E+03  0.00000000000E+00 0. -1.
         -2   -1    0    0    0  501 -0.00000000000E+00 -0.00000000000E+00 -0.22407905560E+02  0.22407905560E+02  0.00000000000E+00 0.  1.
         25    2    1    2    0    0 -0.90686242048E+01  0.53705793619E+02  0.29383954921E+03  0.32396982270E+03  0.12509281806E+03 0.  0.
         23    2    1    2    0    0  0.90686242048E+01 -0.53705793619E+02  0.38931233799E+03  0.40399787562E+03  0.93186022431E+02 0.  0.
          5    1    3    3  502    0  0.34096419198E+02  0.50451794963E+02  0.58151626394E+02  0.84303223362E+02  0.41800000000E+01 0.  1.
         -5    1    3    3    0  502 -0.43165043402E+02  0.32539986561E+01  0.23568792281E+03  0.23966659934E+03  0.41800000000E+01 0.  1.
        -11    1    4    4    0    0  0.31270864785E+02 -0.59115489920E+02  0.36316777492E+03  0.36927407284E+03  0.00000000000E+00 0. -1.
         11    1    4    4    0    0 -0.22202240581E+02  0.54096963012E+01  0.26144563070E+02  0.34723802773E+02  0.00000000000E+00 0.  1.
</event>
<event>
 8    1  0.3708258E-009  0.1130207E+03  0.7561462E-02  0.1255076E+00
         -1   -1    0    0    0  501 -0.00000000000E+00  0.00000000000E+00  0.53805386463E+02  0.53805386463E+02  0.00000000000E+00 0.  1.
          1   -1    0    0  501    0  0.00000000000E+00 -0.00000000000E+00 -0.35531672416E+03  0.35531672416E+03  0.00000000000E+00 0. -1.
         25    2    1    2    0    0  0.70277751767E+02  0.35674232158E+02 -0.21419033854E+03  0.26026263708E+03  0.12509007116E+03 0.  0.
         23    2    1    2    0    0 -0.70277751767E+02 -0.35674232158E+02 -0.87320999158E+02  0.14885947354E+03  0.91228135657E+02 0.  0.
          5    1    3    3  502    0 -0.12088888676E+02  0.27425735041E+02 -0.15620395439E+03  0.15910832768E+03  0.41800000000E+01 0. -1.
         -5    1    3    3    0  502  0.82366640443E+02  0.82484971175E+01 -0.57986384149E+02  0.10115430940E+03  0.41800000000E+01 0. -1.
        -11    1    4    4    0    0 -0.55920713420E+02  0.16882036252E+02 -0.71091509878E+02  0.92011586847E+02  0.00000000000E+00 0. -1.
         11    1    4    4    0    0 -0.14357038348E+02 -0.52556268410E+02 -0.16229489280E+02  0.56847886694E+02  0.00000000000E+00 0.  1.
</event>
<event>
 8    1  0.3708258E-009  0.8759146E+02  0.7561462E-02  0.1308791E+00
          2   -1    0    0  501    0  0.00000000000E+00  0.00000000000E+00  0.14432558349E+03  0.14432558349E+03  0.00000000000E+00 0. -1.
         -2   -1    0    0    0  501 -0.00000000000E+00 -0.00000000000E+00 -0.10617175538E+03  0.10617175538E+03  0.00000000000E+00 0.  1.
         25    2    1    2    0    0 -0.22002310067E+02 -0.10516387786E+02 -0.38069416538E+02  0.13301320988E+03  0.12509411444E+03 0.  0.
         23    2    1    2    0    0  0.22002310067E+02  0.10516387786E+02  0.76223244639E+02  0.11748412899E+03  0.86010705619E+02 0.  0.
          5    1    3    3  502    0 -0.60005234834E+02 -0.40718013271E+02 -0.42388431840E+02  0.84100156755E+02  0.41800000000E+01 0. -1.
         -5    1    3    3    0  502  0.38002924768E+02  0.30201625485E+02  0.43190153027E+01  0.48913053125E+02  0.41800000000E+01 0. -1.
        -11    1    4    4    0    0  0.22040317362E+02  0.28395376352E+02  0.88683610080E+02  0.95691460875E+02  0.00000000000E+00 0. -1.
         11    1    4    4    0    0 -0.38007295290E-01 -0.17878988566E+02 -0.12460365441E+02  0.21792668116E+02  0.00000000000E+00 0.  1.
</event>
<event>
 8    1  0.3708258E-009  0.1295438E+03  0.7561462E-02  0.1228134E+00
          1   -1    0    0  501    0  0.00000000000E+00  0.00000000000E+00  0.11983536819E+04  0.11983536819E+04  0.00000000000E+00 0. -1.
         -1   -1    0    0    0  501 -0.00000000000E+00 -0.00000000000E+00 -0.14498176550E+02  0.14498176550E+02  0.00000000000E+00 0.  1.
         25    2    1    2    0    0 -0.18479357182E+02 -0.72014598066E+02  0.63749781694E+03  0.65389483172E+03  0.12508954941E+03 0.  0.
         23    2    1    2    0    0  0.18479357182E+02  0.72014598066E+02  0.54635768845E+03  0.55895702676E+03  0.91644121850E+02 0.  0.
          5    1    3    3  502    0 -0.44529787093E+02 -0.96699812856E+02  0.52625115971E+03  0.53692784547E+03  0.41800000000E+01 0. -1.
         -5    1    3    3    0  502  0.26050429912E+02  0.24685214790E+02  0.11124665723E+03  0.11696698625E+03  0.41800000000E+01 0. -1.
        -11    1    4    4    0    0  0.49939524694E+02  0.16481379045E+02  0.29310813390E+03  0.29778846543E+03  0.00000000000E+00 0. -1.
         11    1    4    4    0    0 -0.31460167512E+02  0.55533219021E+02  0.25324955454E+03  0.26116856134E+03  0.00000000000E+00 0.  1.
</event>
<event>
 8    1  0.3708258E-009  0.1337555E+03  0.7561462E-02  0.1221987E+00
          1   -1    0    0  501    0  0.00000000000E+00  0.00000000000E+00  0.17740788006E+03  0.17740788006E+03  0.00000000000E+00 0. -1.
         -1   -1    0    0    0  501 -0.00000000000E+00 -0.00000000000E+00 -0.14899385883E+03  0.14899385883E+03  0.00000000000E+00 0.  1.
         25    2    1    2    0    0  0.86715112614E+02  0.42314519368E+01  0.10091262831E+03  0.18267098023E+03  0.12509161652E+03 0.  0.
         23    2    1    2    0    0 -0.86715112614E+02 -0.42314519368E+01 -0.72498607088E+02  0.14373075866E+03  0.88685213052E+02 0.  0.
          5    1    3    3  502    0  0.25914603760E+02 -0.56754446357E+02  0.62073575164E+02  0.88109222008E+02  0.41800000000E+01 0.  1.
         -5    1    3    3    0  502  0.60800508854E+02  0.60985898294E+02  0.38839053151E+02  0.94561758218E+02  0.41800000000E+01 0.  1.
        -11    1    4    4    0    0 -0.80332925692E+02 -0.34791505186E+02 -0.70581553459E+02  0.11245258322E+03  0.00000000000E+00 0.  1.
         11    1    4    4    0    0 -0.63821869218E+01  0.30560053249E+02 -0.19170536295E+01  0.31278175444E+02  0.00000000000E+00 0. -1.
</event>
<event>
 8    1  0.3708258E-009  0.1709023E+03  0.7561462E-02  0.1176910E+00
          1   -1    0    0  501    0  0.00000000000E+00  0.00000000000E+00  0.52310098463E+03  0.52310098463E+03  0.00000000000E+00 0. -1.
         -1   -1    0    0    0  501 -0.00000000000E+00 -0.00000000000E+00 -0.65521459732E+02  0.65521459732E+02  0.00000000000E+00 0.  1.
         25    2    1    2    0    0 -0.80022732787E+02  0.11883802491E+03  0.30918029812E+03  0.36299189917E+03  0.12507816833E+03 0.  0.
         23    2    1    2    0    0  0.80022732787E+02 -0.11883802491E+03  0.14839922678E+03  0.22563054519E+03  0.91436855194E+02 0.  0.
          5    1    3    3  502    0 -0.60373278881E+02  0.96925393550E+01  0.19224013937E+03  0.20177368933E+03  0.41800000000E+01 0.  1.
         -5    1    3    3    0  502 -0.19649453906E+02  0.10914548555E+03  0.11694015875E+03  0.16121820984E+03  0.41800000000E+01 0.  1.
        -11    1    4    4    0    0 -0.14416154740E+02  0.36482238776E+01  0.87895287705E+01  0.17273994065E+02  0.00000000000E+00 0. -1.
         11    1    4    4    0    0  0.94438887527E+02 -0.12248624878E+03  0.13960969801E+03  0.20835655112E+03  0.00000000000E+00 0.  1.
</event>
<event>
 8    1  0.3708258E-009  0.1278389E+03  0.7561462E-02  0.1230698E+00
          1   -1    0    0  501    0  0.00000000000E+00  0.00000000000E+00  0.43740170277E+03  0.43740170277E+03  0.00000000000E+00 0. -1.
         -1   -1    0    0    0  501 -0.00000000000E+00 -0.00000000000E+00 -0.54104462936E+02  0.54104462936E+02  0.00000000000E+00 0.  1.
         25    2    1    2    0    0  0.10543155122E+03 -0.25072807927E+02  0.21879124793E+03  0.27433817491E+03  0.12508943341E+03 0.  0.
         23    2    1    2    0    0 -0.10543155122E+03  0.25072807927E+02  0.16450599190E+03  0.21716799079E+03  0.91407095799E+02 0.  0.
          5    1    3    3  502    0  0.65719584465E+02  0.76249210609E+01  0.20424504280E+02  0.69367398528E+02  0.41800000000E+01 0.  1.
         -5    1    3    3    0  502  0.39711966759E+02 -0.32697728988E+02  0.19836674365E+03  0.20497077638E+03  0.41800000000E+01 0.  1.
        -11    1    4    4    0    0 -0.98997961897E+02  0.50789143790E+02  0.10951322711E+03  0.15611944305E+03  0.00000000000E+00 0.  1.
         11    1    4    4    0    0 -0.64335893267E+01 -0.25716335862E+02  0.54992764793E+02  0.61048547742E+02  0.00000000000E+00 0. -1.
</event>
<event>
 8    1  0.3708258E-009  0.9822037E+02  0.7561462E-02  0.1284083E+00
         -1   -1    0    0    0  501 -0.00000000000E+00  0.00000000000E+00  0.43449150491E+02  0.43449150491E+02  0.00000000000E+00 0.  1.
          1   -1    0    0  501    0  0.00000000000E+00 -0.00000000000E+00 -0.36536493038E+03  0.36536493038E+03  0.00000000000E+00 0. -1.
         25    2    1    2    0    0  0.47755065652E+02 -0.17038854040E+02 -0.24411778960E+03  0.27894774943E+03  0.12508989914E+03 0.  0.
         23    2    1    2    0    0 -0.47755065652E+02  0.17038854040E+02 -0.77797990286E+02  0.12986633144E+03  0.90784733890E+02 0.  0.
          5    1    3    3  502    0  0.54016979203E+02 -0.63128741828E+02 -0.19032277343E+03  0.20770965932E+03  0.41800000000E+01 0. -1.
         -5    1    3    3    0  502 -0.62619135505E+01  0.46089887788E+02 -0.53795016168E+02  0.71238090107E+02  0.41800000000E+01 0. -1.
        -11    1    4    4    0    0 -0.28217916213E+02  0.31464609822E+02  0.59382086562E+01  0.42679442226E+02  0.00000000000E+00 0.  1.
         11    1    4    4    0    0 -0.19537149439E+02 -0.14425755782E+02 -0.83736198942E+02  0.87186889217E+02  0.00000000000E+00 0. -1.
</event>
<event>
 8    1  0.3708258E-009  0.1433733E+03  0.7561462E-02  0.1208861E+00
         -1   -1    0    0    0  501 -0.00000000000E+00  0.00000000000E+00  0.16021028862E+03  0.16021028862E+03  0.00000000000E+00 0.  1.
          1   -1    0    0  501    0  0.00000000000E+00 -0.00000000000E+00 -0.23796685095E+03  0.23796685095E+03  0.00000000000E+00 0. -1.
         25    2    1    2    0    0  0.11055516957E+03  0.79198304826E+02  0.49413350858E+02  0.19126870637E+03  0.12508885557E+03 0.  0.
         23    2    1    2    0    0 -0.11055516957E+03 -0.79198304826E+02 -0.12716991319E+03  0.20690843319E+03  0.90244644716E+02 0.  0.
          5    1    3    3  502    0  0.10618554611E+03  0.43979177702E+02  0.83311850163E+02  0.14201364389E+03  0.41800000000E+01 0.  1.
         -5    1    3    3    0  502  0.43696234572E+01  0.35219127125E+02 -0.33898499304E+02  0.49255062478E+02  0.41800000000E+01 0.  1.
        -11    1    4    4    0    0 -0.52964485794E+02 -0.37048141820E+02 -0.11854559816E+03  0.13502170348E+03  0.00000000000E+00 0. -1.
         11    1    4    4    0    0 -0.57590683774E+02 -0.42150163006E+02 -0.86243150302E+01  0.71886729712E+02  0.00000000000E+00 0.  1.
</event>
<event>
 8    1  0.3708258E-009  0.1011258E+03  0.7561462E-02  0.1277946E+00
          1   -1    0    0  501    0  0.00000000000E+00  0.00000000000E+00  0.35627411273E+03  0.35627411273E+03  0.00000000000E+00 0.  1.
         -1   -1    0    0    0  501 -0.00000000000E+00 -0.00000000000E+00 -0.41177296145E+02  0.41177296145E+02  0.00000000000E+00 0. -1.
         25    2    1    2    0    0  0.27309303662E+02 -0.45412026774E+02  0.20120270072E+03  0.24277146108E+03  0.12508958907E+03 0.  0.
         23    2    1    2    0    0 -0.27309303662E+02  0.45412026774E+02  0.11389411587E+03  0.15467994780E+03  0.90255007505E+02 0.  0.
          5    1    3    3  502    0  0.37756326318E+02  0.11430757660E+02  0.72229007112E+01  0.40321769461E+02  0.41800000000E+01 0.  1.
         -5    1    3    3    0  502 -0.10447022657E+02 -0.56842784435E+02  0.19397980001E+03  0.20244969162E+03  0.41800000000E+01 0.  1.
        -11    1    4    4    0    0  0.56914653916E+00 -0.27019135254E+02  0.30915753892E+02  0.41062652573E+02  0.00000000000E+00 0. -1.
         11    1    4    4    0    0 -0.27878450201E+02  0.72431162028E+02  0.82978361976E+02  0.11361729523E+03  0.00000000000E+00 0.  1.
</event>
<event>
 8    1  0.3708258E-009  0.1049739E+03  0.7561462E-02  0.1270171E+00
         -2   -1    0    0    0  501 -0.00000000000E+00  0.00000000000E+00  0.10162250723E+03  0.10162250723E+03  0.00000000000E+00 0. -1.
          2   -1    0    0  501    0  0.00000000000E+00 -0.00000000000E+00 -0.14628584995E+03  0.14628584995E+03  0.00000000000E+00 0.  1.
         25    2    1    2    0    0  0.32133978181E+02  0.33187886920E+02  0.13253947771E+02  0.13400538463E+03  0.12509095725E+03 0.  0.
         23    2    1    2    0    0 -0.32133978181E+02 -0.33187886920E+02 -0.57917290493E+02  0.11390297255E+03  0.86518473325E+02 0.  0.
          5    1    3    3  502    0 -0.35403453606E+01 -0.39008781843E+02 -0.22975826716E+02  0.45602413527E+02  0.41800000000E+01 0.  1.
         -5    1    3    3    0  502  0.35674323541E+02  0.72196668763E+02  0.36229774487E+02  0.88402971104E+02  0.41800000000E+01 0.  1.
        -11    1    4    4    0    0  0.25712446897E+02 -0.95532546516E+01  0.17728122321E+01  0.27487041730E+02  0.00000000000E+00 0. -1.
         11    1    4    4    0    0 -0.57846425077E+02 -0.23634632268E+02 -0.59690102725E+02  0.86415930823E+02  0.00000000000E+00 0.  1.
</event>
<event>
 8    1  0.3708258E-009  0.1175796E+03  0.7561462E-02  0.1247144E+00
         -2   -1    0    0    0  501 -0.00000000000E+00  0.00000000000E+00  0.33702479581E+03  0.33702479581E+03  0.00000000000E+00 0. -1.
          2   -1    0    0  501    0  0.00000000000E+00 -0.00000000000E+00 -0.66180787469E+02  0.66180787469E+02  0.00000000000E+00 0.  1.
         25    2    1    2    0    0  0.94966417866E+01 -0.86048326074E+02  0.22275132377E+03  0.26973336255E+03  0.12507371428E+03 0.  0.
         23    2    1    2    0    0 -0.94966417866E+01  0.86048326074E+02  0.48092684573E+02  0.13347222073E+03  0.89484226390E+02 0.  0.
          5    1    3    3  502    0 -0.37947604649E+02 -0.50568454302E+01  0.13774978625E+03  0.14303170416E+03  0.41800000000E+01 0. -1.
         -5    1    3    3    0  502  0.47444246436E+02 -0.80991480643E+02  0.85001537523E+02  0.12670165839E+03  0.41800000000E+01 0. -1.
        -11    1    4    4    0    0  0.18344170803E+02  0.65683362469E+02 -0.69121925452E+01  0.68546269873E+02  0.00000000000E+00 0.  1.
         11    1    4    4    0    0 -0.27840812590E+02  0.20364963604E+02  0.55004877118E+02  0.64925950860E+02  0.00000000000E+00 0. -1.
</event>
<event>
 8    1  0.3708258E-009  0.6954336E+02  0.7561462E-02  0.1361653E+00
          3   -1    0    0  501    0  0.00000000000E+00  0.00000000000E+00  0.37821964886E+02  0.37821964886E+02  0.00000000000E+00 0. -1.
         -3   -1    0    0    0  501 -0.00000000000E+00 -0.00000000000E+00 -0.40977418486E+03  0.40977418486E+03  0.00000000000E+00 0.  1.
         25    2    1    2    0    0 -0.43195658820E+02  0.41959533473E+02 -0.23509882606E+03  0.27302835929E+03  0.12508620856E+03 0.  0.
         23    2    1    2    0    0  0.43195658820E+02 -0.41959533473E+02 -0.13685339391E+03  0.17456779046E+03  0.90103244386E+02 0.  0.
          5    1    3    3  502    0  0.24149933797E+01  0.22390449590E+01  0.14879991234E+02  0.15802912847E+02  0.41800000000E+01 0. -1.
         -5    1    3    3    0  502 -0.45610652200E+02  0.39720488514E+02 -0.24997881729E+03  0.25722544644E+03  0.41800000000E+01 0. -1.
        -11    1    4    4    0    0  0.15617874542E+02  0.68684838205E+01  0.82893164035E+01  0.18968575109E+02  0.00000000000E+00 0. -1.
         11    1    4    4    0    0  0.27577784278E+02 -0.48828017293E+02 -0.14514271032E+03  0.15559921535E+03  0.00000000000E+00 0.  1.
</event>
<event>
 8    1  0.3708258E-009  0.2725321E+03  0.7561462E-02  0.1099839E+00
         -2   -1    0    0    0  501 -0.00000000000E+00  0.00000000000E+00  0.14011311768E+03  0.14011311768E+03  0.00000000000E+00 0.  1.
          2   -1    0    0  501    0  0.00000000000E+00 -0.00000000000E+00 -0.53974933980E+03  0.53974933980E+03  0.00000000000E+00 0. -1.
         25    2    1    2    0    0  0.23837699264E+03 -0.81637641130E+02 -0.19055254225E+03  0.33977064722E+03  0.12508207816E+03 0.  0.
         23    2    1    2    0    0 -0.23837699264E+03  0.81637641130E+02 -0.20908367987E+03  0.34009181026E+03  0.91968250759E+02 0.  0.
          5    1    3    3  502    0  0.15436181576E+03 -0.10868264152E+03 -0.10175812762E+03  0.21450332321E+03  0.41800000000E+01 0.  1.
         -5    1    3    3    0  502  0.84015176886E+02  0.27045000389E+02 -0.88794414631E+02  0.12526732400E+03  0.41800000000E+01 0.  1.
        -11    1    4    4    0    0 -0.19140488233E+03  0.23059690930E+02 -0.15820867596E+03  0.24939439343E+03  0.00000000000E+00 0. -1.
         11    1    4    4    0    0 -0.46972110317E+02  0.58577950200E+02 -0.50875003903E+02  0.90697416829E+02  0.00000000000E+00 0.  1.
</event>
<event>
 8    1  0.3708258E-009  0.1095535E+03  0.7561462E-02  0.1261399E+00
          2   -1    0    0  501    0  0.00000000000E+00  0.00000000000E+00  0.41094761261E+03  0.41094761261E+03  0.00000000000E+00 0.  1.
         -2   -1    0    0    0  501 -0.00000000000E+00 -0.00000000000E+00 -0.59642743384E+02  0.59642743384E+02  0.00000000000E+00 0. -1.
         25    2    1    2    0    0 -0.52668798478E+02  0.17014087741E+02  0.41105649912E+02  0.14283177646E+03  0.12509100846E+03 0.  0.
         23    2    1    2    0    0  0.52668798478E+02 -0.17014087741E+02  0.31019921931E+03  0.32775857953E+03  0.90214462690E+02 0.  0.
          5    1    3    3  502    0 -0.69361840484E+02  0.44081750133E+02  0.63305738563E+02  0.10382367045E+03  0.41800000000E+01 0.  1.
         -5    1    3    3    0  502  0.16693042006E+02 -0.27067662393E+02 -0.22200088651E+02  0.39008106016E+02  0.41800000000E+01 0.  1.
        -11    1    4    4    0    0  0.42795180108E+02 -0.52600800949E+02  0.22240637963E+03  0.23251423483E+03  0.00000000000E+00 0.  1.
         11    1    4    4    0    0  0.98736183701E+01  0.35586713209E+02  0.87792839682E+02  0.95244344694E+02  0.00000000000E+00 0. -1.
</event>
<event>
 8    1  0.3708258E-009  0.1180051E+03  0.7561462E-02  0.1246425E+00
          2   -1    0    0  501    0  0.00000000000E+00  0.00000000000E+00  0.15765582993E+02  0.15765582993E+02  0.00000000000E+00 0. -1.
         -2   -1    0    0    0  501 -0.00000000000E+00 -0.00000000000E+00 -0.13480361563E+04  0.13480361563E+04  0.00000000000E+00 0.  1.
         25    2    1    2    0    0 -0.82595429984E+02  0.18295726500E+02 -0.94799417128E+03  0.95994662279E+03  0.12509129134E+03 0.  0.
         23    2    1    2    0    0  0.82595429984E+02 -0.18295726500E+02 -0.38427640199E+03  0.40385511646E+03  0.90960778934E+02 0.  0.
          5    1    3    3  502    0 -0.53522832545E+02 -0.25394386774E+02 -0.16818911293E+03  0.17836652879E+03  0.41800000000E+01 0. -1.
         -5    1    3    3    0  502 -0.29072597439E+02  0.43690113274E+02 -0.77980505835E+03  0.78158009401E+03  0.41800000000E+01 0. -1.
        -11    1    4    4    0    0  0.28304505020E+02 -0.52616717469E+02 -0.17258214517E+03  0.18263148905E+03  0.00000000000E+00 0. -1.
         11    1    4    4    0    0  0.54290924965E+02  0.34320990968E+02 -0.21169425682E+03  0.22122362741E+03  0.00000000000E+00 0.  1.
</event>
<event>
 8    1  0.3708258E-009  0.1070057E+03  0.7561462E-02  0.1266217E+00
          1   -1    0    0  501    0  0.00000000000E+00  0.00000000000E+00  0.24767104795E+02  0.24767104795E+02  0.00000000000E+00 0. -1.
         -1   -1    0    0    0  501 -0.00000000000E+00 -0.00000000000E+00 -0.58085832864E+03  0.58085832864E+03  0.00000000000E+00 0.  1.
         25    2    1    2    0    0  0.14621355003E+02  0.47107975739E+02 -0.28445443340E+03  0.31463469844E+03  0.12509086052E+03 0.  0.
         23    2    1    2    0    0 -0.14621355003E+02 -0.47107975739E+02 -0.27163679045E+03  0.29099073500E+03  0.91957145051E+02 0.  0.
          5    1    3    3  502    0 -0.52674060146E+02  0.27872435655E+02 -0.90916448173E+02  0.10878741761E+03  0.41800000000E+01 0.  1.
         -5    1    3    3    0  502  0.67295415149E+02  0.19235540083E+02 -0.19353798522E+03  0.20584728083E+03  0.41800000000E+01 0.  1.
        -11    1    4    4    0    0 -0.41452072652E+02 -0.20035276308E+02 -0.22991512994E+03  0.23447953770E+03  0.00000000000E+00 0.  1.
         11    1    4    4    0    0  0.26830717649E+02 -0.27072699431E+02 -0.41721660509E+02  0.56511197295E+02  0.00000000000E+00 0. -1.
</event>
<event>
 8    1  0.3708258E-009  0.1813497E+03  0.7561462E-02  0.1166503E+00
          1   -1    0    0  501    0  0.00000000000E+00  0.00000000000E+00  0.26678266922E+03  0.26678266922E+03  0.00000000000E+00 0. -1.
         -1   -1    0    0    0  501 -0.00000000000E+00 -0.00000000000E+00 -0.14343477403E+03  0.14343477403E+03  0.00000000000E+00 0.  1.
         25    2    1    2    0    0  0.14678373637E+03 -0.50274019989E+02  0.11382521697E+03  0.22951352312E+03  0.12508930782E+03 0.  0.
         23    2    1    2    0    0 -0.14678373637E+03  0.50274019989E+02  0.95226782199E+01  0.18070392013E+03  0.92142731688E+02 0.  0.
          5    1    3    3  502    0  0.70717778362E+02  0.26600005315E+02  0.46931037729E+01  0.75815975112E+02  0.41800000000E+01 0. -1.
         -5    1    3    3    0  502  0.76065958003E+02 -0.76874025305E+02  0.10913211319E+03  0.15369754801E+03  0.41800000000E+01 0. -1.
        -11    1    4    4    0    0 -0.84790139676E+02 -0.17896427507E+02  0.16806898781E+02  0.88272995590E+02  0.00000000000E+00 0.  1.
         11    1    4    4    0    0 -0.61993596689E+02  0.68170447496E+02 -0.72842205609E+01  0.92430924541E+02  0.00000000000E+00 0. -1.
</event>
<event>
 8    1  0.3708258E-009  0.1028917E+03  0.7561462E-02  0.1274330E+00
          2   -1    0    0  501    0  0.00000000000E+00  0.00000000000E+00  0.27726364192E+03  0.27726364192E+03  0.00000000000E+00 0. -1.
         -2   -1    0    0    0  501 -0.00000000000E+00 -0.00000000000E+00 -0.74624637227E+02  0.74624637227E+02  0.00000000000E+00 0.  1.
         25    2    1    2    0    0  0.23574276185E+02 -0.41359486289E+02  0.11170719939E+02  0.13430572559E+03  0.12508752671E+03 0.  0.
         23    2    1    2    0    0 -0.23574276185E+02  0.41359486289E+02  0.19146828475E+03  0.21758255356E+03  0.91737178638E+02 0.  0.
          5    1    3    3  502    0  0.47922985019E+02 -0.71961891767E+02  0.28772769146E+02  0.91216615833E+02  0.41800000000E+01 0.  1.
         -5    1    3    3    0  502 -0.24348708834E+02  0.30602405478E+02 -0.17602049207E+02  0.43089109752E+02  0.41800000000E+01 0.  1.
        -11    1    4    4    0    0  0.25553908830E+01 -0.16347844619E+02  0.68857573967E+00  0.16560681834E+02  0.00000000000E+00 0.  1.
         11    1    4    4    0    0 -0.26129667068E+02  0.57707330908E+02  0.19077970901E+03  0.20102187173E+03  0.00000000000E+00 0. -1.
</event>
<event>
 8    1  0.3708258E-009  0.9559891E+02  0.7561462E-02  0.1289833E+00
         -2   -1    0    0    0  501 -0.00000000000E+00  0.00000000000E+00  0.75176798385E+02  0.75176798385E+02  0.00000000000E+00 0.  1.
          2   -1    0    0  501    0  0.00000000000E+00 -0.00000000000E+00 -0.20842845033E+03  0.20842845033E+03  0.00000000000E+00 0. -1.
         25    2    1    2    0    0 -0.55102459948E+02 -0.27315204853E+02 -0.83422159727E+02  0.16244898417E+03  0.12509202299E+03 0.  0.
         23    2    1    2    0    0  0.55102459948E+02  0.27315204853E+02 -0.49829492214E+02  0.12115626455E+03  0.91724918293E+02 0.  0.
          5    1    3    3  502    0 -0.74247244514E+01  0.20794949189E+02 -0.91397830495E+02  0.94120094900E+02  0.41800000000E+01 0. -1.
         -5    1    3    3    0  502 -0.47677735497E+02 -0.48110154043E+02  0.79756707672E+01  0.68328889266E+02  0.41800000000E+01 0. -1.
        -11    1    4    4    0    0  0.74730023034E+02  0.11401355516E+02 -0.13325974032E+02  0.76760333729E+02  0.00000000000E+00 0.  1.
         11    1    4    4    0    0 -0.19627563086E+02  0.15913849337E+02 -0.36503518182E+02  0.44395930817E+02  0.00000000000E+00 0. -1.
</event>
<event>
 8    1  0.3708258E-009  0.3742625E+03  0.7561462E-02  0.1053075E+00
         -4   -1    0    0    0  501 -0.00000000000E+00  0.00000000000E+00  0.46649956410E+03  0.46649956410E+03  0.00000000000E+00 0. -1.
          4   -1    0    0  501    0  0.00000000000E+00 -0.00000000000E+00 -0.31744999508E+03  0.31744999508E+03  0.00000000000E+00 0.  1.
         25    2    1    2    0    0  0.21349382004E+03  0.29949354377E+03  0.11133182374E+03  0.40412676810E+03  0.12509067017E+03 0.  0.
         23    2    1    2    0    0 -0.21349382004E+03 -0.29949354377E+03  0.37717745275E+02  0.37982279108E+03  0.86986955112E+02 0.  0.
          5    1    3    3  502    0  0.30440587771E+02  0.12110982001E+03 -0.88677735568E+00  0.12494989660E+03  0.41800000000E+01 0.  1.
         -5    1    3    3    0  502  0.18305323227E+03  0.17838372375E+03  0.11221860110E+03  0.27917687150E+03  0.41800000000E+01 0.  1.
        -11    1    4    4    0    0 -0.11423527083E+03 -0.16922414485E+03  0.63963890567E+02  0.21395767712E+03  0.00000000000E+00 0. -1.
         11    1    4    4    0    0 -0.99258549216E+02 -0.13026939892E+03 -0.26246145292E+02  0.16586511396E+03  0.00000000000E+00 0.  1.
</event>
<event>
 8    1  0.3708258E-009  0.1287548E+03  0.7561462E-02  0.1229315E+00
         -2   -1    0    0    0  501 -0.00000000000E+00  0.00000000000E+00  0.75645663301E+02  0.75645663301E+02  0.00000000000E+00 0.  1.
          2   -1    0    0  501    0  0.00000000000E+00 -0.00000000000E+00 -0.30159484087E+03  0.30159484087E+03  0.00000000000E+00 0. -1.
         25    2    1    2    0    0 -0.63874392585E+02 -0.82695476673E+02 -0.10963517543E+03  0.19643364525E+03  0.12509126829E+03 0.  0.
         23    2    1    2    0    0  0.63874392585E+02  0.82695476673E+02 -0.11631400214E+03  0.18080685892E+03  0.90794786471E+02 0.  0.
          5    1    3    3  502    0 -0.30459397153E+02 -0.56546445647E+00 -0.10291847436E+03  0.10741405583E+03  0.41800000000E+01 0. -1.
         -5    1    3    3    0  502 -0.33414995432E+02 -0.82130012216E+02 -0.67167010669E+01  0.89019589415E+02  0.41800000000E+01 0. -1.
        -11    1    4    4    0    0  0.41337523266E+02  0.10088923252E+03 -0.85854937415E+02  0.13877499179E+03  0.00000000000E+00 0.  1.
         11    1    4    4    0    0  0.22536869319E+02 -0.18193755850E+02 -0.30459064724E+02  0.42031867131E+02  0.00000000000E+00 0. -1.
</event>
<event>
 8    1  0.3708258E-009  0.1525868E+03  0.7561462E-02  0.1197330E+00
          2   -1    0    0  501    0  0.00000000000E+00  0.00000000000E+00  0.75780984125E+03  0.75780984125E+03  0.00000000000E+00 0. -1.
         -2   -1    0    0    0  501 -0.00000000000E+00 -0.00000000000E+00 -0.31941985401E+02  0.31941985401E+02  0.00000000000E+00 0.  1.
         25    2    1    2    0    0 -0.87701194146E+01  0.10831986022E+03  0.33446948747E+03  0.37326623825E+03  0.12509092477E+03 0.  0.
         23    2    1    2    0    0  0.87701194146E+01 -0.10831986022E+03  0.39139836838E+03  0.41648558840E+03  0.91964424976E+02 0.  0.
          5    1    3    3  502    0 -0.53613308695E+02  0.88478471939E+01  0.85333814854E+02  0.10125217838E+03  0.41800000000E+01 0. -1.
         -5    1    3    3    0  502  0.44843189281E+02  0.99472013022E+02  0.24913567261E+03  0.27201405987E+03  0.41800000000E+01 0. -1.
        -11    1    4    4    0    0  0.45813266731E+02 -0.88049809866E+02  0.25239599661E+03  0.27121092074E+03  0.00000000000E+00 0. -1.
         11    1    4    4    0    0 -0.37043147317E+02 -0.20270050349E+02  0.13900237178E+03  0.14527466766E+03  0.00000000000E+00 0.  1.
</event>
<event>
 8    1  0.3708258E-009  0.9449187E+02  0.7561462E-02  0.1292325E+00
          2   -1    0    0  501    0  0.00000000000E+00  0.00000000000E+00  0.24510622367E+02  0.24510622367E+02  0.00000000000E+00 0.  1.
         -2   -1    0    0    0  501 -0.00000000000E+00 -0.00000000000E+00 -0.88909363740E+03  0.88909363740E+03  0.00000000000E+00 0. -1.
         25    2    1    2    0    0  0.17896630517E+02  0.69854999107E+02 -0.68080609241E+03  0.69594991639E+03  0.12509732359E+03 0.  0.
         23    2    1    2    0    0 -0.17896630517E+02 -0.69854999107E+02 -0.18377692262E+03  0.21765434338E+03  0.91648489456E+02 0.  0.
          5    1    3    3  502    0  0.11830167506E+02  0.18463804494E+02 -0.59665551608E+03  0.59707297897E+03  0.41800000000E+01 0.  1.
         -5    1    3    3    0  502  0.60664630116E+01  0.51391194614E+02 -0.84150576328E+02  0.98876937421E+02  0.41800000000E+01 0.  1.
        -11    1    4    4    0    0 -0.54448976365E+02 -0.40388553895E+02 -0.88934402428E+02  0.11182689412E+03  0.00000000000E+00 0.  1.
         11    1    4    4    0    0  0.36552345848E+02 -0.29466445212E+02 -0.94842520193E+02  0.10582744926E+03  0.00000000000E+00 0. -1.
</event>
<event>
 8    1  0.3708258E-009  0.1941470E+03  0.7561462E-02  0.1154773E+00
          2   -1    0    0  501    0  0.00000000000E+00  0.00000000000E+00  0.32955652329E+03  0.32955652329E+03  0.00000000000E+00 0. -1.
         -2   -1    0    0    0  501 -0.00000000000E+00 -0.00000000000E+00 -0.12272626288E+03  0.12272626288E+03  0.00000000000E+00 0.  1.
         25    2    1    2    0    0  0.15254630778E+03 -0.62278846105E+02  0.15065720881E+03  0.25591840602E+03  0.12509038845E+03 0.  0.
         23    2    1    2    0    0 -0.15254630778E+03  0.62278846105E+02  0.56173051605E+02  0.19636438015E+03  0.90854429592E+02 0.  0.
          5    1    3    3  502    0 -0.40040388904E+01  0.26249489277E+02  0.22271995828E+02  0.34908196930E+02  0.41800000000E+01 0.  1.
         -5    1    3    3    0  502  0.15655034667E+03 -0.88528335382E+02  0.12838521298E+03  0.22101020909E+03  0.41800000000E+01 0.  1.
        -11    1    4    4    0    0 -0.97283396159E+01  0.34729814612E+02  0.33371700928E+02  0.49137267298E+02  0.00000000000E+00 0.  1.
         11    1    4    4    0    0 -0.14281796817E+03  0.27549031493E+02  0.22801350678E+02  0.14722711286E+03  0.00000000000E+00 0. -1.
</event>
<event>
 8    1  0.3708258E-009  0.1030345E+03  0.7561462E-02  0.1274041E+00
          1   -1    0    0  501    0  0.00000000000E+00  0.00000000000E+00  0.45296588782E+03  0.45296588782E+03  0.00000000000E+00 0. -1.
         -1   -1    0    0    0  501 -0.00000000000E+00 -0.00000000000E+00 -0.36232130367E+02  0.36232130367E+02  0.00000000000E+00 0.  1.
         25    2    1    2    0    0 -0.63592443636E+02 -0.64594139981E+01  0.18637732728E+03  0.23338686381E+03  0.12508875711E+03 0.  0.
         23    2    1    2    0    0  0.63592443636E+02  0.64594139981E+01  0.23035643017E+03  0.25581115438E+03  0.91046904768E+02 0.  0.
          5    1    3    3  502    0 -0.59573825623E+02  0.45500467570E+02  0.15547750126E+03  0.17265589781E+03  0.41800000000E+01 0.  1.
         -5    1    3    3    0  502 -0.40186180128E+01 -0.51959881568E+02  0.30899826023E+02  0.60730966002E+02  0.41800000000E+01 0.  1.
        -11    1    4    4    0    0  0.45762725646E+02  0.25692494155E+02  0.22224754722E+03  0.22836003056E+03  0.00000000000E+00 0. -1.
         11    1    4    4    0    0  0.17829717990E+02 -0.19233080157E+02  0.81088829478E+01  0.27451123813E+02  0.00000000000E+00 0.  1.
</event>
<event>
 8    1  0.3708258E-009  0.1138916E+03  0.7561462E-02  0.1253528E+00
         -3   -1    0    0    0  501 -0.00000000000E+00  0.00000000000E+00  0.53082010170E+03  0.53082010170E+03  0.00000000000E+00 0.  1.
          3   -1    0    0  501    0  0.00000000000E+00 -0.00000000000E+00 -0.33409243845E+02  0.33409243845E+02  0.00000000000E+00 0. -1.
         25    2    1    2    0    0  0.29644499060E+02  0.60445753839E+02  0.19488170620E+03  0.24115824388E+03  0.12508370676E+03 0.  0.
         23    2    1    2    0    0 -0.29644499060E+02 -0.60445753839E+02  0.30252915166E+03  0.32307110167E+03  0.91206160159E+02 0.  0.
          5    1    3    3  502    0  0.69293950892E+02  0.60533249542E+02  0.89252508200E+02  0.12825524765E+03  0.41800000000E+01 0.  1.
         -5    1    3    3    0  502 -0.39649451832E+02 -0.87495703888E-01  0.10562919800E+03  0.11290299623E+03  0.41800000000E+01 0.  1.
        -11    1    4    4    0    0  0.13999303609E+02 -0.48613857616E+02  0.24356854276E+03  0.24876680380E+03  0.00000000000E+00 0.  1.
         11    1    4    4    0    0 -0.43643802669E+02 -0.11831896223E+02  0.58960608898E+02  0.74304297866E+02  0.00000000000E+00 0. -1.
</event>
<event>
 8    1  0.3708258E-009  0.1198292E+03  0.7561462E-02  0.1243379E+00
          2   -1    0    0  501    0  0.00000000000E+00  0.00000000000E+00  0.16799914312E+03  0.16799914312E+03  0.00000000000E+00 0. -1.
         -2   -1    0    0    0  501 -0.00000000000E+00 -0.00000000000E+00 -0.11183878223E+03  0.11183878223E+03  0.00000000000E+00 0.  1.
         25    2    1    2    0    0  0.74151607545E+02  0.18084066060E+02  0.78543954955E+01  0.14674909299E+03  0.12509240751E+03 0.  0.
         23    2    1    2    0    0 -0.74151607545E+02 -0.18084066060E+02  0.48305965400E+02  0.13308883236E+03  0.97742911048E+02 0.  0.
          5    1    3    3  502    0  0.64391891408E+02  0.66107874922E+02 -0.13069636974E+02  0.93299810377E+02  0.41800000000E+01 0.  1.
         -5    1    3    3    0  502  0.97597161368E+01 -0.48023808862E+02  0.20924032469E+02  0.53449282609E+02  0.41800000000E+01 0.  1.
        -11    1    4    4    0    0 -0.46434988559E+02  0.20359253366E+02  0.65360491816E+02  0.82720621677E+02  0.00000000000E+00 0. -1.
         11    1    4    4    0    0 -0.27716618986E+02 -0.38443319426E+02 -0.17054526417E+02  0.50368210687E+02  0.00000000000E+00 0.  1.
</event>
<event>
 8    1  0.3708258E-009  0.8963160E+02  0.7561462E-02  0.1303746E+00
         -4   -1    0    0    0  501 -0.00000000000E+00  0.00000000000E+00  0.98372450703E+02  0.98372450703E+02  0.00000000000E+00 0.  1.
          4   -1    0    0  501    0  0.00000000000E+00 -0.00000000000E+00 -0.14104720696E+03  0.14104720696E+03  0.00000000000E+00 0. -1.
         25    2    1    2    0    0 -0.35389321818E+02 -0.31198268313E+02 -0.25303288127E+02  0.13605881445E+03  0.12508400599E+03 0.  0.
         23    2    1    2    0    0  0.35389321818E+02  0.31198268313E+02 -0.17371468128E+02  0.10336084321E+03  0.90310353563E+02 0.  0.
          5    1    3    3  502    0 -0.39208449638E+02 -0.58136646103E+02  0.28353286180E+02  0.75753240065E+02  0.41800000000E+01 0.  1.
         -5    1    3    3    0  502  0.38191278197E+01  0.26938377790E+02 -0.53656574307E+02  0.60305574382E+02  0.41800000000E+01 0.  1.
        -11    1    4    4    0    0 -0.97687611869E+01  0.34840849587E+02  0.22835527235E+02  0.42787554256E+02  0.00000000000E+00 0.  1.
         11    1    4    4    0    0  0.45158083005E+02 -0.36425812748E+01 -0.40206995364E+02  0.60573288958E+02  0.00000000000E+00 0. -1.
</event>
<event>
 8    1  0.3708258E-009  0.1925886E+03  0.7561462E-02  0.1156147E+00
         -2   -1    0    0    0  501 -0.00000000000E+00  0.00000000000E+00  0.21041763857E+03  0.21041763857E+03  0.00000000000E+00 0.  1.
          2   -1    0    0  501    0  0.00000000000E+00 -0.00000000000E+00 -0.28485813622E+03  0.28485813622E+03  0.00000000000E+00 0. -1.
         25    2    1    2    0    0  0.22611129230E+02  0.17336379362E+03 -0.17226457437E+03  0.27547971503E+03  0.12509085381E+03 0.  0.
         23    2    1    2    0    0 -0.22611129230E+02 -0.17336379362E+03  0.97824076710E+02  0.21979605976E+03  0.90412885149E+02 0.  0.
          5    1    3    3  502    0 -0.40873668276E+02  0.89032243376E+02 -0.12725715225E+03  0.16065258267E+03  0.41800000000E+01 0.  1.
         -5    1    3    3    0  502  0.63484797506E+02  0.84331550240E+02 -0.45007422114E+02  0.11482713236E+03  0.41800000000E+01 0.  1.
        -11    1    4    4    0    0  0.14884360523E+02 -0.33080012692E+02  0.59382885912E+02  0.69585620405E+02  0.00000000000E+00 0.  1.
         11    1    4    4    0    0 -0.37495489753E+02 -0.14028378092E+03  0.38441190798E+02  0.15021043936E+03  0.00000000000E+00 0. -1.
</event>
<event>
 8    1  0.3708258E-009  0.1603775E+03  0.7561462E-02  0.1188271E+00
          1   -1    0    0  501    0  0.00000000000E+00  0.00000000000E+00  0.47063606652E+03  0.47063606652E+03  0.00000000000E+00 0. -1.
         -1   -1    0    0    0  501 -0.00000000000E+00 -0.00000000000E+00 -0.75756232205E+02  0.75756232205E+02  0.00000000000E+00 0.  1.
         25    2    1    2    0    0 -0.74443114656E+02  0.10354507617E+03  0.33328682451E+03  0.37813611199E+03  0.12507378496E+03 0.  0.
         23    2    1    2    0    0  0.74443114656E+02 -0.10354507617E+03  0.61593009807E+02  0.16825618673E+03  0.90846493598E+02 0.  0.
          5    1    3    3  502    0  0.29744121291E+02  0.15553822048E+02  0.12219750039E+03  0.12679249044E+03  0.41800000000E+01 0. -1.
         -5    1    3    3    0  502 -0.10418723595E+03  0.87991254118E+02  0.21108932412E+03  0.25134362155E+03  0.41800000000E+01 0. -1.
        -11    1    4    4    0    0  0.78615056668E+02 -0.42617468564E+02  0.58994961859E+02  0.10713067388E+03  0.00000000000E+00 0. -1.
         11    1    4    4    0    0 -0.41719420116E+01 -0.60927607602E+02  0.25980479482E+01  0.61125512852E+02  0.00000000000E+00 0.  1.
</event>
<event>
 8    1  0.3708258E-009  0.1147580E+03  0.7561462E-02  0.1252004E+00
         -2   -1    0    0    0  501 -0.00000000000E+00  0.00000000000E+00  0.70719951071E+02  0.70719951071E+02  0.00000000000E+00 0.  1.
          2   -1    0    0  501    0  0.00000000000E+00 -0.00000000000E+00 -0.25803517195E+03  0.25803517195E+03  0.00000000000E+00 0. -1.
         25    2    1    2    0    0  0.14236642222E+02 -0.41536477132E+02 -0.18777211864E+03  0.22985583100E+03  0.12508946236E+03 0.  0.
         23    2    1    2    0    0 -0.14236642222E+02  0.41536477132E+02  0.45689776203E+00  0.98899292015E+02  0.88616591512E+02 0.  0.
          5    1    3    3  502    0  0.66358604509E+02 -0.42731809463E+02 -0.97336342030E+02  0.12538463946E+03  0.41800000000E+01 0.  1.
         -5    1    3    3    0  502 -0.52121962287E+02  0.11953323310E+01 -0.90435776611E+02  0.10447119155E+03  0.41800000000E+01 0.  1.
        -11    1    4    4    0    0 -0.43273937082E+02 -0.47509051601E+01  0.61330190831E+01  0.43963833471E+02  0.00000000000E+00 0. -1.
         11    1    4    4    0    0  0.29037294860E+02  0.46287382292E+02 -0.56761213210E+01  0.54935458544E+02  0.00000000000E+00 0.  1.
</event>
<event>
 8    1  0.3708258E-009  0.2115423E+03  0.7561462E-02  0.1140350E+00
         -1   -1    0    0    0  501 -0.00000000000E+00  0.00000000000E+00  0.40716989709E+03  0.40716989709E+03  0.00000000000E+00 0.  1.
          1   -1    0    0  501    0  0.00000000000E+00 -0.00000000000E+00 -0.12216177447E+03  0.12216177447E+03  0.00000000000E+00 0. -1.
         25    2    1    2    0    0  0.13265637319E+03 -0.14100228468E+03  0.12662556884E+03  0.26298507267E+03  0.12509099141E+03 0.  0.
         23    2    1    2    0    0 -0.13265637319E+03  0.14100228468E+03  0.15838255379E+03  0.26634659888E+03  0.91521143782E+02 0.  0.
          5    1    3    3  502    0  0.14151774705E+03 -0.11858127005E+03  0.63512488647E+02  0.19529490253E+03  0.41800000000E+01 0.  1.
         -5    1    3    3    0  502 -0.88613738587E+01 -0.22421014626E+02  0.63113080188E+02  0.67690170146E+02  0.41800000000E+01 0.  1.
        -11    1    4    4    0    0 -0.14653225534E+03  0.12374071200E+03  0.14539289819E+03  0.24067106288E+03  0.00000000000E+00 0. -1.
         11    1    4    4    0    0  0.13875882148E+02  0.17261572677E+02  0.12989655597E+02  0.25675536006E+02  0.00000000000E+00 0.  1.
</event>
<event>
 8    1  0.3708258E-009  0.1673735E+03  0.7561462E-02  0.1180615E+00
          1   -1    0    0  501    0  0.00000000000E+00  0.00000000000E+00  0.24688827099E+03  0.24688827099E+03  0.00000000000E+00 0. -1.
         -1   -1    0    0    0  501 -0.00000000000E+00 -0.00000000000E+00 -0.12140952100E+03  0.12140952100E+03  0.00000000000E+00 0.  1.
         25    2    1    2    0    0 -0.12692256234E+03  0.39616420470E+02  0.47427671943E+02  0.18861393981E+03  0.12508811544E+03 0.  0.
         23    2    1    2    0    0  0.12692256234E+03 -0.39616420470E+02  0.78051078047E+02  0.17968385218E+03  0.92279566260E+02 0.  0.
          5    1    3    3  502    0 -0.80220416164E+02 -0.40197876614E+02  0.27300968888E+02  0.93882904493E+02  0.41800000000E+01 0.  1.
         -5    1    3    3    0  502 -0.46702146173E+02  0.79814297084E+02  0.20126703055E+02  0.94731035316E+02  0.41800000000E+01 0.  1.
        -11    1    4    4    0    0 -0.12659978378E+01 -0.23065729922E+02 -0.79547182995E+01  0.24431704619E+02  0.00000000000E+00 0.  1.
         11    1    4    4    0    0  0.12818856018E+03 -0.16550690547E+02  0.86005796346E+02  0.15525214756E+03  0.00000000000E+00 0. -1.
</event>
<event>
 8    1  0.3708258E-009  0.1404377E+03  0.7561462E-02  0.1212741E+00
         -1   -1    0    0    0  501 -0.00000000000E+00  0.00000000000E+00  0.49010668505E+02  0.49010668505E+02  0.00000000000E+00 0.  1.
          1   -1    0    0  501    0  0.00000000000E+00 -0.00000000000E+00 -0.61233032922E+03  0.61233032922E+03  0.00000000000E+00 0. -1.
         25    2    1    2    0    0 -0.88630220773E+02 -0.97014640980E+02 -0.35176385006E+03  0.39579309512E+03  0.12508881379E+03 0.  0.
         23    2    1    2    0    0  0.88630220773E+02  0.97014640980E+02 -0.21155581065E+03  0.26554790261E+03  0.92155688695E+02 0.  0.
          5    1    3    3  502    0 -0.55505534809E+02 -0.90759975025E+02 -0.11544479756E+03  0.15704525190E+03  0.41800000000E+01 0. -1.
         -5    1    3    3    0  502 -0.33124685964E+02 -0.62546659545E+01 -0.23631905250E+03  0.23874784321E+03  0.41800000000E+01 0. -1.
        -11    1    4    4    0    0  0.82806967310E+02  0.58259993915E+02 -0.20084312974E+03  0.22492039367E+03  0.00000000000E+00 0. -1.
         11    1    4    4    0    0  0.58232534628E+01  0.38754647064E+02 -0.10712680916E+02  0.40627508936E+02  0.00000000000E+00 0.  1.
</event>
<event>
 8    1  0.3708258E-009  0.1036520E+03  0.7561462E-02  0.1272798E+00
         -2   -1    0    0    0  501 -0.00000000000E+00  0.00000000000E+00  0.19875346421E+03  0.19875346421E+03  0.00000000000E+00 0.  1.
          2   -1    0    0  501    0  0.00000000000E+00 -0.00000000000E+00 -0.80787831499E+02  0.80787831499E+02  0.00000000000E+00 0. -1.
         25    2    1    2    0    0 -0.51204287731E+02 -0.38486805402E+02  0.77336549611E+02  0.16041635557E+03  0.12509736990E+03 0.  0.
         23    2    1    2    0    0  0.51204287731E+02  0.38486805402E+02  0.40629083105E+02  0.11912494015E+03  0.91852684769E+02 0.  0.
          5    1    3    3  502    0  0.20009211887E+02  0.15110095468E+02  0.65684667962E+02  0.70431751012E+02  0.41800000000E+01 0.  1.
         -5    1    3    3    0  502 -0.71213499617E+02 -0.53596900870E+02  0.11651881649E+02  0.89984604553E+02  0.41800000000E+01 0.  1.
        -11    1    4    4    0    0  0.52181951534E+02 -0.19407247132E+01  0.55345525495E+02  0.76091061700E+02  0.00000000000E+00 0.  1.
         11    1    4    4    0    0 -0.97766380364E+00  0.40427530115E+02 -0.14716442390E+02  0.43033878448E+02  0.00000000000E+00 0. -1.
</event>
<event>
 8    1  0.3708258E-009  0.9001883E+02  0.7561462E-02  0.1302806E+00
          3   -1    0    0  501    0  0.00000000000E+00  0.00000000000E+00  0.21186132429E+03  0.21186132429E+03  0.00000000000E+00 0. -1.
         -3   -1    0    0    0  501 -0.00000000000E+00 -0.00000000000E+00 -0.63671708567E+02  0.63671708567E+02  0.00000000000E+00 0.  1.
         25    2    1    2    0    0  0.10636676426E+02 -0.44961359526E+01  0.11268024606E+03  0.16874211477E+03  0.12507481490E+03 0.  0.
         23    2    1    2    0    0 -0.10636676426E+02  0.44961359526E+01  0.35509369668E+02  0.10679091809E+03  0.10005014107E+03 0.  0.
          5    1    3    3  502    0  0.35611142927E+02  0.23263676402E+02  0.12263666442E+03  0.12987138253E+03  0.41800000000E+01 0.  1.
         -5    1    3    3    0  502 -0.24974466500E+02 -0.27759812355E+02 -0.99564183593E+01  0.38870732248E+02  0.41800000000E+01 0.  1.
        -11    1    4    4    0    0  0.21212247876E+02 -0.39838424947E+02  0.23547317004E+02  0.50907128187E+02  0.00000000000E+00 0.  1.
         11    1    4    4    0    0 -0.31848924303E+02  0.44334560900E+02  0.11962052665E+02  0.55883789898E+02  0.00000000000E+00 0. -1.
</event>
<event>
 8    1  0.3708258E-009  0.2957210E+03  0.7561462E-02  0.1087399E+00
         -3   -1    0    0    0  501 -0.00000000000E+00  0.00000000000E+00  0.28792769656E+03  0.28792769656E+03  0.00000000000E+00 0.  1.
          3   -1    0    0  501    0  0.00000000000E+00 -0.00000000000E+00 -0.46869934856E+03  0.46869934856E+03  0.00000000000E+00 0. -1.
         25    2    1    2    0    0 -0.12974572218E+03  0.24836703010E+03  0.12544694953E+03  0.33151871275E+03  0.12509031016E+03 0.  0.
         23    2    1    2    0    0  0.12974572218E+03 -0.24836703010E+03 -0.30621860154E+03  0.42510833237E+03  0.91799391385E+02 0.  0.
          5    1    3    3  502    0  0.99260948934E+01  0.84960604620E+02  0.66931312584E+02  0.10869270767E+03  0.41800000000E+01 0.  1.
         -5    1    3    3    0  502 -0.13967181707E+03  0.16340642548E+03  0.58515636947E+02  0.22282600508E+03  0.41800000000E+01 0.  1.
        -11    1    4    4    0    0  0.79082662427E+02 -0.21759375815E+03 -0.26988345968E+03  0.35558148559E+03  0.00000000000E+00 0. -1.
         11    1    4    4    0    0  0.50663059752E+02 -0.30773271951E+02 -0.36335141854E+02  0.69526846783E+02  0.00000000000E+00 0.  1.
</event>
<event>
 8    1  0.3708258E-009  0.8780448E+02  0.7561462E-02  0.1308257E+00
         -2   -1    0    0    0  501 -0.00000000000E+00  0.00000000000E+00  0.18313423756E+02  0.18313423756E+02  0.00000000000E+00 0.  1.
          2   -1    0    0  501    0  0.00000000000E+00 -0.00000000000E+00 -0.72457853160E+03  0.72457853160E+03  0.00000000000E+00 0. -1.
         25    2    1    2    0    0  0.43508679889E+01  0.38397961767E+02 -0.40849994576E+03  0.42896703994E+03  0.12508869713E+03 0.  0.
         23    2    1    2    0    0 -0.43508679889E+01 -0.38397961767E+02 -0.29776516209E+03  0.31392491542E+03  0.91604733762E+02 0.  0.
          5    1    3    3  502    0 -0.30563895913E+02  0.17956035862E+02 -0.37380592246E+03  0.37550620637E+03  0.41800000000E+01 0. -1.
         -5    1    3    3    0  502  0.34914763902E+02  0.20441925904E+02 -0.34694023297E+02  0.53460833566E+02  0.41800000000E+01 0. -1.
        -11    1    4    4    0    0  0.37546833917E+02  0.61936450891E+01 -0.12351347522E+03  0.12924281233E+03  0.00000000000E+00 0. -1.
         11    1    4    4    0    0 -0.41897701906E+02 -0.44591606856E+02 -0.17425168686E+03  0.18468210309E+03  0.00000000000E+00 0.  1.
</event>
<event>
 8    1  0.3708258E-009  0.1247435E+03  0.7561462E-02  0.1235471E+00
         -1   -1    0    0    0  501 -0.00000000000E+00  0.00000000000E+00  0.23181550788E+03  0.23181550788E+03  0.00000000000E+00 0.  1.
          1   -1    0    0  501    0  0.00000000000E+00 -0.00000000000E+00 -0.78941687781E+02  0.78941687781E+02  0.00000000000E+00 0. -1.
         25    2    1    2    0    0  0.47832453218E+02  0.54422052965E+02  0.40563940704E+02  0.15014799749E+03  0.12509710003E+03 0.  0.
         23    2    1    2    0    0 -0.47832453218E+02 -0.54422052965E+02  0.11230987939E+03  0.16060919816E+03  0.89062349487E+02 0.  0.
          5    1    3    3  502    0 -0.42427313892E+02  0.20367427038E+02  0.20606558727E+02  0.51546209471E+02  0.41800000000E+01 0.  1.
         -5    1    3    3    0  502  0.90259767111E+02  0.34054625926E+02  0.19957381977E+02  0.98601788022E+02  0.41800000000E+01 0.  1.
        -11    1    4    4    0    0  0.84455455848E+01 -0.48340030297E+02  0.84085013229E+02  0.97356947462E+02  0.00000000000E+00 0.  1.
         11    1    4    4    0    0 -0.56277998803E+02 -0.60820226678E+01  0.28224866163E+02  0.63252250702E+02  0.00000000000E+00 0. -1.
</event>
<event>
 8    1  0.3708258E-009  0.1323176E+03  0.7561462E-02  0.1224057E+00
          1   -1    0    0  501    0  0.00000000000E+00  0.00000000000E+00  0.55343745984E+03  0.55343745984E+03  0.00000000000E+00 0. -1.
         -1   -1    0    0    0  501 -0.00000000000E+00 -0.00000000000E+00 -0.42765574157E+02  0.42765574157E+02  0.00000000000E+00 0.  1.
         25    2    1    2    0    0 -0.42070519184E+02  0.99230834643E+02  0.27700395567E+03  0.32248331509E+03  0.12509040702E+03 0.  0.
         23    2    1    2    0    0  0.42070519184E+02 -0.99230834643E+02  0.23366793001E+03  0.27371971891E+03  0.93301103278E+02 0.  0.
          5    1    3    3  502    0 -0.26140350855E+02  0.17456448250E+01  0.18672232731E+03  0.18859762760E+03  0.41800000000E+01 0. -1.
         -5    1    3    3    0  502 -0.15930168329E+02  0.97485189818E+02  0.90281628361E+02  0.13388568750E+03  0.41800000000E+01 0. -1.
        -11    1    4    4    0    0  0.22568247521E+02 -0.11308582942E+03  0.21251727939E+03  0.24178776779E+03  0.00000000000E+00 0.  1.
         11    1    4    4    0    0  0.19502271663E+02  0.13854994780E+02  0.21150650621E+02  0.31931951116E+02  0.00000000000E+00 0. -1.
</event>
<event>
 8    1  0.3708258E-009  0.1347560E+03  0.7561462E-02  0.1220565E+00
          1   -1    0    0  501    0  0.00000000000E+00  0.00000000000E+00  0.95177245366E+03  0.95177245366E+03  0.00000000000E+00 0. -1.
         -1   -1    0    0    0  501 -0.00000000000E+00 -0.00000000000E+00 -0.21003036033E+02  0.21003036033E+02  0.00000000000E+00 0.  1.
         25    2    1    2    0    0  0.40132320804E+02  0.72837512536E+02  0.38888349431E+03  0.41688388861E+03  0.12508356418E+03 0.  0.
         23    2    1    2    0    0 -0.40132320804E+02 -0.72837512536E+02  0.54188592331E+03  0.55589160108E+03  0.91973973838E+02 0.  0.
          5    1    3    3  502    0  0.37970825547E+02  0.10756659024E+03  0.31667584707E+03  0.33662058679E+03  0.41800000000E+01 0.  1.
         -5    1    3    3    0  502  0.21614952570E+01 -0.34729077702E+02  0.72207647240E+02  0.80263301824E+02  0.41800000000E+01 0.  1.
        -11    1    4    4    0    0 -0.64924846786E+02 -0.31613838997E+02  0.25613648151E+03  0.26612134020E+03  0.00000000000E+00 0.  1.
         11    1    4    4    0    0  0.24792525982E+02 -0.41223673539E+02  0.28574944180E+03  0.28977026088E+03  0.00000000000E+00 0. -1.
</event>
<event>
 8    1  0.3708258E-009  0.2082646E+03  0.7561462E-02  0.1142948E+00
         -1   -1    0    0    0  501 -0.00000000000E+00  0.00000000000E+00  0.96668666009E+03  0.96668666009E+03  0.00000000000E+00 0.  1.
          1   -1    0    0  501    0  0.00000000000E+00 -0.00000000000E+00 -0.51483371864E+02  0.51483371864E+02  0.00000000000E+00 0. -1.
         25    2    1    2    0    0 -0.18153545147E+03  0.68811333883E+02  0.43798069569E+03  0.49514494197E+03  0.12510517155E+03 0.  0.
         23    2    1    2    0    0  0.18153545147E+03 -0.68811333883E+02  0.47722259254E+03  0.52302508999E+03  0.90131693212E+02 0.  0.
          5    1    3    3  502    0 -0.14562692549E+02  0.40764831315E+02  0.18955710028E+03  0.19448190187E+03  0.41800000000E+01 0. -1.
         -5    1    3    3    0  502 -0.16697275892E+03  0.28046502567E+02  0.24842359541E+03  0.30066304010E+03  0.41800000000E+01 0. -1.
        -11    1    4    4    0    0  0.78336995303E+02 -0.62625507499E+02  0.31571838077E+03  0.33126535432E+03  0.00000000000E+00 0.  1.
         11    1    4    4    0    0  0.10319845616E+03 -0.61858263840E+01  0.16150421177E+03  0.19175973567E+03  0.00000000000E+00 0. -1.
</event>
<event>
 8    1  0.3708258E-009  0.1386602E+03  0.7561462E-02  0.1215143E+00
         -1   -1    0    0    0  501 -0.00000000000E+00  0.00000000000E+00  0.69377028988E+03  0.69377028988E+03  0.00000000000E+00 0.  1.
          1   -1    0    0  501    0  0.00000000000E+00 -0.00000000000E+00 -0.36170817727E+02  0.36170817727E+02  0.00000000000E+00 0. -1.
         25    2    1    2    0    0  0.82964191472E+02  0.77173024576E+02  0.40011225579E+03  0.43425354807E+03  0.12509034333E+03 0.  0.
         23    2    1    2    0    0 -0.82964191472E+02 -0.77173024576E+02  0.25748721636E+03  0.29568755953E+03  0.91064446854E+02 0.  0.
          5    1    3    3  502    0  0.40099882926E+02  0.10008233172E+03  0.18948999445E+03  0.21805596559E+03  0.41800000000E+01 0.  1.
         -5    1    3    3    0  502  0.42864308546E+02 -0.22909307144E+02  0.21062226134E+03  0.21619758248E+03  0.41800000000E+01 0.  1.
        -11    1    4    4    0    0 -0.18442525576E+02  0.19499870542E+01 -0.16355557244E+00  0.18546049433E+02  0.00000000000E+00 0. -1.
         11    1    4    4    0    0 -0.64521665896E+02 -0.79123011630E+02  0.25765077193E+03  0.27714151010E+03  0.00000000000E+00 0.  1.
</event>
<event>
 8    1  0.3708258E-009  0.9200827E+02  0.7561462E-02  0.1298060E+00
         -1   -1    0    0    0  501 -0.00000000000E+00  0.00000000000E+00  0.38655231456E+03  0.38655231456E+03  0.00000000000E+00 0.  1.
          1   -1    0    0  501    0  0.00000000000E+00 -0.00000000000E+00 -0.31108037109E+02  0.31108037109E+02  0.00000000000E+00 0. -1.
         25    2    1    2    0    0 -0.12348303383E+02 -0.93931399580E+01  0.18032371512E+03  0.22001300160E+03  0.12509343294E+03 0.  0.
         23    2    1    2    0    0  0.12348303383E+02  0.93931399580E+01  0.17512056233E+03  0.19764735007E+03  0.90313631104E+02 0.  0.
          5    1    3    3  502    0 -0.15946230552E+02 -0.50527273124E+02  0.16875790077E+03  0.17692933355E+03  0.41800000000E+01 0. -1.
         -5    1    3    3    0  502  0.35979271692E+01  0.41134133166E+02  0.11565814351E+02  0.43083668052E+02  0.41800000000E+01 0. -1.
        -11    1    4    4    0    0 -0.36053229625E+02  0.17851630795E+02  0.57502991538E+02  0.70179128837E+02  0.00000000000E+00 0. -1.
         11    1    4    4    0    0  0.48401533008E+02 -0.84584908374E+01  0.11761757079E+03  0.12746822123E+03  0.00000000000E+00 0.  1.
</event>
<event>
 8    1  0.3708258E-009  0.1205545E+03  0.7561462E-02  0.1242185E+00
         -1   -1    0    0    0  501 -0.00000000000E+00  0.00000000000E+00  0.50088012172E+03  0.50088012172E+03  0.00000000000E+00 0.  1.
          1   -1    0    0  501    0  0.00000000000E+00 -0.00000000000E+00 -0.41469097629E+02  0.41469097629E+02  0.00000000000E+00 0. -1.
         25    2    1    2    0    0  0.19588531669E+02  0.66951417127E+02  0.12962008530E+03  0.19317490000E+03  0.12509585385E+03 0.  0.
         23    2    1    2    0    0 -0.19588531669E+02 -0.66951417127E+02  0.32979093880E+03  0.34917431935E+03  0.91073811572E+02 0.  0.
          5    1    3    3  502    0 -0.52899688466E+02  0.19756343346E+02  0.50177027522E+02  0.75656438147E+02  0.41800000000E+01 0. -1.
         -5    1    3    3    0  502  0.72488220136E+02  0.47195073781E+02  0.79443057776E+02  0.11751846185E+03  0.41800000000E+01 0. -1.
        -11    1    4    4    0    0 -0.45199398648E+02 -0.48668531076E+02  0.29447710760E+03  0.30187477281E+03  0.00000000000E+00 0.  1.
         11    1    4    4    0    0  0.25610866978E+02 -0.18282886051E+02  0.35313831193E+02  0.47299546544E+02  0.00000000000E+00 0. -1.
</event>
<event>
 8    1  0.3708258E-009  0.5539162E+02  0.7561462E-02  0.1418256E+00
         -2   -1    0    0    0  501 -0.00000000000E+00  0.00000000000E+00  0.46910900169E+02  0.46910900169E+02  0.00000000000E+00 0. -1.
          2   -1    0    0  501    0  0.00000000000E+00 -0.00000000000E+00 -0.32901802292E+03  0.32901802292E+03  0.00000000000E+00 0.  1.
         25    2    1    2    0    0 -0.32548040821E+01  0.49401846760E+02 -0.21652519390E+03  0.25491683873E+03  0.12509316074E+03 0.  0.
         23    2    1    2    0    0  0.32548040821E+01 -0.49401846760E+02 -0.65581928849E+02  0.12101208435E+03  0.88835797714E+02 0.  0.
          5    1    3    3  502    0 -0.15473142814E+02  0.33916045622E+02 -0.22843769472E+03  0.23149723340E+03  0.41800000000E+01 0. -1.
         -5    1    3    3    0  502  0.12218338731E+02  0.15485801138E+02  0.11912500824E+02  0.23419605337E+02  0.41800000000E+01 0. -1.
        -11    1    4    4    0    0  0.10623539407E+02 -0.18447215919E+02 -0.82341442787E+02  0.85048648225E+02  0.00000000000E+00 0.  1.
         11    1    4    4    0    0 -0.73687353245E+01 -0.30954630841E+02  0.16759513939E+02  0.35963436129E+02  0.00000000000E+00 0. -1.
</event>
<event>
 8    1  0.3708258E-009  0.2603019E+03  0.7561462E-02  0.1106962E+00
          3   -1    0    0  501    0  0.00000000000E+00  0.00000000000E+00  0.13092441884E+03  0.13092441884E+03  0.00000000000E+00 0. -1.
         -3   -1    0    0    0  501 -0.00000000000E+00 -0.00000000000E+00 -0.55987709562E+03  0.55987709562E+03  0.00000000000E+00 0.  1.
         25    2    1    2    0    0 -0.21894864193E+03  0.11113574862E+03 -0.26122174000E+03  0.37970300776E+03  0.12509162334E+03 0.  0.
         23    2    1    2    0    0  0.21894864193E+03 -0.11113574862E+03 -0.16773093678E+03  0.31109850669E+03  0.91427300569E+02 0.  0.
          5    1    3    3  502    0  0.93361576030E+01 -0.11907293642E+02 -0.20687094952E+02  0.25968746181E+02  0.41800000000E+01 0.  1.
         -5    1    3    3    0  502 -0.22828479953E+03  0.12304304226E+03 -0.24053464505E+03  0.35373426158E+03  0.41800000000E+01 0.  1.
        -11    1    4    4    0    0  0.64681393551E+02 -0.32848273969E+02 -0.10386458867E+03  0.12669074376E+03  0.00000000000E+00 0.  1.
         11    1    4    4    0    0  0.15426724838E+03 -0.78287474651E+02 -0.63866348110E+02  0.18440776293E+03  0.00000000000E+00 0. -1.
</event>
<event>
 8    1  0.3708258E-009  0.9554024E+02  0.7561462E-02  0.1289964E+00
          2   -1    0    0  501    0  0.00000000000E+00  0.00000000000E+00  0.19176037307E+03  0.19176037307E+03  0.00000000000E+00 0. -1.
         -2   -1    0    0    0  501 -0.00000000000E+00 -0.00000000000E+00 -0.96930127034E+02  0.96930127034E+02  0.00000000000E+00 0.  1.
         25    2    1    2    0    0  0.13887378356E+02 -0.79373352906E+02  0.68944874226E+02  0.16399489419E+03  0.12509173118E+03 0.  0.
         23    2    1    2    0    0 -0.13887378356E+02  0.79373352906E+02  0.25885371810E+02  0.12469560591E+03  0.91574850428E+02 0.  0.
          5    1    3    3  502    0  0.30887024468E+02 -0.85789219382E+02  0.95138577321E+02  0.13184316341E+03  0.41800000000E+01 0.  1.
         -5    1    3    3    0  502 -0.16999646112E+02  0.64158664765E+01 -0.26193703095E+02  0.32151730785E+02  0.41800000000E+01 0.  1.
        -11    1    4    4    0    0 -0.66242116258E+01  0.61668621143E+02 -0.27602021801E+02  0.67887926915E+02  0.00000000000E+00 0.  1.
         11    1    4    4    0    0 -0.72631667298E+01  0.17704731762E+02  0.53487393610E+02  0.56807678996E+02  0.00000000000E+00 0. -1.
</event>
<event>
 8    1  0.3708258E-009  0.8275813E+02  0.7561462E-02  0.1321402E+00
          2   -1    0    0  501    0  0.00000000000E+00  0.00000000000E+00  0.55665850401E+03  0.55665850401E+03  0.00000000000E+00 0.  1.
         -2   -1    0    0    0  501 -0.00000000000E+00 -0.00000000000E+00 -0.30811227562E+02  0.30811227562E+02  0.00000000000E+00 0. -1.
         25    2    1    2    0    0 -0.58587866623E+02  0.27697709717E+02  0.26596317882E+03  0.30097562349E+03  0.12510080818E+03 0.  0.
         23    2    1    2    0    0  0.58587866623E+02 -0.27697709717E+02  0.25988409763E+03  0.28649410809E+03  0.10168298052E+03 0.  0.
          5    1    3    3  502    0 -0.69073871333E+02  0.13943984111E+01  0.55892772366E+02  0.88964141375E+02  0.41800000000E+01 0.  1.
         -5    1    3    3    0  502  0.10486004710E+02  0.26303311306E+02  0.21007040645E+03  0.21201148211E+03  0.41800000000E+01 0.  1.
        -11    1    4    4    0    0  0.34167034777E+02 -0.26480838777E+02  0.25840774991E+03  0.26199844714E+03  0.00000000000E+00 0.  1.
         11    1    4    4    0    0  0.24420831846E+02 -0.12168709401E+01  0.14763477241E+01  0.24495660953E+02  0.00000000000E+00 0. -1.
</event>
<event>
 8    1  0.3708258E-009  0.1353702E+03  0.7561462E-02  0.1219698E+00
          2   -1    0    0  501    0  0.00000000000E+00  0.00000000000E+00  0.20789497316E+03  0.20789497316E+03  0.00000000000E+00 0. -1.
         -2   -1    0    0    0  501 -0.00000000000E+00 -0.00000000000E+00 -0.16203399606E+03  0.16203399606E+03  0.00000000000E+00 0.  1.
         25    2    1    2    0    0  0.13271040055E+03  0.50795927833E-01 -0.40451979136E+02  0.18680462114E+03  0.12509017095E+03 0.  0.
         23    2    1    2    0    0 -0.13271040055E+03 -0.50795927833E-01  0.86312956234E+02  0.18312434808E+03  0.92046441807E+02 0.  0.
          5    1    3    3  502    0  0.79413757763E+01  0.16009683123E+01 -0.59777957175E+02  0.60469042599E+02  0.41800000000E+01 0. -1.
         -5    1    3    3    0  502  0.12476902478E+03 -0.15501723845E+01  0.19325978040E+02  0.12633557854E+03  0.41800000000E+01 0. -1.
        -11    1    4    4    0    0 -0.10731875201E+03 -0.13292522240E+02  0.18762498633E+02  0.10975443971E+03  0.00000000000E+00 0.  1.
         11    1    4    4    0    0 -0.25391648537E+02  0.13241726312E+02  0.67550457601E+02  0.73369908364E+02  0.00000000000E+00 0. -1.
</event>
<event>
 8    1  0.3708258E-009  0.7245270E+02  0.7561462E-02  0.1351946E+00
          2   -1    0    0  501    0  0.00000000000E+00  0.00000000000E+00  0.17708584136E+03  0.17708584136E+03  0.00000000000E+00 0. -1.
         -2   -1    0    0    0  501 -0.00000000000E+00 -0.00000000000E+00 -0.86056653354E+02  0.86056653354E+02  0.00000000000E+00 0.  1.
         25    2    1    2    0    0  0.48076298611E+02 -0.16641954109E+02  0.18231349929E+02  0.13626469919E+03  0.12508957191E+03 0.  0.
         23    2    1    2    0    0 -0.48076298611E+02  0.16641954109E+02  0.72797838080E+02  0.12687779552E+03  0.90609958851E+02 0.  0.
          5    1    3    3  502    0  0.11102503194E+00 -0.40095687250E+02 -0.40249467009E+02  0.56966380060E+02  0.41800000000E+01 0. -1.
         -5    1    3    3    0  502  0.47965273580E+02  0.23453733141E+02  0.58480816938E+02  0.79298319135E+02  0.41800000000E+01 0. -1.
        -11    1    4    4    0    0 -0.23980163325E+02  0.10445687416E+02 -0.18637925520E+02  0.32117485679E+02  0.00000000000E+00 0.  1.
         11    1    4    4    0    0 -0.24096135287E+02  0.61962666922E+01  0.91435763600E+02  0.94760309844E+02  0.00000000000E+00 0. -1.
</event>
<event>
 8    1  0.3708258E-009  0.1118642E+03  0.7561462E-02  0.1257156E+00
         -1   -1    0    0    0  501 -0.00000000000E+00  0.00000000000E+00  0.16305049487E+03  0.16305049487E+03  0.00000000000E+00 0.  1.
          1   -1    0    0  501    0  0.00000000000E+00 -0.00000000000E+00 -0.86311298024E+02  0.86311298024E+02  0.00000000000E+00 0. -1.
         25    2    1    2    0    0 -0.28166198391E+02 -0.36021724516E+02  0.63495941903E+02  0.14754817515E+03  0.12509128660E+03 0.  0.
         23    2    1    2    0    0  0.28166198391E+02  0.36021724516E+02  0.13243254941E+02  0.10181361774E+03  0.89998497699E+02 0.  0.
          5    1    3    3  502    0 -0.67318778188E+02  0.11527574231E+02  0.17693790610E+02  0.70677050664E+02  0.41800000000E+01 0.  1.
         -5    1    3    3    0  502  0.39152579798E+02 -0.47549298747E+02  0.45802151293E+02  0.76871124483E+02  0.41800000000E+01 0.  1.
        -11    1    4    4    0    0  0.51503504787E+02  0.10396375363E+01 -0.11828770126E+02  0.52854627557E+02  0.00000000000E+00 0. -1.
         11    1    4    4    0    0 -0.23337306396E+02  0.34982086979E+02  0.25072025066E+02  0.48958990188E+02  0.00000000000E+00 0.  1.
</event>
<event>
 8    1  0.3708258E-009  0.1423308E+03  0.7561462E-02  0.1210227E+00
          2   -1    0    0  501    0  0.00000000000E+00  0.00000000000E+00  0.37468578025E+03  0.37468578025E+03  0.00000000000E+00 0. -1.
         -2   -1    0    0    0  501 -0.00000000000E+00 -0.00000000000E+00 -0.71126503100E+02  0.71126503100E+02  0.00000000000E+00 0.  1.
         25    2    1    2    0    0 -0.83438824143E+02 -0.90489063040E+02  0.18301751135E+03  0.25356296391E+03  0.12509380201E+03 0.  0.
         23    2    1    2    0    0  0.83438824143E+02  0.90489063040E+02  0.12054176580E+03  0.19224931944E+03  0.85318084947E+02 0.  0.
          5    1    3    3  502    0 -0.10479852385E+03 -0.51412818522E+02  0.17128495313E+03  0.20732104592E+03  0.41800000000E+01 0. -1.
         -5    1    3    3    0  502  0.21359699711E+02 -0.39076244518E+02  0.11732558218E+02  0.46241917994E+02  0.41800000000E+01 0. -1.
        -11    1    4    4    0    0  0.19502657892E+02  0.23168254809E+02  0.89291946085E+02  0.94287715697E+02  0.00000000000E+00 0. -1.
         11    1    4    4    0    0  0.63936166252E+02  0.67320808231E+02  0.31249819716E+02  0.97961603744E+02  0.00000000000E+00 0.  1.
</event>
<event>
 8    1  0.3708258E-009  0.1091931E+03  0.7561462E-02  0.1262071E+00
         -2   -1    0    0    0  501 -0.00000000000E+00  0.00000000000E+00  0.33753255973E+02  0.33753255973E+02  0.00000000000E+00 0. -1.
          2   -1    0    0  501    0  0.00000000000E+00 -0.00000000000E+00 -0.38937928405E+03  0.38937928405E+03  0.00000000000E+00 0.  1.
         25    2    1    2    0    0  0.21842968723E+02 -0.66060391042E+01 -0.26076582333E+03  0.29010737884E+03  0.12507086634E+03 0.  0.
         23    2    1    2    0    0 -0.21842968723E+02  0.66060391042E+01 -0.94860204743E+02  0.13302516118E+03  0.90423890798E+02 0.  0.
          5    1    3    3  502    0  0.65507260799E+02 -0.33510353682E+02 -0.17793584029E+03  0.19259486152E+03  0.41800000000E+01 0. -1.
         -5    1    3    3    0  502 -0.43664292076E+02  0.26904314578E+02 -0.82829983037E+02  0.97512517326E+02  0.41800000000E+01 0. -1.
        -11    1    4    4    0    0  0.29418535363E+02 -0.19903174342E+02 -0.37781426546E+02  0.51855788140E+02  0.00000000000E+00 0. -1.
         11    1    4    4    0    0 -0.51261504086E+02  0.26509213446E+02 -0.57078778197E+02  0.81169373037E+02  0.00000000000E+00 0.  1.
</event>
<event>
 8    1  0.3708258E-009  0.1024665E+03  0.7561462E-02  0.1275193E+00
         -1   -1    0    0    0  501 -0.00000000000E+00  0.00000000000E+00  0.62453524082E+03  0.62453524082E+03  0.00000000000E+00 0.  1.
          1   -1    0    0  501    0  0.00000000000E+00 -0.00000000000E+00 -0.33308788954E+02  0.33308788954E+02  0.00000000000E+00 0. -1.
         25    2    1    2    0    0  0.69115140022E+02  0.55134166944E+02  0.41189574268E+03  0.43945798434E+03  0.12509411744E+03 0.  0.
         23    2    1    2    0    0 -0.69115140022E+02 -0.55134166944E+02  0.17933070919E+03  0.21838604543E+03  0.87842373820E+02 0.  0.
          5    1    3    3  502    0  0.36092949268E+02  0.13017403304E+02  0.19195576820E+02  0.43105641685E+02  0.41800000000E+01 0.  1.
         -5    1    3    3    0  502  0.33022190754E+02  0.42116763640E+02  0.39270016586E+03  0.39635234265E+03  0.41800000000E+01 0.  1.
        -11    1    4    4    0    0 -0.41395324509E+02  0.93741541831E+01  0.26076648864E+02  0.49814046953E+02  0.00000000000E+00 0. -1.
         11    1    4    4    0    0 -0.27719815513E+02 -0.64508321127E+02  0.15325406032E+03  0.16857199848E+03  0.00000000000E+00 0.  1.
</event>
<event>
 8    1  0.3708258E-009  0.1279567E+03  0.7561462E-02  0.1230519E+00
          1   -1    0    0  501    0  0.00000000000E+00  0.00000000000E+00  0.63458337226E+03  0.63458337226E+03  0.00000000000E+00 0. -1.
         -1   -1    0    0    0  501 -0.00000000000E+00 -0.00000000000E+00 -0.31091716330E+02  0.31091716330E+02  0.00000000000E+00 0.  1.
         25    2    1    2    0    0  0.65700559402E+02 -0.52976271627E+02  0.26203240192E+03  0.30237627848E+03  0.12508950903E+03 0.  0.
         23    2    1    2    0    0 -0.65700559402E+02  0.52976271627E+02  0.34145925401E+03  0.36329881011E+03  0.90931591965E+02 0.  0.
          5    1    3    3  502    0 -0.37195833976E+02 -0.21725975566E+02  0.75848335006E+02  0.87326916828E+02  0.41800000000E+01 0. -1.
         -5    1    3    3    0  502  0.10289639338E+03 -0.31250296061E+02  0.18618406691E+03  0.21504936165E+03  0.41800000000E+01 0. -1.
        -11    1    4    4    0    0  0.28279336424E+01 -0.10944670078E+02  0.24381855390E+01  0.11564071970E+02  0.00000000000E+00 0.  1.
         11    1    4    4    0    0 -0.68528493045E+02  0.63920941705E+02  0.33902106847E+03  0.35173473814E+03  0.00000000000E+00 0. -1.
</event>
<event>
 8    1  0.3708258E-009  0.1166921E+03  0.7561462E-02  0.1248656E+00
         -1   -1    0    0    0  501 -0.00000000000E+00  0.00000000000E+00  0.12410010923E+02  0.12410010923E+02  0.00000000000E+00 0.  1.
          1   -1    0    0  501    0  0.00000000000E+00 -0.00000000000E+00 -0.11920476565E+04  0.11920476565E+04  0.00000000000E+00 0. -1.
         25    2    1    2    0    0 -0.30443845172E+02 -0.46438846787E+02 -0.71999688534E+03  0.73288843991E+03  0.12508619527E+03 0.  0.
         23    2    1    2    0    0  0.30443845172E+02  0.46438846787E+02 -0.45964076022E+03  0.47156922750E+03  0.89579649870E+02 0.  0.
          5    1    3    3  502    0  0.23232357717E+02  0.33130471391E+02 -0.20125631776E+03  0.20532644354E+03  0.41800000000E+01 0.  1.
         -5    1    3    3    0  502 -0.53676202889E+02 -0.79569318178E+02 -0.51874056759E+03  0.52756199637E+03  0.41800000000E+01 0.  1.
        -11    1    4    4    0    0  0.21962220927E+02 -0.19969918898E+02 -0.67273206683E+02  0.73531089658E+02  0.00000000000E+00 0.  1.
         11    1    4    4    0    0  0.84816242459E+01  0.66408765685E+02 -0.39236755353E+03  0.39803813784E+03  0.00000000000E+00 0. -1.
</event>
<event>
 8    1  0.3708258E-009  0.1753085E+03  0.7561462E-02  0.1172422E+00
         -1   -1    0    0    0  501 -0.00000000000E+00  0.00000000000E+00  0.20591410950E+03  0.20591410950E+03  0.00000000000E+00 0.  1.
          1   -1    0    0  501    0  0.00000000000E+00 -0.00000000000E+00 -0.15394540293E+03  0.15394540293E+03  0.00000000000E+00 0. -1.
         25    2    1    2    0    0 -0.12272632578E+03  0.69555752107E+02  0.50814450815E+02  0.19526722604E+03  0.12508967768E+03 0.  0.
         23    2    1    2    0    0  0.12272632578E+03 -0.69555752107E+02  0.11542557558E+01  0.16459228638E+03  0.84791124179E+02 0.  0.
          5    1    3    3  502    0 -0.80907336224E+02 -0.24450025489E+02  0.32651081787E+02  0.90704830870E+02  0.41800000000E+01 0. -1.
         -5    1    3    3    0  502 -0.41818989559E+02  0.94005777597E+02  0.18163369028E+02  0.10456239517E+03  0.41800000000E+01 0. -1.
        -11    1    4    4    0    0 -0.53940805968E+01  0.10598684920E+02  0.61370198574E+01  0.13382497534E+02  0.00000000000E+00 0. -1.
         11    1    4    4    0    0  0.12812040638E+03 -0.80154437028E+02 -0.49827641016E+01  0.15120978885E+03  0.00000000000E+00 0.  1.
</event>
<event>
 8    1  0.3708258E-009  0.7912306E+02  0.7561462E-02  0.1331559E+00
          2   -1    0    0  501    0  0.00000000000E+00  0.00000000000E+00  0.29458419737E+03  0.29458419737E+03  0.00000000000E+00 0. -1.
         -2   -1    0    0    0  501 -0.00000000000E+00 -0.00000000000E+00 -0.47606344103E+02  0.47606344103E+02  0.00000000000E+00 0.  1.
         25    2    1    2    0    0 -0.29071906184E+02 -0.15407343692E+02  0.88199052267E+02  0.15655376184E+03  0.12508975001E+03 0.  0.
         23    2    1    2    0    0  0.29071906184E+02  0.15407343692E+02  0.15877880100E+03  0.18563677963E+03  0.90375573778E+02 0.  0.
          5    1    3    3  502    0  0.17597699741E+02 -0.17884819053E+02  0.10398244245E+03  0.10704843075E+03  0.41800000000E+01 0.  1.
         -5    1    3    3    0  502 -0.46669605924E+02  0.24774753614E+01 -0.15783390178E+02  0.49505331095E+02  0.41800000000E+01 0.  1.
        -11    1    4    4    0    0  0.15504112573E+02 -0.32546880070E+02  0.11056942797E+03  0.11629821714E+03  0.00000000000E+00 0. -1.
         11    1    4    4    0    0  0.13567793610E+02  0.47954223761E+02  0.48209373035E+02  0.69338562492E+02  0.00000000000E+00 0.  1.
</event>
<event>
 8    1  0.3708258E-009  0.6845779E+02  0.7561462E-02  0.1365417E+00
         -2   -1    0    0    0  501 -0.00000000000E+00  0.00000000000E+00  0.10441445075E+02  0.10441445075E+02  0.00000000000E+00 0.  1.
          2   -1    0    0  501    0  0.00000000000E+00 -0.00000000000E+00 -0.13172222317E+04  0.13172222317E+04  0.00000000000E+00 0. -1.
         25    2    1    2    0    0 -0.32295177290E+01 -0.40348268842E+02 -0.89956809675E+03  0.90912624903E+03  0.12509741565E+03 0.  0.
         23    2    1    2    0    0  0.32295177290E+01  0.40348268842E+02 -0.40721268990E+03  0.41853742777E+03  0.87823636025E+02 0.  0.
          5    1    3    3  502    0 -0.15211527818E+01 -0.65807831707E+01  0.91795653574E+00  0.79959775592E+01  0.41800000000E+01 0.  1.
         -5    1    3    3    0  502 -0.17083649472E+01 -0.33767485672E+02 -0.90048605328E+03  0.90113027147E+03  0.41800000000E+01 0.  1.
        -11    1    4    4    0    0 -0.30373179554E+02 -0.12034281118E+02 -0.10427159043E+03  0.10926993424E+03  0.00000000000E+00 0. -1.
         11    1    4    4    0    0  0.33602697283E+02  0.52382549960E+02 -0.30294109947E+03  0.30926749352E+03  0.00000000000E+00 0.  1.
</event>
<event>
 8    1  0.3708258E-009  0.1212970E+03  0.7561462E-02  0.1240973E+00
         -1   -1    0    0    0  501 -0.00000000000E+00  0.00000000000E+00  0.13194415066E+03  0.13194415066E+03  0.00000000000E+00 0.  1.
          1   -1    0    0  501    0  0.00000000000E+00 -0.00000000000E+00 -0.15755017381E+03  0.15755017381E+03  0.00000000000E+00 0. -1.
         25    2    1    2    0    0  0.43589455933E+02  0.59784797242E+02 -0.73887110880E+02  0.16303825091E+03  0.12509158028E+03 0.  0.
         23    2    1    2    0    0 -0.43589455933E+02 -0.59784797242E+02  0.48281087731E+02  0.12645607356E+03  0.90475479871E+02 0.  0.
          5    1    3    3  502    0  0.86957129251E+02  0.33223669589E+02 -0.57269936818E+02  0.10937400336E+03  0.41800000000E+01 0.  1.
         -5    1    3    3    0  502 -0.43367673319E+02  0.26561127654E+02 -0.16617174062E+02  0.53664247550E+02  0.41800000000E+01 0.  1.
        -11    1    4    4    0    0 -0.25848882763E+02 -0.72229403959E+02  0.63819572173E+02  0.99790727669E+02  0.00000000000E+00 0.  1.
         11    1    4    4    0    0 -0.17740573170E+02  0.12444606717E+02 -0.15538484442E+02  0.26665345891E+02  0.00000000000E+00 0. -1.
</event>
<event>
 8    1  0.3708258E-009  0.1089069E+03  0.7561462E-02  0.1262608E+00
          2   -1    0    0  501    0  0.00000000000E+00  0.00000000000E+00  0.12090684546E+04  0.12090684546E+04  0.00000000000E+00 0. -1.
         -2   -1    0    0    0  501 -0.00000000000E+00 -0.00000000000E+00 -0.13664656226E+02  0.13664656226E+02  0.00000000000E+00 0.  1.
         25    2    1    2    0    0  0.25029364768E+02  0.16997813102E+01  0.95603074236E+03  0.96450594959E+03  0.12509031973E+03 0.  0.
         23    2    1    2    0    0 -0.25029364768E+02 -0.16997813102E+01  0.23937305604E+03  0.25822716126E+03  0.93554521539E+02 0.  0.
          5    1    3    3  502    0  0.69175105421E+02  0.21990980245E+02  0.70824640056E+03  0.71196856301E+03  0.41800000000E+01 0. -1.
         -5    1    3    3    0  502 -0.44145740653E+02 -0.20291198935E+02  0.24778434181E+03  0.25253738657E+03  0.41800000000E+01 0. -1.
        -11    1    4    4    0    0 -0.18056459625E+02  0.45332094950E+02  0.13455570759E+03  0.14313026588E+03  0.00000000000E+00 0.  1.
         11    1    4    4    0    0 -0.69729051428E+01 -0.47031876260E+02  0.10481734845E+03  0.11509689538E+03  0.00000000000E+00 0. -1.
</event>
<event>
 8    1  0.3708258E-009  0.2376924E+03  0.7561462E-02  0.1121340E+00
          1   -1    0    0  501    0  0.00000000000E+00  0.00000000000E+00  0.10181623653E+04  0.10181623653E+04  0.00000000000E+00 0. -1.
         -1   -1    0    0    0  501 -0.00000000000E+00 -0.00000000000E+00 -0.58552245869E+02  0.58552245869E+02  0.00000000000E+00 0.  1.
         25    2    1    2    0    0  0.21791237424E+03  0.17954003356E+01  0.53045872135E+03  0.58696082438E+03  0.12509007951E+03 0.  0.
         23    2    1    2    0    0 -0.21791237424E+03 -0.17954003356E+01  0.42915139805E+03  0.48975378676E+03  0.90547351608E+02 0.  0.
          5    1    3    3  502    0  0.18696179759E+03  0.38937261389E+02  0.33564564593E+03  0.38619463502E+03  0.41800000000E+01 0.  1.
         -5    1    3    3    0  502  0.30950576651E+02 -0.37141861054E+02  0.19481307542E+03  0.20076618936E+03  0.41800000000E+01 0.  1.
        -11    1    4    4    0    0 -0.91355323462E+02  0.43807202909E+02  0.17591319571E+03  0.20300324770E+03  0.00000000000E+00 0.  1.
         11    1    4    4    0    0 -0.12655705078E+03 -0.45602603245E+02  0.25323820234E+03  0.28675053905E+03  0.00000000000E+00 0. -1.
</event>
<event>
 8    1  0.3708258E-009  0.9664807E+02  0.7561462E-02  0.1287507E+00
          1   -1    0    0  501    0  0.00000000000E+00  0.00000000000E+00  0.12394694056E+03  0.12394694056E+03  0.00000000000E+00 0. -1.
         -1   -1    0    0    0  501 -0.00000000000E+00 -0.00000000000E+00 -0.14009058208E+03  0.14009058208E+03  0.00000000000E+00 0.  1.
         25    2    1    2    0    0  0.20065180958E+02  0.32555683628E+02 -0.74706295699E+02  0.15063447936E+03  0.12508889531E+03 0.  0.
         23    2    1    2    0    0 -0.20065180958E+02 -0.32555683628E+02  0.58562654171E+02  0.11340304328E+03  0.89264672402E+02 0.  0.
          5    1    3    3  502    0 -0.10987043726E+02  0.61940665426E+02 -0.85606859676E+02  0.10631729862E+03  0.41800000000E+01 0. -1.
         -5    1    3    3    0  502  0.31052224684E+02 -0.29384981798E+02  0.10900563977E+02  0.44317180733E+02  0.41800000000E+01 0. -1.
        -11    1    4    4    0    0 -0.46524874230E+02 -0.15742367364E+01  0.55654608350E+02  0.72556719703E+02  0.00000000000E+00 0. -1.
         11    1    4    4    0    0  0.26459693272E+02 -0.30981446892E+02  0.29080458214E+01  0.40846323581E+02  0.00000000000E+00 0.  1.
</event>
<event>
 8    1  0.3708258E-009  0.1726161E+03  0.7561462E-02  0.1175147E+00
          4   -1    0    0  501    0  0.00000000000E+00  0.00000000000E+00  0.21185944184E+03  0.21185944184E+03  0.00000000000E+00 0.  1.
         -4   -1    0    0    0  501 -0.00000000000E+00 -0.00000000000E+00 -0.16439286502E+03  0.16439286502E+03  0.00000000000E+00 0. -1.
         25    2    1    2    0    0  0.13633523964E+03  0.65421778432E+02  0.13010907613E+02  0.19668170100E+03  0.12508837328E+03 0.  0.
         23    2    1    2    0    0 -0.13633523964E+03 -0.65421778432E+02  0.34455669203E+02  0.17957060586E+03  0.90504710862E+02 0.  0.
          5    1    3    3  502    0  0.62075063429E+02  0.93014575708E+02  0.29342686799E+02  0.11568703671E+03  0.41800000000E+01 0. -1.
         -5    1    3    3    0  502  0.74260176209E+02 -0.27592797275E+02 -0.16331779186E+02  0.80994664290E+02  0.41800000000E+01 0. -1.
        -11    1    4    4    0    0 -0.52663833040E+02 -0.41275171202E+02 -0.27866130034E+02  0.72481999636E+02  0.00000000000E+00 0.  1.
         11    1    4    4    0    0 -0.83671406597E+02 -0.24146607230E+02  0.62321799236E+02  0.10708860622E+03  0.00000000000E+00 0. -1.
</event>
<event>
 8    1  0.3708258E-009  0.1611532E+03  0.7561462E-02  0.1187401E+00
         -1   -1    0    0    0  501 -0.00000000000E+00  0.00000000000E+00  0.29345087941E+02  0.29345087941E+02  0.00000000000E+00 0.  1.
          1   -1    0    0  501    0  0.00000000000E+00 -0.00000000000E+00 -0.12605345009E+04  0.12605345009E+04  0.00000000000E+00 0. -1.
         25    2    1    2    0    0  0.91195260867E+02 -0.11274516274E+03 -0.85976057440E+03  0.88083208860E+03  0.12509546630E+03 0.  0.
         23    2    1    2    0    0 -0.91195260867E+02  0.11274516274E+03 -0.37142883854E+03  0.40904750022E+03  0.91282134138E+02 0.  0.
          5    1    3    3  502    0  0.84253816247E+02 -0.23503681685E+02 -0.25848380964E+03  0.27291478679E+03  0.41800000000E+01 0.  1.
         -5    1    3    3    0  502  0.69414446199E+01 -0.89241481053E+02 -0.60127676476E+03  0.60791730180E+03  0.41800000000E+01 0.  1.
        -11    1    4    4    0    0 -0.43714124029E+02  0.49434399306E+02 -0.28205838545E+03  0.28967502011E+03  0.00000000000E+00 0. -1.
         11    1    4    4    0    0 -0.47481136838E+02  0.63310763432E+02 -0.89370453087E+02  0.11937248011E+03  0.00000000000E+00 0.  1.
</event>
<event>
 8    1  0.3708258E-009  0.1183303E+03  0.7561462E-02  0.1245877E+00
          2   -1    0    0  501    0  0.00000000000E+00  0.00000000000E+00  0.32154437063E+03  0.32154437063E+03  0.00000000000E+00 0. -1.
         -2   -1    0    0    0  501 -0.00000000000E+00 -0.00000000000E+00 -0.70965976730E+02  0.70965976730E+02  0.00000000000E+00 0.  1.
         25    2    1    2    0    0 -0.67748054774E+01 -0.10178271976E+03  0.10762225142E+03  0.19399775327E+03  0.12508780613E+03 0.  0.
         23    2    1    2    0    0  0.67748054774E+01  0.10178271976E+03  0.14295614249E+03  0.19851259409E+03  0.92548210723E+02 0.  0.
          5    1    3    3  502    0  0.19848341003E+01 -0.10829077058E+03  0.12969410469E+03  0.16902326393E+03  0.41800000000E+01 0. -1.
         -5    1    3    3    0  502 -0.87596395778E+01  0.65080508212E+01 -0.22071853269E+02  0.24974489339E+02  0.41800000000E+01 0. -1.
        -11    1    4    4    0    0 -0.19210977911E+02  0.81182181507E+02  0.44351007469E+02  0.94480792386E+02  0.00000000000E+00 0.  1.
         11    1    4    4    0    0  0.25985783388E+02  0.20600538255E+02  0.98605135016E+02  0.10403180171E+03  0.00000000000E+00 0. -1.
</event>
<event>
 8    1  0.3708258E-009  0.1200289E+03  0.7561462E-02  0.1243049E+00
          1   -1    0    0  501    0  0.00000000000E+00  0.00000000000E+00  0.40145787304E+03  0.40145787304E+03  0.00000000000E+00 0. -1.
         -1   -1    0    0    0  501 -0.00000000000E+00 -0.00000000000E+00 -0.65573278414E+02  0.65573278414E+02  0.00000000000E+00 0.  1.
         25    2    1    2    0    0  0.45379416518E+02  0.93035937857E+02  0.92574942479E+02  0.18690470756E+03  0.12509305559E+03 0.  0.
         23    2    1    2    0    0 -0.45379416518E+02 -0.93035937857E+02  0.24330965215E+03  0.28012644390E+03  0.92500057114E+02 0.  0.
          5    1    3    3  502    0  0.35356199428E+02  0.71781953777E+02  0.12388260556E+03  0.14753671437E+03  0.41800000000E+01 0.  1.
         -5    1    3    3    0  502  0.10023217090E+02  0.21253984080E+02 -0.31307663082E+02  0.39367993189E+02  0.41800000000E+01 0.  1.
        -11    1    4    4    0    0 -0.22435539831E+02 -0.10691856040E+03  0.21480555772E+03  0.24099037249E+03  0.00000000000E+00 0. -1.
         11    1    4    4    0    0 -0.22943876687E+02  0.13882622541E+02  0.28504094422E+02  0.39136071403E+02  0.00000000000E+00 0.  1.
</event>
<event>
 8    1  0.3708258E-009  0.9112328E+02  0.7561462E-02  0.1300154E+00
          1   -1    0    0  501    0  0.00000000000E+00  0.00000000000E+00  0.44130510604E+02  0.44130510604E+02  0.00000000000E+00 0. -1.
         -1   -1    0    0    0  501 -0.00000000000E+00 -0.00000000000E+00 -0.32399237749E+03  0.32399237749E+03  0.00000000000E+00 0.  1.
         25    2    1    2    0    0 -0.31249907339E+02 -0.11709659811E+02 -0.21843231042E+03  0.25391689513E+03  0.12508973802E+03 0.  0.
         23    2    1    2    0    0  0.31249907339E+02  0.11709659811E+02 -0.61429556466E+02  0.11420599296E+03  0.90309166637E+02 0.  0.
          5    1    3    3  502    0 -0.14428610835E+02 -0.46604143483E+02 -0.20785478681E+03  0.21354441177E+03  0.41800000000E+01 0. -1.
         -5    1    3    3    0  502 -0.16821296504E+02  0.34894483672E+02 -0.10577523608E+02  0.40372483358E+02  0.41800000000E+01 0. -1.
        -11    1    4    4    0    0  0.17132024474E+02 -0.38512031400E+02 -0.16186166650E+02  0.45151686746E+02  0.00000000000E+00 0. -1.
         11    1    4    4    0    0  0.14117882865E+02  0.50221691211E+02 -0.45243389816E+02  0.69054306214E+02  0.00000000000E+00 0.  1.
</event>
<event>
 8    1  0.3708258E-009  0.9905657E+02  0.7561462E-02  0.1282292E+00
         -1   -1    0    0    0  501 -0.00000000000E+00  0.00000000000E+00  0.38020811024E+02  0.38020811024E+02  0.00000000000E+00 0.  1.
          1   -1    0    0  501    0  0.00000000000E+00 -0.00000000000E+00 -0.43814578227E+03  0.43814578227E+03  0.00000000000E+00 0. -1.
         25    2    1    2    0    0  0.85204470791E+01 -0.12481951889E+02 -0.35147605517E+03  0.37337699787E+03  0.12508624239E+03 0.  0.
         23    2    1    2    0    0 -0.85204470791E+01  0.12481951889E+02 -0.48648916073E+02  0.10278959543E+03  0.89278142631E+02 0.  0.
          5    1    3    3  502    0 -0.24235045194E+02 -0.53939705453E+02 -0.98952059987E+02  0.11535082061E+03  0.41800000000E+01 0.  1.
         -5    1    3    3    0  502  0.32755492273E+02  0.41457753563E+02 -0.25252399519E+03  0.25802617726E+03  0.41800000000E+01 0.  1.
        -11    1    4    4    0    0  0.26781040119E+02 -0.23349284358E+02 -0.44094768266E+01  0.35803026070E+02  0.00000000000E+00 0.  1.
         11    1    4    4    0    0 -0.35301487198E+02  0.35831236247E+02 -0.44239439246E+02  0.66986569357E+02  0.00000000000E+00 0. -1.
</event>
<event>
 8    1  0.3708258E-009  0.1205976E+03  0.7561462E-02  0.1242114E+00
         -1   -1    0    0    0  501 -0.00000000000E+00  0.00000000000E+00  0.12352031195E+03  0.12352031195E+03  0.00000000000E+00 0. -1.
          1   -1    0    0  501    0  0.00000000000E+00 -0.00000000000E+00 -0.30369571950E+03  0.30369571950E+03  0.00000000000E+00 0.  1.
         25    2    1    2    0    0  0.71988415830E+02  0.65971938588E+02 -0.23388108251E+03  0.28263726552E+03  0.12509530130E+03 0.  0.
         23    2    1    2    0    0 -0.71988415830E+02 -0.65971938588E+02  0.53705674961E+02  0.14457876593E+03  0.92109127339E+02 0.  0.
          5    1    3    3  502    0  0.27546928570E+02 -0.62611520929E-01 -0.18924240932E+03  0.19128251117E+03  0.41800000000E+01 0.  1.
         -5    1    3    3    0  502  0.44441487261E+02  0.66034550109E+02 -0.44638673192E+02  0.91354754350E+02  0.41800000000E+01 0.  1.
        -11    1    4    4    0    0  0.15245400020E+02  0.97633113944E+01  0.27281321841E+01  0.18308117773E+02  0.00000000000E+00 0.  1.
         11    1    4    4    0    0 -0.87233815851E+02 -0.75735249983E+02  0.50977542777E+02  0.12627064815E+03  0.00000000000E+00 0. -1.
</event>
<event>
 8    1  0.3708258E-009  0.1222561E+03  0.7561462E-02  0.1239421E+00
          1   -1    0    0  501    0  0.00000000000E+00  0.00000000000E+00  0.19779175751E+03  0.19779175751E+03  0.00000000000E+00 0. -1.
         -1   -1    0    0    0  501 -0.00000000000E+00 -0.00000000000E+00 -0.87924846655E+02  0.87924846655E+02  0.00000000000E+00 0.  1.
         25    2    1    2    0    0  0.29275331411E+02  0.63769322998E+02  0.88966729480E+02  0.16877857870E+03  0.12509019981E+03 0.  0.
         23    2    1    2    0    0 -0.29275331411E+02 -0.63769322998E+02  0.20900181377E+02  0.11693802547E+03  0.91181756034E+02 0.  0.
          5    1    3    3  502    0 -0.47274047401E+02  0.42885521361E+02  0.38995304591E+02  0.74914015245E+02  0.41800000000E+01 0. -1.
         -5    1    3    3    0  502  0.76549378812E+02  0.20883801638E+02  0.49971424888E+02  0.93864563456E+02  0.41800000000E+01 0. -1.
        -11    1    4    4    0    0  0.24193952782E+02 -0.26684034552E+02  0.35146340537E+02  0.50325443906E+02  0.00000000000E+00 0. -1.
         11    1    4    4    0    0 -0.53469284193E+02 -0.37085288446E+02 -0.14246159160E+02  0.66612581560E+02  0.00000000000E+00 0.  1.
</event>
<event>
 8    1  0.3708258E-009  0.1505788E+03  0.7561462E-02  0.1199764E+00
          1   -1    0    0  501    0  0.00000000000E+00  0.00000000000E+00  0.55867517871E+03  0.55867517871E+03  0.00000000000E+00 0. -1.
         -1   -1    0    0    0  501 -0.00000000000E+00 -0.00000000000E+00 -0.56540740529E+02  0.56540740529E+02  0.00000000000E+00 0.  1.
         25    2    1    2    0    0  0.11541744744E+03 -0.59043737635E+02  0.17931395970E+03  0.25418009110E+03  0.12508665971E+03 0.  0.
         23    2    1    2    0    0 -0.11541744744E+03  0.59043737635E+02  0.32282047848E+03  0.36103582814E+03  0.96573587231E+02 0.  0.
          5    1    3    3  502    0  0.88108440039E+02 -0.84869531019E+02  0.17839326525E+03  0.21635055809E+03  0.41800000000E+01 0. -1.
         -5    1    3    3    0  502  0.27309007398E+02  0.25825793384E+02  0.92069445635E+00  0.37829533004E+02  0.41800000000E+01 0. -1.
        -11    1    4    4    0    0 -0.25080146265E+02 -0.10235660844E+02  0.11274308936E+02  0.29340970188E+02  0.00000000000E+00 0.  1.
         11    1    4    4    0    0 -0.90337301173E+02  0.69279398480E+02  0.31154616954E+03  0.33169485795E+03  0.00000000000E+00 0. -1.
</event>
<event>
 8    1  0.3708258E-009  0.1000090E+03  0.7561462E-02  0.1280277E+00
         -2   -1    0    0    0  501 -0.00000000000E+00  0.00000000000E+00  0.49409666056E+03  0.49409666056E+03  0.00000000000E+00 0.  1.
          2   -1    0    0  501    0  0.00000000000E+00 -0.00000000000E+00 -0.24293564285E+02  0.24293564285E+02  0.00000000000E+00 0. -1.
         25    2    1    2    0    0  0.16186930958E+02 -0.16167448017E+02  0.25419840012E+03  0.28423133044E+03  0.12508884632E+03 0.  0.
         23    2    1    2    0    0 -0.16186930958E+02  0.16167448017E+02  0.21560469616E+03  0.23415889441E+03  0.88439808423E+02 0.  0.
          5    1    3    3  502    0  0.44233274761E+01  0.46931294082E+02  0.17960546063E+03  0.18573558108E+03  0.41800000000E+01 0. -1.
         -5    1    3    3    0  502  0.11763603482E+02 -0.63098742099E+02  0.74592939487E+02  0.98495749364E+02  0.41800000000E+01 0. -1.
        -11    1    4    4    0    0 -0.41102461361E+02 -0.18992866710E+02  0.80648972547E+02  0.92489989127E+02  0.00000000000E+00 0. -1.
         11    1    4    4    0    0  0.24915530404E+02  0.35160314727E+02  0.13495572361E+03  0.14166890528E+03  0.00000000000E+00 0.  1.
</event>
<event>
 8    1  0.3708258E-009  0.1073315E+03  0.7561462E-02  0.1265593E+00
          1   -1    0    0  501    0  0.00000000000E+00  0.00000000000E+00  0.11238597410E+03  0.11238597410E+03  0.00000000000E+00 0. -1.
         -1   -1    0    0    0  501 -0.00000000000E+00 -0.00000000000E+00 -0.12306152018E+03  0.12306152018E+03  0.00000000000E+00 0.  1.
         25    2    1    2    0    0  0.29476159378E+02 -0.40084704769E+01 -0.39540206142E+02  0.13452007849E+03  0.12508921539E+03 0.  0.
         23    2    1    2    0    0 -0.29476159378E+02  0.40084704769E+01  0.28864660064E+02  0.10092741579E+03  0.92023164752E+02 0.  0.
          5    1    3    3  502    0 -0.45509551776E+02 -0.55942915936E+01 -0.37487123237E+02  0.59373160686E+02  0.41800000000E+01 0. -1.
         -5    1    3    3    0  502  0.74985711154E+02  0.15858211167E+01 -0.20530829050E+01  0.75146917803E+02  0.41800000000E+01 0. -1.
        -11    1    4    4    0    0 -0.54533313251E+02 -0.20682560750E+02  0.52529888720E+01  0.58559751240E+02  0.00000000000E+00 0.  1.
         11    1    4    4    0    0  0.25057153872E+02  0.24691031227E+02  0.23611671192E+02  0.42367664553E+02  0.00000000000E+00 0. -1.
</event>
<event>
 8    1  0.3708258E-009  0.1603481E+03  0.7561462E-02  0.1188304E+00
         -2   -1    0    0    0  501 -0.00000000000E+00  0.00000000000E+00  0.36886029941E+03  0.36886029941E+03  0.00000000000E+00 0.  1.
          2   -1    0    0  501    0  0.00000000000E+00 -0.00000000000E+00 -0.89152418783E+02  0.89152418783E+02  0.00000000000E+00 0. -1.
         25    2    1    2    0    0  0.96891365909E+02 -0.10316232562E+03  0.13859676590E+03  0.23427826647E+03  0.12508733112E+03 0.  0.
         23    2    1    2    0    0 -0.96891365909E+02  0.10316232562E+03  0.14111111473E+03  0.22373445172E+03  0.10057015449E+03 0.  0.
          5    1    3    3  502    0 -0.74120749473E+01 -0.14687843885E+02 -0.19057859877E+02  0.25521481855E+02  0.41800000000E+01 0. -1.
         -5    1    3    3    0  502  0.10430344086E+03 -0.88474481735E+02  0.15765462577E+03  0.20875678461E+03  0.41800000000E+01 0. -1.
        -11    1    4    4    0    0 -0.93052205591E+02  0.36253042112E+02  0.53079772631E+02  0.11309490833E+03  0.00000000000E+00 0. -1.
         11    1    4    4    0    0 -0.38391603179E+01  0.66909283507E+02  0.88031342095E+02  0.11063954339E+03  0.00000000000E+00 0.  1.
</event>
<event>
 8    1  0.3708258E-009  0.7546413E+02  0.7561462E-02  0.1342440E+00
          3   -1    0    0  501    0  0.00000000000E+00  0.00000000000E+00  0.28183932655E+03  0.28183932655E+03  0.00000000000E+00 0. -1.
         -3   -1    0    0    0  501 -0.00000000000E+00 -0.00000000000E+00 -0.55318922313E+02  0.55318922313E+02  0.00000000000E+00 0.  1.
         25    2    1    2    0    0  0.22021656792E+02  0.20205075966E+02  0.19687716696E+03  0.23516265923E+03  0.12509060301E+03 0.  0.
         23    2    1    2    0    0 -0.22021656792E+02 -0.20205075966E+02  0.29643237277E+02  0.10199558964E+03  0.92904145904E+02 0.  0.
          5    1    3    3  502    0 -0.27115102156E+02  0.31262750749E+02  0.17537486785E+03  0.18023985414E+03  0.41800000000E+01 0.  1.
         -5    1    3    3    0  502  0.49136758948E+02 -0.11057674783E+02  0.21502299119E+02  0.54922805090E+02  0.41800000000E+01 0.  1.
        -11    1    4    4    0    0 -0.33326563173E+01  0.16912859380E+02  0.52016420677E+02  0.54798352444E+02  0.00000000000E+00 0. -1.
         11    1    4    4    0    0 -0.18689000474E+02 -0.37117935346E+02 -0.22373183399E+02  0.47197237192E+02  0.00000000000E+00 0.  1.
</event>
<event>
 8    1  0.3708258E-009  0.9751956E+02  0.7561462E-02  0.1285600E+00
          3   -1    0    0  501    0  0.00000000000E+00  0.00000000000E+00  0.29267987131E+03  0.29267987131E+03  0.00000000000E+00 0. -1.
         -3   -1    0    0    0  501 -0.00000000000E+00 -0.00000000000E+00 -0.57502436219E+02  0.57502436219E+02  0.00000000000E+00 0.  1.
         25    2    1    2    0    0  0.49442430332E+02  0.43290728568E+02  0.16630540530E+03  0.21822848837E+03  0.12509014433E+03 0.  0.
         23    2    1    2    0    0 -0.49442430332E+02 -0.43290728568E+02  0.68872029791E+02  0.13195381916E+03  0.91377310123E+02 0.  0.
          5    1    3    3  502    0  0.31647157832E+02 -0.36691495527E+01 -0.10951933269E+02  0.33947348934E+02  0.41800000000E+01 0. -1.
         -5    1    3    3    0  502  0.17795272500E+02  0.46959878120E+02  0.17725733857E+03  0.18428113944E+03  0.41800000000E+01 0. -1.
        -11    1    4    4    0    0  0.23971148789E+02 -0.29169297225E+02  0.21467802204E+02  0.43431905397E+02  0.00000000000E+00 0.  1.
         11    1    4    4    0    0 -0.73413579121E+02 -0.14121431342E+02  0.47404227587E+02  0.88521913759E+02  0.00000000000E+00 0. -1.
</event>
<event>
 8    1  0.3708258E-009  0.1051309E+03  0.7561462E-02  0.1269862E+00
          1   -1    0    0  501    0  0.00000000000E+00  0.00000000000E+00  0.16623635571E+03  0.16623635571E+03  0.00000000000E+00 0. -1.
         -1   -1    0    0    0  501 -0.00000000000E+00 -0.00000000000E+00 -0.81404032652E+02  0.81404032652E+02  0.00000000000E+00 0.  1.
         25    2    1    2    0    0 -0.38702415406E+02 -0.15558847049E+02  0.63627672436E+02  0.14640903555E+03  0.12508864981E+03 0.  0.
         23    2    1    2    0    0  0.38702415406E+02  0.15558847049E+02  0.21204650618E+02  0.10123135281E+03  0.89767449024E+02 0.  0.
          5    1    3    3  502    0 -0.70059932317E+02  0.97089751570E+01 -0.16476026170E+00  0.70853072346E+02  0.41800000000E+01 0.  1.
         -5    1    3    3    0  502  0.31357516912E+02 -0.25267822206E+02  0.63792432697E+02  0.75555963202E+02  0.41800000000E+01 0.  1.
        -11    1    4    4    0    0 -0.15273331830E+02 -0.26437649154E+02  0.82319734804E+01  0.31622608137E+02  0.00000000000E+00 0. -1.
         11    1    4    4    0    0  0.53975747235E+02  0.41996496204E+02  0.12972677138E+02  0.69608744674E+02  0.00000000000E+00 0.  1.
</event>
<event>
 8    1  0.3708258E-009  0.1673838E+03  0.7561462E-02  0.1180604E+00
         -1   -1    0    0    0  501 -0.00000000000E+00  0.00000000000E+00  0.27081555349E+03  0.27081555349E+03  0.00000000000E+00 0.  1.
          1   -1    0    0  501    0  0.00000000000E+00 -0.00000000000E+00 -0.15971623636E+03  0.15971623636E+03  0.00000000000E+00 0. -1.
         25    2    1    2    0    0  0.12470649227E+03 -0.67158679383E+02  0.16749213877E+03  0.25251463581E+03  0.12509207536E+03 0.  0.
         23    2    1    2    0    0 -0.12470649227E+03  0.67158679383E+02 -0.56392821643E+02  0.17801715404E+03  0.91912781318E+02 0.  0.
          5    1    3    3  502    0 -0.12377375987E+02  0.19936738655E+02  0.88063192251E+01  0.25410561639E+02  0.41800000000E+01 0. -1.
         -5    1    3    3    0  502  0.13708386826E+03 -0.87095418038E+02  0.15868581955E+03  0.22710407417E+03  0.41800000000E+01 0. -1.
        -11    1    4    4    0    0 -0.10630003969E+03  0.73231959456E+02 -0.12076373228E+02  0.12964743389E+03  0.00000000000E+00 0.  1.
         11    1    4    4    0    0 -0.18406452579E+02 -0.60732800726E+01 -0.44316448415E+02  0.48369720151E+02  0.00000000000E+00 0. -1.
</event>
<event>
 8    1  0.3708258E-009  0.9128886E+02  0.7561462E-02  0.1299760E+00
          2   -1    0    0  501    0  0.00000000000E+00  0.00000000000E+00  0.38992103582E+03  0.38992103582E+03  0.00000000000E+00 0. -1.
         -2   -1    0    0    0  501 -0.00000000000E+00 -0.00000000000E+00 -0.38432074392E+02  0.38432074392E+02  0.00000000000E+00 0.  1.
         25    2    1    2    0    0 -0.31000954842E+02 -0.45582305093E+02  0.17543808072E+03  0.22240824148E+03  0.12509236577E+03 0.  0.
         23    2    1    2    0    0  0.31000954842E+02  0.45582305093E+02  0.17605088071E+03  0.20594486873E+03  0.91545456569E+02 0.  0.
          5    1    3    3  502    0 -0.61118056539E+02 -0.49038697681E+02  0.17501710771E+03  0.19180373066E+03  0.41800000000E+01 0. -1.
         -5    1    3    3    0  502  0.30117101697E+02  0.34563925877E+01  0.42097301103E+00  0.30604510822E+02  0.41800000000E+01 0. -1.
        -11    1    4    4    0    0  0.35856692000E+02  0.94948263044E+01  0.16315146764E+03  0.16731483940E+03  0.00000000000E+00 0. -1.
         11    1    4    4    0    0 -0.48557371577E+01  0.36087478788E+02  0.12899413062E+02  0.38630029329E+02  0.00000000000E+00 0.  1.
</event>
<event>
 8    1  0.3708258E-009  0.5803217E+02  0.7561462E-02  0.1406280E+00
          2   -1    0    0  501    0  0.00000000000E+00  0.00000000000E+00  0.97061763314E+03  0.97061763314E+03  0.00000000000E+00 0. -1.
         -2   -1    0    0    0  501 -0.00000000000E+00 -0.00000000000E+00 -0.17902818365E+02  0.17902818365E+02  0.00000000000E+00 0.  1.
         25    2    1    2    0    0  0.42942030310E+02  0.19871739082E+02  0.74545109042E+03  0.75735313118E+03  0.12509010001E+03 0.  0.
         23    2    1    2    0    0 -0.42942030310E+02 -0.19871739082E+02  0.20726372436E+03  0.23116732033E+03  0.90780915236E+02 0.  0.
          5    1    3    3  502    0  0.13903055452E+02  0.24718364580E+02  0.30771984630E+02  0.42055676626E+02  0.41800000000E+01 0. -1.
         -5    1    3    3    0  502  0.29038974858E+02 -0.48466254982E+01  0.71467910579E+03  0.71529745455E+03  0.41800000000E+01 0. -1.
        -11    1    4    4    0    0 -0.10695245813E+02  0.93037620937E+01 -0.45871195465E+01  0.14899326758E+02  0.00000000000E+00 0.  1.
         11    1    4    4    0    0 -0.32246784496E+02 -0.29175501176E+02  0.21185084391E+03  0.21626799357E+03  0.00000000000E+00 0. -1.
</event>
<event>
 8    1  0.3708258E-009  0.1347248E+03  0.7561462E-02  0.1220609E+00
          2   -1    0    0  501    0  0.00000000000E+00  0.00000000000E+00  0.47787892341E+03  0.47787892341E+03  0.00000000000E+00 0. -1.
         -2   -1    0    0    0  501 -0.00000000000E+00 -0.00000000000E+00 -0.40628756316E+02  0.40628756316E+02  0.00000000000E+00 0.  1.
         25    2    1    2    0    0  0.57615459171E+02 -0.56604886342E+02  0.17802273827E+03  0.23208499569E+03  0.12509074942E+03 0.  0.
         23    2    1    2    0    0 -0.57615459171E+02  0.56604886342E+02  0.25922742883E+03  0.28642268404E+03  0.91189033237E+02 0.  0.
          5    1    3    3  502    0  0.20842216080E+02  0.39741129648E+02  0.64149743339E+02  0.78399090092E+02  0.41800000000E+01 0.  1.
         -5    1    3    3    0  502  0.36773243092E+02 -0.96346015990E+02  0.11387299493E+03  0.15368590560E+03  0.41800000000E+01 0.  1.
        -11    1    4    4    0    0 -0.57988083344E+02 -0.62414843489E+01  0.11011365427E+03  0.12460574141E+03  0.00000000000E+00 0.  1.
         11    1    4    4    0    0  0.37262417257E+00  0.62846370691E+02  0.14911377456E+03  0.16181694263E+03  0.00000000000E+00 0. -1.
</event>
<event>
 8    1  0.3708258E-009  0.7638122E+02  0.7561462E-02  0.1339646E+00
         -3   -1    0    0    0  501 -0.00000000000E+00  0.00000000000E+00  0.55840801738E+02  0.55840801738E+02  0.00000000000E+00 0.  1.
          3   -1    0    0  501    0  0.00000000000E+00 -0.00000000000E+00 -0.27899504772E+03  0.27899504772E+03  0.00000000000E+00 0. -1.
         25    2    1    2    0    0  0.21561367633E+02 -0.45649220434E+02 -0.18276859399E+03  0.22715503504E+03  0.12508519935E+03 0.  0.
         23    2    1    2    0    0 -0.21561367633E+02  0.45649220434E+02 -0.40385651990E+02  0.10768081441E+03  0.86112792347E+02 0.  0.
          5    1    3    3  502    0 -0.64722334835E+01 -0.17766008813E+02  0.15584070623E+02  0.24856720069E+02  0.41800000000E+01 0. -1.
         -5    1    3    3    0  502  0.28033601117E+02 -0.27883211621E+02 -0.19835266461E+03  0.20229831497E+03  0.41800000000E+01 0. -1.
        -11    1    4    4    0    0  0.26530334427E+02  0.35782092218E+02 -0.37964005036E+02  0.58527621229E+02  0.00000000000E+00 0. -1.
         11    1    4    4    0    0 -0.48091702061E+02  0.98671282161E+01 -0.24216469539E+01  0.49153193185E+02  0.00000000000E+00 0.  1.
</event>
<event>
 8    1  0.3708258E-009  0.1065758E+03  0.7561462E-02  0.1267046E+00
         -2   -1    0    0    0  501 -0.00000000000E+00  0.00000000000E+00  0.83497099701E+02  0.83497099701E+02  0.00000000000E+00 0. -1.
          2   -1    0    0  501    0  0.00000000000E+00 -0.00000000000E+00 -0.14782836805E+03  0.14782836805E+03  0.00000000000E+00 0.  1.
         25    2    1    2    0    0  0.19813856511E+02 -0.69737708595E+01 -0.26613653431E+02  0.12960715587E+03  0.12509398832E+03 0.  0.
         23    2    1    2    0    0 -0.19813856511E+02  0.69737708595E+01 -0.37717614922E+02  0.10171831189E+03  0.92101976680E+02 0.  0.
          5    1    3    3  502    0  0.67616121467E+02 -0.23879614813E+02  0.76003292853E+00  0.71834712611E+02  0.41800000000E+01 0.  1.
         -5    1    3    3    0  502 -0.47802264956E+02  0.16905843954E+02 -0.27373686359E+02  0.57772443255E+02  0.41800000000E+01 0.  1.
        -11    1    4    4    0    0  0.17223966245E+02  0.38262384106E+02 -0.32258406333E+02  0.52927118096E+02  0.00000000000E+00 0.  1.
         11    1    4    4    0    0 -0.37037822756E+02 -0.31288613247E+02 -0.54592085887E+01  0.48791193794E+02  0.00000000000E+00 0. -1.
</event>
<event>
 8    1  0.3708258E-009  0.1349858E+03  0.7561462E-02  0.1220240E+00
          2   -1    0    0  501    0  0.00000000000E+00  0.00000000000E+00  0.41087068643E+03  0.41087068643E+03  0.00000000000E+00 0. -1.
         -2   -1    0    0    0  501 -0.00000000000E+00 -0.00000000000E+00 -0.65184098992E+02  0.65184098992E+02  0.00000000000E+00 0.  1.
         25    2    1    2    0    0  0.28066205320E+02  0.10086941503E+03  0.90646423561E+02  0.18661643942E+03  0.12508625259E+03 0.  0.
         23    2    1    2    0    0 -0.28066205320E+02 -0.10086941503E+03  0.25504016388E+03  0.28943834601E+03  0.88128997368E+02 0.  0.
          5    1    3    3  502    0  0.73331077142E+01  0.11012919606E+03  0.19942360746E+02  0.11223807039E+03  0.41800000000E+01 0. -1.
         -5    1    3    3    0  502  0.20733097605E+02 -0.92597810237E+01  0.70704062816E+02  0.74378369030E+02  0.41800000000E+01 0. -1.
        -11    1    4    4    0    0 -0.15529127322E+02 -0.11585587487E+03  0.20995976793E+03  0.24030572546E+03  0.00000000000E+00 0.  1.
         11    1    4    4    0    0 -0.12537077997E+02  0.14986459839E+02  0.45080395948E+02  0.49132620549E+02  0.00000000000E+00 0. -1.
</event>
<event>
 8    1  0.3708258E-009  0.1432631E+03  0.7561462E-02  0.1209004E+00
          1   -1    0    0  501    0  0.00000000000E+00  0.00000000000E+00  0.24368395085E+03  0.24368395085E+03  0.00000000000E+00 0. -1.
         -1   -1    0    0    0  501 -0.00000000000E+00 -0.00000000000E+00 -0.13632361273E+03  0.13632361273E+03  0.00000000000E+00 0.  1.
         25    2    1    2    0    0  0.13269669300E+03  0.37698321709E+02  0.10628063792E+03  0.21440961761E+03  0.12508530823E+03 0.  0.
         23    2    1    2    0    0 -0.13269669300E+03 -0.37698321709E+02  0.10797002037E+01  0.16559794596E+03  0.91607522412E+02 0.  0.
          5    1    3    3  502    0  0.10755131643E+03  0.11716145400E+02  0.68026747791E+01  0.10848180729E+03  0.41800000000E+01 0.  1.
         -5    1    3    3    0  502  0.25145376566E+02  0.25982176309E+02  0.99477963139E+02  0.10592781032E+03  0.41800000000E+01 0.  1.
        -11    1    4    4    0    0 -0.31891510988E+02 -0.24454454781E+02  0.40028102240E+02  0.56721581437E+02  0.00000000000E+00 0. -1.
         11    1    4    4    0    0 -0.10080518201E+03 -0.13243866928E+02 -0.38948402037E+02  0.10887636453E+03  0.00000000000E+00 0.  1.
</event>
<event>
 8    1  0.3708258E-009  0.1285438E+03  0.7561462E-02  0.1229633E+00
          2   -1    0    0  501    0  0.00000000000E+00  0.00000000000E+00  0.36341512395E+03  0.36341512395E+03  0.00000000000E+00 0. -1.
         -2   -1    0    0    0  501 -0.00000000000E+00 -0.00000000000E+00 -0.55089971798E+02  0.55089971798E+02  0.00000000000E+00 0.  1.
         25    2    1    2    0    0 -0.42949962187E+02  0.81363083872E+02  0.13787217004E+03  0.20765877914E+03  0.12509509428E+03 0.  0.
         23    2    1    2    0    0  0.42949962187E+02 -0.81363083872E+02  0.17045298212E+03  0.21084631661E+03  0.83290452323E+02 0.  0.
          5    1    3    3  502    0  0.39052104002E+02  0.26613738079E+01  0.51618955179E+02  0.64916397553E+02  0.41800000000E+01 0.  1.
         -5    1    3    3    0  502 -0.82002066190E+02  0.78701710064E+02  0.86253214858E+02  0.14274238158E+03  0.41800000000E+01 0.  1.
        -11    1    4    4    0    0  0.45463533130E+02 -0.34539155482E+02  0.33749750073E+02  0.66324442976E+02  0.00000000000E+00 0.  1.
         11    1    4    4    0    0 -0.25135709425E+01 -0.46823928390E+02  0.13670323204E+03  0.14452187364E+03  0.00000000000E+00 0. -1.
</event>
<event>
 8    1  0.3708258E-009  0.1344829E+03  0.7561462E-02  0.1220952E+00
         -1   -1    0    0    0  501 -0.00000000000E+00  0.00000000000E+00  0.47370048434E+03  0.47370048434E+03  0.00000000000E+00 0.  1.
          1   -1    0    0  501    0  0.00000000000E+00 -0.00000000000E+00 -0.48375227702E+02  0.48375227702E+02  0.00000000000E+00 0. -1.
         25    2    1    2    0    0 -0.77917475917E+02 -0.68959999644E+02  0.25902700493E+03  0.30589160239E+03  0.12509224006E+03 0.  0.
         23    2    1    2    0    0  0.77917475917E+02  0.68959999644E+02  0.16629825170E+03  0.21618410965E+03  0.90850680470E+02 0.  0.
          5    1    3    3  502    0 -0.73893074320E+01 -0.70774658491E+02  0.20467859918E+03  0.21673591191E+03  0.41800000000E+01 0.  1.
         -5    1    3    3    0  502 -0.70528168485E+02  0.18146588477E+01  0.54348405747E+02  0.89155690473E+02  0.41800000000E+01 0.  1.
        -11    1    4    4    0    0 -0.11917617097E+02 -0.25493053847E+01  0.54785533352E+02  0.56124711312E+02  0.00000000000E+00 0.  1.
         11    1    4    4    0    0  0.89835093014E+02  0.71509305028E+02  0.11151271835E+03  0.16005939834E+03  0.00000000000E+00 0. -1.
</event>
<event>
 8    1  0.3708258E-009  0.1281606E+03  0.7561462E-02  0.1230211E+00
         -1   -1    0    0    0  501 -0.00000000000E+00  0.00000000000E+00  0.90086994728E+02  0.90086994728E+02  0.00000000000E+00 0.  1.
          1   -1    0    0  501    0  0.00000000000E+00 -0.00000000000E+00 -0.20231087387E+03  0.20231087387E+03  0.00000000000E+00 0. -1.
         25    2    1    2    0    0 -0.72908464186E+02 -0.23650948211E+02 -0.81479925801E+02  0.16781395861E+03  0.12509010710E+03 0.  0.
         23    2    1    2    0    0  0.72908464186E+02  0.23650948211E+02 -0.30743953342E+02  0.12458390999E+03  0.93278874671E+02 0.  0.
          5    1    3    3  502    0 -0.49283247042E+02  0.46973915240E+02 -0.58228401702E+02  0.89685039537E+02  0.41800000000E+01 0. -1.
         -5    1    3    3    0  502 -0.23625217145E+02 -0.70624863452E+02 -0.23251524099E+02  0.78128919074E+02  0.41800000000E+01 0. -1.
        -11    1    4    4    0    0  0.13571145461E+02  0.47626558938E+02 -0.34690987141E+02  0.60464284452E+02  0.00000000000E+00 0. -1.
         11    1    4    4    0    0  0.59337318725E+02 -0.23975610727E+02  0.39470337990E+01  0.64119625538E+02  0.00000000000E+00 0.  1.
</event>
<event>
 8    1  0.3708258E-009  0.1619121E+03  0.7561462E-02  0.1186555E+00
         -1   -1    0    0    0  501 -0.00000000000E+00  0.00000000000E+00  0.51401201017E+02  0.51401201017E+02  0.00000000000E+00 0. -1.
          1   -1    0    0  501    0  0.00000000000E+00 -0.00000000000E+00 -0.67489554889E+03  0.67489554889E+03  0.00000000000E+00 0.  1.
         25    2    1    2    0    0  0.72778458843E+02  0.11551818607E+03 -0.45386168532E+03  0.49018288084E+03  0.12509065467E+03 0.  0.
         23    2    1    2    0    0 -0.72778458843E+02 -0.11551818607E+03 -0.16963266255E+03  0.23611386907E+03  0.91287258566E+02 0.  0.
          5    1    3    3  502    0 -0.12982093227E+02  0.94811438942E+02 -0.20984494479E+03  0.23067318213E+03  0.41800000000E+01 0.  1.
         -5    1    3    3    0  502  0.85760552070E+02  0.20706747125E+02 -0.24401674053E+03  0.25950969871E+03  0.41800000000E+01 0.  1.
        -11    1    4    4    0    0 -0.25152751730E+02 -0.67709971907E+02 -0.24865443282E+02  0.76391043224E+02  0.00000000000E+00 0. -1.
         11    1    4    4    0    0 -0.47625707112E+02 -0.47808214160E+02 -0.14476721927E+03  0.15972282584E+03  0.00000000000E+00 0.  1.
</event>
<event>
 8    1  0.3708258E-009  0.9505887E+02  0.7561462E-02  0.1291044E+00
          3   -1    0    0  501    0  0.00000000000E+00  0.00000000000E+00  0.30394273247E+03  0.30394273247E+03  0.00000000000E+00 0. -1.
         -3   -1    0    0    0  501 -0.00000000000E+00 -0.00000000000E+00 -0.60812976976E+02  0.60812976976E+02  0.00000000000E+00 0.  1.
         25    2    1    2    0    0  0.73423238338E+02 -0.74145365519E+01  0.83620701582E+02  0.16758995460E+03  0.12509206158E+03 0.  0.
         23    2    1    2    0    0 -0.73423238338E+02  0.74145365519E+01  0.15950905392E+03  0.19716575485E+03  0.89360222267E+02 0.  0.
          5    1    3    3  502    0  0.68967814526E+02  0.22373677779E+02  0.10693959365E+03  0.12926983402E+03  0.41800000000E+01 0.  1.
         -5    1    3    3    0  502  0.44554238117E+01 -0.29788214331E+02 -0.23318892064E+02  0.38320120583E+02  0.41800000000E+01 0.  1.
        -11    1    4    4    0    0 -0.17428331019E+02  0.23095779931E+02  0.16993477956E+01  0.28983608396E+02  0.00000000000E+00 0.  1.
         11    1    4    4    0    0 -0.55994907319E+02 -0.15681243379E+02  0.15780970612E+03  0.16818214645E+03  0.00000000000E+00 0. -1.
</event>
<event>
 8    1  0.3708258E-009  0.1394643E+03  0.7561462E-02  0.1214052E+00
          1   -1    0    0  501    0  0.00000000000E+00  0.00000000000E+00  0.60531762947E+03  0.60531762947E+03  0.00000000000E+00 0. -1.
         -1   -1    0    0    0  501 -0.00000000000E+00 -0.00000000000E+00 -0.43110293117E+02  0.43110293117E+02  0.00000000000E+00 0.  1.
         25    2    1    2    0    0  0.27457825997E+02 -0.10443383972E+03  0.19757347008E+03  0.25756884457E+03  0.12508426970E+03 0.  0.
         23    2    1    2    0    0 -0.27457825997E+02  0.10443383972E+03  0.36463386628E+03  0.39085907802E+03  0.90291767878E+02 0.  0.
          5    1    3    3  502    0  0.14234632490E+02 -0.11794588742E+03  0.20488353446E+03  0.23687252314E+03  0.41800000000E+01 0. -1.
         -5    1    3    3    0  502  0.13223193507E+02  0.13512047704E+02 -0.73100643840E+01  0.20696321436E+02  0.41800000000E+01 0. -1.
        -11    1    4    4    0    0  0.22213993430E+02  0.84157636511E+02  0.21965896941E+03  0.23627533119E+03  0.00000000000E+00 0.  1.
         11    1    4    4    0    0 -0.49671819427E+02  0.20276203210E+02  0.14497489687E+03  0.15458374683E+03  0.00000000000E+00 0. -1.
</event>
<event>
 8    1  0.3708258E-009  0.1610223E+03  0.7561462E-02  0.1187547E+00
         -2   -1    0    0    0  501 -0.00000000000E+00  0.00000000000E+00  0.76558578591E+02  0.76558578591E+02  0.00000000000E+00 0.  1.
          2   -1    0    0  501    0  0.00000000000E+00 -0.00000000000E+00 -0.49771314600E+03  0.49771314600E+03  0.00000000000E+00 0. -1.
         25    2    1    2    0    0 -0.37723445643E+02 -0.12975962396E+03 -0.35140294276E+03  0.39672975690E+03  0.12509937439E+03 0.  0.
         23    2    1    2    0    0  0.37723445643E+02  0.12975962396E+03 -0.69751624650E+02  0.17754196768E+03  0.91625557489E+02 0.  0.
          5    1    3    3  502    0 -0.43042282152E+02 -0.14941805829E+03 -0.25988076682E+03  0.30287601350E+03  0.41800000000E+01 0. -1.
         -5    1    3    3    0  502  0.53188365084E+01  0.19658434322E+02 -0.91522175940E+02  0.93853743402E+02  0.41800000000E+01 0. -1.
        -11    1    4    4    0    0  0.42526301318E+02  0.49323913628E+02 -0.71801346926E+02  0.96936928876E+02  0.00000000000E+00 0. -1.
         11    1    4    4    0    0 -0.48028556752E+01  0.80435710335E+02  0.20497222765E+01  0.80605038808E+02  0.00000000000E+00 0.  1.
</event>
<event>
 8    1  0.3708258E-009  0.4987332E+02  0.7561462E-02  0.1446026E+00
         -1   -1    0    0    0  501 -0.00000000000E+00  0.00000000000E+00  0.19670411932E+03  0.19670411932E+03  0.00000000000E+00 0.  1.
          1   -1    0    0  501    0  0.00000000000E+00 -0.00000000000E+00 -0.68203058847E+02  0.68203058847E+02  0.00000000000E+00 0. -1.
         25    2    1    2    0    0 -0.11015822160E+01  0.12872638277E+01  0.17741356515E+02  0.12635140707E+03  0.12508817613E+03 0.  0.
         23    2    1    2    0    0  0.11015822160E+01 -0.12872638277E+01  0.11075970395E+03  0.13855577109E+03  0.83229316653E+02 0.  0.
          5    1    3    3  502    0  0.21471177371E+02  0.15847667357E+02  0.65804650313E+02  0.71132864564E+02  0.41800000000E+01 0. -1.
         -5    1    3    3    0  502 -0.22572759587E+02 -0.14560403529E+02 -0.48063293797E+02  0.55218542510E+02  0.41800000000E+01 0. -1.
        -11    1    4    4    0    0 -0.22003353717E+02 -0.37273036912E+01  0.11302964719E+03  0.11521172471E+03  0.00000000000E+00 0.  1.
         11    1    4    4    0    0  0.23104935933E+02  0.24400398635E+01 -0.22699432337E+01  0.23344046378E+02  0.00000000000E+00 0. -1.
</event>
<event>
 8    1  0.3708258E-009  0.1254716E+03  0.7561462E-02  0.1234334E+00
         -2   -1    0    0    0  501 -0.00000000000E+00  0.00000000000E+00  0.24470751064E+02  0.24470751064E+02  0.00000000000E+00 0. -1.
          2   -1    0    0  501    0  0.00000000000E+00 -0.00000000000E+00 -0.98135851230E+03  0.98135851230E+03  0.00000000000E+00 0.  1.
         25    2    1    2    0    0 -0.54204431474E+02 -0.35823501204E+02 -0.80429823775E+03  0.81655686935E+03  0.12509205414E+03 0.  0.
         23    2    1    2    0    0  0.54204431474E+02  0.35823501204E+02 -0.15258952349E+03  0.18927239402E+03  0.91208732191E+02 0.  0.
          5    1    3    3  502    0 -0.92096769687E+02 -0.43034878887E+02 -0.55302353236E+03  0.56230446871E+03  0.41800000000E+01 0. -1.
         -5    1    3    3    0  502  0.37892338212E+02  0.72113776823E+01 -0.25127470539E+03  0.25425240064E+03  0.41800000000E+01 0. -1.
        -11    1    4    4    0    0  0.58393038303E+02 -0.14289466784E+02 -0.67113645499E+02  0.90100927827E+02  0.00000000000E+00 0. -1.
         11    1    4    4    0    0 -0.41886068285E+01  0.50112967988E+02 -0.85475877995E+02  0.99171466193E+02  0.00000000000E+00 0.  1.
</event>
<event>
 8    1  0.3708258E-009  0.1084173E+03  0.7561462E-02  0.1263529E+00
         -4   -1    0    0    0  501 -0.00000000000E+00  0.00000000000E+00  0.20540164083E+03  0.20540164083E+03  0.00000000000E+00 0.  1.
          4   -1    0    0  501    0  0.00000000000E+00 -0.00000000000E+00 -0.85898412129E+02  0.85898412129E+02  0.00000000000E+00 0. -1.
         25    2    1    2    0    0 -0.47805891747E+02  0.53245223865E+02  0.36156185219E+02  0.14857752173E+03  0.12509017980E+03 0.  0.
         23    2    1    2    0    0  0.47805891747E+02 -0.53245223865E+02  0.83347043477E+02  0.14272253123E+03  0.91118242487E+02 0.  0.
          5    1    3    3  502    0 -0.74120113916E+02  0.49867697764E+02  0.63937514056E+02  0.10993660296E+03  0.41800000000E+01 0.  1.
         -5    1    3    3    0  502  0.26314222169E+02  0.33775261007E+01 -0.27781328837E+02  0.38640918763E+02  0.41800000000E+01 0.  1.
        -11    1    4    4    0    0  0.57957804803E+02 -0.13479878086E+02  0.12434523706E+02  0.60790061940E+02  0.00000000000E+00 0. -1.
         11    1    4    4    0    0 -0.10151913056E+02 -0.39765345778E+02  0.70912519771E+02  0.81932469289E+02  0.00000000000E+00 0.  1.
</event>
<event>
 8    1  0.3708258E-009  0.1001217E+03  0.7561462E-02  0.1280040E+00
         -2   -1    0    0    0  501 -0.00000000000E+00  0.00000000000E+00  0.80850282690E+02  0.80850282690E+02  0.00000000000E+00 0.  1.
          2   -1    0    0  501    0  0.00000000000E+00 -0.00000000000E+00 -0.24519478278E+03  0.24519478278E+03  0.00000000000E+00 0. -1.
         25    2    1    2    0    0  0.12269734852E+02 -0.60858182888E+02 -0.15043794115E+02  0.14045785572E+03  0.12509128136E+03 0.  0.
         23    2    1    2    0    0 -0.12269734852E+02  0.60858182888E+02 -0.14930070597E+03  0.18558720975E+03  0.91091420022E+02 0.  0.
          5    1    3    3  502    0  0.12154311497E+02 -0.80143311397E+02  0.33689156154E+02  0.87881222636E+02  0.41800000000E+01 0. -1.
         -5    1    3    3    0  502  0.11542335455E+00  0.19285128509E+02 -0.48732950269E+02  0.52576633081E+02  0.41800000000E+01 0. -1.
        -11    1    4    4    0    0  0.23965292089E+02 -0.47142180815E+01 -0.79588415861E+02  0.83251876953E+02  0.00000000000E+00 0.  1.
         11    1    4    4    0    0 -0.36235026941E+02  0.65572400969E+02 -0.69712290111E+02  0.10233533280E+03  0.00000000000E+00 0. -1.
</event>
<event>
 8    1  0.3708258E-009  0.1351056E+03  0.7561462E-02  0.1220071E+00
          2   -1    0    0  501    0  0.00000000000E+00  0.00000000000E+00  0.30759860409E+03  0.30759860409E+03  0.00000000000E+00 0. -1.
         -2   -1    0    0    0  501 -0.00000000000E+00 -0.00000000000E+00 -0.75960048844E+02  0.75960048844E+02  0.00000000000E+00 0.  1.
         25    2    1    2    0    0  0.22935321356E+02  0.95112470010E+02  0.68640630817E+02  0.17300822937E+03  0.12509156772E+03 0.  0.
         23    2    1    2    0    0 -0.22935321356E+02 -0.95112470010E+02  0.16299792443E+03  0.21055042357E+03  0.90502743478E+02 0.  0.
          5    1    3    3  502    0 -0.44191629368E+02  0.74544663205E+02  0.25212400720E+02  0.90349014763E+02  0.41800000000E+01 0. -1.
         -5    1    3    3    0  502  0.67126950725E+02  0.20567806806E+02  0.43428230097E+02  0.82659214609E+02  0.41800000000E+01 0. -1.
        -11    1    4    4    0    0  0.11217567957E+02 -0.69578301278E+02  0.15038688362E+03  0.16608187320E+03  0.00000000000E+00 0. -1.
         11    1    4    4    0    0 -0.34152889313E+02 -0.25534168732E+02  0.12611040809E+02  0.44468550365E+02  0.00000000000E+00 0.  1.
</event>
<event>
 8    1  0.3708258E-009  0.9444421E+02  0.7561462E-02  0.1292433E+00
          1   -1    0    0  501    0  0.00000000000E+00  0.00000000000E+00  0.28565198596E+03  0.28565198596E+03  0.00000000000E+00 0. -1.
         -1   -1    0    0    0  501 -0.00000000000E+00 -0.00000000000E+00 -0.58310796789E+02  0.58310796789E+02  0.00000000000E+00 0.  1.
         25    2    1    2    0    0 -0.10797284906E+02  0.20298512547E+02  0.21969782453E+03  0.25385811748E+03  0.12509276052E+03 0.  0.
         23    2    1    2    0    0  0.10797284906E+02 -0.20298512547E+02  0.76433646415E+01  0.90104665270E+02  0.86786051341E+02 0.  0.
          5    1    3    3  502    0 -0.59386337089E+02  0.58693464176E+00  0.17493451559E+03  0.18478809126E+03  0.41800000000E+01 0. -1.
         -5    1    3    3    0  502  0.48589052183E+02  0.19711577905E+02  0.44763308940E+02  0.69070026225E+02  0.41800000000E+01 0. -1.
        -11    1    4    4    0    0  0.19188680336E+02  0.24530011694E+02 -0.19773835081E+02  0.36890804824E+02  0.00000000000E+00 0. -1.
         11    1    4    4    0    0 -0.83913954301E+01 -0.44828524241E+02  0.27417199723E+02  0.53213860446E+02  0.00000000000E+00 0.  1.
</event>
<event>
 8    1  0.3708258E-009  0.2562095E+03  0.7561462E-02  0.1109442E+00
         -1   -1    0    0    0  501 -0.00000000000E+00  0.00000000000E+00  0.60665791005E+03  0.60665791005E+03  0.00000000000E+00 0.  1.
          1   -1    0    0  501    0  0.00000000000E+00 -0.00000000000E+00 -0.11659650765E+03  0.11659650765E+03  0.00000000000E+00 0. -1.
         25    2    1    2    0    0 -0.23098107586E+02 -0.24096421521E+03  0.23057422567E+03  0.35694347408E+03  0.12508754756E+03 0.  0.
         23    2    1    2    0    0  0.23098107586E+02  0.24096421521E+03  0.25948717673E+03  0.36631094363E+03  0.90845126169E+02 0.  0.
          5    1    3    3  502    0  0.48449675407E+02 -0.98789565803E+02  0.68132024639E+02  0.12948434091E+03  0.41800000000E+01 0. -1.
         -5    1    3    3    0  502 -0.71547782993E+02 -0.14217464941E+03  0.16244220103E+03  0.22745913317E+03  0.41800000000E+01 0. -1.
        -11    1    4    4    0    0  0.34716660568E+01  0.14972907043E+03  0.21725852771E+03  0.26387897768E+03  0.00000000000E+00 0.  1.
         11    1    4    4    0    0  0.19626441529E+02  0.91235144782E+02  0.42228649013E+02  0.10243196595E+03  0.00000000000E+00 0. -1.
</event>
<event>
 8    1  0.3708258E-009  0.1441746E+03  0.7561462E-02  0.1207820E+00
         -2   -1    0    0    0  501 -0.00000000000E+00  0.00000000000E+00  0.10962170226E+03  0.10962170226E+03  0.00000000000E+00 0. -1.
          2   -1    0    0  501    0  0.00000000000E+00 -0.00000000000E+00 -0.20313101698E+03  0.20313101698E+03  0.00000000000E+00 0.  1.
         25    2    1    2    0    0  0.38617962514E+02 -0.93852169339E+02 -0.57983616754E+02  0.17118753948E+03  0.12507396668E+03 0.  0.
         23    2    1    2    0    0 -0.38617962514E+02  0.93852169339E+02 -0.35525697967E+02  0.14156517977E+03  0.92081747315E+02 0.  0.
          5    1    3    3  502    0  0.60981528978E+02 -0.11446970335E+03 -0.40945780417E+02  0.13607383730E+03  0.41800000000E+01 0.  1.
         -5    1    3    3    0  502 -0.22363566464E+02  0.20617534015E+02 -0.17037836337E+02  0.35113702182E+02  0.41800000000E+01 0.  1.
        -11    1    4    4    0    0  0.20082487333E+02  0.52121460403E+02 -0.41069338447E+02  0.69329961002E+02  0.00000000000E+00 0.  1.
         11    1    4    4    0    0 -0.58700449847E+02  0.41730708936E+02  0.55436404799E+01  0.72235218767E+02  0.00000000000E+00 0. -1.
</event>
<event>
 8    1  0.3708258E-009  0.1064517E+03  0.7561462E-02  0.1267286E+00
         -1   -1    0    0    0  501 -0.00000000000E+00  0.00000000000E+00  0.79991860206E+02  0.79991860206E+02  0.00000000000E+00 0.  1.
          1   -1    0    0  501    0  0.00000000000E+00 -0.00000000000E+00 -0.21212714119E+03  0.21212714119E+03  0.00000000000E+00 0. -1.
         25    2    1    2    0    0  0.46948394241E+02 -0.54242513405E+02 -0.79168735744E+02  0.16450331841E+03  0.12508897260E+03 0.  0.
         23    2    1    2    0    0 -0.46948394241E+02  0.54242513405E+02 -0.52966545238E+02  0.12761568298E+03  0.91290227550E+02 0.  0.
          5    1    3    3  502    0  0.68059346230E+02  0.40467504072E+01 -0.60877904463E+01  0.68578308456E+02  0.41800000000E+01 0.  1.
         -5    1    3    3    0  502 -0.21110951989E+02 -0.58289263812E+02 -0.73080945297E+02  0.95925009957E+02  0.41800000000E+01 0.  1.
        -11    1    4    4    0    0 -0.50047943656E+02  0.30697262641E+02  0.10686475407E+02  0.59676790752E+02  0.00000000000E+00 0.  1.
         11    1    4    4    0    0  0.30995494146E+01  0.23545250764E+02 -0.63653020645E+02  0.67938892230E+02  0.00000000000E+00 0. -1.
</event>
<event>
 8    1  0.3708258E-009  0.1077864E+03  0.7561462E-02  0.1264725E+00
         -1   -1    0    0    0  501 -0.00000000000E+00  0.00000000000E+00  0.39430705170E+03  0.39430705170E+03  0.00000000000E+00 0.  1.
          1   -1    0    0  501    0  0.00000000000E+00 -0.00000000000E+00 -0.40428622991E+02  0.40428622991E+02  0.00000000000E+00 0. -1.
         25    2    1    2    0    0 -0.16385392914E+02 -0.35744534562E+02  0.11038873522E+03  0.17139409847E+03  0.12507642174E+03 0.  0.
         23    2    1    2    0    0  0.16385392914E+02  0.35744534562E+02  0.24348969349E+03  0.26334157622E+03  0.92278936278E+02 0.  0.
          5    1    3    3  502    0  0.45811443475E+02 -0.30008094173E+02  0.14372731339E+02  0.56773425785E+02  0.41800000000E+01 0. -1.
         -5    1    3    3    0  502 -0.62196836389E+02 -0.57364403889E+01  0.96016003883E+02  0.11462067269E+03  0.41800000000E+01 0. -1.
        -11    1    4    4    0    0 -0.37266385169E+02  0.19087450689E+02  0.77267321217E+02  0.87882610142E+02  0.00000000000E+00 0.  1.
         11    1    4    4    0    0  0.53651778083E+02  0.16657083873E+02  0.16622237227E+03  0.17545896608E+03  0.00000000000E+00 0. -1.
</event>
<event>
 8    1  0.3708258E-009  0.1052823E+03  0.7561462E-02  0.1269564E+00
         -2   -1    0    0    0  501 -0.00000000000E+00  0.00000000000E+00  0.25768283484E+02  0.25768283484E+02  0.00000000000E+00 0.  1.
          2   -1    0    0  501    0  0.00000000000E+00 -0.00000000000E+00 -0.57964097627E+03  0.57964097627E+03  0.00000000000E+00 0. -1.
         25    2    1    2    0    0 -0.43075031858E+02  0.34460862395E+02 -0.28953384666E+03  0.32018866638E+03  0.12509166364E+03 0.  0.
         23    2    1    2    0    0  0.43075031858E+02 -0.34460862395E+02 -0.26433884612E+03  0.28522059337E+03  0.91830016357E+02 0.  0.
          5    1    3    3  502    0  0.23224646826E+01  0.61435178796E+02 -0.23958077725E+03  0.24737844745E+03  0.41800000000E+01 0.  1.
         -5    1    3    3    0  502 -0.45397496541E+02 -0.26974316401E+02 -0.49953069408E+02  0.72810218931E+02  0.41800000000E+01 0.  1.
        -11    1    4    4    0    0  0.45952021077E+02  0.13523924823E+02 -0.68621841398E+02  0.83686569416E+02  0.00000000000E+00 0.  1.
         11    1    4    4    0    0 -0.28769892190E+01 -0.47984787218E+02 -0.19571700472E+03  0.20153402395E+03  0.00000000000E+00 0. -1.
</event>
<event>
 8    1  0.3708258E-009  0.7055486E+02  0.7561462E-02  0.1358216E+00
         -1   -1    0    0    0  501 -0.00000000000E+00  0.00000000000E+00  0.40011315828E+02  0.40011315828E+02  0.00000000000E+00 0.  1.
          1   -1    0    0  501    0  0.00000000000E+00 -0.00000000000E+00 -0.33384648645E+03  0.33384648645E+03  0.00000000000E+00 0. -1.
         25    2    1    2    0    0  0.19408647191E+02 -0.33027012040E+02 -0.14217289882E+03  0.19320239403E+03  0.12508618145E+03 0.  0.
         23    2    1    2    0    0 -0.19408647191E+02  0.33027012040E+02 -0.15166227180E+03  0.18065540825E+03  0.90373960467E+02 0.  0.
          5    1    3    3  502    0  0.19767771141E+02 -0.11727723067E+02  0.19283940216E+02  0.30292689126E+02  0.41800000000E+01 0. -1.
         -5    1    3    3    0  502 -0.35912395086E+00 -0.21299288973E+02 -0.16145683904E+03  0.16290970491E+03  0.41800000000E+01 0. -1.
        -11    1    4    4    0    0  0.26336296455E+02  0.41853952546E+02 -0.96650981222E+02  0.10856687352E+03  0.00000000000E+00 0.  1.
         11    1    4    4    0    0 -0.45744943645E+02 -0.88269405055E+01 -0.55011290579E+02  0.72088534727E+02  0.00000000000E+00 0. -1.
</event>
<event>
 8    1  0.3708258E-009  0.1552543E+03  0.7561462E-02  0.1194161E+00
          1   -1    0    0  501    0  0.00000000000E+00  0.00000000000E+00  0.11842392995E+03  0.11842392995E+03  0.00000000000E+00 0. -1.
         -1   -1    0    0    0  501 -0.00000000000E+00 -0.00000000000E+00 -0.32352792676E+03  0.32352792676E+03  0.00000000000E+00 0.  1.
         25    2    1    2    0    0  0.13107857084E+03  0.50916965514E+02 -0.14013569896E+02  0.18872700719E+03  0.12508946395E+03 0.  0.
         23    2    1    2    0    0 -0.13107857084E+03 -0.50916965514E+02 -0.19109042691E+03  0.25322484953E+03  0.88505050995E+02 0.  0.
          5    1    3    3  502    0  0.59438598194E+02 -0.20734133994E+01 -0.63178920772E+02  0.86869410199E+02  0.41800000000E+01 0.  1.
         -5    1    3    3    0  502  0.71639972642E+02  0.52990378914E+02  0.49165350876E+02  0.10185759699E+03  0.41800000000E+01 0.  1.
        -11    1    4    4    0    0  0.81400383620E+01 -0.16305511369E+02 -0.44649227678E+02  0.48225340412E+02  0.00000000000E+00 0.  1.
         11    1    4    4    0    0 -0.13921860920E+03 -0.34611454145E+02 -0.14644119923E+03  0.20499950911E+03  0.00000000000E+00 0. -1.
</event>
<event>
 8    1  0.3708258E-009  0.1033404E+03  0.7561462E-02  0.1273424E+00
         -1   -1    0    0    0  501 -0.00000000000E+00  0.00000000000E+00  0.40314829585E+03  0.40314829585E+03  0.00000000000E+00 0. -1.
          1   -1    0    0  501    0  0.00000000000E+00 -0.00000000000E+00 -0.39557337589E+02  0.39557337589E+02  0.00000000000E+00 0.  1.
         25    2    1    2    0    0 -0.38341754609E+02  0.45096020885E+02  0.15191895607E+03  0.20550029300E+03  0.12508900815E+03 0.  0.
         23    2    1    2    0    0  0.38341754609E+02 -0.45096020885E+02  0.21167200219E+03  0.23720534044E+03  0.89205357345E+02 0.  0.
          5    1    3    3  502    0 -0.52888741879E+01  0.66731618791E+02  0.23486435699E+02  0.71064521377E+02  0.41800000000E+01 0. -1.
         -5    1    3    3    0  502 -0.33052880421E+02 -0.21635597906E+02  0.12843252037E+03  0.13443577162E+03  0.41800000000E+01 0. -1.
        -11    1    4    4    0    0 -0.25363955377E+02 -0.11261301795E+02  0.26058519159E+02  0.38068275128E+02  0.00000000000E+00 0.  1.
         11    1    4    4    0    0  0.63705709986E+02 -0.33834719090E+02  0.18561348303E+03  0.19913706532E+03  0.00000000000E+00 0. -1.
</event>
<event>
 8    1  0.3708258E-009  0.2144253E+03  0.7561462E-02  0.1138109E+00
          2   -1    0    0  501    0  0.00000000000E+00  0.00000000000E+00  0.75254496365E+03  0.75254496365E+03  0.00000000000E+00 0. -1.
         -2   -1    0    0    0  501 -0.00000000000E+00 -0.00000000000E+00 -0.87252463059E+02  0.87252463059E+02  0.00000000000E+00 0.  1.
         25    2    1    2    0    0  0.15781194413E+03  0.14370362663E+03  0.19378888743E+03  0.31425765676E+03  0.12509356467E+03 0.  0.
         23    2    1    2    0    0 -0.15781194413E+03 -0.14370362663E+03  0.47150361317E+03  0.52553976996E+03  0.91219792568E+02 0.  0.
          5    1    3    3  502    0  0.88337965739E+02  0.62587260484E+02  0.19913297453E+02  0.11015794652E+03  0.41800000000E+01 0. -1.
         -5    1    3    3    0  502  0.69473978392E+02  0.81116366148E+02  0.17387558997E+03  0.20409971024E+03  0.41800000000E+01 0. -1.
        -11    1    4    4    0    0 -0.58655757748E+02 -0.47627276116E+02  0.27629159911E+03  0.28643656032E+03  0.00000000000E+00 0. -1.
         11    1    4    4    0    0 -0.99156186384E+02 -0.96076350516E+02  0.19521201406E+03  0.23910320964E+03  0.00000000000E+00 0.  1.
</event>
<event>
 8    1  0.3708258E-009  0.1347753E+03  0.7561462E-02  0.1220537E+00
         -2   -1    0    0    0  501 -0.00000000000E+00  0.00000000000E+00  0.16160255492E+03  0.16160255492E+03  0.00000000000E+00 0.  1.
          2   -1    0    0  501    0  0.00000000000E+00 -0.00000000000E+00 -0.15970706499E+03  0.15970706499E+03  0.00000000000E+00 0. -1.
         25    2    1    2    0    0 -0.92914678640E+02 -0.37990719344E+02  0.61966176873E+02  0.17194170432E+03  0.12509080839E+03 0.  0.
         23    2    1    2    0    0  0.92914678640E+02  0.37990719344E+02 -0.60070686942E+02  0.14936791559E+03  0.92875478543E+02 0.  0.
          5    1    3    3  502    0 -0.14786905553E+02 -0.51213144466E+02  0.74404387041E+02  0.91623817607E+02  0.41800000000E+01 0.  1.
         -5    1    3    3    0  502 -0.78127773087E+02  0.13222425122E+02 -0.12438210168E+02  0.80317886711E+02  0.41800000000E+01 0.  1.
        -11    1    4    4    0    0 -0.67750412725E+01 -0.20197615240E+02 -0.10368014175E+02  0.23692626776E+02  0.00000000000E+00 0. -1.
         11    1    4    4    0    0  0.99689719912E+02  0.58188334584E+02 -0.49702672767E+02  0.12567528881E+03  0.00000000000E+00 0.  1.
</event>
<event>
 8    1  0.3708258E-009  0.1098055E+03  0.7561462E-02  0.1260931E+00
          1   -1    0    0  501    0  0.00000000000E+00  0.00000000000E+00  0.34846076398E+03  0.34846076398E+03  0.00000000000E+00 0. -1.
         -1   -1    0    0    0  501 -0.00000000000E+00 -0.00000000000E+00 -0.75882663084E+02  0.75882663084E+02  0.00000000000E+00 0.  1.
         25    2    1    2    0    0 -0.33075789327E+02 -0.67560889806E+02  0.26903322989E+03  0.30607937934E+03  0.12508887241E+03 0.  0.
         23    2    1    2    0    0  0.33075789327E+02  0.67560889806E+02  0.35448710049E+01  0.11826404772E+03  0.91188470777E+02 0.  0.
          5    1    3    3  502    0  0.84444359815E+01 -0.92997431283E+02  0.14235045243E+03  0.17029666594E+03  0.41800000000E+01 0. -1.
         -5    1    3    3    0  502 -0.41520225308E+02  0.25436541477E+02  0.12668277747E+03  0.13578271340E+03  0.41800000000E+01 0. -1.
        -11    1    4    4    0    0  0.80978235603E+01  0.36602451572E+02  0.46493642794E+02  0.59724141080E+02  0.00000000000E+00 0. -1.
         11    1    4    4    0    0  0.24977965767E+02  0.30958438234E+02 -0.42948771789E+02  0.58539906644E+02  0.00000000000E+00 0.  1.
</event>
<event>
 8    1  0.3708258E-009  0.1086596E+03  0.7561462E-02  0.1263072E+00
         -2   -1    0    0    0  501 -0.00000000000E+00  0.00000000000E+00  0.17789059749E+03  0.17789059749E+03  0.00000000000E+00 0.  1.
          2   -1    0    0  501    0  0.00000000000E+00 -0.00000000000E+00 -0.10107819113E+03  0.10107819113E+03  0.00000000000E+00 0. -1.
         25    2    1    2    0    0 -0.28412202951E+02  0.73721752624E+02  0.33330759161E+02  0.15166305904E+03  0.12509433994E+03 0.  0.
         23    2    1    2    0    0  0.28412202951E+02 -0.73721752624E+02  0.43481647195E+02  0.12730572958E+03  0.89855133720E+02 0.  0.
          5    1    3    3  502    0  0.28141853041E+02  0.73506935086E+02  0.49024291259E+02  0.92822879355E+02  0.41800000000E+01 0. -1.
         -5    1    3    3    0  502 -0.56554055991E+02  0.21481753850E+00 -0.15693532098E+02  0.58840179685E+02  0.41800000000E+01 0. -1.
        -11    1    4    4    0    0  0.10821319633E+02 -0.55180838168E+02  0.70457061233E+02  0.90145567484E+02  0.00000000000E+00 0.  1.
         11    1    4    4    0    0  0.17590883318E+02 -0.18540914456E+02 -0.26975414038E+02  0.37160162100E+02  0.00000000000E+00 0. -1.
</event>
<event>
 8    1  0.3708258E-009  0.1113478E+03  0.7561462E-02  0.1258094E+00
          2   -1    0    0  501    0  0.00000000000E+00  0.00000000000E+00  0.47308212873E+03  0.47308212873E+03  0.00000000000E+00 0. -1.
         -2   -1    0    0    0  501 -0.00000000000E+00 -0.00000000000E+00 -0.49929129863E+02  0.49929129863E+02  0.00000000000E+00 0.  1.
         25    2    1    2    0    0  0.83562955066E+02 -0.47806348822E+02  0.31690064352E+03  0.35403642841E+03  0.12509020877E+03 0.  0.
         23    2    1    2    0    0 -0.83562955066E+02  0.47806348822E+02  0.10625235535E+03  0.16897483018E+03  0.89413174488E+02 0.  0.
          5    1    3    3  502    0  0.78310415554E+02 -0.26390276002E+02  0.76810237669E+02  0.11289930408E+03  0.41800000000E+01 0. -1.
         -5    1    3    3    0  502  0.52525395126E+01 -0.21416072819E+02  0.24009040585E+03  0.24113712433E+03  0.41800000000E+01 0. -1.
        -11    1    4    4    0    0 -0.67195217024E+02  0.65197725630E+02  0.46317356641E+02  0.10445687217E+03  0.00000000000E+00 0.  1.
         11    1    4    4    0    0 -0.16367738042E+02 -0.17391376808E+02  0.59934998706E+02  0.64517958010E+02  0.00000000000E+00 0. -1.
</event>
<event>
 8    1  0.3708258E-009  0.1187785E+03  0.7561462E-02  0.1245126E+00
         -1   -1    0    0    0  501 -0.00000000000E+00  0.00000000000E+00  0.64777064844E+02  0.64777064844E+02  0.00000000000E+00 0.  1.
          1   -1    0    0  501    0  0.00000000000E+00 -0.00000000000E+00 -0.27140969078E+03  0.27140969078E+03  0.00000000000E+00 0. -1.
         25    2    1    2    0    0 -0.33023603395E+02 -0.57319920112E+02 -0.65497956677E+02  0.15592892767E+03  0.12509083313E+03 0.  0.
         23    2    1    2    0    0  0.33023603395E+02  0.57319920112E+02 -0.14113466926E+03  0.18025782796E+03  0.90541471433E+02 0.  0.
          5    1    3    3  502    0  0.39077066609E+02 -0.18396557352E+02  0.98941959136E+01  0.44506381227E+02  0.41800000000E+01 0. -1.
         -5    1    3    3    0  502 -0.72100670003E+02 -0.38923362760E+02 -0.75392152590E+02  0.11142254644E+03  0.41800000000E+01 0. -1.
        -11    1    4    4    0    0 -0.14929554677E+02  0.62157235643E+02 -0.81757445492E+02  0.10378195141E+03  0.00000000000E+00 0. -1.
         11    1    4    4    0    0  0.47953158072E+02 -0.48373155311E+01 -0.59377223771E+02  0.76475876545E+02  0.00000000000E+00 0.  1.
</event>
<event>
 8    1  0.3708258E-009  0.1784338E+03  0.7561462E-02  0.1169328E+00
         -2   -1    0    0    0  501 -0.00000000000E+00  0.00000000000E+00  0.66415550546E+02  0.66415550546E+02  0.00000000000E+00 0.  1.
          2   -1    0    0  501    0  0.00000000000E+00 -0.00000000000E+00 -0.57306039293E+03  0.57306039293E+03  0.00000000000E+00 0. -1.
         25    2    1    2    0    0 -0.15659476043E+03  0.31701907668E+02 -0.22442975100E+03  0.30255956012E+03  0.12508654740E+03 0.  0.
         23    2    1    2    0    0  0.15659476043E+03 -0.31701907668E+02 -0.28221509139E+03  0.33691638336E+03  0.91325580350E+02 0.  0.
          5    1    3    3  502    0 -0.14671274199E+03  0.66596529925E+01 -0.10634248968E+03  0.18137027638E+03  0.41800000000E+01 0. -1.
         -5    1    3    3    0  502 -0.98820184384E+01  0.25042254675E+02 -0.11808726132E+03  0.12118928374E+03  0.41800000000E+01 0. -1.
        -11    1    4    4    0    0 -0.11369543424E+02 -0.57563559525E+01 -0.10923420168E+02  0.16784613778E+02  0.00000000000E+00 0.  1.
         11    1    4    4    0    0  0.16796430386E+03 -0.25945551716E+02 -0.27129167122E+03  0.32013176958E+03  0.00000000000E+00 0. -1.
</event>
<event>
 8    1  0.3708258E-009  0.4827046E+02  0.7561462E-02  0.1454900E+00
          2   -1    0    0  501    0  0.00000000000E+00  0.00000000000E+00  0.49131904065E+02  0.49131904065E+02  0.00000000000E+00 0. -1.
         -2   -1    0    0    0  501 -0.00000000000E+00 -0.00000000000E+00 -0.25991558412E+03  0.25991558412E+03  0.00000000000E+00 0.  1.
         25    2    1    2    0    0 -0.30505824539E+02  0.17510009086E+02 -0.85174372769E+02  0.15536841095E+03  0.12508982211E+03 0.  0.
         23    2    1    2    0    0  0.30505824539E+02 -0.17510009086E+02 -0.12560930728E+03  0.15367907723E+03  0.81254876495E+02 0.  0.
          5    1    3    3  502    0 -0.32064020441E+02  0.11693591771E+02  0.26526212542E+02  0.43427570127E+02  0.41800000000E+01 0.  1.
         -5    1    3    3    0  502  0.15581959017E+01  0.58164173147E+01 -0.11170058531E+03  0.11194084082E+03  0.41800000000E+01 0.  1.
        -11    1    4    4    0    0  0.32038129336E+02 -0.29012249961E+02 -0.13305006714E+03  0.13989450577E+03  0.00000000000E+00 0.  1.
         11    1    4    4    0    0 -0.15323047968E+01  0.11502240875E+02  0.74407598572E+01  0.13784571462E+02  0.00000000000E+00 0. -1.
</event>
<event>
 8    1  0.3708258E-009  0.1126145E+03  0.7561462E-02  0.1255803E+00
         -2   -1    0    0    0  501 -0.00000000000E+00  0.00000000000E+00  0.34304856877E+02  0.34304856877E+02  0.00000000000E+00 0.  1.
          2   -1    0    0  501    0  0.00000000000E+00 -0.00000000000E+00 -0.14181434084E+04  0.14181434084E+04  0.00000000000E+00 0. -1.
         25    2    1    2    0    0 -0.64070974070E+02 -0.74167990359E+02 -0.12618117594E+04  0.12717791608E+04  0.12508931655E+03 0.  0.
         23    2    1    2    0    0  0.64070974070E+02  0.74167990359E+02 -0.12202679212E+03  0.18066910449E+03  0.90248583436E+02 0.  0.
          5    1    3    3  502    0 -0.37832091191E+02 -0.31050796401E+02 -0.11220360141E+04  0.11231107285E+04  0.41800000000E+01 0. -1.
         -5    1    3    3    0  502 -0.26238882879E+02 -0.43117193958E+02 -0.13977574535E+03  0.14866843235E+03  0.41800000000E+01 0. -1.
        -11    1    4    4    0    0  0.39792217558E+02 -0.72968607168E+01 -0.70451262027E+02  0.81240661468E+02  0.00000000000E+00 0. -1.
         11    1    4    4    0    0  0.24278756511E+02  0.81464851076E+02 -0.51575530090E+02  0.99428443026E+02  0.00000000000E+00 0.  1.
</event>
<event>
 8    1  0.3708258E-009  0.1429065E+03  0.7561462E-02  0.1209471E+00
          1   -1    0    0  501    0  0.00000000000E+00  0.00000000000E+00  0.32196257206E+03  0.32196257206E+03  0.00000000000E+00 0. -1.
         -1   -1    0    0    0  501 -0.00000000000E+00 -0.00000000000E+00 -0.11551831625E+03  0.11551831625E+03  0.00000000000E+00 0.  1.
         25    2    1    2    0    0 -0.83123327566E+02  0.99343186891E+02  0.21122191226E+03  0.27756234688E+03  0.12509038260E+03 0.  0.
         23    2    1    2    0    0  0.83123327566E+02 -0.99343186891E+02 -0.47776564470E+01  0.15991854144E+03  0.93661932116E+02 0.  0.
          5    1    3    3  502    0 -0.47548793336E+02  0.32747152323E+02  0.52202287814E+01  0.58120451835E+02  0.41800000000E+01 0. -1.
         -5    1    3    3    0  502 -0.35574534230E+02  0.66596034568E+02  0.20600168348E+03  0.21944189504E+03  0.41800000000E+01 0. -1.
        -11    1    4    4    0    0  0.92309479712E+02 -0.55921880826E+02  0.18970727000E+02  0.10958186567E+03  0.00000000000E+00 0. -1.
         11    1    4    4    0    0 -0.91861521463E+01 -0.43421306065E+02 -0.23748383447E+02  0.50336675774E+02  0.00000000000E+00 0.  1.
</event>
<event>
 8    1  0.3708258E-009  0.1081957E+03  0.7561462E-02  0.1263948E+00
         -1   -1    0    0    0  501 -0.00000000000E+00  0.00000000000E+00  0.44393512045E+03  0.44393512045E+03  0.00000000000E+00 0.  1.
          1   -1    0    0  501    0  0.00000000000E+00 -0.00000000000E+00 -0.47588705532E+02  0.47588705532E+02  0.00000000000E+00 0. -1.
         25    2    1    2    0    0  0.86819260413E+02 -0.17545065479E+02  0.14873279867E+03  0.21357519925E+03  0.12508999575E+03 0.  0.
         23    2    1    2    0    0 -0.86819260413E+02  0.17545065479E+02  0.24761361625E+03  0.27794862673E+03  0.89986236979E+02 0.  0.
          5    1    3    3  502    0  0.82962059681E+02 -0.12474474926E+02  0.22293867776E+02  0.86906874363E+02  0.41800000000E+01 0. -1.
         -5    1    3    3    0  502  0.38572007319E+01 -0.50705905532E+01  0.12643893089E+03  0.12666832489E+03  0.41800000000E+01 0. -1.
        -11    1    4    4    0    0 -0.36775737311E+02  0.52234483904E+02  0.14800351156E+03  0.16120153721E+03  0.00000000000E+00 0.  1.
         11    1    4    4    0    0 -0.50043523102E+02 -0.34689418425E+02  0.99610104690E+02  0.11674708952E+03  0.00000000000E+00 0. -1.
</event>
<event>
 8    1  0.3708258E-009  0.1449618E+03  0.7561462E-02  0.1206804E+00
          1   -1    0    0  501    0  0.00000000000E+00  0.00000000000E+00  0.82506418762E+03  0.82506418762E+03  0.00000000000E+00 0. -1.
         -1   -1    0    0    0  501 -0.00000000000E+00 -0.00000000000E+00 -0.36336583569E+02  0.36336583569E+02  0.00000000000E+00 0.  1.
         25    2    1    2    0    0 -0.10268572992E+03 -0.86981433255E+02  0.43279085022E+03  0.47017614600E+03  0.12509020495E+03 0.  0.
         23    2    1    2    0    0  0.10268572992E+03  0.86981433255E+02  0.35593675383E+03  0.39122462519E+03  0.90860364112E+02 0.  0.
          5    1    3    3  502    0 -0.36906291429E+02 -0.23538394751E+02  0.21712856451E+02  0.49041318393E+02  0.41800000000E+01 0. -1.
         -5    1    3    3    0  502 -0.65779438489E+02 -0.63443038504E+02  0.41107799376E+03  0.42113482760E+03  0.41800000000E+01 0. -1.
        -11    1    4    4    0    0  0.70873908361E+02  0.97874745961E+02  0.21803589952E+03  0.24928343359E+03  0.00000000000E+00 0.  1.
         11    1    4    4    0    0  0.31811821558E+02 -0.10893312706E+02  0.13790085431E+03  0.14194119160E+03  0.00000000000E+00 0. -1.
</event>
<event>
 8    1  0.3708258E-009  0.1011888E+03  0.7561462E-02  0.1277816E+00
          1   -1    0    0  501    0  0.00000000000E+00  0.00000000000E+00  0.71622533374E+03  0.71622533374E+03  0.00000000000E+00 0. -1.
         -1   -1    0    0    0  501 -0.00000000000E+00 -0.00000000000E+00 -0.23574911097E+02  0.23574911097E+02  0.00000000000E+00 0.  1.
         25    2    1    2    0    0  0.36346653806E+02  0.33556302678E+00  0.55845494641E+03  0.57344446629E+03  0.12508172092E+03 0.  0.
         23    2    1    2    0    0 -0.36346653806E+02 -0.33556302678E+00  0.13419547624E+03  0.16635577855E+03  0.91348931949E+02 0.  0.
          5    1    3    3  502    0  0.67846345828E+02 -0.31943120762E+02  0.23179968232E+03  0.24366381497E+03  0.41800000000E+01 0.  1.
         -5    1    3    3    0  502 -0.31499692022E+02  0.32278683789E+02  0.32665526409E+03  0.32978065132E+03  0.41800000000E+01 0.  1.
        -11    1    4    4    0    0  0.13378462056E+02  0.23340185899E+02  0.95059049936E+02  0.98792562977E+02  0.00000000000E+00 0. -1.
         11    1    4    4    0    0 -0.49725115861E+02 -0.23675748926E+02  0.39136426301E+02  0.67563215571E+02  0.00000000000E+00 0.  1.
</event>
<event>
 8    1  0.3708258E-009  0.1106713E+03  0.7561462E-02  0.1259332E+00
         -2   -1    0    0    0  501 -0.00000000000E+00  0.00000000000E+00  0.25119943804E+03  0.25119943804E+03  0.00000000000E+00 0.  1.
          2   -1    0    0  501    0  0.00000000000E+00 -0.00000000000E+00 -0.64177158220E+02  0.64177158220E+02  0.00000000000E+00 0. -1.
         25    2    1    2    0    0 -0.61237620228E+02  0.80335344617E+01  0.13044505227E+03  0.19099110763E+03  0.12508839964E+03 0.  0.
         23    2    1    2    0    0  0.61237620228E+02 -0.80335344617E+01  0.56577227553E+02  0.12438548863E+03  0.91957508109E+02 0.  0.
          5    1    3    3  502    0 -0.32910404529E+01  0.57722360016E+02  0.31561635873E+02  0.66002356413E+02  0.41800000000E+01 0. -1.
         -5    1    3    3    0  502 -0.57946579775E+02 -0.49688825555E+02  0.98883416398E+02  0.12498875122E+03  0.41800000000E+01 0. -1.
        -11    1    4    4    0    0  0.66131855321E+02 -0.23904362345E+02  0.53380683586E+01  0.70521881718E+02  0.00000000000E+00 0. -1.
         11    1    4    4    0    0 -0.48942350932E+01  0.15870827883E+02  0.51239159195E+02  0.53863606914E+02  0.00000000000E+00 0.  1.
</event>
<event>
 8    1  0.3708258E-009  0.8534429E+02  0.7561462E-02  0.1314535E+00
          2   -1    0    0  501    0  0.00000000000E+00  0.00000000000E+00  0.78100901188E+03  0.78100901188E+03  0.00000000000E+00 0. -1.
         -2   -1    0    0    0  501 -0.00000000000E+00 -0.00000000000E+00 -0.17420079330E+02  0.17420079330E+02  0.00000000000E+00 0.  1.
         25    2    1    2    0    0  0.22697158924E+01 -0.31789284775E+02  0.48744206579E+03  0.50424380895E+03  0.12508533535E+03 0.  0.
         23    2    1    2    0    0 -0.22697158924E+01  0.31789284775E+02  0.27614686676E+03  0.29418528227E+03  0.96292149439E+02 0.  0.
          5    1    3    3  502    0  0.12186878607E+02 -0.58568872818E+02  0.46167600620E+03  0.46555455102E+03  0.41800000000E+01 0.  1.
         -5    1    3    3    0  502 -0.99171627143E+01  0.26779588043E+02  0.25766059589E+02  0.38689257925E+02  0.41800000000E+01 0.  1.
        -11    1    4    4    0    0 -0.14169021311E+02  0.54449936392E+02  0.25455701850E+03  0.26070065670E+03  0.00000000000E+00 0. -1.
         11    1    4    4    0    0  0.11899305419E+02 -0.22660651617E+02  0.21589848261E+02  0.33484625563E+02  0.00000000000E+00 0.  1.
</event>
<event>
 8    1  0.3708258E-009  0.1166624E+03  0.7561462E-02  0.1248707E+00
          2   -1    0    0  501    0  0.00000000000E+00  0.00000000000E+00  0.12923139054E+03  0.12923139054E+03  0.00000000000E+00 0. -1.
         -2   -1    0    0    0  501 -0.00000000000E+00 -0.00000000000E+00 -0.14299077996E+03  0.14299077996E+03  0.00000000000E+00 0.  1.
         25    2    1    2    0    0  0.50927157635E+02 -0.54325068406E+02  0.25364386320E+02  0.14776909755E+03  0.12509023005E+03 0.  0.
         23    2    1    2    0    0 -0.50927157635E+02  0.54325068406E+02 -0.39123775737E+02  0.12445307295E+03  0.91723002004E+02 0.  0.
          5    1    3    3  502    0  0.72808406362E+02 -0.17657391072E+02 -0.27293655816E+02  0.79845247474E+02  0.41800000000E+01 0.  1.
         -5    1    3    3    0  502 -0.21881248727E+02 -0.36667677333E+02  0.52658042136E+02  0.67923850071E+02  0.41800000000E+01 0.  1.
        -11    1    4    4    0    0 -0.60105060959E+02  0.73009875854E+02 -0.21044410596E+02  0.96880996808E+02  0.00000000000E+00 0.  1.
         11    1    4    4    0    0  0.91779033245E+01 -0.18684807449E+02 -0.18079365141E+02  0.27572076141E+02  0.00000000000E+00 0. -1.
</event>
<event>
 8    1  0.3708258E-009  0.1378883E+03  0.7561462E-02  0.1216199E+00
         -1   -1    0    0    0  501 -0.00000000000E+00  0.00000000000E+00  0.17719010294E+04  0.17719010294E+04  0.00000000000E+00 0.  1.
          1   -1    0    0  501    0  0.00000000000E+00 -0.00000000000E+00 -0.12857719624E+02  0.12857719624E+02  0.00000000000E+00 0. -1.
         25    2    1    2    0    0  0.46224478631E+02  0.94682129895E+02  0.11173738510E+04  0.11292796105E+04  0.12508680033E+03 0.  0.
         23    2    1    2    0    0 -0.46224478631E+02 -0.94682129895E+02  0.64166945874E+03  0.65547913850E+03  0.82533620943E+02 0.  0.
          5    1    3    3  502    0  0.74124413224E+02  0.51434360612E+02  0.94584053410E+03  0.95014299473E+03  0.41800000000E+01 0.  1.
         -5    1    3    3    0  502 -0.27899934593E+02  0.43247769282E+02  0.17153331691E+03  0.17913661577E+03  0.41800000000E+01 0.  1.
        -11    1    4    4    0    0 -0.15570746384E+02 -0.10127739012E+03  0.48676632559E+03  0.49743443148E+03  0.00000000000E+00 0.  1.
         11    1    4    4    0    0 -0.30653732247E+02  0.65952602286E+01  0.15490313315E+03  0.15804470702E+03  0.00000000000E+00 0. -1.
</event>
<event>
 8    1  0.3708258E-009  0.1011538E+03  0.7561462E-02  0.1277888E+00
         -1   -1    0    0    0  501 -0.00000000000E+00  0.00000000000E+00  0.84843163339E+03  0.84843163339E+03  0.00000000000E+00 0.  1.
          1   -1    0    0  501    0  0.00000000000E+00 -0.00000000000E+00 -0.17571461295E+02  0.17571461295E+02  0.00000000000E+00 0. -1.
         25    2    1    2    0    0 -0.52042095392E+02  0.22430678764E+02  0.52725629105E+03  0.54484801173E+03  0.12509454180E+03 0.  0.
         23    2    1    2    0    0  0.52042095392E+02 -0.22430678764E+02  0.30360388105E+03  0.32115508296E+03  0.88055412565E+02 0.  0.
          5    1    3    3  502    0 -0.74719667254E+02  0.18504191088E+02  0.16813398684E+03  0.18496470932E+03  0.41800000000E+01 0.  1.
         -5    1    3    3    0  502  0.22677571862E+02  0.39264876763E+01  0.35912230421E+03  0.35988330241E+03  0.41800000000E+01 0.  1.
        -11    1    4    4    0    0  0.38243439210E+02 -0.54692542270E+02  0.16070696348E+03  0.17401311139E+03  0.00000000000E+00 0. -1.
         11    1    4    4    0    0  0.13798656182E+02  0.32261863506E+02  0.14289691757E+03  0.14714197158E+03  0.00000000000E+00 0.  1.
</event>
<event>
 8    1  0.3708258E-009  0.1136648E+03  0.7561462E-02  0.1253930E+00
         -3   -1    0    0    0  501 -0.00000000000E+00  0.00000000000E+00  0.11801366053E+03  0.11801366053E+03  0.00000000000E+00 0.  1.
          3   -1    0    0  501    0  0.00000000000E+00 -0.00000000000E+00 -0.21970676774E+03  0.21970676774E+03  0.00000000000E+00 0. -1.
         25    2    1    2    0    0  0.67765102677E+02  0.69025379471E+02 -0.12650714680E+03  0.20250533563E+03  0.12509092939E+03 0.  0.
         23    2    1    2    0    0 -0.67765102677E+02 -0.69025379471E+02  0.24814039585E+02  0.13521509264E+03  0.91163438747E+02 0.  0.
          5    1    3    3  502    0  0.80328028846E+01  0.40282283283E+01  0.25119564673E+02  0.27004027014E+02  0.41800000000E+01 0.  1.
         -5    1    3    3    0  502  0.59732299792E+02  0.64997151143E+02 -0.15162671147E+03  0.17550130862E+03  0.41800000000E+01 0.  1.
        -11    1    4    4    0    0 -0.83639946237E+02 -0.74743927167E+02  0.32339426692E+02  0.11673959814E+03  0.00000000000E+00 0.  1.
         11    1    4    4    0    0  0.15874843560E+02  0.57185476956E+01 -0.75253871068E+01  0.18475494497E+02  0.00000000000E+00 0. -1.
</event>
<event>
 8    1  0.3708258E-009  0.7415243E+02  0.7561462E-02  0.1346516E+00
         -2   -1    0    0    0  501 -0.00000000000E+00  0.00000000000E+00  0.12127908105E+03  0.12127908105E+03  0.00000000000E+00 0. -1.
          2   -1    0    0  501    0  0.00000000000E+00 -0.00000000000E+00 -0.13686128870E+03  0.13686128870E+03  0.00000000000E+00 0.  1.
         25    2    1    2    0    0 -0.62125914622E+02  0.20119922264E+02  0.13652317757E+02  0.14176690667E+03  0.12508808699E+03 0.  0.
         23    2    1    2    0    0  0.62125914622E+02 -0.20119922264E+02 -0.29234525405E+02  0.11637346308E+03  0.91780634640E+02 0.  0.
          5    1    3    3  502    0 -0.30555084340E+02 -0.16086384020E+02 -0.50619374460E+02  0.61418062495E+02  0.41800000000E+01 0.  1.
         -5    1    3    3    0  502 -0.31570830282E+02  0.36206306284E+02  0.64271692217E+02  0.80348844172E+02  0.41800000000E+01 0.  1.
        -11    1    4    4    0    0  0.43618945908E+02 -0.14097607241E+02  0.29490601459E+02  0.54507343968E+02  0.00000000000E+00 0. -1.
         11    1    4    4    0    0  0.18506968714E+02 -0.60223150229E+01 -0.58725126864E+02  0.61866119116E+02  0.00000000000E+00 0.  1.
</event>
<event>
 8    1  0.3708258E-009  0.1334630E+03  0.7561462E-02  0.1222406E+00
          1   -1    0    0  501    0  0.00000000000E+00  0.00000000000E+00  0.16217668787E+03  0.16217668787E+03  0.00000000000E+00 0. -1.
         -1   -1    0    0    0  501 -0.00000000000E+00 -0.00000000000E+00 -0.11488043624E+03  0.11488043624E+03  0.00000000000E+00 0.  1.
         25    2    1    2    0    0 -0.17026070093E+00 -0.79819261480E+02  0.47447584711E+02  0.15578642326E+03  0.12508794061E+03 0.  0.
         23    2    1    2    0    0  0.17026070093E+00  0.79819261480E+02 -0.15133308225E+00  0.12127070085E+03  0.91298502126E+02 0.  0.
          5    1    3    3  502    0  0.11870309336E+02  0.32501214522E+02  0.58823710529E+01  0.35345549626E+02  0.41800000000E+01 0. -1.
         -5    1    3    3    0  502 -0.12040570037E+02 -0.11232047600E+03  0.41565213658E+02  0.12044087364E+03  0.41800000000E+01 0. -1.
        -11    1    4    4    0    0  0.38994882278E+02  0.11849682936E+02 -0.11080248215E+02  0.42234911271E+02  0.00000000000E+00 0.  1.
         11    1    4    4    0    0 -0.38824621577E+02  0.67969578545E+02  0.10928915133E+02  0.79035789577E+02  0.00000000000E+00 0. -1.
</event>
<event>
 8    1  0.3708258E-009  0.1542868E+03  0.7561462E-02  0.1195302E+00
         -2   -1    0    0    0  501 -0.00000000000E+00  0.00000000000E+00  0.85767092126E+02  0.85767092126E+02  0.00000000000E+00 0.  1.
          2   -1    0    0  501    0  0.00000000000E+00 -0.00000000000E+00 -0.46748075846E+03  0.46748075846E+03  0.00000000000E+00 0. -1.
         25    2    1    2    0    0 -0.14379431154E+03  0.53800007847E+02 -0.10505904471E+03  0.22418080336E+03  0.12509350440E+03 0.  0.
         23    2    1    2    0    0  0.14379431154E+03 -0.53800007847E+02 -0.27665462162E+03  0.32906704723E+03  0.90421772989E+02 0.  0.
          5    1    3    3  502    0 -0.53260854389E+01  0.30885890349E+01  0.25881247872E+02  0.26929871142E+02  0.41800000000E+01 0.  1.
         -5    1    3    3    0  502 -0.13846822610E+03  0.50711418812E+02 -0.13094029258E+03  0.19725093221E+03  0.41800000000E+01 0.  1.
        -11    1    4    4    0    0  0.10701381484E+03 -0.42348625661E+02 -0.26485351886E+03  0.28877802741E+03  0.00000000000E+00 0. -1.
         11    1    4    4    0    0  0.36780496697E+02 -0.11451382186E+02 -0.11801102759E+02  0.40289019814E+02  0.00000000000E+00 0.  1.
</event>
<event>
 8    1  0.3708258E-009  0.1637081E+03  0.7561462E-02  0.1184573E+00
         -1   -1    0    0    0  501 -0.00000000000E+00  0.00000000000E+00  0.25726079579E+02  0.25726079579E+02  0.00000000000E+00 0. -1.
          1   -1    0    0  501    0  0.00000000000E+00 -0.00000000000E+00 -0.13777730415E+04  0.13777730415E+04  0.00000000000E+00 0.  1.
         25    2    1    2    0    0 -0.35424394725E+02 -0.12337162366E+03 -0.10305813859E+04  0.10460500311E+04  0.12508888525E+03 0.  0.
         23    2    1    2    0    0  0.35424394725E+02  0.12337162366E+03 -0.32146557598E+03  0.35744909000E+03  0.89186827130E+02 0.  0.
          5    1    3    3  502    0 -0.46186869082E+02  0.60784274211E+01 -0.20245384522E+03  0.20778644326E+03  0.41800000000E+01 0.  1.
         -5    1    3    3    0  502  0.10762474357E+02 -0.12945005108E+03 -0.82812754069E+03  0.83826358780E+03  0.41800000000E+01 0.  1.
        -11    1    4    4    0    0 -0.24680844653E+02  0.50580627291E+02 -0.16900509057E+03  0.17812990931E+03  0.00000000000E+00 0. -1.
         11    1    4    4    0    0  0.60105239378E+02  0.72790996367E+02 -0.15246048541E+03  0.17931918069E+03  0.00000000000E+00 0.  1.
</event>
<event>
 8    1  0.3708258E-009  0.3423176E+03  0.7561462E-02  0.1065813E+00
          2   -1    0    0  501    0  0.00000000000E+00  0.00000000000E+00  0.16369661491E+04  0.16369661491E+04  0.00000000000E+00 0. -1.
         -2   -1    0    0    0  501 -0.00000000000E+00 -0.00000000000E+00 -0.76303306991E+02  0.76303306991E+02  0.00000000000E+00 0.  1.
         25    2    1    2    0    0  0.14339133110E+03  0.29853523350E+03  0.65359870112E+03  0.74331904702E+03  0.12509030376E+03 0.  0.
         23    2    1    2    0    0 -0.14339133110E+03 -0.29853523350E+03  0.90706414101E+03  0.96995040908E+03  0.91400660281E+02 0.  0.
          5    1    3    3  502    0  0.13921153635E+03  0.15175987972E+03  0.41063593214E+03  0.45940206151E+03  0.41800000000E+01 0.  1.
         -5    1    3    3    0  502  0.41797947435E+01  0.14677535377E+03  0.24296276897E+03  0.28391698552E+03  0.41800000000E+01 0.  1.
        -11    1    4    4    0    0 -0.90758527307E+02 -0.20978896720E+03  0.49602254347E+03  0.54615646538E+03  0.00000000000E+00 0.  1.
         11    1    4    4    0    0 -0.52632803791E+02 -0.88746266294E+02  0.41104159754E+03  0.42379394371E+03  0.00000000000E+00 0. -1.
</event>
<event>
 8    1  0.3708258E-009  0.1039038E+03  0.7561462E-02  0.1272295E+00
          1   -1    0    0  501    0  0.00000000000E+00  0.00000000000E+00  0.23977043391E+03  0.23977043391E+03  0.00000000000E+00 0. -1.
         -1   -1    0    0    0  501 -0.00000000000E+00 -0.00000000000E+00 -0.75085210633E+02  0.75085210633E+02  0.00000000000E+00 0.  1.
         25    2    1    2    0    0  0.73204316147E+02 -0.86028482518E+01  0.57522174867E+02  0.15616902352E+03  0.12508829843E+03 0.  0.
         23    2    1    2    0    0 -0.73204316147E+02  0.86028482518E+01  0.10716304841E+03  0.15868662103E+03  0.90910086617E+02 0.  0.
          5    1    3    3  502    0 -0.13217507988E+02 -0.37919639611E+02  0.50342730021E+02  0.64532661898E+02  0.41800000000E+01 0. -1.
         -5    1    3    3    0  502  0.86421824134E+02  0.29316791359E+02  0.71794448459E+01  0.91636361618E+02  0.41800000000E+01 0. -1.
        -11    1    4    4    0    0 -0.25585436861E+02  0.12158034695E+02 -0.11655779010E+02  0.30631512717E+02  0.00000000000E+00 0.  1.
         11    1    4    4    0    0 -0.47618879286E+02 -0.35551864432E+01  0.11881882742E+03  0.12805510831E+03  0.00000000000E+00 0. -1.
</event>
<event>
 8    1  0.3708258E-009  0.1391208E+03  0.7561462E-02  0.1214517E+00
         -2   -1    0    0    0  501 -0.00000000000E+00  0.00000000000E+00  0.38792378204E+03  0.38792378204E+03  0.00000000000E+00 0.  1.
          2   -1    0    0  501    0  0.00000000000E+00 -0.00000000000E+00 -0.52973211269E+02  0.52973211269E+02  0.00000000000E+00 0. -1.
         25    2    1    2    0    0  0.21217691962E+02 -0.83476144950E+02  0.22905182587E+03  0.27482659247E+03  0.12508580963E+03 0.  0.
         23    2    1    2    0    0 -0.21217691962E+02  0.83476144950E+02  0.10589874491E+03  0.16607040084E+03  0.94585287620E+02 0.  0.
          5    1    3    3  502    0 -0.51816248675E+02 -0.38610728458E+02  0.11655358790E+03  0.13333387878E+03  0.41800000000E+01 0.  1.
         -5    1    3    3    0  502  0.73033940637E+02 -0.44865416493E+02  0.11249823797E+03  0.14149271369E+03  0.41800000000E+01 0.  1.
        -11    1    4    4    0    0 -0.58480021674E+02  0.42542107717E+02  0.65140728187E+02  0.97329637484E+02  0.00000000000E+00 0.  1.
         11    1    4    4    0    0  0.37262329712E+02  0.40934037234E+02  0.40758016721E+02  0.68740763356E+02  0.00000000000E+00 0. -1.
</event>
<event>
 8    1  0.3708258E-009  0.1273499E+03  0.7561462E-02  0.1231442E+00
         -1   -1    0    0    0  501 -0.00000000000E+00  0.00000000000E+00  0.11281227635E+02  0.11281227635E+02  0.00000000000E+00 0.  1.
          1   -1    0    0  501    0  0.00000000000E+00 -0.00000000000E+00 -0.16426678772E+04  0.16426678772E+04  0.00000000000E+00 0. -1.
         25    2    1    2    0    0 -0.68944601625E+02  0.91920862165E+01 -0.11862878744E+04  0.11948907045E+04  0.12508805766E+03 0.  0.
         23    2    1    2    0    0  0.68944601625E+02 -0.91920862165E+01 -0.44509877522E+03  0.45905840041E+03  0.88226088775E+02 0.  0.
          5    1    3    3  502    0 -0.81697174123E+02  0.52595964863E+02 -0.76357723985E+03  0.76974569658E+03  0.41800000000E+01 0.  1.
         -5    1    3    3    0  502  0.12752572499E+02 -0.43403878647E+02 -0.42271063453E+03  0.42514500788E+03  0.41800000000E+01 0.  1.
        -11    1    4    4    0    0 -0.28566045115E+01 -0.35448732452E+02 -0.12538828054E+03  0.13033416175E+03  0.00000000000E+00 0.  1.
         11    1    4    4    0    0  0.71801206136E+02  0.26256646235E+02 -0.31971049468E+03  0.32872423866E+03  0.00000000000E+00 0. -1.
</event>
<event>
 8    1  0.3708258E-009  0.1363701E+03  0.7561462E-02  0.1218298E+00
          1   -1    0    0  501    0  0.00000000000E+00  0.00000000000E+00  0.66884523778E+02  0.66884523778E+02  0.00000000000E+00 0. -1.
         -1   -1    0    0    0  501 -0.00000000000E+00 -0.00000000000E+00 -0.48450285904E+03  0.48450285904E+03  0.00000000000E+00 0.  1.
         25    2    1    2    0    0 -0.64959654104E+02 -0.54237142320E+02 -0.44011337923E+02  0.15730785875E+03  0.12508932924E+03 0.  0.
         23    2    1    2    0    0  0.64959654104E+02  0.54237142320E+02 -0.37360699734E+03  0.39407952407E+03  0.92493559569E+02 0.  0.
          5    1    3    3  502    0  0.29673015494E+02 -0.42391837580E+02  0.64258669375E+00  0.51917637269E+02  0.41800000000E+01 0.  1.
         -5    1    3    3    0  502 -0.94632669598E+02 -0.11845304740E+02 -0.44653924617E+02  0.10539022148E+03  0.41800000000E+01 0.  1.
        -11    1    4    4    0    0 -0.69765577245E+01 -0.20485958392E+02 -0.63755501983E+02  0.67328380955E+02  0.00000000000E+00 0.  1.
         11    1    4    4    0    0  0.71936211828E+02  0.74723100712E+02 -0.30985149536E+03  0.32675114311E+03  0.00000000000E+00 0. -1.
</event>
<event>
 8    1  0.3708258E-009  0.1241607E+03  0.7561462E-02  0.1236387E+00
         -1   -1    0    0    0  501 -0.00000000000E+00  0.00000000000E+00  0.27229296232E+03  0.27229296232E+03  0.00000000000E+00 0.  1.
          1   -1    0    0  501    0  0.00000000000E+00 -0.00000000000E+00 -0.62576772047E+02  0.62576772047E+02  0.00000000000E+00 0. -1.
         25    2    1    2    0    0 -0.67320231465E+02 -0.13010654006E+02  0.14187311012E+03  0.20119677383E+03  0.12510344417E+03 0.  0.
         23    2    1    2    0    0  0.67320231465E+02  0.13010654006E+02  0.67843080156E+02  0.13367296054E+03  0.92544509137E+02 0.  0.
          5    1    3    3  502    0  0.21141460515E+02 -0.40322427664E+02  0.71339111837E+02  0.84732525061E+02  0.41800000000E+01 0.  1.
         -5    1    3    3    0  502 -0.88461691980E+02  0.27311773658E+02  0.70533998282E+02  0.11646424877E+03  0.41800000000E+01 0.  1.
        -11    1    4    4    0    0  0.75348269032E+02  0.37492241315E+02  0.33137839957E+02  0.90449689009E+02  0.00000000000E+00 0. -1.
         11    1    4    4    0    0 -0.80280375661E+01 -0.24481587308E+02  0.34705240198E+02  0.43223271527E+02  0.00000000000E+00 0.  1.
</event>
<event>
 8    1  0.3708258E-009  0.1315455E+03  0.7561462E-02  0.1225180E+00
          3   -1    0    0  501    0  0.00000000000E+00  0.00000000000E+00  0.20307546586E+03  0.20307546586E+03  0.00000000000E+00 0. -1.
         -3   -1    0    0    0  501 -0.00000000000E+00 -0.00000000000E+00 -0.12796895776E+03  0.12796895776E+03  0.00000000000E+00 0.  1.
         25    2    1    2    0    0  0.10385859241E+03  0.32350817922E+02 -0.76261460281E+01  0.16594975928E+03  0.12509189368E+03 0.  0.
         23    2    1    2    0    0 -0.10385859241E+03 -0.32350817922E+02  0.82732654129E+02  0.16509466433E+03  0.92619509253E+02 0.  0.
          5    1    3    3  502    0  0.87783178314E+02  0.55843366044E+02 -0.49382509870E+02  0.11524093286E+03  0.41800000000E+01 0. -1.
         -5    1    3    3    0  502  0.16075414097E+02 -0.23492548122E+02  0.41756363842E+02  0.50708826421E+02  0.41800000000E+01 0. -1.
        -11    1    4    4    0    0 -0.27230150320E+02  0.23018857718E+02 -0.51389222374E+01  0.36024400326E+02  0.00000000000E+00 0.  1.
         11    1    4    4    0    0 -0.76628442091E+02 -0.55369675640E+02  0.87871576366E+02  0.12907026401E+03  0.00000000000E+00 0. -1.
</event>
<event>
 8    1  0.3708258E-009  0.8138493E+02  0.7561462E-02  0.1325167E+00
         -2   -1    0    0    0  501 -0.00000000000E+00  0.00000000000E+00  0.21446298903E+03  0.21446298903E+03  0.00000000000E+00 0.  1.
          2   -1    0    0  501    0  0.00000000000E+00 -0.00000000000E+00 -0.53828320264E+02  0.53828320264E+02  0.00000000000E+00 0. -1.
         25    2    1    2    0    0 -0.89236853686E+01  0.95084040338E+01  0.98812930706E+02  0.15993813132E+03  0.12508464601E+03 0.  0.
         23    2    1    2    0    0  0.89236853686E+01 -0.95084040338E+01  0.61821738064E+02  0.10835317798E+03  0.88025234870E+02 0.  0.
          5    1    3    3  502    0 -0.48550760598E+01  0.64324741960E+02  0.77290554155E+02  0.10075984494E+03  0.41800000000E+01 0. -1.
         -5    1    3    3    0  502 -0.40686093088E+01 -0.54816337926E+02  0.21522376551E+02  0.59178286371E+02  0.41800000000E+01 0. -1.
        -11    1    4    4    0    0  0.14979792070E+02  0.12912319875E+02 -0.17063320893E+02  0.26120472716E+02  0.00000000000E+00 0. -1.
         11    1    4    4    0    0 -0.60561067013E+01 -0.22420723909E+02  0.78885058957E+02  0.82232705267E+02  0.00000000000E+00 0.  1.
</event>
<event>
 8    1  0.3708258E-009  0.7711797E+02  0.7561462E-02  0.1337435E+00
         -2   -1    0    0    0  501 -0.00000000000E+00  0.00000000000E+00  0.13922108749E+02  0.13922108749E+02  0.00000000000E+00 0.  1.
          2   -1    0    0  501    0  0.00000000000E+00 -0.00000000000E+00 -0.11427171311E+04  0.11427171311E+04  0.00000000000E+00 0. -1.
         25    2    1    2    0    0 -0.17911796295E+02  0.44917443649E+02 -0.79379232167E+03  0.80504178206E+03  0.12509041424E+03 0.  0.
         23    2    1    2    0    0  0.17911796295E+02 -0.44917443649E+02 -0.33500270068E+03  0.35159745779E+03  0.95160672905E+02 0.  0.
          5    1    3    3  502    0 -0.57249988220E+01  0.33264629246E+02 -0.78469565570E+03  0.78543240043E+03  0.41800000000E+01 0.  1.
         -5    1    3    3    0  502 -0.12186797473E+02  0.11652814404E+02 -0.90966659663E+01  0.19609381629E+02  0.41800000000E+01 0.  1.
        -11    1    4    4    0    0 -0.20249898007E+02  0.19414699421E+02 -0.13909673429E+03  0.14189746443E+03  0.00000000000E+00 0.  1.
         11    1    4    4    0    0  0.38161694303E+02 -0.64332143070E+02 -0.19590596639E+03  0.20969999335E+03  0.00000000000E+00 0. -1.
</event>
<event>
 8    1  0.3708258E-009  0.7266246E+02  0.7561462E-02  0.1351266E+00
          1   -1    0    0  501    0  0.00000000000E+00  0.00000000000E+00  0.12361868396E+03  0.12361868396E+03  0.00000000000E+00 0. -1.
         -1   -1    0    0    0  501 -0.00000000000E+00 -0.00000000000E+00 -0.12074079657E+03  0.12074079657E+03  0.00000000000E+00 0.  1.
         25    2    1    2    0    0 -0.36306083582E+02  0.13909432852E+02  0.42054627060E+02  0.13758069279E+03  0.12509297080E+03 0.  0.
         23    2    1    2    0    0  0.36306083582E+02 -0.13909432852E+02 -0.39176739668E+02  0.10677878775E+03  0.91407267515E+02 0.  0.
          5    1    3    3  502    0 -0.35670630008E+02  0.51165750061E+01 -0.40545857418E+02  0.54405993592E+02  0.41800000000E+01 0.  1.
         -5    1    3    3    0  502 -0.63545357411E+00  0.87928578457E+01  0.82600484479E+02  0.83174699197E+02  0.41800000000E+01 0.  1.
        -11    1    4    4    0    0 -0.30821162063E+02 -0.83596676752E+01 -0.11169362098E+02  0.33831682255E+02  0.00000000000E+00 0.  1.
         11    1    4    4    0    0  0.67127245645E+02 -0.55497651765E+01 -0.28007377570E+02  0.72947105492E+02  0.00000000000E+00 0. -1.
</event>
<event>
 8    1  0.3708258E-009  0.1853335E+03  0.7561462E-02  0.1162739E+00
          1   -1    0    0  501    0  0.00000000000E+00  0.00000000000E+00  0.74859128866E+03  0.74859128866E+03  0.00000000000E+00 0. -1.
         -1   -1    0    0    0  501 -0.00000000000E+00 -0.00000000000E+00 -0.50706577019E+02  0.50706577019E+02  0.00000000000E+00 0.  1.
         25    2    1    2    0    0  0.16013063126E+03 -0.83065515892E+01  0.32929736514E+03  0.38703337852E+03  0.12508902244E+03 0.  0.
         23    2    1    2    0    0 -0.16013063126E+03  0.83065515892E+01  0.36858734651E+03  0.41226448716E+03  0.91621817842E+02 0.  0.
          5    1    3    3  502    0  0.50260861635E+02  0.54406155560E+02  0.92952890140E+02  0.11892811341E+03  0.41800000000E+01 0.  1.
         -5    1    3    3    0  502  0.10986976962E+03 -0.62712707149E+02  0.23634447500E+03  0.26810526511E+03  0.41800000000E+01 0.  1.
        -11    1    4    4    0    0 -0.76888541709E+02  0.32111156774E+02  0.10053426978E+03  0.13057608371E+03  0.00000000000E+00 0.  1.
         11    1    4    4    0    0 -0.83242089548E+02 -0.23804605185E+02  0.26805307672E+03  0.28168840345E+03  0.00000000000E+00 0. -1.
</event>
<event>
 8    1  0.3708258E-009  0.1299716E+03  0.7561462E-02  0.1227498E+00
          1   -1    0    0  501    0  0.00000000000E+00  0.00000000000E+00  0.59542609200E+03  0.59542609200E+03  0.00000000000E+00 0. -1.
         -1   -1    0    0    0  501 -0.00000000000E+00 -0.00000000000E+00 -0.35099600484E+02  0.35099600484E+02  0.00000000000E+00 0.  1.
         25    2    1    2    0    0  0.64528219257E+02  0.72820138404E+02  0.28632893630E+03  0.32725887624E+03  0.12508976250E+03 0.  0.
         23    2    1    2    0    0 -0.64528219257E+02 -0.72820138404E+02  0.27399755522E+03  0.30326681624E+03  0.86194187325E+02 0.  0.
          5    1    3    3  502    0  0.60994642356E+01 -0.31403346780E+02  0.28454407605E+02  0.43017430945E+02  0.41800000000E+01 0.  1.
         -5    1    3    3    0  502  0.58428755022E+02  0.10422348518E+03  0.25787452869E+03  0.28424144530E+03  0.41800000000E+01 0.  1.
        -11    1    4    4    0    0 -0.81093991970E+01 -0.44055032898E+02  0.37446385947E+02  0.58385272967E+02  0.00000000000E+00 0.  1.
         11    1    4    4    0    0 -0.56418820060E+02 -0.28765105507E+02  0.23655116927E+03  0.24488154328E+03  0.00000000000E+00 0. -1.
</event>
<event>
 8    1  0.3708258E-009  0.1052895E+03  0.7561462E-02  0.1269550E+00
         -2   -1    0    0    0  501 -0.00000000000E+00  0.00000000000E+00  0.23287064463E+02  0.23287064463E+02  0.00000000000E+00 0.  1.
          2   -1    0    0  501    0  0.00000000000E+00 -0.00000000000E+00 -0.54013649330E+03  0.54013649330E+03  0.00000000000E+00 0. -1.
         25    2    1    2    0    0 -0.16223927371E+02  0.23810270969E+02 -0.27283697732E+03  0.30152518266E+03  0.12508906731E+03 0.  0.
         23    2    1    2    0    0  0.16223927371E+02 -0.23810270969E+02 -0.24401245151E+03  0.26189837510E+03  0.90656150180E+02 0.  0.
          5    1    3    3  502    0  0.52749694856E+02  0.15950327180E+02 -0.86661987422E+02  0.10278480291E+03  0.41800000000E+01 0. -1.
         -5    1    3    3    0  502 -0.68973622227E+02  0.78599437887E+01 -0.18617498990E+03  0.19874037975E+03  0.41800000000E+01 0. -1.
        -11    1    4    4    0    0  0.20962568207E+02 -0.52582373450E+02 -0.99517181429E+02  0.11449019462E+03  0.00000000000E+00 0.  1.
         11    1    4    4    0    0 -0.47386408365E+01  0.28772102481E+02 -0.14449527008E+03  0.14740818049E+03  0.00000000000E+00 0. -1.
</event>
<event>
 8    1  0.3708258E-009  0.1207175E+03  0.7561462E-02  0.1241918E+00
          2   -1    0    0  501    0  0.00000000000E+00  0.00000000000E+00  0.49896124457E+03  0.49896124457E+03  0.00000000000E+00 0. -1.
         -2   -1    0    0    0  501 -0.00000000000E+00 -0.00000000000E+00 -0.29507169233E+02  0.29507169233E+02  0.00000000000E+00 0.  1.
         25    2    1    2    0    0  0.46208435512E+02 -0.32418678233E+02  0.26986205986E+03  0.30275215728E+03  0.12508855735E+03 0.  0.
         23    2    1    2    0    0 -0.46208435512E+02  0.32418678233E+02  0.19959201548E+03  0.22571625652E+03  0.89020590893E+02 0.  0.
          5    1    3    3  502    0  0.81734859208E+02  0.78045855705E+01  0.18208326917E+03  0.19978310258E+03  0.41800000000E+01 0. -1.
         -5    1    3    3    0  502 -0.35526423696E+02 -0.40223263803E+02  0.87778790686E+02  0.10296905470E+03  0.41800000000E+01 0. -1.
        -11    1    4    4    0    0  0.26506384200E+02  0.15609482139E+02  0.59972154299E+02  0.67401065476E+02  0.00000000000E+00 0.  1.
         11    1    4    4    0    0 -0.72714819712E+02  0.16809196094E+02  0.13961986118E+03  0.15831519104E+03  0.00000000000E+00 0. -1.
</event>
<event>
 8    1  0.3708258E-009  0.9608993E+02  0.7561462E-02  0.1288740E+00
         -2   -1    0    0    0  501 -0.00000000000E+00  0.00000000000E+00  0.34254159503E+02  0.34254159503E+02  0.00000000000E+00 0.  1.
          2   -1    0    0  501    0  0.00000000000E+00 -0.00000000000E+00 -0.40116249496E+03  0.40116249496E+03  0.00000000000E+00 0. -1.
         25    2    1    2    0    0 -0.83432481966E+01  0.26858391906E+02 -0.26161846664E+03  0.29134695689E+03  0.12509134341E+03 0.  0.
         23    2    1    2    0    0  0.83432481966E+01 -0.26858391906E+02 -0.10528986881E+03  0.14406969757E+03  0.94229179538E+02 0.  0.
          5    1    3    3  502    0 -0.53543944394E+02  0.27645689943E+01 -0.49498004114E+02  0.73089818951E+02  0.41800000000E+01 0. -1.
         -5    1    3    3    0  502  0.45200696198E+02  0.24093822912E+02 -0.21212046253E+03  0.21825713794E+03  0.41800000000E+01 0. -1.
        -11    1    4    4    0    0 -0.35047002776E+02 -0.25953844218E+02 -0.19181630805E+02  0.47642726555E+02  0.00000000000E+00 0.  1.
         11    1    4    4    0    0  0.43390250972E+02 -0.90454768873E+00 -0.86108238007E+02  0.96426971013E+02  0.00000000000E+00 0. -1.
</event>
<event>
 8    1  0.3708258E-009  0.1047165E+03  0.7561462E-02  0.1270679E+00
         -2   -1    0    0    0  501 -0.00000000000E+00  0.00000000000E+00  0.38666594964E+03  0.38666594964E+03  0.00000000000E+00 0.  1.
          2   -1    0    0  501    0  0.00000000000E+00 -0.00000000000E+00 -0.41583837376E+02  0.41583837376E+02  0.00000000000E+00 0. -1.
         25    2    1    2    0    0  0.19045545759E+02  0.21262434982E+02  0.29391378935E+03  0.32069599339E+03  0.12508309498E+03 0.  0.
         23    2    1    2    0    0 -0.19045545759E+02 -0.21262434982E+02  0.51168322913E+02  0.10755379363E+03  0.90193111150E+02 0.  0.
          5    1    3    3  502    0  0.41521213168E+02  0.60417220942E+02  0.11756492121E+03  0.13861181345E+03  0.41800000000E+01 0.  1.
         -5    1    3    3    0  502 -0.22475667409E+02 -0.39154785960E+02  0.17634886813E+03  0.18208417993E+03  0.41800000000E+01 0.  1.
        -11    1    4    4    0    0  0.22775064852E+02  0.21164539091E+02  0.35601156300E+01  0.31294020471E+02  0.00000000000E+00 0. -1.
         11    1    4    4    0    0 -0.41820610611E+02 -0.42426974073E+02  0.47608207283E+02  0.76259773154E+02  0.00000000000E+00 0.  1.
</event>
<event>
 8    1  0.3708258E-009  0.3896057E+03  0.7561462E-02  0.1047439E+00
         -2   -1    0    0    0  501 -0.00000000000E+00  0.00000000000E+00  0.11152156046E+03  0.11152156046E+03  0.00000000000E+00 0. -1.
          2   -1    0    0  501    0  0.00000000000E+00 -0.00000000000E+00 -0.13992241010E+04  0.13992241010E+04  0.00000000000E+00 0.  1.
         25    2    1    2    0    0  0.20645414161E+02  0.37899409348E+03 -0.62037095411E+03  0.73795007173E+03  0.12508969436E+03 0.  0.
         23    2    1    2    0    0 -0.20645414161E+02 -0.37899409348E+03 -0.66733158646E+03  0.77279558976E+03  0.88424098775E+02 0.  0.
          5    1    3    3  502    0 -0.52553204941E+02  0.16979111612E+03 -0.28688103910E+03  0.33750417102E+03  0.41800000000E+01 0. -1.
         -5    1    3    3    0  502  0.73198619102E+02  0.20920297737E+03 -0.33348991502E+03  0.40044590071E+03  0.41800000000E+01 0. -1.
        -11    1    4    4    0    0 -0.81952944703E+01 -0.25416109797E+03 -0.35917614454E+03  0.44008241203E+03  0.00000000000E+00 0.  1.
         11    1    4    4    0    0 -0.12450119691E+02 -0.12483299551E+03 -0.30815544192E+03  0.33271317773E+03  0.00000000000E+00 0. -1.
</event>
<event>
 8    1  0.3708258E-009  0.2041350E+03  0.7561462E-02  0.1146296E+00
         -2   -1    0    0    0  501 -0.00000000000E+00  0.00000000000E+00  0.46439805283E+02  0.46439805283E+02  0.00000000000E+00 0.  1.
          2   -1    0    0  501    0  0.00000000000E+00 -0.00000000000E+00 -0.95921026733E+03  0.95921026733E+03  0.00000000000E+00 0. -1.
         25    2    1    2    0    0 -0.71589792753E+02 -0.15922529540E+03 -0.35986059265E+03  0.41907670230E+03  0.12509133921E+03 0.  0.
         23    2    1    2    0    0  0.71589792753E+02  0.15922529540E+03 -0.55290986939E+03  0.58657337031E+03  0.88776133991E+02 0.  0.
          5    1    3    3  502    0  0.23283761843E+02 -0.97525657135E+02 -0.14741782691E+03  0.17833360719E+03  0.41800000000E+01 0.  1.
         -5    1    3    3    0  502 -0.94873554595E+02 -0.61699638262E+02 -0.21244276575E+03  0.24074309511E+03  0.41800000000E+01 0.  1.
        -11    1    4    4    0    0  0.28809945084E+02  0.14753146062E+03 -0.45224165247E+03  0.47656904750E+03  0.00000000000E+00 0. -1.
         11    1    4    4    0    0  0.42779847669E+02  0.11693834778E+02 -0.10066821692E+03  0.11000432281E+03  0.00000000000E+00 0.  1.
</event>
<event>
 8    1  0.3708258E-009  0.1688734E+03  0.7561462E-02  0.1179028E+00
          3   -1    0    0  501    0  0.00000000000E+00  0.00000000000E+00  0.12471855535E+04  0.12471855535E+04  0.00000000000E+00 0. -1.
         -3   -1    0    0    0  501 -0.00000000000E+00 -0.00000000000E+00 -0.38948078826E+02  0.38948078826E+02  0.00000000000E+00 0.  1.
         25    2    1    2    0    0  0.12228935882E+03  0.94072318121E+02  0.95747303654E+03  0.97785776044E+03  0.12508755186E+03 0.  0.
         23    2    1    2    0    0 -0.12228935882E+03 -0.94072318121E+02  0.25076443818E+03  0.30827587193E+03  0.91361487755E+02 0.  0.
          5    1    3    3  502    0  0.34264869333E+02  0.47765422792E+02  0.68911410814E+03  0.69162948413E+03  0.41800000000E+01 0.  1.
         -5    1    3    3    0  502  0.88024489485E+02  0.46306895329E+02  0.26835892840E+03  0.28622827630E+03  0.41800000000E+01 0.  1.
        -11    1    4    4    0    0  0.46212576330E+01 -0.41727502436E+02  0.55893935734E+02  0.69904738992E+02  0.00000000000E+00 0.  1.
         11    1    4    4    0    0 -0.12691061645E+03 -0.52344815685E+02  0.19487050245E+03  0.23837113294E+03  0.00000000000E+00 0. -1.
</event>
<event>
 8    1  0.3708258E-009  0.1497054E+03  0.7561462E-02  0.1200836E+00
          1   -1    0    0  501    0  0.00000000000E+00  0.00000000000E+00  0.76046034118E+02  0.76046034118E+02  0.00000000000E+00 0. -1.
         -1   -1    0    0    0  501 -0.00000000000E+00 -0.00000000000E+00 -0.30038508177E+03  0.30038508177E+03  0.00000000000E+00 0.  1.
         25    2    1    2    0    0  0.10125019042E+03 -0.20166588202E+02 -0.98359733204E+02  0.18968711025E+03  0.12509304672E+03 0.  0.
         23    2    1    2    0    0 -0.10125019042E+03  0.20166588202E+02 -0.12597931444E+03  0.18674400563E+03  0.91346831539E+02 0.  0.
          5    1    3    3  502    0  0.57695057893E+02 -0.73275609653E+02 -0.55004835546E+02  0.10835607509E+03  0.41800000000E+01 0.  1.
         -5    1    3    3    0  502  0.43555132530E+02  0.53109021451E+02 -0.43354897658E+02  0.81331035160E+02  0.41800000000E+01 0.  1.
        -11    1    4    4    0    0 -0.74733934711E+02  0.55483640635E+02 -0.93431429866E+02  0.13188262760E+03  0.00000000000E+00 0.  1.
         11    1    4    4    0    0 -0.26516255712E+02 -0.35317052433E+02 -0.32547884577E+02  0.54861378036E+02  0.00000000000E+00 0. -1.
</event>
<event>
 8    1  0.3708258E-009  0.1174667E+03  0.7561462E-02  0.1247336E+00
         -3   -1    0    0    0  501 -0.00000000000E+00  0.00000000000E+00  0.85961813477E+02  0.85961813477E+02  0.00000000000E+00 0.  1.
          3   -1    0    0  501    0  0.00000000000E+00 -0.00000000000E+00 -0.17219745182E+03  0.17219745182E+03  0.00000000000E+00 0. -1.
         25    2    1    2    0    0 -0.39904525448E+02  0.33233379349E+02 -0.73708005282E+02  0.15419845853E+03  0.12508983138E+03 0.  0.
         23    2    1    2    0    0  0.39904525448E+02 -0.33233379349E+02 -0.12527633059E+02  0.10396080677E+03  0.89185644024E+02 0.  0.
          5    1    3    3  502    0 -0.64045920061E+02  0.65217706376E+02 -0.33958112843E+02  0.97600486317E+02  0.41800000000E+01 0. -1.
         -5    1    3    3    0  502  0.24141394613E+02 -0.31984327027E+02 -0.39749892439E+02  0.56597972208E+02  0.41800000000E+01 0. -1.
        -11    1    4    4    0    0 -0.23482038094E+02  0.10915194748E+02 -0.47147696393E+01  0.26320650489E+02  0.00000000000E+00 0.  1.
         11    1    4    4    0    0  0.63386563542E+02 -0.44148574097E+02 -0.78128634200E+01  0.77640156281E+02  0.00000000000E+00 0. -1.
</event>
<event>
 8    1  0.3708258E-009  0.8625419E+02  0.7561462E-02  0.1312185E+00
         -4   -1    0    0    0  501 -0.00000000000E+00  0.00000000000E+00  0.42954764109E+02  0.42954764109E+02  0.00000000000E+00 0.  1.
          4   -1    0    0  501    0  0.00000000000E+00 -0.00000000000E+00 -0.28521463580E+03  0.28521463580E+03  0.00000000000E+00 0. -1.
         25    2    1    2    0    0  0.18225137772E+02  0.17961428785E+02 -0.15262082550E+03  0.19898088553E+03  0.12508200454E+03 0.  0.
         23    2    1    2    0    0 -0.18225137772E+02 -0.17961428785E+02 -0.89639046196E+02  0.12918851438E+03  0.89441294015E+02 0.  0.
          5    1    3    3  502    0 -0.44489413276E+02  0.19003353512E+02 -0.20579199386E+02  0.52739085940E+02  0.41800000000E+01 0.  1.
         -5    1    3    3    0  502  0.62714551048E+02 -0.10419247270E+01 -0.13204162611E+03  0.14624179959E+03  0.41800000000E+01 0.  1.
        -11    1    4    4    0    0 -0.37011835727E+02 -0.31146089519E+01 -0.97218746327E+02  0.10407238544E+03  0.00000000000E+00 0. -1.
         11    1    4    4    0    0  0.18786697956E+02 -0.14846819833E+02  0.75797001317E+01  0.25116128948E+02  0.00000000000E+00 0.  1.
</event>
<event>
 8    1  0.3708258E-009  0.1090378E+03  0.7561462E-02  0.1262362E+00
          2   -1    0    0  501    0  0.00000000000E+00  0.00000000000E+00  0.56309879267E+03  0.56309879267E+03  0.00000000000E+00 0.  1.
         -2   -1    0    0    0  501 -0.00000000000E+00 -0.00000000000E+00 -0.28759625964E+02  0.28759625964E+02  0.00000000000E+00 0. -1.
         25    2    1    2    0    0 -0.44245599162E+02 -0.35789853346E+02  0.21863969490E+03  0.25824254069E+03  0.12508919613E+03 0.  0.
         23    2    1    2    0    0  0.44245599162E+02  0.35789853346E+02  0.31569947181E+03  0.33361587794E+03  0.91623200495E+02 0.  0.
          5    1    3    3  502    0 -0.15173750238E+02  0.33006146876E+02  0.15733234818E+03  0.16152581407E+03  0.41800000000E+01 0. -1.
         -5    1    3    3    0  502 -0.29071848924E+02 -0.68796000222E+02  0.61307346725E+02  0.96716726624E+02  0.41800000000E+01 0. -1.
        -11    1    4    4    0    0  0.38291120611E+02  0.65789151346E+02  0.20173294356E+03  0.21561679635E+03  0.00000000000E+00 0. -1.
         11    1    4    4    0    0  0.59544785511E+01 -0.29999298000E+02  0.11396652825E+03  0.11799908159E+03  0.00000000000E+00 0.  1.
</event>
<event>
 8    1  0.3708258E-009  0.1031131E+03  0.7561462E-02  0.1273883E+00
         -2   -1    0    0    0  501 -0.00000000000E+00  0.00000000000E+00  0.17739977785E+02  0.17739977785E+02  0.00000000000E+00 0.  1.
          2   -1    0    0  501    0  0.00000000000E+00 -0.00000000000E+00 -0.88007594010E+03  0.88007594010E+03  0.00000000000E+00 0. -1.
         25    2    1    2    0    0 -0.50198234269E+02  0.77727043818E+01 -0.61385976319E+03  0.62853160361E+03  0.12509152738E+03 0.  0.
         23    2    1    2    0    0  0.50198234269E+02 -0.77727043818E+01 -0.24847619913E+03  0.26928431427E+03  0.90517085254E+02 0.  0.
          5    1    3    3  502    0 -0.12255642298E+02  0.48645576321E+02 -0.49062215948E+03  0.49319790008E+03  0.41800000000E+01 0. -1.
         -5    1    3    3    0  502 -0.37942591971E+02 -0.40872871939E+02 -0.12323760371E+03  0.13533370354E+03  0.41800000000E+01 0. -1.
        -11    1    4    4    0    0 -0.24729882891E+02 -0.18787198902E+01 -0.97897816906E+02  0.10099049090E+03  0.00000000000E+00 0. -1.
         11    1    4    4    0    0  0.74928117160E+02 -0.58939844917E+01 -0.15057838222E+03  0.16829382337E+03  0.00000000000E+00 0.  1.
</event>
<event>
 8    1  0.3708258E-009  0.1093939E+03  0.7561462E-02  0.1261696E+00
          1   -1    0    0  501    0  0.00000000000E+00  0.00000000000E+00  0.33772070629E+03  0.33772070629E+03  0.00000000000E+00 0. -1.
         -1   -1    0    0    0  501 -0.00000000000E+00 -0.00000000000E+00 -0.56742780571E+02  0.56742780571E+02  0.00000000000E+00 0.  1.
         25    2    1    2    0    0  0.47342976581E+02 -0.65068675891E+02  0.20314804518E+03  0.25177738205E+03  0.12508969517E+03 0.  0.
         23    2    1    2    0    0 -0.47342976581E+02  0.65068675891E+02  0.77829880538E+02  0.14268610481E+03  0.88467757899E+02 0.  0.
          5    1    3    3  502    0 -0.35488679324E+02 -0.35158975004E+02  0.32628851725E+02  0.59813997094E+02  0.41800000000E+01 0.  1.
         -5    1    3    3    0  502  0.82831655905E+02 -0.29909700887E+02  0.17051919345E+03  0.19196338495E+03  0.41800000000E+01 0.  1.
        -11    1    4    4    0    0 -0.31337592541E+02  0.41521097150E+02 -0.76590750262E+01  0.52580487304E+02  0.00000000000E+00 0.  1.
         11    1    4    4    0    0 -0.16005384039E+02  0.23547578741E+02  0.85488955564E+02  0.90105617507E+02  0.00000000000E+00 0. -1.
</event>
<event>
 8    1  0.3708258E-009  0.1050299E+03  0.7561462E-02  0.1270061E+00
         -1   -1    0    0    0  501 -0.00000000000E+00  0.00000000000E+00  0.72139771268E+02  0.72139771268E+02  0.00000000000E+00 0.  1.
          1   -1    0    0  501    0  0.00000000000E+00 -0.00000000000E+00 -0.18507917834E+03  0.18507917834E+03  0.00000000000E+00 0. -1.
         25    2    1    2    0    0  0.14901973915E+02 -0.34682674559E+02 -0.67425781392E+02  0.14703124858E+03  0.12508795034E+03 0.  0.
         23    2    1    2    0    0 -0.14901973915E+02  0.34682674559E+02 -0.45513625676E+02  0.11018770103E+03  0.92977860777E+02 0.  0.
          5    1    3    3  502    0  0.36057375684E+02 -0.72828292729E+02 -0.22840958103E+02  0.84517905382E+02  0.41800000000E+01 0. -1.
         -5    1    3    3    0  502 -0.21155401769E+02  0.38145618170E+02 -0.44584823289E+02  0.62513343194E+02  0.41800000000E+01 0. -1.
        -11    1    4    4    0    0 -0.45685916560E+02  0.27262888678E+02  0.18264047734E+01  0.53233484063E+02  0.00000000000E+00 0.  1.
         11    1    4    4    0    0  0.30783942645E+02  0.74197858809E+01 -0.47340030449E+02  0.56954216966E+02  0.00000000000E+00 0. -1.
</event>
<event>
 8    1  0.3708258E-009  0.1967265E+03  0.7561462E-02  0.1152531E+00
         -2   -1    0    0    0  501 -0.00000000000E+00  0.00000000000E+00  0.36396130446E+02  0.36396130446E+02  0.00000000000E+00 0. -1.
          2   -1    0    0  501    0  0.00000000000E+00 -0.00000000000E+00 -0.12219795629E+04  0.12219795629E+04  0.00000000000E+00 0.  1.
         25    2    1    2    0    0 -0.90449191702E+02  0.15124819089E+03 -0.49609990759E+03  0.54112927007E+03  0.12509475245E+03 0.  0.
         23    2    1    2    0    0  0.90449191702E+02 -0.15124819089E+03 -0.68948352482E+03  0.71724642323E+03  0.89430582653E+02 0.  0.
          5    1    3    3  502    0 -0.61886765052E+02  0.17029359226E+03 -0.42649899939E+03  0.46340991372E+03  0.41800000000E+01 0.  1.
         -5    1    3    3    0  502 -0.28562426650E+02 -0.19045401370E+02 -0.69600908193E+02  0.77719356345E+02  0.41800000000E+01 0.  1.
        -11    1    4    4    0    0  0.84840828168E+02 -0.12692194287E+03 -0.66492940733E+03  0.68223035878E+03  0.00000000000E+00 0.  1.
         11    1    4    4    0    0  0.56083635335E+01 -0.24326248016E+02 -0.24554117489E+02  0.35016064452E+02  0.00000000000E+00 0. -1.
</event>
<event>
 8    1  0.3708258E-009  0.1153580E+03  0.7561462E-02  0.1250957E+00
         -2   -1    0    0    0  501 -0.00000000000E+00  0.00000000000E+00  0.33920422936E+02  0.33920422936E+02  0.00000000000E+00 0.  1.
          2   -1    0    0  501    0  0.00000000000E+00 -0.00000000000E+00 -0.46752924889E+03  0.46752924889E+03  0.00000000000E+00 0. -1.
         25    2    1    2    0    0 -0.63490447875E+02 -0.18078930080E+02 -0.23495713561E+03  0.27424493531E+03  0.12509014462E+03 0.  0.
         23    2    1    2    0    0  0.63490447875E+02  0.18078930080E+02 -0.19865169034E+03  0.22720473652E+03  0.88326743044E+02 0.  0.
          5    1    3    3  502    0  0.21722279683E+02  0.17303802026E+02 -0.79814735262E+01  0.29196837480E+02  0.41800000000E+01 0. -1.
         -5    1    3    3    0  502 -0.85212727558E+02 -0.35382732106E+02 -0.22697566209E+03  0.24504809783E+03  0.41800000000E+01 0. -1.
        -11    1    4    4    0    0  0.48950836146E+02 -0.31761413215E+02 -0.10492938564E+03  0.12006309883E+03  0.00000000000E+00 0.  1.
         11    1    4    4    0    0  0.14539611729E+02  0.49840343295E+02 -0.93722304699E+02  0.10714163769E+03  0.00000000000E+00 0. -1.
</event>
<event>
 8    1  0.3708258E-009  0.1201499E+03  0.7561462E-02  0.1242850E+00
         -2   -1    0    0    0  501 -0.00000000000E+00  0.00000000000E+00  0.30113691969E+02  0.30113691969E+02  0.00000000000E+00 0.  1.
          2   -1    0    0  501    0  0.00000000000E+00 -0.00000000000E+00 -0.61478652207E+03  0.61478652207E+03  0.00000000000E+00 0. -1.
         25    2    1    2    0    0  0.41302655079E+02  0.69123550710E+02 -0.36165280828E+03  0.39105383576E+03  0.12508546738E+03 0.  0.
         23    2    1    2    0    0 -0.41302655079E+02 -0.69123550710E+02 -0.22302002182E+03  0.25384637828E+03  0.90642589613E+02 0.  0.
          5    1    3    3  502    0  0.69640840869E+02  0.25325255885E+02 -0.10180213097E+03  0.12598556096E+03  0.41800000000E+01 0. -1.
         -5    1    3    3    0  502 -0.28338185790E+02  0.43798294826E+02 -0.25985067732E+03  0.26506827480E+03  0.41800000000E+01 0. -1.
        -11    1    4    4    0    0 -0.55297570910E+02 -0.14234168042E+02 -0.15584447043E+03  0.16597569657E+03  0.00000000000E+00 0.  1.
         11    1    4    4    0    0  0.13994915831E+02 -0.54889382668E+02 -0.67175551392E+02  0.87870681707E+02  0.00000000000E+00 0. -1.
</event>
<event>
 8    1  0.3708258E-009  0.8181134E+02  0.7561462E-02  0.1323988E+00
          3   -1    0    0  501    0  0.00000000000E+00  0.00000000000E+00  0.41832943508E+02  0.41832943508E+02  0.00000000000E+00 0. -1.
         -3   -1    0    0    0  501 -0.00000000000E+00 -0.00000000000E+00 -0.33941703709E+03  0.33941703709E+03  0.00000000000E+00 0.  1.
         25    2    1    2    0    0 -0.35282416651E+02 -0.76299052161E+01 -0.11491030827E+03  0.17365258563E+03  0.12509107550E+03 0.  0.
         23    2    1    2    0    0  0.35282416651E+02  0.76299052161E+01 -0.18267378531E+03  0.20759739497E+03  0.91781818356E+02 0.  0.
          5    1    3    3  502    0 -0.45398648549E+02 -0.20118512826E+02  0.72603136915E+01  0.50358478961E+02  0.41800000000E+01 0. -1.
         -5    1    3    3    0  502  0.10116231898E+02  0.12488607610E+02 -0.12217062197E+03  0.12329410667E+03  0.41800000000E+01 0. -1.
        -11    1    4    4    0    0 -0.23839632284E+02 -0.20748003841E+02 -0.76931585358E+02  0.83170166265E+02  0.00000000000E+00 0.  1.
         11    1    4    4    0    0  0.59122048935E+02  0.28377909057E+02 -0.10574219995E+03  0.12442722871E+03  0.00000000000E+00 0. -1.
</event>
<event>
 8    1  0.3708258E-009  0.8484010E+02  0.7561462E-02  0.1315851E+00
          1   -1    0    0  501    0  0.00000000000E+00  0.00000000000E+00  0.81828051909E+02  0.81828051909E+02  0.00000000000E+00 0. -1.
         -1   -1    0    0    0  501 -0.00000000000E+00 -0.00000000000E+00 -0.15779667530E+03  0.15779667530E+03  0.00000000000E+00 0.  1.
         25    2    1    2    0    0 -0.44725848786E+01 -0.32626427248E+02 -0.55231390824E+02  0.14065036998E+03  0.12509009662E+03 0.  0.
         23    2    1    2    0    0  0.44725848786E+01  0.32626427248E+02 -0.20737232573E+02  0.98974357231E+02  0.91002213182E+02 0.  0.
          5    1    3    3  502    0 -0.36750492948E+02 -0.47469055999E+02  0.14835932208E+02  0.61979732929E+02  0.41800000000E+01 0. -1.
         -5    1    3    3    0  502  0.32277908070E+02  0.14842628751E+02 -0.70067323032E+02  0.78670637054E+02  0.41800000000E+01 0. -1.
        -11    1    4    4    0    0 -0.30628148015E+02  0.19203503143E+02 -0.42303795150E+02  0.55645925888E+02  0.00000000000E+00 0.  1.
         11    1    4    4    0    0  0.35100732894E+02  0.13422924105E+02  0.21566562578E+02  0.43328431343E+02  0.00000000000E+00 0. -1.
</event>
<event>
 8    1  0.3708258E-009  0.1247425E+03  0.7561462E-02  0.1235472E+00
         -2   -1    0    0    0  501 -0.00000000000E+00  0.00000000000E+00  0.37179025550E+02  0.37179025550E+02  0.00000000000E+00 0.  1.
          2   -1    0    0  501    0  0.00000000000E+00 -0.00000000000E+00 -0.74142605126E+03  0.74142605126E+03  0.00000000000E+00 0. -1.
         25    2    1    2    0    0 -0.64696412420E+02  0.24735057021E+01 -0.62826856758E+03  0.64386293888E+03  0.12508535900E+03 0.  0.
         23    2    1    2    0    0  0.64696412420E+02 -0.24735057021E+01 -0.75978458123E+02  0.13474213793E+03  0.90503997836E+02 0.  0.
          5    1    3    3  502    0  0.37851478988E+02 -0.20073882009E+00 -0.18084555754E+03  0.18481169562E+03  0.41800000000E+01 0.  1.
         -5    1    3    3    0  502 -0.10254789141E+03  0.26742445222E+01 -0.44742301004E+03  0.45905124325E+03  0.41800000000E+01 0.  1.
        -11    1    4    4    0    0 -0.10674012361E+02  0.26046742159E+02 -0.33126788983E+02  0.43471271723E+02  0.00000000000E+00 0. -1.
         11    1    4    4    0    0  0.75370424780E+02 -0.28520247861E+02 -0.42851669140E+02  0.91270866204E+02  0.00000000000E+00 0.  1.
</event>
<event>
 8    1  0.3708258E-009  0.1589525E+03  0.7561462E-02  0.1189884E+00
         -2   -1    0    0    0  501 -0.00000000000E+00  0.00000000000E+00  0.27267345312E+02  0.27267345312E+02  0.00000000000E+00 0.  1.
          2   -1    0    0  501    0  0.00000000000E+00 -0.00000000000E+00 -0.99115933751E+03  0.99115933751E+03  0.00000000000E+00 0. -1.
         25    2    1    2    0    0  0.46927485444E+02  0.11173826786E+03 -0.46122469337E+03  0.49301394641E+03  0.12508758606E+03 0.  0.
         23    2    1    2    0    0 -0.46927485444E+02 -0.11173826786E+03 -0.50266729882E+03  0.52541273640E+03  0.93255031369E+02 0.  0.
          5    1    3    3  502    0  0.69407735753E+02  0.12554940242E+03 -0.34311929199E+03  0.37192527095E+03  0.41800000000E+01 0. -1.
         -5    1    3    3    0  502 -0.22480250309E+02 -0.13811134554E+02 -0.11810540138E+03  0.12108867547E+03  0.41800000000E+01 0. -1.
        -11    1    4    4    0    0 -0.62259079829E+02 -0.39287943572E+02 -0.18242774070E+03  0.19672218001E+03  0.00000000000E+00 0. -1.
         11    1    4    4    0    0  0.15331594385E+02 -0.72450324292E+02 -0.32023955812E+03  0.32869055639E+03  0.00000000000E+00 0.  1.
</event>
<event>
 8    1  0.3708258E-009  0.6141722E+02  0.7561462E-02  0.1391979E+00
          1   -1    0    0  501    0  0.00000000000E+00  0.00000000000E+00  0.83675037629E+03  0.83675037629E+03  0.00000000000E+00 0. -1.
         -1   -1    0    0    0  501 -0.00000000000E+00 -0.00000000000E+00 -0.21606359708E+02  0.21606359708E+02  0.00000000000E+00 0.  1.
         25    2    1    2    0    0  0.71758565383E+00  0.11824476985E+02  0.70328989625E+03  0.71442617846E+03  0.12509097937E+03 0.  0.
         23    2    1    2    0    0 -0.71758565383E+00 -0.11824476985E+02  0.11185412033E+03  0.14393055753E+03  0.89801603393E+02 0.  0.
          5    1    3    3  502    0  0.33131551819E+02  0.98597475416E+01  0.65591287739E+03  0.65683642520E+03  0.41800000000E+01 0. -1.
         -5    1    3    3    0  502 -0.32413966165E+02  0.19647294429E+01  0.47377018860E+02  0.57589753258E+02  0.41800000000E+01 0. -1.
        -11    1    4    4    0    0 -0.27320901556E+02 -0.73964555426E+01  0.11343694308E+03  0.11691483769E+03  0.00000000000E+00 0. -1.
         11    1    4    4    0    0  0.26603315902E+02 -0.44280214419E+01 -0.15828227506E+01  0.27015719845E+02  0.00000000000E+00 0.  1.
</event>
<event>
 8    1  0.3708258E-009  0.6083706E+02  0.7561462E-02  0.1394352E+00
          1   -1    0    0  501    0  0.00000000000E+00  0.00000000000E+00  0.24835467530E+03  0.24835467530E+03  0.00000000000E+00 0. -1.
         -1   -1    0    0    0  501 -0.00000000000E+00 -0.00000000000E+00 -0.72884466953E+02  0.72884466953E+02  0.00000000000E+00 0.  1.
         25    2    1    2    0    0 -0.44507941606E+02  0.31173882552E+02  0.26634242732E+02  0.13895521796E+03  0.12508557827E+03 0.  0.
         23    2    1    2    0    0  0.44507941606E+02 -0.31173882552E+02  0.14883596561E+03  0.18228392429E+03  0.90125005279E+02 0.  0.
          5    1    3    3  502    0 -0.39528733889E+02  0.31908555479E+02 -0.44413415470E+02  0.67606956664E+02  0.41800000000E+01 0. -1.
         -5    1    3    3    0  502 -0.49792077171E+01 -0.73467292722E+00  0.71047658201E+02  0.71348261294E+02  0.41800000000E+01 0. -1.
        -11    1    4    4    0    0  0.71261386603E+01 -0.25342877667E+02 -0.23552297648E+01  0.26430860900E+02  0.00000000000E+00 0.  1.
         11    1    4    4    0    0  0.37381802946E+02 -0.58310048853E+01  0.15119119538E+03  0.15585306339E+03  0.00000000000E+00 0. -1.
</event>
<event>
 8    1  0.3708258E-009  0.7241364E+02  0.7561462E-02  0.1352073E+00
          1   -1    0    0  501    0  0.00000000000E+00  0.00000000000E+00  0.50081896854E+03  0.50081896854E+03  0.00000000000E+00 0. -1.
         -1   -1    0    0    0  501 -0.00000000000E+00 -0.00000000000E+00 -0.26012799949E+02  0.26012799949E+02  0.00000000000E+00 0.  1.
         25    2    1    2    0    0 -0.26447353332E+02 -0.19921961640E+02  0.23490919779E+03  0.26819256899E+03  0.12509426768E+03 0.  0.
         23    2    1    2    0    0  0.26447353332E+02  0.19921961640E+02  0.23989697080E+03  0.25863919949E+03  0.90814821809E+02 0.  0.
          5    1    3    3  502    0 -0.33211497478E+02  0.14160080845E+02  0.62599871780E+01  0.36880500183E+02  0.41800000000E+01 0. -1.
         -5    1    3    3    0  502  0.67641441460E+01 -0.34082042484E+02  0.22864921061E+03  0.23131206881E+03  0.41800000000E+01 0. -1.
        -11    1    4    4    0    0 -0.16170633125E+02  0.25814615990E+02  0.24795396235E+02  0.39277161925E+02  0.00000000000E+00 0.  1.
         11    1    4    4    0    0  0.42617986457E+02 -0.58926543505E+01  0.21510157456E+03  0.21936203757E+03  0.00000000000E+00 0. -1.
</event>
<event>
 8    1  0.3708258E-009  0.2034915E+03  0.7561462E-02  0.1146826E+00
          1   -1    0    0  501    0  0.00000000000E+00  0.00000000000E+00  0.70143908210E+02  0.70143908210E+02  0.00000000000E+00 0. -1.
         -1   -1    0    0    0  501 -0.00000000000E+00 -0.00000000000E+00 -0.63211439000E+03  0.63211439000E+03  0.00000000000E+00 0.  1.
         25    2    1    2    0    0  0.40433873787E+02  0.17412772094E+03 -0.32711698824E+03  0.39320310421E+03  0.12509115006E+03 0.  0.
         23    2    1    2    0    0 -0.40433873787E+02 -0.17412772094E+03 -0.23485349355E+03  0.30905519400E+03  0.91671086792E+02 0.  0.
          5    1    3    3  502    0 -0.19751440398E+02 -0.16389510196E+01 -0.88348087482E+02  0.90640291924E+02  0.41800000000E+01 0. -1.
         -5    1    3    3    0  502  0.60185314185E+02  0.17576667196E+03 -0.23876890075E+03  0.30256281229E+03  0.41800000000E+01 0. -1.
        -11    1    4    4    0    0  0.29435285232E+02 -0.64446459258E+02 -0.82734545731E+02  0.10892560390E+03  0.00000000000E+00 0.  1.
         11    1    4    4    0    0 -0.69869159020E+02 -0.10968126168E+03 -0.15211894782E+03  0.20012959010E+03  0.00000000000E+00 0. -1.
</event>
<event>
 8    1  0.3708258E-009  0.1362069E+03  0.7561462E-02  0.1218526E+00
          1   -1    0    0  501    0  0.00000000000E+00  0.00000000000E+00  0.18088301924E+03  0.18088301924E+03  0.00000000000E+00 0. -1.
         -1   -1    0    0    0  501 -0.00000000000E+00 -0.00000000000E+00 -0.14180926950E+03  0.14180926950E+03  0.00000000000E+00 0.  1.
         25    2    1    2    0    0 -0.51081446645E+02 -0.10619826487E+03  0.36538570183E+02  0.17569808143E+03  0.12508942023E+03 0.  0.
         23    2    1    2    0    0  0.51081446645E+02  0.10619826487E+03  0.25351795565E+01  0.14699420730E+03  0.87826443584E+02 0.  0.
          5    1    3    3  502    0 -0.86377566933E+01 -0.67582233439E+02 -0.40634227290E+02  0.79439171350E+02  0.41800000000E+01 0.  1.
         -5    1    3    3    0  502 -0.42443689952E+02 -0.38616031429E+02  0.77172797472E+02  0.96258910080E+02  0.41800000000E+01 0.  1.
        -11    1    4    4    0    0 -0.64591488548E+01  0.85082268498E+02 -0.35441766113E+01  0.85400668643E+02  0.00000000000E+00 0.  1.
         11    1    4    4    0    0  0.57540595500E+02  0.21115996370E+02  0.60793561678E+01  0.61593538660E+02  0.00000000000E+00 0. -1.
</event>
<event>
 8    1  0.3708258E-009  0.1209749E+03  0.7561462E-02  0.1241497E+00
         -1   -1    0    0    0  501 -0.00000000000E+00  0.00000000000E+00  0.21584448866E+02  0.21584448866E+02  0.00000000000E+00 0.  1.
          1   -1    0    0  501    0  0.00000000000E+00 -0.00000000000E+00 -0.82367483746E+03  0.82367483746E+03  0.00000000000E+00 0. -1.
         25    2    1    2    0    0  0.56595966284E+02 -0.56630021705E+02 -0.42448960914E+03  0.44972157032E+03  0.12509196530E+03 0.  0.
         23    2    1    2    0    0 -0.56595966284E+02  0.56630021705E+02 -0.37760077945E+03  0.39553771600E+03  0.86357821783E+02 0.  0.
          5    1    3    3  502    0  0.79098624568E+02 -0.18636117339E+02 -0.14110243079E+03  0.16288420935E+03  0.41800000000E+01 0.  1.
         -5    1    3    3    0  502 -0.22502658284E+02 -0.37993904366E+02 -0.28338717835E+03  0.28683736097E+03  0.41800000000E+01 0.  1.
        -11    1    4    4    0    0 -0.78498962399E+02  0.36881175916E+02 -0.30721664213E+03  0.31922464415E+03  0.00000000000E+00 0.  1.
         11    1    4    4    0    0  0.21902996115E+02  0.19748845789E+02 -0.70384137324E+02  0.76313071853E+02  0.00000000000E+00 0. -1.
</event>
<event>
 8    1  0.3708258E-009  0.1222329E+03  0.7561462E-02  0.1239458E+00
         -1   -1    0    0    0  501 -0.00000000000E+00  0.00000000000E+00  0.23624765650E+02  0.23624765650E+02  0.00000000000E+00 0.  1.
          1   -1    0    0  501    0  0.00000000000E+00 -0.00000000000E+00 -0.71372610120E+03  0.71372610120E+03  0.00000000000E+00 0. -1.
         25    2    1    2    0    0  0.49972026630E+01 -0.58893905886E+02 -0.49403879888E+03  0.51304586882E+03  0.12509302351E+03 0.  0.
         23    2    1    2    0    0 -0.49972026630E+01  0.58893905886E+02 -0.19606253667E+03  0.22430499803E+03  0.91535510433E+02 0.  0.
          5    1    3    3  502    0  0.40624320267E+02 -0.83521588833E+02 -0.29487128539E+03  0.30918075384E+03  0.41800000000E+01 0.  1.
         -5    1    3    3    0  502 -0.35627117604E+02  0.24627682948E+02 -0.19916751349E+03  0.20386511498E+03  0.41800000000E+01 0.  1.
        -11    1    4    4    0    0 -0.40061777528E+02  0.73194624299E+00 -0.58715236240E+02  0.71084180594E+02  0.00000000000E+00 0.  1.
         11    1    4    4    0    0  0.35064574865E+02  0.58161959643E+02 -0.13734730043E+03  0.15322081744E+03  0.00000000000E+00 0. -1.
</event>
<event>
 8    1  0.3708258E-009  0.1449747E+03  0.7561462E-02  0.1206788E+00
          1   -1    0    0  501    0  0.00000000000E+00  0.00000000000E+00  0.15946469136E+02  0.15946469136E+02  0.00000000000E+00 0. -1.
         -1   -1    0    0    0  501 -0.00000000000E+00 -0.00000000000E+00 -0.14014674247E+04  0.14014674247E+04  0.00000000000E+00 0.  1.
         25    2    1    2    0    0  0.16724928956E+02  0.10047545463E+03 -0.71691656225E+03  0.73484085806E+03  0.12508672682E+03 0.  0.
         23    2    1    2    0    0 -0.16724928956E+02 -0.10047545463E+03 -0.66860439329E+03  0.68257303575E+03  0.92190423405E+02 0.  0.
          5    1    3    3  502    0 -0.45903278688E+02  0.84365489764E+02 -0.45247356669E+03  0.46257372149E+03  0.41800000000E+01 0.  1.
         -5    1    3    3    0  502  0.62628207644E+02  0.16109964863E+02 -0.26444299555E+03  0.27226713657E+03  0.41800000000E+01 0.  1.
        -11    1    4    4    0    0 -0.30006151623E+02 -0.10911627292E+03 -0.63949288805E+03  0.64942889066E+03  0.00000000000E+00 0.  1.
         11    1    4    4    0    0  0.13281222667E+02  0.86408182960E+01 -0.29111505244E+02  0.33144145093E+02  0.00000000000E+00 0. -1.
</event>
<event>
 8    1  0.3708258E-009  0.1052441E+03  0.7561462E-02  0.1269639E+00
         -3   -1    0    0    0  501 -0.00000000000E+00  0.00000000000E+00  0.28430410867E+03  0.28430410867E+03  0.00000000000E+00 0.  1.
          3   -1    0    0  501    0  0.00000000000E+00 -0.00000000000E+00 -0.92560413804E+02  0.92560413804E+02  0.00000000000E+00 0. -1.
         25    2    1    2    0    0 -0.99389368846E+02 -0.21845273022E+02  0.17893491712E+03  0.24087487741E+03  0.12509012515E+03 0.  0.
         23    2    1    2    0    0  0.99389368846E+02  0.21845273022E+02  0.12808777750E+02  0.13598964506E+03  0.89295331255E+02 0.  0.
          5    1    3    3  502    0 -0.21285425231E+02  0.52872268471E+01 -0.17068916383E+02  0.28104170536E+02  0.41800000000E+01 0.  1.
         -5    1    3    3    0  502 -0.78103943614E+02 -0.27132499869E+02  0.19600383350E+03  0.21277070687E+03  0.41800000000E+01 0.  1.
        -11    1    4    4    0    0  0.16124532268E+02 -0.65437057380E+01 -0.32627041845E+02  0.36977621411E+02  0.00000000000E+00 0. -1.
         11    1    4    4    0    0  0.83264836578E+02  0.28388978760E+02  0.45435819596E+02  0.99012023652E+02  0.00000000000E+00 0.  1.
</event>
<event>
 8    1  0.3708258E-009  0.1246264E+03  0.7561462E-02  0.1235654E+00
          2   -1    0    0  501    0  0.00000000000E+00  0.00000000000E+00  0.70253280534E+03  0.70253280534E+03  0.00000000000E+00 0. -1.
         -2   -1    0    0    0  501 -0.00000000000E+00 -0.00000000000E+00 -0.23557232792E+02  0.23557232792E+02  0.00000000000E+00 0.  1.
         25    2    1    2    0    0  0.32923661086E+02 -0.57866400870E+02  0.42503630219E+03  0.44803464882E+03  0.12508677207E+03 0.  0.
         23    2    1    2    0    0 -0.32923661086E+02  0.57866400870E+02  0.25393927036E+03  0.27805538932E+03  0.91636011978E+02 0.  0.
          5    1    3    3  502    0 -0.22622153941E+02  0.26508193605E+02  0.62680991174E+02  0.71838883842E+02  0.41800000000E+01 0. -1.
         -5    1    3    3    0  502  0.55545815027E+02 -0.84374594476E+02  0.36235531102E+03  0.37619576497E+03  0.41800000000E+01 0. -1.
        -11    1    4    4    0    0 -0.54731030583E+02  0.39292005534E+01  0.13187273308E+03  0.14283326663E+03  0.00000000000E+00 0.  1.
         11    1    4    4    0    0  0.21807369497E+02  0.53937200317E+02  0.12206653728E+03  0.13522212269E+03  0.00000000000E+00 0. -1.
</event>
<event>
 8    1  0.3708258E-009  0.1128554E+03  0.7561462E-02  0.1255372E+00
         -1   -1    0    0    0  501 -0.00000000000E+00  0.00000000000E+00  0.88926572284E+02  0.88926572284E+02  0.00000000000E+00 0.  1.
          1   -1    0    0  501    0  0.00000000000E+00 -0.00000000000E+00 -0.19331180626E+03  0.19331180626E+03  0.00000000000E+00 0. -1.
         25    2    1    2    0    0  0.57484165901E+02  0.36202800946E+02 -0.83055686069E+02  0.16480913591E+03  0.12509489265E+03 0.  0.
         23    2    1    2    0    0 -0.57484165901E+02 -0.36202800946E+02 -0.21329547909E+02  0.11742924263E+03  0.93378826752E+02 0.  0.
          5    1    3    3  502    0 -0.21297241902E+02 -0.26903471458E+02 -0.45246249100E+02  0.56939131946E+02  0.41800000000E+01 0. -1.
         -5    1    3    3    0  502  0.78781407803E+02  0.63106272404E+02 -0.37809436969E+02  0.10787000397E+03  0.41800000000E+01 0. -1.
        -11    1    4    4    0    0 -0.33399209096E+02  0.12598761906E+02  0.26911807392E+02  0.44704377268E+02  0.00000000000E+00 0.  1.
         11    1    4    4    0    0 -0.24084956804E+02 -0.48801562852E+02 -0.48241355301E+02  0.72724865364E+02  0.00000000000E+00 0. -1.
</event>
<event>
 8    1  0.3708258E-009  0.1486180E+03  0.7561462E-02  0.1202182E+00
         -4   -1    0    0    0  501 -0.00000000000E+00  0.00000000000E+00  0.59426089279E+02  0.59426089279E+02  0.00000000000E+00 0.  1.
          4   -1    0    0  501    0  0.00000000000E+00 -0.00000000000E+00 -0.40158273515E+03  0.40158273515E+03  0.00000000000E+00 0. -1.
         25    2    1    2    0    0  0.61158465952E+02  0.82514852479E+02 -0.12449565434E+03  0.20419134050E+03  0.12508347912E+03 0.  0.
         23    2    1    2    0    0 -0.61158465952E+02 -0.82514852479E+02 -0.21766099154E+03  0.25681748393E+03  0.89609452513E+02 0.  0.
          5    1    3    3  502    0  0.35056891904E+02  0.11462816568E+03 -0.97875247645E+02  0.15480839299E+03  0.41800000000E+01 0. -1.
         -5    1    3    3    0  502  0.26101574048E+02 -0.32113313202E+02 -0.26620406692E+02  0.49382947513E+02  0.41800000000E+01 0. -1.
        -11    1    4    4    0    0 -0.84091223320E+02 -0.70912890996E+02 -0.16635038469E+03  0.19943024453E+03  0.00000000000E+00 0.  1.
         11    1    4    4    0    0  0.22932757368E+02 -0.11601961484E+02 -0.51310606849E+02  0.57387239400E+02  0.00000000000E+00 0. -1.
</event>
<event>
 8    1  0.3708258E-009  0.1251749E+03  0.7561462E-02  0.1234796E+00
         -4   -1    0    0    0  501 -0.00000000000E+00  0.00000000000E+00  0.12424072545E+03  0.12424072545E+03  0.00000000000E+00 0.  1.
          4   -1    0    0  501    0  0.00000000000E+00 -0.00000000000E+00 -0.14607155818E+03  0.14607155818E+03  0.00000000000E+00 0. -1.
         25    2    1    2    0    0 -0.33886323075E+02  0.57309694656E+02  0.30067395671E+02  0.14486360277E+03  0.12509488851E+03 0.  0.
         23    2    1    2    0    0  0.33886323075E+02 -0.57309694656E+02 -0.51898228397E+02  0.12544868086E+03  0.92796882629E+02 0.  0.
          5    1    3    3  502    0 -0.54950789586E+02 -0.20794823499E+02  0.13408479024E+01  0.58917605463E+02  0.41800000000E+01 0.  1.
         -5    1    3    3    0  502  0.21064466510E+02  0.78104518155E+02  0.28726547769E+02  0.85945997302E+02  0.41800000000E+01 0.  1.
        -11    1    4    4    0    0  0.56224560045E+02 -0.86286224362E+01 -0.10711661215E+02  0.57882587739E+02  0.00000000000E+00 0.  1.
         11    1    4    4    0    0 -0.22338236970E+02 -0.48681072219E+02 -0.41186567182E+02  0.67566093120E+02  0.00000000000E+00 0. -1.
</event>
<event>
 8    1  0.3708258E-009  0.1293287E+03  0.7561462E-02  0.1228455E+00
          1   -1    0    0  501    0  0.00000000000E+00  0.00000000000E+00  0.32584627477E+03  0.32584627477E+03  0.00000000000E+00 0. -1.
         -1   -1    0    0    0  501 -0.00000000000E+00 -0.00000000000E+00 -0.69269532473E+02  0.69269532473E+02  0.00000000000E+00 0.  1.
         25    2    1    2    0    0 -0.92802588002E+02 -0.15975494852E+02  0.87804191277E+02  0.17951208774E+03  0.12508987515E+03 0.  0.
         23    2    1    2    0    0  0.92802588002E+02  0.15975494852E+02  0.16877255102E+03  0.21560371950E+03  0.95568054856E+02 0.  0.
          5    1    3    3  502    0 -0.77035977782E+02 -0.56468795985E+02  0.18159857467E+02  0.97316594762E+02  0.41800000000E+01 0. -1.
         -5    1    3    3    0  502 -0.15766610220E+02  0.40493301133E+02  0.69644333810E+02  0.82195492981E+02  0.41800000000E+01 0. -1.
        -11    1    4    4    0    0  0.59467974825E+02 -0.26747343657E+02  0.41544463836E+02  0.77316252482E+02  0.00000000000E+00 0.  1.
         11    1    4    4    0    0  0.33334613177E+02  0.42722838509E+02  0.12722808718E+03  0.13828746702E+03  0.00000000000E+00 0. -1.
</event>
<event>
 8    1  0.3708258E-009  0.1101621E+03  0.7561462E-02  0.1260270E+00
          2   -1    0    0  501    0  0.00000000000E+00  0.00000000000E+00  0.91305678924E+03  0.91305678924E+03  0.00000000000E+00 0. -1.
         -2   -1    0    0    0  501 -0.00000000000E+00 -0.00000000000E+00 -0.14316294820E+02  0.14316294820E+02  0.00000000000E+00 0.  1.
         25    2    1    2    0    0 -0.26386503429E+02  0.20149809645E+02  0.58528554946E+03  0.59942333364E+03  0.12508755376E+03 0.  0.
         23    2    1    2    0    0  0.26386503429E+02 -0.20149809645E+02  0.31345494496E+03  0.32794975043E+03  0.90524990433E+02 0.  0.
          5    1    3    3  502    0  0.47169165190E+02 -0.11465694638E+02  0.19566175515E+03  0.20163677028E+03  0.41800000000E+01 0.  1.
         -5    1    3    3    0  502 -0.73555668619E+02  0.31615504283E+02  0.38962379431E+03  0.39778656336E+03  0.41800000000E+01 0.  1.
        -11    1    4    4    0    0 -0.30768050049E+02  0.17846725484E+00  0.16015637539E+03  0.16308515975E+03  0.00000000000E+00 0. -1.
         11    1    4    4    0    0  0.57154553478E+02 -0.20328276900E+02  0.15329856957E+03  0.16486459067E+03  0.00000000000E+00 0.  1.
</event>
<event>
 8    1  0.3708258E-009  0.1472982E+03  0.7561462E-02  0.1203833E+00
         -1   -1    0    0    0  501 -0.00000000000E+00  0.00000000000E+00  0.48220572339E+02  0.48220572339E+02  0.00000000000E+00 0.  1.
          1   -1    0    0  501    0  0.00000000000E+00 -0.00000000000E+00 -0.49150509571E+03  0.49150509571E+03  0.00000000000E+00 0. -1.
         25    2    1    2    0    0  0.10450753321E+03 -0.17835227487E+02 -0.27719676305E+03  0.32206556276E+03  0.12509301112E+03 0.  0.
         23    2    1    2    0    0 -0.10450753321E+03  0.17835227487E+02 -0.16608776032E+03  0.21766010529E+03  0.92470846603E+02 0.  0.
          5    1    3    3  502    0  0.11124559099E+03  0.27521037925E+02 -0.22445802187E+03  0.25205528168E+03  0.41800000000E+01 0. -1.
         -5    1    3    3    0  502 -0.67380577796E+01 -0.45356265412E+02 -0.52738741186E+02  0.70010281078E+02  0.41800000000E+01 0. -1.
        -11    1    4    4    0    0 -0.64601757593E+02 -0.30296988795E+02 -0.54636567043E+02  0.89869066271E+02  0.00000000000E+00 0.  1.
         11    1    4    4    0    0 -0.39905775614E+02  0.48132216282E+02 -0.11145119328E+03  0.12779103902E+03  0.00000000000E+00 0. -1.
</event>
<event>
 8    1  0.3708258E-009  0.1885870E+03  0.7561462E-02  0.1159742E+00
          1   -1    0    0  501    0  0.00000000000E+00  0.00000000000E+00  0.90934887662E+03  0.90934887662E+03  0.00000000000E+00 0. -1.
         -1   -1    0    0    0  501 -0.00000000000E+00 -0.00000000000E+00 -0.48982385408E+02  0.48982385408E+02  0.00000000000E+00 0.  1.
         25    2    1    2    0    0 -0.11916106372E+03 -0.11747896661E+03  0.60215080791E+03  0.63736445181E+03  0.12508869760E+03 0.  0.
         23    2    1    2    0    0  0.11916106372E+03  0.11747896661E+03  0.25821568330E+03  0.32096681021E+03  0.91343787167E+02 0.  0.
          5    1    3    3  502    0 -0.76573389436E+01 -0.61341476103E+02  0.84046372853E+02  0.10441588347E+03  0.41800000000E+01 0.  1.
         -5    1    3    3    0  502 -0.11150372477E+03 -0.56137490509E+02  0.51810443506E+03  0.53294856835E+03  0.41800000000E+01 0.  1.
        -11    1    4    4    0    0  0.69374302435E+02  0.12196934153E+03  0.18180619473E+03  0.22965802088E+03  0.00000000000E+00 0.  1.
         11    1    4    4    0    0  0.49786761281E+02 -0.44903749221E+01  0.76409488575E+02  0.91308789336E+02  0.00000000000E+00 0. -1.
</event>
<event>
 8    1  0.3708258E-009  0.9313507E+02  0.7561462E-02  0.1295432E+00
          1   -1    0    0  501    0  0.00000000000E+00  0.00000000000E+00  0.53917168619E+03  0.53917168619E+03  0.00000000000E+00 0. -1.
         -1   -1    0    0    0  501 -0.00000000000E+00 -0.00000000000E+00 -0.22579026969E+02  0.22579026969E+02  0.00000000000E+00 0.  1.
         25    2    1    2    0    0 -0.88431464888E+01 -0.14244743816E+02  0.26746293664E+03  0.29573690101E+03  0.12507109249E+03 0.  0.
         23    2    1    2    0    0  0.88431464888E+01  0.14244743816E+02  0.24912972258E+03  0.26601381215E+03  0.91742114728E+02 0.  0.
          5    1    3    3  502    0  0.32127247518E+02  0.26012029449E+02  0.21111838548E+03  0.21516791303E+03  0.41800000000E+01 0.  1.
         -5    1    3    3    0  502 -0.40970394007E+02 -0.40256773265E+02  0.56344551157E+02  0.80568987978E+02  0.41800000000E+01 0.  1.
        -11    1    4    4    0    0  0.45388758326E+02  0.20925673052E+02  0.18754865442E+03  0.19409410334E+03  0.00000000000E+00 0. -1.
         11    1    4    4    0    0 -0.36545611837E+02 -0.66809292366E+01  0.61581068162E+02  0.71919708815E+02  0.00000000000E+00 0.  1.
</event>
<event>
 8    1  0.3708258E-009  0.7073464E+02  0.7561462E-02  0.1357613E+00
         -2   -1    0    0    0  501 -0.00000000000E+00  0.00000000000E+00  0.41023176567E+03  0.41023176567E+03  0.00000000000E+00 0.  1.
          2   -1    0    0  501    0  0.00000000000E+00 -0.00000000000E+00 -0.30971811120E+02  0.30971811120E+02  0.00000000000E+00 0. -1.
         25    2    1    2    0    0 -0.27858816647E+02 -0.13224692638E+02  0.22999999346E+03  0.26362189293E+03  0.12508197025E+03 0.  0.
         23    2    1    2    0    0  0.27858816647E+02  0.13224692638E+02  0.14925996109E+03  0.17758168386E+03  0.91135680703E+02 0.  0.
          5    1    3    3  502    0 -0.20101845446E+02  0.15404563182E+02 -0.54780581412E+01  0.26246262176E+02  0.41800000000E+01 0.  1.
         -5    1    3    3    0  502 -0.77569712008E+01 -0.28629255821E+02  0.23547805160E+03  0.23737563075E+03  0.41800000000E+01 0.  1.
        -11    1    4    4    0    0  0.79733078206E+00 -0.32609703669E+02  0.99526862933E+02  0.10473597737E+03  0.00000000000E+00 0.  1.
         11    1    4    4    0    0  0.27061485865E+02  0.45834396307E+02  0.49733098160E+02  0.72845706494E+02  0.00000000000E+00 0. -1.
</event>
<event>
 8    1  0.3708258E-009  0.9063232E+02  0.7561462E-02  0.1301328E+00
         -1   -1    0    0    0  501 -0.00000000000E+00  0.00000000000E+00  0.58150489096E+02  0.58150489096E+02  0.00000000000E+00 0.  1.
          1   -1    0    0  501    0  0.00000000000E+00 -0.00000000000E+00 -0.28702188550E+03  0.28702188550E+03  0.00000000000E+00 0. -1.
         25    2    1    2    0    0  0.37799158838E+02 -0.41670085660E+02 -0.71851985918E+02  0.15484255058E+03  0.12509330574E+03 0.  0.
         23    2    1    2    0    0 -0.37799158838E+02  0.41670085660E+02 -0.15701941049E+03  0.19032982402E+03  0.91679737094E+02 0.  0.
          5    1    3    3  502    0  0.84598903814E+00  0.97517662233E+01 -0.88577860214E+02  0.89215034395E+02  0.41800000000E+01 0.  1.
         -5    1    3    3    0  502  0.36953169800E+02 -0.51421851883E+02  0.16725874296E+02  0.65627516183E+02  0.41800000000E+01 0.  1.
        -11    1    4    4    0    0  0.16295904950E+02  0.49854333160E+02 -0.85112378414E+02  0.99975637093E+02  0.00000000000E+00 0.  1.
         11    1    4    4    0    0 -0.54095063788E+02 -0.81842475004E+01 -0.71907032073E+02  0.90354186925E+02  0.00000000000E+00 0. -1.
</event>
<event>
 8    1  0.3708258E-009  0.3926759E+03  0.7561462E-02  0.1046346E+00
          2   -1    0    0  501    0  0.00000000000E+00  0.00000000000E+00  0.13505750818E+04  0.13505750818E+04  0.00000000000E+00 0.  1.
         -2   -1    0    0    0  501 -0.00000000000E+00 -0.00000000000E+00 -0.13386180488E+03  0.13386180488E+03  0.00000000000E+00 0. -1.
         25    2    1    2    0    0 -0.32260157319E+03 -0.20492612043E+03  0.87764357849E+03  0.96538670782E+03  0.12508698937E+03 0.  0.
         23    2    1    2    0    0  0.32260157319E+03  0.20492612043E+03  0.33906969843E+03  0.51905017885E+03  0.91533261221E+02 0.  0.
          5    1    3    3  502    0 -0.28383328096E+03 -0.21914366452E+03  0.75341004059E+03  0.83440364257E+03  0.41800000000E+01 0.  1.
         -5    1    3    3    0  502 -0.38768292231E+02  0.14217544081E+02  0.12423353790E+03  0.13098306525E+03  0.41800000000E+01 0.  1.
        -11    1    4    4    0    0  0.10147824130E+03  0.91869520401E+02  0.73190788337E+02  0.15522478454E+03  0.00000000000E+00 0. -1.
         11    1    4    4    0    0  0.22112333189E+03  0.11305660003E+03  0.26587891009E+03  0.36382539432E+03  0.00000000000E+00 0.  1.
</event>
<event>
 8    1  0.3708258E-009  0.2200852E+03  0.7561462E-02  0.1133820E+00
         -2   -1    0    0    0  501 -0.00000000000E+00  0.00000000000E+00  0.12485082763E+03  0.12485082763E+03  0.00000000000E+00 0.  1.
          2   -1    0    0  501    0  0.00000000000E+00 -0.00000000000E+00 -0.89032260422E+03  0.89032260422E+03  0.00000000000E+00 0. -1.
         25    2    1    2    0    0 -0.11984971812E+03  0.17259914196E+03 -0.74694999767E+03  0.78596206531E+03  0.12509056858E+03 0.  0.
         23    2    1    2    0    0  0.11984971812E+03 -0.17259914196E+03 -0.18521778924E+02  0.22921136654E+03  0.89668141052E+02 0.  0.
          5    1    3    3  502    0 -0.62923009242E+02  0.32521745498E+02 -0.10706508685E+03  0.12844210464E+03  0.41800000000E+01 0.  1.
         -5    1    3    3    0  502 -0.56926708873E+02  0.14007739646E+03 -0.63988491082E+03  0.65751996067E+03  0.41800000000E+01 0.  1.
        -11    1    4    4    0    0  0.32291395135E+02 -0.97145318007E+02 -0.43046552110E+02  0.11105382776E+03  0.00000000000E+00 0.  1.
         11    1    4    4    0    0  0.87558322980E+02 -0.75453823949E+02  0.24524773186E+02  0.11815753878E+03  0.00000000000E+00 0. -1.
</event>
<event>
 8    1  0.3708258E-009  0.1117323E+03  0.7561462E-02  0.1257395E+00
          2   -1    0    0  501    0  0.00000000000E+00  0.00000000000E+00  0.21031323240E+03  0.21031323240E+03  0.00000000000E+00 0.  1.
         -2   -1    0    0    0  501 -0.00000000000E+00 -0.00000000000E+00 -0.80175691200E+02  0.80175691200E+02  0.00000000000E+00 0. -1.
         25    2    1    2    0    0 -0.45472065612E+02  0.54326468590E+02  0.75286487710E+02  0.16228002588E+03  0.12509067762E+03 0.  0.
         23    2    1    2    0    0  0.45472065612E+02 -0.54326468590E+02  0.54851053494E+02  0.12820889772E+03  0.91705013195E+02 0.  0.
          5    1    3    3  502    0 -0.68425694197E+02  0.69673270182E+02  0.88068822495E+02  0.13156758757E+03  0.41800000000E+01 0. -1.
         -5    1    3    3    0  502  0.22953628584E+02 -0.15346801592E+02 -0.12782334786E+02  0.30712438308E+02  0.41800000000E+01 0. -1.
        -11    1    4    4    0    0  0.48884390915E+02 -0.58900663308E+01  0.61952507536E+02  0.79135894173E+02  0.00000000000E+00 0.  1.
         11    1    4    4    0    0 -0.34123253023E+01 -0.48436402259E+02 -0.71014540424E+01  0.49073003549E+02  0.00000000000E+00 0. -1.
</event>
<event>
 8    1  0.3708258E-009  0.3042859E+03  0.7561462E-02  0.1083118E+00
         -1   -1    0    0    0  501 -0.00000000000E+00  0.00000000000E+00  0.28340271014E+03  0.28340271014E+03  0.00000000000E+00 0.  1.
          1   -1    0    0  501    0  0.00000000000E+00 -0.00000000000E+00 -0.38269691654E+03  0.38269691654E+03  0.00000000000E+00 0. -1.
         25    2    1    2    0    0  0.27507944145E+03 -0.91152171823E+02  0.62689293580E+02  0.32179965529E+03  0.12509057950E+03 0.  0.
         23    2    1    2    0    0 -0.27507944145E+03  0.91152171823E+02 -0.16198349998E+03  0.34429997140E+03  0.91249101389E+02 0.  0.
          5    1    3    3  502    0  0.18034129285E+03 -0.10790512768E+03  0.64865762731E+01  0.21029989672E+03  0.41800000000E+01 0. -1.
         -5    1    3    3    0  502  0.94738148593E+02  0.16752955858E+02  0.56202717307E+02  0.11149975857E+03  0.41800000000E+01 0. -1.
        -11    1    4    4    0    0 -0.96513258120E+02  0.76038795321E+02 -0.47969698277E+02  0.13190071774E+03  0.00000000000E+00 0.  1.
         11    1    4    4    0    0 -0.17856618333E+03  0.15113376502E+02 -0.11401380170E+03  0.21239925366E+03  0.00000000000E+00 0. -1.
</event>
<event>
 8    1  0.3708258E-009  0.1552145E+03  0.7561462E-02  0.1194208E+00
          2   -1    0    0  501    0  0.00000000000E+00  0.00000000000E+00  0.46864498634E+03  0.46864498634E+03  0.00000000000E+00 0. -1.
         -2   -1    0    0    0  501 -0.00000000000E+00 -0.00000000000E+00 -0.55511577134E+02  0.55511577134E+02  0.00000000000E+00 0.  1.
         25    2    1    2    0    0 -0.11743069958E+03 -0.17146139429E+02  0.20040156454E+03  0.26437138241E+03  0.12508989353E+03 0.  0.
         23    2    1    2    0    0  0.11743069958E+03  0.17146139429E+02  0.21273184466E+03  0.25978518106E+03  0.90274820782E+02 0.  0.
          5    1    3    3  502    0 -0.70446283253E+02 -0.71173910008E+02  0.12641349198E+03  0.16132652492E+03  0.41800000000E+01 0. -1.
         -5    1    3    3    0  502 -0.46984416329E+02  0.54027770579E+02  0.73988072567E+02  0.10304485748E+03  0.41800000000E+01 0. -1.
        -11    1    4    4    0    0  0.11810700813E+03 -0.31710865191E+01  0.20752404043E+03  0.23880022721E+03  0.00000000000E+00 0.  1.
         11    1    4    4    0    0 -0.67630854569E+00  0.20317225949E+02  0.52078042306E+01  0.20984953857E+02  0.00000000000E+00 0. -1.
</event>
<event>
 8    1  0.3708258E-009  0.2034391E+03  0.7561462E-02  0.1146869E+00
          1   -1    0    0  501    0  0.00000000000E+00  0.00000000000E+00  0.43815692847E+03  0.43815692847E+03  0.00000000000E+00 0. -1.
         -1   -1    0    0    0  501 -0.00000000000E+00 -0.00000000000E+00 -0.10603647709E+03  0.10603647709E+03  0.00000000000E+00 0.  1.
         25    2    1    2    0    0 -0.60504600360E+02  0.17631769200E+03  0.18673194287E+03  0.29200203033E+03  0.12509049544E+03 0.  0.
         23    2    1    2    0    0  0.60504600360E+02 -0.17631769200E+03  0.14538850851E+03  0.25219137524E+03  0.87829016613E+02 0.  0.
          5    1    3    3  502    0 -0.82837358286E+02  0.78936700433E+02  0.14211727942E+03  0.18250431258E+03  0.41800000000E+01 0.  1.
         -5    1    3    3    0  502  0.22332757925E+02  0.97380991571E+02  0.44614663455E+02  0.10949771774E+03  0.41800000000E+01 0.  1.
        -11    1    4    4    0    0  0.52143687591E+02 -0.78708112442E+02  0.11670169358E+03  0.15011068051E+03  0.00000000000E+00 0. -1.
         11    1    4    4    0    0  0.83609127690E+01 -0.97609579563E+02  0.28686814929E+02  0.10208069472E+03  0.00000000000E+00 0.  1.
</event>
<event>
 8    1  0.3708258E-009  0.4045949E+03  0.7561462E-02  0.1042200E+00
         -1   -1    0    0    0  501 -0.00000000000E+00  0.00000000000E+00  0.10366843096E+03  0.10366843096E+03  0.00000000000E+00 0. -1.
          1   -1    0    0  501    0  0.00000000000E+00 -0.00000000000E+00 -0.16581167948E+04  0.16581167948E+04  0.00000000000E+00 0.  1.
         25    2    1    2    0    0  0.28429467481E+03  0.27956339629E+03 -0.72270269994E+03  0.83482069242E+03  0.12508893363E+03 0.  0.
         23    2    1    2    0    0 -0.28429467481E+03 -0.27956339629E+03 -0.83174566392E+03  0.92696453337E+03  0.92104516711E+02 0.  0.
          5    1    3    3  502    0  0.17036298346E+03  0.14559876923E+03 -0.52110031354E+03  0.56726145375E+03  0.41800000000E+01 0. -1.
         -5    1    3    3    0  502  0.11393169135E+03  0.13396462705E+03 -0.20160238640E+03  0.26755923867E+03  0.41800000000E+01 0. -1.
        -11    1    4    4    0    0 -0.55894879937E+02 -0.11679148356E+02 -0.10966150287E+03  0.12363771803E+03  0.00000000000E+00 0.  1.
         11    1    4    4    0    0 -0.22839979487E+03 -0.26788424793E+03 -0.72208416106E+03  0.80332681534E+03  0.00000000000E+00 0. -1.
</event>
<event>
 8    1  0.3708258E-009  0.1137933E+03  0.7561462E-02  0.1253702E+00
         -1   -1    0    0    0  501 -0.00000000000E+00  0.00000000000E+00  0.11148781035E+02  0.11148781035E+02  0.00000000000E+00 0.  1.
          1   -1    0    0  501    0  0.00000000000E+00 -0.00000000000E+00 -0.11707960300E+04  0.11707960300E+04  0.00000000000E+00 0. -1.
         25    2    1    2    0    0  0.25770303052E+02  0.24912352962E+02 -0.61332941558E+03  0.62698021142E+03  0.12508588908E+03 0.  0.
         23    2    1    2    0    0 -0.25770303052E+02 -0.24912352962E+02 -0.54631783336E+03  0.55496459959E+03  0.90762315423E+02 0.  0.
          5    1    3    3  502    0 -0.22700264800E+02 -0.41621312394E+02 -0.23669176742E+03  0.24142928743E+03  0.41800000000E+01 0. -1.
         -5    1    3    3    0  502  0.48470567851E+02  0.66533665356E+02 -0.37663764816E+03  0.38555092399E+03  0.41800000000E+01 0. -1.
        -11    1    4    4    0    0  0.33551858761E+02 -0.87547251953E+00 -0.18361128623E+03  0.18665368496E+03  0.00000000000E+00 0.  1.
         11    1    4    4    0    0 -0.59322161813E+02 -0.24036880442E+02 -0.36270654713E+03  0.36831091463E+03  0.00000000000E+00 0. -1.
</event>
<event>
 8    1  0.3708258E-009  0.1242589E+03  0.7561462E-02  0.1236232E+00
         -1   -1    0    0    0  501 -0.00000000000E+00  0.00000000000E+00  0.96764743733E+02  0.96764743733E+02  0.00000000000E+00 0.  1.
          1   -1    0    0  501    0  0.00000000000E+00 -0.00000000000E+00 -0.24837155425E+03  0.24837155425E+03  0.00000000000E+00 0. -1.
         25    2    1    2    0    0 -0.15587136733E+02 -0.10629993399E+03 -0.52265447834E+02  0.17297885483E+03  0.12508945752E+03 0.  0.
         23    2    1    2    0    0  0.15587136733E+02  0.10629993399E+03 -0.99341362680E+02  0.17215744315E+03  0.90701951994E+02 0.  0.
          5    1    3    3  502    0  0.12108912967E+01  0.14907202476E+02  0.24106388000E+02  0.28675447438E+02  0.41800000000E+01 0.  1.
         -5    1    3    3    0  502 -0.16798028029E+02 -0.12120713647E+03 -0.76371835833E+02  0.14430340739E+03  0.41800000000E+01 0.  1.
        -11    1    4    4    0    0  0.22966429411E+02  0.78793150289E+02 -0.11372893207E+03  0.14025008878E+03  0.00000000000E+00 0. -1.
         11    1    4    4    0    0 -0.73792926787E+01  0.27506783701E+02  0.14387569392E+02  0.31907354372E+02  0.00000000000E+00 0.  1.
</event>
<event>
 8    1  0.3708258E-009  0.9411170E+02  0.7561462E-02  0.1293189E+00
          3   -1    0    0  501    0  0.00000000000E+00  0.00000000000E+00  0.83915508517E+03  0.83915508517E+03  0.00000000000E+00 0. -1.
         -3   -1    0    0    0  501 -0.00000000000E+00 -0.00000000000E+00 -0.17749095094E+02  0.17749095094E+02  0.00000000000E+00 0.  1.
         25    2    1    2    0    0 -0.28786552571E+02 -0.13710378129E+02  0.67336126077E+03  0.68562177718E+03  0.12508074897E+03 0.  0.
         23    2    1    2    0    0  0.28786552571E+02  0.13710378129E+02  0.14804472931E+03  0.17128240308E+03  0.80023619344E+02 0.  0.
          5    1    3    3  502    0 -0.75558961445E+02 -0.23186708517E+00  0.49242505684E+03  0.49820590063E+03  0.41800000000E+01 0. -1.
         -5    1    3    3    0  502  0.46772408875E+02 -0.13478511044E+02  0.18093620393E+03  0.18741587655E+03  0.41800000000E+01 0. -1.
        -11    1    4    4    0    0 -0.54741075319E+01  0.26548240903E+02  0.12530757115E+03  0.12820593721E+03  0.00000000000E+00 0. -1.
         11    1    4    4    0    0  0.34260660103E+02 -0.12837862774E+02  0.22737158163E+02  0.43076465879E+02  0.00000000000E+00 0.  1.
</event>
<event>
 8    1  0.3708258E-009  0.9606352E+02  0.7561462E-02  0.1288799E+00
          2   -1    0    0  501    0  0.00000000000E+00  0.00000000000E+00  0.42839756768E+03  0.42839756768E+03  0.00000000000E+00 0. -1.
         -2   -1    0    0    0  501 -0.00000000000E+00 -0.00000000000E+00 -0.41344312934E+02  0.41344312934E+02  0.00000000000E+00 0.  1.
         25    2    1    2    0    0  0.31078756586E+02  0.36422575050E+02  0.32022339898E+03  0.34710481161E+03  0.12508489878E+03 0.  0.
         23    2    1    2    0    0 -0.31078756586E+02 -0.36422575050E+02  0.66829855764E+02  0.12263706901E+03  0.91000703231E+02 0.  0.
          5    1    3    3  502    0  0.23089610046E+02  0.76966749518E+02  0.27103094388E+03  0.28272293073E+03  0.41800000000E+01 0. -1.
         -5    1    3    3    0  502  0.79891465401E+01 -0.40544174468E+02  0.49192455103E+02  0.64381880874E+02  0.41800000000E+01 0. -1.
        -11    1    4    4    0    0  0.14416968516E+02 -0.94457512348E+01  0.67575945265E+02  0.69739368911E+02  0.00000000000E+00 0. -1.
         11    1    4    4    0    0 -0.45495725103E+02 -0.26976823815E+02 -0.74608950067E+00  0.52897700095E+02  0.00000000000E+00 0.  1.
</event>
<event>
 8    1  0.3708258E-009  0.1696184E+03  0.7561462E-02  0.1178246E+00
          3   -1    0    0  501    0  0.00000000000E+00  0.00000000000E+00  0.65491988171E+03  0.65491988171E+03  0.00000000000E+00 0. -1.
         -3   -1    0    0    0  501 -0.00000000000E+00 -0.00000000000E+00 -0.50833524317E+02  0.50833524317E+02  0.00000000000E+00 0.  1.
         25    2    1    2    0    0 -0.86729256597E+02  0.10598278463E+03  0.22128251937E+03  0.28873492332E+03  0.12509031929E+03 0.  0.
         23    2    1    2    0    0  0.86729256597E+02 -0.10598278463E+03  0.38280383802E+03  0.41701848270E+03  0.92797208603E+02 0.  0.
          5    1    3    3  502    0 -0.11216865903E+03  0.69226989678E+02  0.19869556758E+03  0.23847764077E+03  0.41800000000E+01 0. -1.
         -5    1    3    3    0  502  0.25439402433E+02  0.36755794952E+02  0.22586951786E+02  0.50257282554E+02  0.41800000000E+01 0. -1.
        -11    1    4    4    0    0 -0.18192123096E+02 -0.16734157338E+02  0.91650072446E+02  0.94924818377E+02  0.00000000000E+00 0.  1.
         11    1    4    4    0    0  0.10492137969E+03 -0.89248627293E+02  0.29115376558E+03  0.32209366433E+03  0.00000000000E+00 0. -1.
</event>
<event>
 8    1  0.3708258E-009  0.8700715E+02  0.7561462E-02  0.1310266E+00
         -2   -1    0    0    0  501 -0.00000000000E+00  0.00000000000E+00  0.28560354384E+02  0.28560354384E+02  0.00000000000E+00 0. -1.
          2   -1    0    0  501    0  0.00000000000E+00 -0.00000000000E+00 -0.62689298293E+03  0.62689298293E+03  0.00000000000E+00 0.  1.
         25    2    1    2    0    0 -0.37346083708E+02 -0.50115413433E+02 -0.21771630266E+03  0.25875258908E+03  0.12508488830E+03 0.  0.
         23    2    1    2    0    0  0.37346083708E+02  0.50115413433E+02 -0.38061632588E+03  0.39670074823E+03  0.92716834970E+02 0.  0.
          5    1    3    3  502    0 -0.22011360811E+02 -0.68950220292E+01 -0.21090210974E+03  0.21220088037E+03  0.41800000000E+01 0. -1.
         -5    1    3    3    0  502 -0.15334722897E+02 -0.43220391404E+02 -0.68141929210E+01  0.46551708719E+02  0.41800000000E+01 0. -1.
        -11    1    4    4    0    0 -0.65613532828E+01  0.59302215060E+02 -0.28370538383E+03  0.28991127760E+03  0.00000000000E+00 0.  1.
         11    1    4    4    0    0  0.43907436991E+02 -0.91868016265E+01 -0.96910942051E+02  0.10678947063E+03  0.00000000000E+00 0. -1.
</event>
<event>
 8    1  0.3708258E-009  0.1210722E+03  0.7561462E-02  0.1241339E+00
         -1   -1    0    0    0  501 -0.00000000000E+00  0.00000000000E+00  0.21691274986E+02  0.21691274986E+02  0.00000000000E+00 0.  1.
          1   -1    0    0  501    0  0.00000000000E+00 -0.00000000000E+00 -0.82369606704E+03  0.82369606704E+03  0.00000000000E+00 0. -1.
         25    2    1    2    0    0  0.78715479149E+02  0.15395068891E+02 -0.50357382236E+03  0.52504053301E+03  0.12509129436E+03 0.  0.
         23    2    1    2    0    0 -0.78715479149E+02 -0.15395068891E+02 -0.29843096969E+03  0.32034680902E+03  0.84426888935E+02 0.  0.
          5    1    3    3  502    0 -0.14897686982E+02  0.35640143719E+02 -0.61913985081E+02  0.73095655618E+02  0.41800000000E+01 0.  1.
         -5    1    3    3    0  502  0.93613166132E+02 -0.20245074828E+02 -0.44165983728E+03  0.45194487739E+03  0.41800000000E+01 0.  1.
        -11    1    4    4    0    0 -0.76431935726E+02 -0.37544414503E+02 -0.27559812101E+03  0.28845406595E+03  0.00000000000E+00 0. -1.
         11    1    4    4    0    0 -0.22835434237E+01  0.22149345611E+02 -0.22832848675E+02  0.31892743065E+02  0.00000000000E+00 0.  1.
</event>
<event>
 8    1  0.3708258E-009  0.2530250E+03  0.7561462E-02  0.1111408E+00
         -2   -1    0    0    0  501 -0.00000000000E+00  0.00000000000E+00  0.68159411863E+02  0.68159411863E+02  0.00000000000E+00 0.  1.
          2   -1    0    0  501    0  0.00000000000E+00 -0.00000000000E+00 -0.96895787568E+03  0.96895787568E+03  0.00000000000E+00 0. -1.
         25    2    1    2    0    0 -0.23021554599E+03  0.26230908066E+02 -0.51540828008E+03  0.57877501146E+03  0.12509020971E+03 0.  0.
         23    2    1    2    0    0  0.23021554599E+03 -0.26230908066E+02 -0.38539018374E+03  0.45834227608E+03  0.88683652187E+02 0.  0.
          5    1    3    3  502    0 -0.21094163958E+03  0.60441290807E+02 -0.46920406490E+03  0.51799560989E+03  0.41800000000E+01 0.  1.
         -5    1    3    3    0  502 -0.19273906412E+02 -0.34210382741E+02 -0.46204215179E+02  0.60779401576E+02  0.41800000000E+01 0.  1.
        -11    1    4    4    0    0  0.13143365480E+03 -0.57525977598E+02 -0.20318470018E+03  0.24873292122E+03  0.00000000000E+00 0.  1.
         11    1    4    4    0    0  0.98781891192E+02  0.31295069532E+02 -0.18220548356E+03  0.20960935486E+03  0.00000000000E+00 0. -1.
</event>
<event>
 8    1  0.3708258E-009  0.1349968E+03  0.7561462E-02  0.1220224E+00
          1   -1    0    0  501    0  0.00000000000E+00  0.00000000000E+00  0.10820673255E+03  0.10820673255E+03  0.00000000000E+00 0. -1.
         -1   -1    0    0    0  501 -0.00000000000E+00 -0.00000000000E+00 -0.24172341528E+03  0.24172341528E+03  0.00000000000E+00 0.  1.
         25    2    1    2    0    0  0.82681185658E+02  0.24170645356E+01  0.22678523087E+02  0.15166883298E+03  0.12508836407E+03 0.  0.
         23    2    1    2    0    0 -0.82681185658E+02 -0.24170645356E+01 -0.15619520582E+03  0.19826131486E+03  0.89825308163E+02 0.  0.
          5    1    3    3  502    0  0.12009710254E+02  0.57769244806E+02  0.17355957717E+02  0.61645928123E+02  0.41800000000E+01 0. -1.
         -5    1    3    3    0  502  0.70671475404E+02 -0.55352180270E+02  0.53225653699E+01  0.90022904856E+02  0.41800000000E+01 0. -1.
        -11    1    4    4    0    0 -0.90545507109E+02  0.23786366861E+02 -0.13139954923E+03  0.16133853118E+03  0.00000000000E+00 0.  1.
         11    1    4    4    0    0  0.78643214512E+01 -0.26203431396E+02 -0.24795656584E+02  0.36922783674E+02  0.00000000000E+00 0. -1.
</event>
<event>
 8    1  0.3708258E-009  0.1180785E+03  0.7561462E-02  0.1246301E+00
         -1   -1    0    0    0  501 -0.00000000000E+00  0.00000000000E+00  0.10087382889E+03  0.10087382889E+03  0.00000000000E+00 0.  1.
          1   -1    0    0  501    0  0.00000000000E+00 -0.00000000000E+00 -0.30991960375E+03  0.30991960375E+03  0.00000000000E+00 0. -1.
         25    2    1    2    0    0 -0.39060815810E+02  0.93271143571E+02 -0.22114004168E+03  0.27345136212E+03  0.12508987113E+03 0.  0.
         23    2    1    2    0    0  0.39060815810E+02 -0.93271143571E+02  0.12094266819E+02  0.13734207051E+03  0.92148355857E+02 0.  0.
          5    1    3    3  502    0 -0.62933580945E+02  0.41410344506E+02 -0.19767325640E+03  0.21158364998E+03  0.41800000000E+01 0.  1.
         -5    1    3    3    0  502  0.23872765134E+02  0.51860799066E+02 -0.23466785281E+02  0.61867712147E+02  0.41800000000E+01 0.  1.
        -11    1    4    4    0    0  0.38555609243E+02 -0.67884965644E+02  0.49274122695E+02  0.92319243562E+02  0.00000000000E+00 0.  1.
         11    1    4    4    0    0  0.50520656732E+00 -0.25386177928E+02 -0.37179855875E+02  0.45022826948E+02  0.00000000000E+00 0. -1.
</event>
<event>
 8    1  0.3708258E-009  0.1296277E+03  0.7561462E-02  0.1228009E+00
         -2   -1    0    0    0  501 -0.00000000000E+00  0.00000000000E+00  0.19229683963E+02  0.19229683963E+02  0.00000000000E+00 0. -1.
          2   -1    0    0  501    0  0.00000000000E+00 -0.00000000000E+00 -0.10037702310E+04  0.10037702310E+04  0.00000000000E+00 0.  1.
         25    2    1    2    0    0 -0.86664967933E+02  0.99943600812E+01 -0.60378730277E+03  0.62275088234E+03  0.12509536594E+03 0.  0.
         23    2    1    2    0    0  0.86664967933E+02 -0.99943600812E+01 -0.38075324429E+03  0.40024903264E+03  0.87267125475E+02 0.  0.
          5    1    3    3  502    0  0.10252190214E+02 -0.32678258171E+02 -0.64493975704E+02  0.73143155957E+02  0.41800000000E+01 0.  1.
         -5    1    3    3    0  502 -0.96917158147E+02  0.42672618252E+02 -0.53929332706E+03  0.54960772639E+03  0.41800000000E+01 0.  1.
        -11    1    4    4    0    0  0.25647164680E+02  0.34692328480E+02 -0.89793999374E+02  0.99620766084E+02  0.00000000000E+00 0. -1.
         11    1    4    4    0    0  0.61017803253E+02 -0.44686688561E+02 -0.29095924492E+03  0.30062826656E+03  0.00000000000E+00 0.  1.
</event>
<event>
 8    1  0.3708258E-009  0.1274015E+03  0.7561462E-02  0.1231363E+00
         -2   -1    0    0    0  501 -0.00000000000E+00  0.00000000000E+00  0.70049021345E+03  0.70049021345E+03  0.00000000000E+00 0.  1.
          2   -1    0    0  501    0  0.00000000000E+00 -0.00000000000E+00 -0.39851222406E+02  0.39851222406E+02  0.00000000000E+00 0. -1.
         25    2    1    2    0    0  0.79427806797E+02 -0.14087046761E+02  0.57038657123E+03  0.58948826174E+03  0.12509335999E+03 0.  0.
         23    2    1    2    0    0 -0.79427806797E+02  0.14087046761E+02  0.90252419814E+02  0.15085317411E+03  0.90021994414E+02 0.  0.
          5    1    3    3  502    0  0.72427545809E+02  0.42199627065E+02  0.24023490923E+03  0.25447365665E+03  0.41800000000E+01 0. -1.
         -5    1    3    3    0  502  0.70002609882E+01 -0.56286673826E+02  0.33015166200E+03  0.33501460509E+03  0.41800000000E+01 0. -1.
        -11    1    4    4    0    0 -0.74147875424E+02 -0.22145935820E+02  0.35871923546E+02  0.85294459387E+02  0.00000000000E+00 0. -1.
         11    1    4    4    0    0 -0.52799313728E+01  0.36232982580E+02  0.54380496268E+02  0.65558714725E+02  0.00000000000E+00 0.  1.
</event>
<event>
 8    1  0.3708258E-009  0.1162973E+03  0.7561462E-02  0.1249333E+00
          2   -1    0    0  501    0  0.00000000000E+00  0.00000000000E+00  0.39637668668E+02  0.39637668668E+02  0.00000000000E+00 0. -1.
         -2   -1    0    0    0  501 -0.00000000000E+00 -0.00000000000E+00 -0.38270836582E+03  0.38270836582E+03  0.00000000000E+00 0.  1.
         25    2    1    2    0    0 -0.31057840557E+02  0.50447559481E+02 -0.20641897061E+03  0.24853629269E+03  0.12510776010E+03 0.  0.
         23    2    1    2    0    0  0.31057840557E+02 -0.50447559481E+02 -0.13665172654E+03  0.17380974180E+03  0.89591217542E+02 0.  0.
          5    1    3    3  502    0 -0.77375087081E+02  0.45648076136E+02 -0.15365491102E+03  0.17803919522E+03  0.41800000000E+01 0.  1.
         -5    1    3    3    0  502  0.46317246524E+02  0.47994833452E+01 -0.52764059596E+02  0.70497097465E+02  0.41800000000E+01 0.  1.
        -11    1    4    4    0    0  0.54341216439E+02 -0.47984746859E+02 -0.13100402510E+03  0.14972494223E+03  0.00000000000E+00 0. -1.
         11    1    4    4    0    0 -0.23283375883E+02 -0.24628126219E+01 -0.56477014405E+01  0.24084799564E+02  0.00000000000E+00 0.  1.
</event>
<event>
 8    1  0.3708258E-009  0.1461350E+03  0.7561462E-02  0.1205304E+00
          1   -1    0    0  501    0  0.00000000000E+00  0.00000000000E+00  0.82972237039E+03  0.82972237039E+03  0.00000000000E+00 0. -1.
         -1   -1    0    0    0  501 -0.00000000000E+00 -0.00000000000E+00 -0.27637001221E+02  0.27637001221E+02  0.00000000000E+00 0.  1.
         25    2    1    2    0    0  0.27659780680E+02  0.10183456316E+03  0.40855960345E+03  0.44011529926E+03  0.12508071535E+03 0.  0.
         23    2    1    2    0    0 -0.27659780680E+02 -0.10183456316E+03  0.39352576573E+03  0.41724407236E+03  0.89970805845E+02 0.  0.
          5    1    3    3  502    0  0.66007774545E+02  0.10589156207E+03  0.31374029104E+03  0.33766920476E+03  0.41800000000E+01 0. -1.
         -5    1    3    3    0  502 -0.38347993865E+02 -0.40569989128E+01  0.94819312402E+02  0.10244609450E+03  0.41800000000E+01 0. -1.
        -11    1    4    4    0    0 -0.44243644030E+02 -0.26671000420E+02  0.24007875548E+03  0.24557412553E+03  0.00000000000E+00 0. -1.
         11    1    4    4    0    0  0.16583863350E+02 -0.75163562740E+02  0.15344701025E+03  0.17166994682E+03  0.00000000000E+00 0.  1.
</event>
<event>
 8    1  0.3708258E-009  0.9590736E+02  0.7561462E-02  0.1289145E+00
          1   -1    0    0  501    0  0.00000000000E+00  0.00000000000E+00  0.14223972496E+03  0.14223972496E+03  0.00000000000E+00 0. -1.
         -1   -1    0    0    0  501 -0.00000000000E+00 -0.00000000000E+00 -0.13653178698E+03  0.13653178698E+03  0.00000000000E+00 0.  1.
         25    2    1    2    0    0 -0.66995559594E+02  0.48102821014E+02  0.28385901570E+02  0.15249776699E+03  0.12509006010E+03 0.  0.
         23    2    1    2    0    0  0.66995559594E+02 -0.48102821014E+02 -0.22677963588E+02  0.12627374495E+03  0.92889623949E+02 0.  0.
          5    1    3    3  502    0 -0.31893782593E+02  0.15040357670E+02  0.76444744765E+02  0.84289365456E+02  0.41800000000E+01 0. -1.
         -5    1    3    3    0  502 -0.35101777001E+02  0.33062463344E+02 -0.48058843194E+02  0.68208401537E+02  0.41800000000E+01 0. -1.
        -11    1    4    4    0    0  0.40280178867E+02 -0.64872984005E+02 -0.44065875490E+02  0.88163474558E+02  0.00000000000E+00 0.  1.
         11    1    4    4    0    0  0.26715380726E+02  0.16770162992E+02  0.21387911902E+02  0.38110270396E+02  0.00000000000E+00 0. -1.
</event>
<event>
 8    1  0.3708258E-009  0.1154169E+03  0.7561462E-02  0.1250855E+00
         -1   -1    0    0    0  501 -0.00000000000E+00  0.00000000000E+00  0.38663322602E+02  0.38663322602E+02  0.00000000000E+00 0.  1.
          1   -1    0    0  501    0  0.00000000000E+00 -0.00000000000E+00 -0.45363961631E+03  0.45363961631E+03  0.00000000000E+00 0. -1.
         25    2    1    2    0    0  0.47832550264E+02  0.48951250793E+02 -0.17059709232E+03  0.22234004365E+03  0.12509016461E+03 0.  0.
         23    2    1    2    0    0 -0.47832550264E+02 -0.48951250793E+02 -0.24437920138E+03  0.26996289526E+03  0.92057552267E+02 0.  0.
          5    1    3    3  502    0  0.63695339270E+02  0.70644301998E+02 -0.17033805480E+03  0.19514158697E+03  0.41800000000E+01 0. -1.
         -5    1    3    3    0  502 -0.15862789006E+02 -0.21693051205E+02 -0.25903752055E+00  0.27198456686E+02  0.41800000000E+01 0. -1.
        -11    1    4    4    0    0 -0.50974209185E+01 -0.63178779743E+02 -0.18416124703E+03  0.19476372049E+03  0.00000000000E+00 0. -1.
         11    1    4    4    0    0 -0.42735129345E+02  0.14227528951E+02 -0.60217954355E+02  0.75199174775E+02  0.00000000000E+00 0.  1.
</event>
<event>
 8    1  0.3708258E-009  0.1110060E+03  0.7561462E-02  0.1258718E+00
          1   -1    0    0  501    0  0.00000000000E+00  0.00000000000E+00  0.10530331084E+04  0.10530331084E+04  0.00000000000E+00 0. -1.
         -1   -1    0    0    0  501 -0.00000000000E+00 -0.00000000000E+00 -0.16653766647E+02  0.16653766647E+02  0.00000000000E+00 0.  1.
         25    2    1    2    0    0 -0.25329834577E+02 -0.69993447512E+02  0.62792636648E+03  0.64457654510E+03  0.12508684008E+03 0.  0.
         23    2    1    2    0    0  0.25329834577E+02  0.69993447512E+02  0.40845297524E+03  0.42511032991E+03  0.91347010904E+02 0.  0.
          5    1    3    3  502    0 -0.55758433278E+02 -0.22731878666E+02  0.51335121552E+03  0.51688749653E+03  0.41800000000E+01 0. -1.
         -5    1    3    3    0  502  0.30428598701E+02 -0.47261568846E+02  0.11457515096E+03  0.12768904857E+03  0.41800000000E+01 0. -1.
        -11    1    4    4    0    0  0.43758307559E+02  0.13391568019E+02  0.88122931349E+02  0.99296397739E+02  0.00000000000E+00 0.  1.
         11    1    4    4    0    0 -0.18428472982E+02  0.56601879494E+02  0.32033004389E+03  0.32581393217E+03  0.00000000000E+00 0. -1.
</event>
<event>
 8    1  0.3708258E-009  0.1255295E+03  0.7561462E-02  0.1234244E+00
          4   -1    0    0  501    0  0.00000000000E+00  0.00000000000E+00  0.16008959857E+03  0.16008959857E+03  0.00000000000E+00 0. -1.
         -4   -1    0    0    0  501 -0.00000000000E+00 -0.00000000000E+00 -0.12326972789E+03  0.12326972789E+03  0.00000000000E+00 0.  1.
         25    2    1    2    0    0 -0.59317568923E+02  0.36784838848E+02 -0.33545939226E+02  0.14712299253E+03  0.12509255190E+03 0.  0.
         23    2    1    2    0    0  0.59317568923E+02 -0.36784838848E+02  0.70365809904E+02  0.13623633393E+03  0.93473488905E+02 0.  0.
          5    1    3    3  502    0 -0.98391393305E+02  0.26304855491E+02 -0.30214766075E+02  0.10631658473E+03  0.41800000000E+01 0. -1.
         -5    1    3    3    0  502  0.39073824382E+02  0.10479983358E+02 -0.33311731510E+01  0.40806407801E+02  0.41800000000E+01 0. -1.
        -11    1    4    4    0    0  0.70826759112E+02 -0.53077794566E+02  0.74705935843E+02  0.11582166867E+03  0.00000000000E+00 0. -1.
         11    1    4    4    0    0 -0.11509190189E+02  0.16292955718E+02 -0.43401259387E+01  0.20414665268E+02  0.00000000000E+00 0.  1.
</event>
<event>
 8    1  0.3708258E-009  0.1041314E+03  0.7561462E-02  0.1271840E+00
         -2   -1    0    0    0  501 -0.00000000000E+00  0.00000000000E+00  0.13580858730E+02  0.13580858730E+02  0.00000000000E+00 0.  1.
          2   -1    0    0  501    0  0.00000000000E+00 -0.00000000000E+00 -0.10107454929E+04  0.10107454929E+04  0.00000000000E+00 0. -1.
         25    2    1    2    0    0  0.25315626917E+02  0.27811654481E+02 -0.63563693688E+03  0.64891920415E+03  0.12508976335E+03 0.  0.
         23    2    1    2    0    0 -0.25315626917E+02 -0.27811654481E+02 -0.36152769726E+03  0.37540714745E+03  0.93882274049E+02 0.  0.
          5    1    3    3  502    0 -0.43450405069E+00 -0.37676714966E+02 -0.76731178163E+02  0.85585452892E+02  0.41800000000E+01 0. -1.
         -5    1    3    3    0  502  0.25750130968E+02  0.65488369447E+02 -0.55890575871E+03  0.56333375125E+03  0.41800000000E+01 0. -1.
        -11    1    4    4    0    0 -0.23778712502E+01 -0.60158339681E+02 -0.18793733873E+03  0.19734518842E+03  0.00000000000E+00 0.  1.
         11    1    4    4    0    0 -0.22937755667E+02  0.32346685201E+02 -0.17359035853E+03  0.17806195903E+03  0.00000000000E+00 0. -1.
</event>
<event>
 8    1  0.3708258E-009  0.9586744E+02  0.7561462E-02  0.1289234E+00
         -4   -1    0    0    0  501 -0.00000000000E+00  0.00000000000E+00  0.22593675709E+03  0.22593675709E+03  0.00000000000E+00 0.  1.
          4   -1    0    0  501    0  0.00000000000E+00 -0.00000000000E+00 -0.74635612082E+02  0.74635612082E+02  0.00000000000E+00 0. -1.
         25    2    1    2    0    0 -0.28688424700E+02  0.15552650281E+02  0.15301645745E+02  0.13017971418E+03  0.12509079494E+03 0.  0.
         23    2    1    2    0    0  0.28688424700E+02 -0.15552650281E+02  0.13599949926E+03  0.17039265499E+03  0.97328733845E+02 0.  0.
          5    1    3    3  502    0 -0.39418765864E+02  0.62081393924E+02 -0.12585641632E+02  0.74724891094E+02  0.41800000000E+01 0.  1.
         -5    1    3    3    0  502  0.10730341164E+02 -0.46528743643E+02  0.27887287377E+02  0.55454823088E+02  0.41800000000E+01 0.  1.
        -11    1    4    4    0    0  0.48438977810E+02 -0.85384199891E+01  0.14058235602E+03  0.14893836984E+03  0.00000000000E+00 0.  1.
         11    1    4    4    0    0 -0.19750553111E+02 -0.70142302915E+01 -0.45828567640E+01  0.21454285140E+02  0.00000000000E+00 0. -1.
</event>
<event>
 8    1  0.3708258E-009  0.1148224E+03  0.7561462E-02  0.1251891E+00
         -1   -1    0    0    0  501 -0.00000000000E+00  0.00000000000E+00  0.36491447153E+03  0.36491447153E+03  0.00000000000E+00 0.  1.
          1   -1    0    0  501    0  0.00000000000E+00 -0.00000000000E+00 -0.60279788438E+02  0.60279788438E+02  0.00000000000E+00 0. -1.
         25    2    1    2    0    0 -0.57152234561E+02 -0.57676915274E+02  0.77077363189E+02  0.16787177135E+03  0.12508799794E+03 0.  0.
         23    2    1    2    0    0  0.57152234561E+02  0.57676915274E+02  0.22755731990E+03  0.25732248862E+03  0.88541091230E+02 0.  0.
          5    1    3    3  502    0 -0.26367876641E+02 -0.90890571708E+02  0.23512836627E+02  0.97604747990E+02  0.41800000000E+01 0. -1.
         -5    1    3    3    0  502 -0.30784357919E+02  0.33213656434E+02  0.53564526562E+02  0.70267023361E+02  0.41800000000E+01 0. -1.
        -11    1    4    4    0    0  0.60829801755E+02  0.43482453606E+02  0.23053684943E+03  0.24235970684E+03  0.00000000000E+00 0.  1.
         11    1    4    4    0    0 -0.36775671945E+01  0.14194461668E+02 -0.29795295236E+01  0.14962781784E+02  0.00000000000E+00 0. -1.
</event>
<event>
 8    1  0.3708258E-009  0.1343693E+03  0.7561462E-02  0.1221113E+00
         -2   -1    0    0    0  501 -0.00000000000E+00  0.00000000000E+00  0.14525741312E+03  0.14525741312E+03  0.00000000000E+00 0.  1.
          2   -1    0    0  501    0  0.00000000000E+00 -0.00000000000E+00 -0.18278857486E+03  0.18278857486E+03  0.00000000000E+00 0. -1.
         25    2    1    2    0    0  0.28423054664E+02  0.75760863258E+02 -0.10821289530E+03  0.18413426690E+03  0.12509124310E+03 0.  0.
         23    2    1    2    0    0 -0.28423054664E+02 -0.75760863258E+02  0.70681733558E+02  0.14391172107E+03  0.95744961046E+02 0.  0.
          5    1    3    3  502    0  0.50697786072E+02 -0.12416599064E+02 -0.64678062038E+02  0.83217555563E+02  0.41800000000E+01 0.  1.
         -5    1    3    3    0  502 -0.22274731408E+02  0.88177462322E+02 -0.43534833261E+02  0.10091671134E+03  0.41800000000E+01 0.  1.
        -11    1    4    4    0    0  0.11610787640E+00  0.22760246207E+02  0.13980748886E+02  0.26711488687E+02  0.00000000000E+00 0. -1.
         11    1    4    4    0    0 -0.28539162540E+02 -0.98521109465E+02  0.56700984672E+02  0.11720023239E+03  0.00000000000E+00 0.  1.
</event>
<event>
 8    1  0.3708258E-009  0.2638345E+03  0.7561462E-02  0.1104861E+00
         -2   -1    0    0    0  501 -0.00000000000E+00  0.00000000000E+00  0.50731099994E+03  0.50731099994E+03  0.00000000000E+00 0.  1.
          2   -1    0    0  501    0  0.00000000000E+00 -0.00000000000E+00 -0.15060109926E+03  0.15060109926E+03  0.00000000000E+00 0. -1.
         25    2    1    2    0    0 -0.72989171757E+02 -0.24192866641E+03  0.21224663200E+03  0.35292106336E+03  0.12509094828E+03 0.  0.
         23    2    1    2    0    0  0.72989171757E+02  0.24192866641E+03  0.14446326868E+03  0.30499103584E+03  0.91065894371E+02 0.  0.
          5    1    3    3  502    0 -0.79400622838E+02 -0.16421326104E+03  0.20509487160E+03  0.27450288299E+03  0.41800000000E+01 0.  1.
         -5    1    3    3    0  502  0.64114510812E+01 -0.77715405372E+02  0.71517604007E+01  0.78418180379E+02  0.41800000000E+01 0.  1.
        -11    1    4    4    0    0 -0.60675013657E+01  0.12974488544E+03  0.54287810056E+02  0.14077541047E+03  0.00000000000E+00 0. -1.
         11    1    4    4    0    0  0.79056673123E+02  0.11218378097E+03  0.90175458624E+02  0.16421562537E+03  0.00000000000E+00 0.  1.
</event>
<event>
 8    1  0.3708258E-009  0.1068951E+03  0.7561462E-02  0.1266430E+00
         -2   -1    0    0    0  501 -0.00000000000E+00  0.00000000000E+00  0.27561017105E+03  0.27561017105E+03  0.00000000000E+00 0. -1.
          2   -1    0    0  501    0  0.00000000000E+00 -0.00000000000E+00 -0.84957332891E+02  0.84957332891E+02  0.00000000000E+00 0.  1.
         25    2    1    2    0    0 -0.79582960749E+02  0.30508411307E+02  0.17977900203E+03  0.23501440557E+03  0.12508825065E+03 0.  0.
         23    2    1    2    0    0  0.79582960749E+02 -0.30508411307E+02  0.10873836130E+02  0.12555309837E+03  0.91548508435E+02 0.  0.
          5    1    3    3  502    0 -0.30022126898E+02  0.27209730473E+02  0.18062526181E+03  0.18516115991E+03  0.41800000000E+01 0. -1.
         -5    1    3    3    0  502 -0.49560833851E+02  0.32986808345E+01 -0.84625977735E+00  0.49853245660E+02  0.41800000000E+01 0. -1.
        -11    1    4    4    0    0  0.73226681094E+02 -0.58988257855E+02  0.17461494041E+02  0.95638199288E+02  0.00000000000E+00 0. -1.
         11    1    4    4    0    0  0.63562796544E+01  0.28479846548E+02 -0.65876579110E+01  0.29914899084E+02  0.00000000000E+00 0.  1.
</event>
<event>
 8    1  0.3708258E-009  0.7820908E+02  0.7561462E-02  0.1334212E+00
         -1   -1    0    0    0  501 -0.00000000000E+00  0.00000000000E+00  0.61874899213E+02  0.61874899213E+02  0.00000000000E+00 0.  1.
          1   -1    0    0  501    0  0.00000000000E+00 -0.00000000000E+00 -0.20740833437E+03  0.20740833437E+03  0.00000000000E+00 0. -1.
         25    2    1    2    0    0 -0.24737594317E+02 -0.70491770512E+01 -0.10856622600E+03  0.16761746857E+03  0.12508937153E+03 0.  0.
         23    2    1    2    0    0  0.24737594317E+02  0.70491770512E+01 -0.36967209148E+02  0.10166576501E+03  0.91146660684E+02 0.  0.
          5    1    3    3  502    0 -0.47331037684E+02 -0.37783178742E+02 -0.95853613333E+01  0.61458500437E+02  0.41800000000E+01 0.  1.
         -5    1    3    3    0  502  0.22593443367E+02  0.30734001691E+02 -0.98980864671E+02  0.10615896813E+03  0.41800000000E+01 0.  1.
        -11    1    4    4    0    0 -0.14125766917E+02  0.11507991817E+02 -0.55474757686E+02  0.58390238114E+02  0.00000000000E+00 0. -1.
         11    1    4    4    0    0  0.38863361235E+02 -0.44588147657E+01  0.18507548538E+02  0.43275526900E+02  0.00000000000E+00 0.  1.
</event>
<event>
 8    1  0.3708258E-009  0.7958219E+02  0.7561462E-02  0.1330241E+00
         -1   -1    0    0    0  501 -0.00000000000E+00  0.00000000000E+00  0.59795918945E+02  0.59795918945E+02  0.00000000000E+00 0.  1.
          1   -1    0    0  501    0  0.00000000000E+00 -0.00000000000E+00 -0.29152527462E+03  0.29152527462E+03  0.00000000000E+00 0. -1.
         25    2    1    2    0    0 -0.41955282695E+02  0.43099648144E+02 -0.19100015074E+03  0.23610454856E+03  0.12508586991E+03 0.  0.
         23    2    1    2    0    0  0.41955282695E+02 -0.43099648144E+02 -0.40729204939E+02  0.11521664501E+03  0.89432554120E+02 0.  0.
          5    1    3    3  502    0 -0.33058333634E+02  0.92748085974E+01 -0.19731077545E+03  0.20031946986E+03  0.41800000000E+01 0.  1.
         -5    1    3    3    0  502 -0.88969490613E+01  0.33824839546E+02  0.63106247116E+01  0.35785078695E+02  0.41800000000E+01 0.  1.
        -11    1    4    4    0    0 -0.18066358546E+02 -0.74555418132E+01 -0.40987320622E+02  0.45408577016E+02  0.00000000000E+00 0. -1.
         11    1    4    4    0    0  0.60021641241E+02 -0.35644106331E+02  0.25811568335E+00  0.69808067994E+02  0.00000000000E+00 0.  1.
</event>
<event>
 8    1  0.3708258E-009  0.1114194E+03  0.7561462E-02  0.1257964E+00
         -2   -1    0    0    0  501 -0.00000000000E+00  0.00000000000E+00  0.47878803532E+02  0.47878803532E+02  0.00000000000E+00 0. -1.
          2   -1    0    0  501    0  0.00000000000E+00 -0.00000000000E+00 -0.50202553924E+03  0.50202553924E+03  0.00000000000E+00 0.  1.
         25    2    1    2    0    0  0.94413078737E+01  0.10806725849E+03 -0.28073985625E+03  0.32592808582E+03  0.12508628857E+03 0.  0.
         23    2    1    2    0    0 -0.94413078737E+01 -0.10806725849E+03 -0.17340687946E+03  0.22397625695E+03  0.91256491176E+02 0.  0.
          5    1    3    3  502    0  0.19398874220E+02  0.46658566922E+02 -0.25239347708E+03  0.25743596847E+03  0.41800000000E+01 0. -1.
         -5    1    3    3    0  502 -0.99575663465E+01  0.61408691566E+02 -0.28346379165E+02  0.68492117351E+02  0.41800000000E+01 0. -1.
        -11    1    4    4    0    0 -0.13422595595E+02 -0.56861029602E+02 -0.19289274535E+02  0.61525757793E+02  0.00000000000E+00 0. -1.
         11    1    4    4    0    0  0.39812877211E+01 -0.51206228886E+02 -0.15411760493E+03  0.16245049916E+03  0.00000000000E+00 0.  1.
</event>
<event>
 8    1  0.3708258E-009  0.9685544E+02  0.7561462E-02  0.1287051E+00
         -2   -1    0    0    0  501 -0.00000000000E+00  0.00000000000E+00  0.13322667529E+03  0.13322667529E+03  0.00000000000E+00 0.  1.
          2   -1    0    0  501    0  0.00000000000E+00 -0.00000000000E+00 -0.98316079212E+02  0.98316079212E+02  0.00000000000E+00 0. -1.
         25    2    1    2    0    0 -0.15149455119E+02  0.10540527209E+02 -0.13991978979E+02  0.12720775852E+03  0.12508169189E+03 0.  0.
         23    2    1    2    0    0  0.15149455119E+02 -0.10540527209E+02  0.48902575060E+02  0.10433499599E+03  0.90297955879E+02 0.  0.
          5    1    3    3  502    0  0.36004634896E+02 -0.39068229985E+02  0.44637267246E+01  0.53479506209E+02  0.41800000000E+01 0. -1.
         -5    1    3    3    0  502 -0.51154090014E+02  0.49608757194E+02 -0.18455705704E+02  0.73728252309E+02  0.41800000000E+01 0. -1.
        -11    1    4    4    0    0 -0.14454813750E+02 -0.30212747742E+02  0.58595940803E+02  0.67492488806E+02  0.00000000000E+00 0.  1.
         11    1    4    4    0    0  0.29604268869E+02  0.19672220533E+02 -0.96933657429E+01  0.36842507181E+02  0.00000000000E+00 0. -1.
</event>
<event>
 8    1  0.3708258E-009  0.1144554E+03  0.7561462E-02  0.1252535E+00
          2   -1    0    0  501    0  0.00000000000E+00  0.00000000000E+00  0.16930550882E+03  0.16930550882E+03  0.00000000000E+00 0. -1.
         -2   -1    0    0    0  501 -0.00000000000E+00 -0.00000000000E+00 -0.10349271971E+03  0.10349271971E+03  0.00000000000E+00 0.  1.
         25    2    1    2    0    0  0.60175614713E+02  0.42127114938E+02  0.20355347439E+02  0.14648978855E+03  0.12509644104E+03 0.  0.
         23    2    1    2    0    0 -0.60175614713E+02 -0.42127114938E+02  0.45457441675E+02  0.12630843998E+03  0.92150119842E+02 0.  0.
          5    1    3    3  502    0 -0.22613797360E+02  0.37704390456E+02 -0.26162568414E+02  0.51331834924E+02  0.41800000000E+01 0. -1.
         -5    1    3    3    0  502  0.82789412073E+02  0.44227244824E+01  0.46517915853E+02  0.95157953627E+02  0.41800000000E+01 0. -1.
        -11    1    4    4    0    0  0.29013611287E+01 -0.38439772573E+02  0.49797618435E+02  0.62974890342E+02  0.00000000000E+00 0. -1.
         11    1    4    4    0    0 -0.63076975842E+02 -0.36873423649E+01 -0.43401767599E+01  0.63333549635E+02  0.00000000000E+00 0.  1.
</event>
<event>
 8    1  0.3708258E-009  0.7415064E+02  0.7561462E-02  0.1346522E+00
          4   -1    0    0  501    0  0.00000000000E+00  0.00000000000E+00  0.22068325923E+03  0.22068325923E+03  0.00000000000E+00 0. -1.
         -4   -1    0    0    0  501 -0.00000000000E+00 -0.00000000000E+00 -0.59597714452E+02  0.59597714452E+02  0.00000000000E+00 0.  1.
         25    2    1    2    0    0  0.13418120695E+02  0.15449265825E+02  0.13159086407E+03  0.18270891454E+03  0.12509063181E+03 0.  0.
         23    2    1    2    0    0 -0.13418120695E+02 -0.15449265825E+02  0.29494680712E+02  0.97572059150E+02  0.90728412082E+02 0.  0.
          5    1    3    3  502    0 -0.23426530510E+02  0.61461335093E+02  0.54168959710E+02  0.85311468392E+02  0.41800000000E+01 0. -1.
         -5    1    3    3    0  502  0.36844651206E+02 -0.46012069268E+02  0.77421904361E+02  0.97397446145E+02  0.41800000000E+01 0. -1.
        -11    1    4    4    0    0 -0.16319449815E+01 -0.10316178313E+02 -0.32562910626E+02  0.34196928632E+02  0.00000000000E+00 0.  1.
         11    1    4    4    0    0 -0.11786175714E+02 -0.51330875115E+01  0.62057591339E+02  0.63375130518E+02  0.00000000000E+00 0. -1.
</event>
<event>
 8    1  0.3708258E-009  0.1107826E+03  0.7561462E-02  0.1259128E+00
          2   -1    0    0  501    0  0.00000000000E+00  0.00000000000E+00  0.11290004386E+02  0.11290004386E+02  0.00000000000E+00 0.  1.
         -2   -1    0    0    0  501 -0.00000000000E+00 -0.00000000000E+00 -0.14353625019E+04  0.14353625019E+04  0.00000000000E+00 0. -1.
         25    2    1    2    0    0  0.58725680835E+01 -0.63269382618E+02 -0.92123591207E+03  0.93185754861E+03  0.12508150692E+03 0.  0.
         23    2    1    2    0    0 -0.58725680835E+01  0.63269382618E+02 -0.50283658544E+03  0.51479495767E+03  0.90176022081E+02 0.  0.
          5    1    3    3  502    0 -0.48414353779E+02 -0.32067573055E+02 -0.68361438705E+03  0.68608919353E+03  0.41800000000E+01 0.  1.
         -5    1    3    3    0  502  0.54286921863E+02 -0.31201809563E+02 -0.23762152502E+03  0.24576835508E+03  0.41800000000E+01 0.  1.
        -11    1    4    4    0    0 -0.31424503227E+01  0.81799167436E+02 -0.46927108310E+03  0.47635735349E+03  0.00000000000E+00 0. -1.
         11    1    4    4    0    0 -0.27301177608E+01 -0.18529784818E+02 -0.33565502336E+02  0.38437604184E+02  0.00000000000E+00 0.  1.
</event>
<event>
 8    1  0.3708258E-009  0.8147105E+02  0.7561462E-02  0.1324928E+00
          1   -1    0    0  501    0  0.00000000000E+00  0.00000000000E+00  0.93344244488E+02  0.93344244488E+02  0.00000000000E+00 0. -1.
         -1   -1    0    0    0  501 -0.00000000000E+00 -0.00000000000E+00 -0.22206142497E+03  0.22206142497E+03  0.00000000000E+00 0.  1.
         25    2    1    2    0    0 -0.10509017681E+02 -0.76167397295E+02 -0.12285427134E+03  0.19144900888E+03  0.12509052382E+03 0.  0.
         23    2    1    2    0    0  0.10509017681E+02  0.76167397295E+02 -0.58629091413E+01  0.12395666058E+03  0.97051368541E+02 0.  0.
          5    1    3    3  502    0 -0.13601667643E+02 -0.49535122056E+02 -0.14659722831E+03  0.15539290019E+03  0.41800000000E+01 0.  1.
         -5    1    3    3    0  502  0.30926499623E+01 -0.26632275239E+02  0.23742956971E+02  0.36056108691E+02  0.41800000000E+01 0.  1.
        -11    1    4    4    0    0 -0.12095846623E+02  0.38328208517E+02  0.42518420405E+02  0.58507923800E+02  0.00000000000E+00 0. -1.
         11    1    4    4    0    0  0.22604864304E+02  0.37839188777E+02 -0.48381329547E+02  0.65448736781E+02  0.00000000000E+00 0.  1.
</event>
<event>
 8    1  0.3708258E-009  0.9421344E+02  0.7561462E-02  0.1292958E+00
          1   -1    0    0  501    0  0.00000000000E+00  0.00000000000E+00  0.37920514266E+03  0.37920514266E+03  0.00000000000E+00 0. -1.
         -1   -1    0    0    0  501 -0.00000000000E+00 -0.00000000000E+00 -0.43449298347E+02  0.43449298347E+02  0.00000000000E+00 0.  1.
         25    2    1    2    0    0 -0.42455103486E+02  0.51221604434E+02  0.20315780062E+03  0.24768097628E+03  0.12508671187E+03 0.  0.
         23    2    1    2    0    0  0.42455103486E+02 -0.51221604434E+02  0.13259804369E+03  0.17497346472E+03  0.92775986082E+02 0.  0.
          5    1    3    3  502    0 -0.48667842201E+02 -0.13948710248E+02  0.16307765626E+03  0.17080667362E+03  0.41800000000E+01 0.  1.
         -5    1    3    3    0  502  0.62127387149E+01  0.65170314682E+02  0.40080144367E+02  0.76874302667E+02  0.41800000000E+01 0.  1.
        -11    1    4    4    0    0  0.29427749152E+02 -0.13991307956E+02  0.13153978802E+03  0.13551555243E+03  0.00000000000E+00 0. -1.
         11    1    4    4    0    0  0.13027354334E+02 -0.37230296478E+02  0.10582556628E+01  0.39457912284E+02  0.00000000000E+00 0.  1.
</event>
<event>
 8    1  0.3708258E-009  0.8592956E+02  0.7561462E-02  0.1313019E+00
          1   -1    0    0  501    0  0.00000000000E+00  0.00000000000E+00  0.38654168341E+03  0.38654168341E+03  0.00000000000E+00 0. -1.
         -1   -1    0    0    0  501 -0.00000000000E+00 -0.00000000000E+00 -0.43583753771E+02  0.43583753771E+02  0.00000000000E+00 0.  1.
         25    2    1    2    0    0  0.33004173510E+02 -0.50535554895E+02  0.24413068873E+03  0.28087405199E+03  0.12508925663E+03 0.  0.
         23    2    1    2    0    0 -0.33004173510E+02  0.50535554895E+02  0.98827240912E+02  0.14925138519E+03  0.94159623288E+02 0.  0.
          5    1    3    3  502    0  0.28475391309E+02 -0.45216668716E+02  0.25869483761E+03  0.26418911115E+03  0.41800000000E+01 0. -1.
         -5    1    3    3    0  502  0.45287822014E+01 -0.53188861781E+01 -0.14564148883E+02  0.16684940848E+02  0.41800000000E+01 0. -1.
        -11    1    4    4    0    0  0.30204923822E+02  0.32540545188E+02  0.52955701803E+02  0.69105215850E+02  0.00000000000E+00 0. -1.
         11    1    4    4    0    0 -0.63209097332E+02  0.17995009706E+02  0.45871539110E+02  0.80146169342E+02  0.00000000000E+00 0.  1.
</event>
<event>
 8    1  0.3708258E-009  0.8211882E+02  0.7561462E-02  0.1323144E+00
          3   -1    0    0  501    0  0.00000000000E+00  0.00000000000E+00  0.18536373180E+03  0.18536373180E+03  0.00000000000E+00 0. -1.
         -3   -1    0    0    0  501 -0.00000000000E+00 -0.00000000000E+00 -0.69950510250E+02  0.69950510250E+02  0.00000000000E+00 0.  1.
         25    2    1    2    0    0  0.15236905254E+02 -0.25751757646E+02  0.87920825304E+02  0.15578713467E+03  0.12507695033E+03 0.  0.
         23    2    1    2    0    0 -0.15236905254E+02  0.25751757646E+02  0.27492396242E+02  0.99527107375E+02  0.90854262133E+02 0.  0.
          5    1    3    3  502    0  0.34000679197E+02  0.55517463005E+01  0.10833727062E+03  0.11375985530E+03  0.41800000000E+01 0. -1.
         -5    1    3    3    0  502 -0.18763773944E+02 -0.31303503946E+02 -0.20416445316E+02  0.42027279370E+02  0.41800000000E+01 0. -1.
        -11    1    4    4    0    0 -0.51955548109E+02  0.10326051984E+02  0.36245782190E+01  0.53095610894E+02  0.00000000000E+00 0.  1.
         11    1    4    4    0    0  0.36718642855E+02  0.15425705661E+02  0.23867818023E+02  0.46431496481E+02  0.00000000000E+00 0. -1.
</event>
<event>
 8    1  0.3708258E-009  0.1074222E+03  0.7561462E-02  0.1265419E+00
          2   -1    0    0  501    0  0.00000000000E+00  0.00000000000E+00  0.16752687686E+03  0.16752687686E+03  0.00000000000E+00 0.  1.
         -2   -1    0    0    0  501 -0.00000000000E+00 -0.00000000000E+00 -0.14004493609E+03  0.14004493609E+03  0.00000000000E+00 0. -1.
         25    2    1    2    0    0  0.25776164030E+02 -0.81429531178E+02  0.80774438871E+02  0.17165681504E+03  0.12508546276E+03 0.  0.
         23    2    1    2    0    0 -0.25776164030E+02  0.81429531178E+02 -0.53292498105E+02  0.13591499791E+03  0.91310553184E+02 0.  0.
          5    1    3    3  502    0  0.35360129141E+02 -0.14163883552E+02  0.94712732474E+02  0.10217107430E+03  0.41800000000E+01 0.  1.
         -5    1    3    3    0  502 -0.95839651110E+01 -0.67265647626E+02 -0.13938293603E+02  0.69485740741E+02  0.41800000000E+01 0.  1.
        -11    1    4    4    0    0  0.20801131410E+02  0.44103546389E+02 -0.58314779924E+02  0.76015941944E+02  0.00000000000E+00 0. -1.
         11    1    4    4    0    0 -0.46577295441E+02  0.37325984789E+02  0.50222818191E+01  0.59899055967E+02  0.00000000000E+00 0.  1.
</event>
<event>
 8    1  0.3708258E-009  0.1065782E+03  0.7561462E-02  0.1267041E+00
          2   -1    0    0  501    0  0.00000000000E+00  0.00000000000E+00  0.39909854754E+03  0.39909854754E+03  0.00000000000E+00 0. -1.
         -2   -1    0    0    0  501 -0.00000000000E+00 -0.00000000000E+00 -0.32651023642E+02  0.32651023642E+02  0.00000000000E+00 0.  1.
         25    2    1    2    0    0 -0.31137578931E+02  0.15286234010E+01  0.17380130577E+03  0.21639365331E+03  0.12508970300E+03 0.  0.
         23    2    1    2    0    0  0.31137578931E+02 -0.15286234010E+01  0.19264621813E+03  0.21535591787E+03  0.91069865986E+02 0.  0.
          5    1    3    3  502    0  0.48696058747E+02 -0.86195669626E+00  0.62895790574E+02  0.79658031477E+02  0.41800000000E+01 0. -1.
         -5    1    3    3    0  502 -0.79833637678E+02  0.23905800973E+01  0.11090551519E+03  0.13673562183E+03  0.41800000000E+01 0. -1.
        -11    1    4    4    0    0  0.56615798648E+02  0.78251916368E+01  0.17202124942E+03  0.18126746132E+03  0.00000000000E+00 0.  1.
         11    1    4    4    0    0 -0.25478219716E+02 -0.93538150378E+01  0.20624968703E+02  0.34088456546E+02  0.00000000000E+00 0. -1.
</event>
<event>
 8    1  0.3708258E-009  0.1032277E+03  0.7561462E-02  0.1273651E+00
          2   -1    0    0  501    0  0.00000000000E+00  0.00000000000E+00  0.11276221969E+04  0.11276221969E+04  0.00000000000E+00 0. -1.
         -2   -1    0    0    0  501 -0.00000000000E+00 -0.00000000000E+00 -0.36668152452E+02  0.36668152452E+02  0.00000000000E+00 0.  1.
         25    2    1    2    0    0  0.28067786351E+02 -0.57280409860E+02  0.10255648148E+04  0.10351321750E+04  0.12508630798E+03 0.  0.
         23    2    1    2    0    0 -0.28067786351E+02  0.57280409860E+02  0.65389229664E+02  0.12915817434E+03  0.91308469801E+02 0.  0.
          5    1    3    3  502    0  0.67312157831E+02 -0.10842145173E+02  0.33560240847E+03  0.34248347065E+03  0.41800000000E+01 0.  1.
         -5    1    3    3    0  502 -0.39244371480E+02 -0.46438264688E+02  0.68996240635E+03  0.69264870439E+03  0.41800000000E+01 0.  1.
        -11    1    4    4    0    0 -0.22584494575E+01  0.50457840570E+02 -0.79327603587E+01  0.51127516621E+02  0.00000000000E+00 0.  1.
         11    1    4    4    0    0 -0.25809336894E+02  0.68225692906E+01  0.73321990022E+02  0.78030657715E+02  0.00000000000E+00 0. -1.
</event>
<event>
 8    1  0.3708258E-009  0.7271461E+02  0.7561462E-02  0.1351098E+00
          1   -1    0    0  501    0  0.00000000000E+00  0.00000000000E+00  0.17879690498E+03  0.17879690498E+03  0.00000000000E+00 0. -1.
         -1   -1    0    0    0  501 -0.00000000000E+00 -0.00000000000E+00 -0.10172580341E+03  0.10172580341E+03  0.00000000000E+00 0.  1.
         25    2    1    2    0    0 -0.44190568724E+02 -0.19302372031E+02 -0.22420155008E+02  0.13592274680E+03  0.12508773647E+03 0.  0.
         23    2    1    2    0    0  0.44190568724E+02  0.19302372031E+02  0.99491256583E+02  0.14459996159E+03  0.93194693119E+02 0.  0.
          5    1    3    3  502    0 -0.21644630653E+01 -0.28945378828E+02 -0.67382061011E+02  0.73486967565E+02  0.41800000000E+01 0.  1.
         -5    1    3    3    0  502 -0.42026105659E+02  0.96430067969E+01  0.44961906003E+02  0.62435779233E+02  0.41800000000E+01 0.  1.
        -11    1    4    4    0    0  0.15119692429E+02  0.36149103167E+02 -0.42457772449E+00  0.39186005476E+02  0.00000000000E+00 0.  1.
         11    1    4    4    0    0  0.29070876296E+02 -0.16846731136E+02  0.99915834308E+02  0.10541395612E+03  0.00000000000E+00 0. -1.
</event>
<event>
 8    1  0.3708258E-009  0.1166850E+03  0.7561462E-02  0.1248668E+00
          3   -1    0    0  501    0  0.00000000000E+00  0.00000000000E+00  0.16397296067E+03  0.16397296067E+03  0.00000000000E+00 0. -1.
         -3   -1    0    0    0  501 -0.00000000000E+00 -0.00000000000E+00 -0.13100907958E+03  0.13100907958E+03  0.00000000000E+00 0.  1.
         25    2    1    2    0    0 -0.64563830386E+02  0.76820348079E+02  0.70956956501E+01  0.16052264907E+03  0.12508923973E+03 0.  0.
         23    2    1    2    0    0  0.64563830386E+02 -0.76820348079E+02  0.25868185439E+02  0.13445939119E+03  0.85675613725E+02 0.  0.
          5    1    3    3  502    0 -0.50089098194E+01  0.76661436864E+01 -0.51179153355E+02  0.52159726560E+02  0.41800000000E+01 0.  1.
         -5    1    3    3    0  502 -0.59554920567E+02  0.69154204392E+02  0.58274849005E+02  0.10836292251E+03  0.41800000000E+01 0.  1.
        -11    1    4    4    0    0  0.33110760929E+02  0.13912028811E+02  0.74706036872E+01  0.36683469771E+02  0.00000000000E+00 0.  1.
         11    1    4    4    0    0  0.31453069457E+02 -0.90732376890E+02  0.18397581752E+02  0.97775921416E+02  0.00000000000E+00 0. -1.
</event>
<event>
 8    1  0.3708258E-009  0.1080329E+03  0.7561462E-02  0.1264257E+00
         -3   -1    0    0    0  501 -0.00000000000E+00  0.00000000000E+00  0.55996603474E+02  0.55996603474E+02  0.00000000000E+00 0.  1.
          3   -1    0    0  501    0  0.00000000000E+00 -0.00000000000E+00 -0.21938898844E+03  0.21938898844E+03  0.00000000000E+00 0. -1.
         25    2    1    2    0    0 -0.48525952227E+01  0.11564281598E+00 -0.12198556065E+03  0.17478665142E+03  0.12508531271E+03 0.  0.
         23    2    1    2    0    0  0.48525952227E+01 -0.11564281598E+00 -0.41406824314E+02  0.10059894049E+03  0.91553594541E+02 0.  0.
          5    1    3    3  502    0  0.17947147709E+02 -0.58602998290E+02 -0.51489210430E+02  0.80156239372E+02  0.41800000000E+01 0. -1.
         -5    1    3    3    0  502 -0.22799742932E+02  0.58718641106E+02 -0.70496350217E+02  0.94630412052E+02  0.41800000000E+01 0. -1.
        -11    1    4    4    0    0 -0.25549762240E+02 -0.36207946981E+02 -0.16935635484E+02  0.47440715892E+02  0.00000000000E+00 0. -1.
         11    1    4    4    0    0  0.30402357463E+02  0.36092304165E+02 -0.24471188830E+02  0.53158224594E+02  0.00000000000E+00 0.  1.
</event>
<event>
 8    1  0.3708258E-009  0.8342084E+02  0.7561462E-02  0.1319615E+00
          3   -1    0    0  501    0  0.00000000000E+00  0.00000000000E+00  0.26627508498E+03  0.26627508498E+03  0.00000000000E+00 0. -1.
         -3   -1    0    0    0  501 -0.00000000000E+00 -0.00000000000E+00 -0.61439589345E+02  0.61439589345E+02  0.00000000000E+00 0.  1.
         25    2    1    2    0    0  0.26563359684E+02  0.55186381660E+02  0.86216024177E+02  0.16380115427E+03  0.12508583660E+03 0.  0.
         23    2    1    2    0    0 -0.26563359684E+02 -0.55186381660E+02  0.11861947145E+03  0.16391352005E+03  0.95110011295E+02 0.  0.
          5    1    3    3  502    0 -0.48861718649E+01 -0.37777393857E+01 -0.29326248396E+02  0.30259663503E+02  0.41800000000E+01 0.  1.
         -5    1    3    3    0  502  0.31449531549E+02  0.58964121046E+02  0.11554227257E+03  0.13354149077E+03  0.41800000000E+01 0.  1.
        -11    1    4    4    0    0  0.10804938791E+02  0.11627354490E+02 -0.65651598335E+01  0.17176827366E+02  0.00000000000E+00 0.  1.
         11    1    4    4    0    0 -0.37368298475E+02 -0.66813736150E+02  0.12518463129E+03  0.14673669268E+03  0.00000000000E+00 0. -1.
</event>
<event>
 8    1  0.3708258E-009  0.8470645E+02  0.7561462E-02  0.1316202E+00
         -2   -1    0    0    0  501 -0.00000000000E+00  0.00000000000E+00  0.78679582564E+02  0.78679582564E+02  0.00000000000E+00 0.  1.
          2   -1    0    0  501    0  0.00000000000E+00 -0.00000000000E+00 -0.21066184865E+03  0.21066184865E+03  0.00000000000E+00 0. -1.
         25    2    1    2    0    0  0.49591008065E+02 -0.46788831014E+02 -0.59864617257E+02  0.15453385617E+03  0.12509387481E+03 0.  0.
         23    2    1    2    0    0 -0.49591008065E+02  0.46788831014E+02 -0.72117648830E+02  0.13480757504E+03  0.91234117671E+02 0.  0.
          5    1    3    3  502    0  0.34505392167E+02 -0.13050454194E+02 -0.95845426560E+02  0.10278499227E+03  0.41800000000E+01 0.  1.
         -5    1    3    3    0  502  0.15085615898E+02 -0.33738376819E+02  0.35980809302E+02  0.51748863905E+02  0.41800000000E+01 0.  1.
        -11    1    4    4    0    0 -0.30161283171E+02 -0.12539433399E+02 -0.63999469226E+02  0.71853131134E+02  0.00000000000E+00 0. -1.
         11    1    4    4    0    0 -0.19429724894E+02  0.59328264412E+02 -0.81181796041E+01  0.62954443908E+02  0.00000000000E+00 0.  1.
</event>
<event>
 8    1  0.3708258E-009  0.1173524E+03  0.7561462E-02  0.1247530E+00
          1   -1    0    0  501    0  0.00000000000E+00  0.00000000000E+00  0.13588300086E+03  0.13588300086E+03  0.00000000000E+00 0. -1.
         -1   -1    0    0    0  501 -0.00000000000E+00 -0.00000000000E+00 -0.16417991854E+03  0.16417991854E+03  0.00000000000E+00 0.  1.
         25    2    1    2    0    0  0.74303764071E+02  0.35570169876E+02 -0.83578853526E+02  0.17151978657E+03  0.12508927247E+03 0.  0.
         23    2    1    2    0    0 -0.74303764071E+02 -0.35570169876E+02  0.55281935843E+02  0.12854313283E+03  0.81737128813E+02 0.  0.
          5    1    3    3  502    0  0.11204595160E+01  0.45430222862E+02  0.15216440142E+02  0.48105852341E+02  0.41800000000E+01 0. -1.
         -5    1    3    3    0  502  0.73183304555E+02 -0.98600529862E+01 -0.98795293668E+02  0.12341393423E+03  0.41800000000E+01 0. -1.
        -11    1    4    4    0    0 -0.22894199984E+02  0.26165782238E+02  0.24392019602E+02  0.42470733138E+02  0.00000000000E+00 0. -1.
         11    1    4    4    0    0 -0.51409564087E+02 -0.61735952114E+02  0.30889916241E+02  0.86072399690E+02  0.00000000000E+00 0.  1.
</event>
<event>
 8    1  0.3708258E-009  0.2296702E+03  0.7561462E-02  0.1126872E+00
         -2   -1    0    0    0  501 -0.00000000000E+00  0.00000000000E+00  0.11602548432E+03  0.11602548432E+03  0.00000000000E+00 0.  1.
          2   -1    0    0  501    0  0.00000000000E+00 -0.00000000000E+00 -0.83502336257E+03  0.83502336257E+03  0.00000000000E+00 0. -1.
         25    2    1    2    0    0  0.91190150988E+01 -0.22640565862E+03 -0.64690473332E+03  0.69676093648E+03  0.12508952764E+03 0.  0.
         23    2    1    2    0    0 -0.91190150988E+01  0.22640565862E+03 -0.72093144935E+02  0.25428791040E+03  0.90123477173E+02 0.  0.
          5    1    3    3  502    0 -0.13798618064E+02 -0.11585183102E+03 -0.16716101662E+03  0.20389292898E+03  0.41800000000E+01 0. -1.
         -5    1    3    3    0  502  0.22917633163E+02 -0.11055382760E+03 -0.47974371670E+03  0.49286800750E+03  0.41800000000E+01 0. -1.
        -11    1    4    4    0    0  0.85752504153E+01  0.17569757193E+03 -0.90105167334E+02  0.19764137442E+03  0.00000000000E+00 0. -1.
         11    1    4    4    0    0 -0.17694265514E+02  0.50708086694E+02  0.18012022399E+02  0.56646535985E+02  0.00000000000E+00 0.  1.
</event>
<event>
 8    1  0.3708258E-009  0.1771189E+03  0.7561462E-02  0.1170621E+00
         -2   -1    0    0    0  501 -0.00000000000E+00  0.00000000000E+00  0.20537326012E+03  0.20537326012E+03  0.00000000000E+00 0.  1.
          2   -1    0    0  501    0  0.00000000000E+00 -0.00000000000E+00 -0.17471060398E+03  0.17471060398E+03  0.00000000000E+00 0. -1.
         25    2    1    2    0    0 -0.11322245401E+03  0.10398936825E+03  0.36406099579E+02  0.20151050528E+03  0.12509183367E+03 0.  0.
         23    2    1    2    0    0  0.11322245401E+03 -0.10398936825E+03 -0.57434434388E+01  0.17857335881E+03  0.90677144503E+02 0.  0.
          5    1    3    3  502    0 -0.13883996428E+03  0.78079771189E+02  0.17651269216E+02  0.16031851438E+03  0.41800000000E+01 0. -1.
         -5    1    3    3    0  502  0.25617510267E+02  0.25909597057E+02  0.18754830363E+02  0.41191990895E+02  0.41800000000E+01 0. -1.
        -11    1    4    4    0    0  0.89200830531E+02 -0.58190950825E+02 -0.42977709028E+02  0.11484797952E+03  0.00000000000E+00 0. -1.
         11    1    4    4    0    0  0.24021623478E+02 -0.45798417420E+02  0.37234265589E+02  0.63725379298E+02  0.00000000000E+00 0.  1.
</event>
<event>
 8    1  0.3708258E-009  0.1717100E+03  0.7561462E-02  0.1176076E+00
         -1   -1    0    0    0  501 -0.00000000000E+00  0.00000000000E+00  0.20676142848E+03  0.20676142848E+03  0.00000000000E+00 0.  1.
          1   -1    0    0  501    0  0.00000000000E+00 -0.00000000000E+00 -0.17879464289E+03  0.17879464289E+03  0.00000000000E+00 0. -1.
         25    2    1    2    0    0 -0.88490222074E+02  0.12768424816E+03 -0.14807845498E+02  0.20000120848E+03  0.12508966575E+03 0.  0.
         23    2    1    2    0    0  0.88490222074E+02 -0.12768424816E+03  0.42774631095E+02  0.18555486289E+03  0.92017125823E+02 0.  0.
          5    1    3    3  502    0 -0.46353223988E+02  0.13665746031E+03 -0.40149379572E+02  0.14984434561E+03  0.41800000000E+01 0.  1.
         -5    1    3    3    0  502 -0.42136998086E+02 -0.89732121496E+01  0.25341534074E+02  0.50156862873E+02  0.41800000000E+01 0.  1.
        -11    1    4    4    0    0  0.59911950065E+02 -0.76735824542E+02  0.71178328735E+02  0.12059926621E+03  0.00000000000E+00 0.  1.
         11    1    4    4    0    0  0.28578272009E+02 -0.50948423616E+02 -0.28403697640E+02  0.64955596676E+02  0.00000000000E+00 0. -1.
</event>
<event>
 8    1  0.3708258E-009  0.1761631E+03  0.7561462E-02  0.1171569E+00
          1   -1    0    0  501    0  0.00000000000E+00  0.00000000000E+00  0.18671011074E+04  0.18671011074E+04  0.00000000000E+00 0. -1.
         -1   -1    0    0    0  501 -0.00000000000E+00 -0.00000000000E+00 -0.18565586413E+02  0.18565586413E+02  0.00000000000E+00 0.  1.
         25    2    1    2    0    0  0.13815959934E+03 -0.44532564894E+02  0.11700251461E+04  0.11856127558E+04  0.12509012698E+03 0.  0.
         23    2    1    2    0    0 -0.13815959934E+03  0.44532564894E+02  0.67851037484E+03  0.70005393802E+03  0.92886829736E+02 0.  0.
          5    1    3    3  502    0  0.15706842396E+03 -0.18677784837E+02  0.91973082592E+03  0.93324252689E+03  0.41800000000E+01 0. -1.
         -5    1    3    3    0  502 -0.18908824622E+02 -0.25854780057E+02  0.25029432020E+03  0.25237022888E+03  0.41800000000E+01 0. -1.
        -11    1    4    4    0    0 -0.62575309653E+02  0.57644534969E+02  0.47511808100E+03  0.48267561849E+03  0.00000000000E+00 0.  1.
         11    1    4    4    0    0 -0.75584289686E+02 -0.13111970075E+02  0.20339229385E+03  0.21737831953E+03  0.00000000000E+00 0. -1.
</event>
<event>
 8    1  0.3708258E-009  0.1032908E+03  0.7561462E-02  0.1273524E+00
          2   -1    0    0  501    0  0.00000000000E+00  0.00000000000E+00  0.37054562304E+03  0.37054562304E+03  0.00000000000E+00 0. -1.
         -2   -1    0    0    0  501 -0.00000000000E+00 -0.00000000000E+00 -0.37688311833E+02  0.37688311833E+02  0.00000000000E+00 0.  1.
         25    2    1    2    0    0 -0.48406486554E+01  0.19697926258E+02  0.11118377787E+03  0.16858566424E+03  0.12509138079E+03 0.  0.
         23    2    1    2    0    0  0.48406486554E+01 -0.19697926258E+02  0.22167353334E+03  0.23964827063E+03  0.88773295845E+02 0.  0.
          5    1    3    3  502    0  0.57941208204E+02 -0.36431203458E+01  0.39226390204E+02  0.70190013694E+02  0.41800000000E+01 0. -1.
         -5    1    3    3    0  502 -0.62781856859E+02  0.23341046604E+02  0.71957387662E+02  0.98395650546E+02  0.41800000000E+01 0. -1.
        -11    1    4    4    0    0 -0.23067737910E+02 -0.40396454408E+02  0.17723526179E+03  0.18323845689E+03  0.00000000000E+00 0. -1.
         11    1    4    4    0    0  0.27908386565E+02  0.20698528150E+02  0.44438271551E+02  0.56409813745E+02  0.00000000000E+00 0.  1.
</event>
<event>
 8    1  0.3708258E-009  0.1279453E+03  0.7561462E-02  0.1230537E+00
          1   -1    0    0  501    0  0.00000000000E+00  0.00000000000E+00  0.10466934308E+04  0.10466934308E+04  0.00000000000E+00 0. -1.
         -1   -1    0    0    0  501 -0.00000000000E+00 -0.00000000000E+00 -0.22639429290E+02  0.22639429290E+02  0.00000000000E+00 0.  1.
         25    2    1    2    0    0 -0.74737024780E+02 -0.38498262085E+02  0.79886837736E+03  0.81296097628E+03  0.12508847085E+03 0.  0.
         23    2    1    2    0    0  0.74737024780E+02  0.38498262085E+02  0.22518562413E+03  0.25637188380E+03  0.89164109542E+02 0.  0.
          5    1    3    3  502    0 -0.47552622478E+02  0.32483963615E+02  0.17079286853E+03  0.18028903499E+03  0.41800000000E+01 0.  1.
         -5    1    3    3    0  502 -0.27184402302E+02 -0.70982225700E+02  0.62807550884E+03  0.63267194129E+03  0.41800000000E+01 0.  1.
        -11    1    4    4    0    0 -0.12798503514E+02  0.31747807132E+02  0.74218408199E+02  0.81731860773E+02  0.00000000000E+00 0. -1.
         11    1    4    4    0    0  0.87535528294E+02  0.67504549532E+01  0.15096721593E+03  0.17464002302E+03  0.00000000000E+00 0.  1.
</event>
<event>
 8    1  0.3708258E-009  0.9210196E+02  0.7561462E-02  0.1297840E+00
         -2   -1    0    0    0  501 -0.00000000000E+00  0.00000000000E+00  0.42149884674E+02  0.42149884674E+02  0.00000000000E+00 0.  1.
          2   -1    0    0  501    0  0.00000000000E+00 -0.00000000000E+00 -0.36145785632E+03  0.36145785632E+03  0.00000000000E+00 0. -1.
         25    2    1    2    0    0  0.14073037085E+02  0.28929893537E+02 -0.94422635523E+02  0.15999357193E+03  0.12508924753E+03 0.  0.
         23    2    1    2    0    0 -0.14073037085E+02 -0.28929893537E+02 -0.22488533612E+03  0.24361416906E+03  0.87974199916E+02 0.  0.
          5    1    3    3  502    0  0.48701986500E+02  0.30431779367E+02 -0.10811490495E+03  0.12249196609E+03  0.41800000000E+01 0.  1.
         -5    1    3    3    0  502 -0.34628949415E+02 -0.15018858301E+01  0.13692269428E+02  0.37501605842E+02  0.41800000000E+01 0.  1.
        -11    1    4    4    0    0 -0.15640241575E+02  0.29431387400E+02 -0.10688680335E+03  0.11196254932E+03  0.00000000000E+00 0. -1.
         11    1    4    4    0    0  0.15672044904E+01 -0.58361280937E+02 -0.11799853277E+03  0.13165161974E+03  0.00000000000E+00 0.  1.
</event>
<event>
 8    1  0.3708258E-009  0.1449963E+03  0.7561462E-02  0.1206760E+00
          2   -1    0    0  501    0  0.00000000000E+00  0.00000000000E+00  0.98682500914E+03  0.98682500914E+03  0.00000000000E+00 0. -1.
         -2   -1    0    0    0  501 -0.00000000000E+00 -0.00000000000E+00 -0.29423572654E+02  0.29423572654E+02  0.00000000000E+00 0.  1.
         25    2    1    2    0    0 -0.65260106808E+02  0.82666515163E+02  0.74484094854E+03  0.76258193844E+03  0.12510211808E+03 0.  0.
         23    2    1    2    0    0  0.65260106808E+02 -0.82666515163E+02  0.21256048795E+03  0.25366664335E+03  0.89845259436E+02 0.  0.
          5    1    3    3  502    0 -0.66961566057E+02  0.10795308617E+03  0.48157635349E+03  0.49806724123E+03  0.41800000000E+01 0. -1.
         -5    1    3    3    0  502  0.17014592483E+01 -0.25286571005E+02  0.26326459505E+03  0.26451469722E+03  0.41800000000E+01 0. -1.
        -11    1    4    4    0    0 -0.75001754042E+00 -0.69981549029E+02  0.12527665207E+03  0.14349989298E+03  0.00000000000E+00 0.  1.
         11    1    4    4    0    0  0.66010124349E+02 -0.12684966134E+02  0.87283835872E+02  0.11016675037E+03  0.00000000000E+00 0. -1.
</event>
<event>
 8    1  0.3708258E-009  0.1061372E+03  0.7561462E-02  0.1267895E+00
         -1   -1    0    0    0  501 -0.00000000000E+00  0.00000000000E+00  0.83428911180E+02  0.83428911180E+02  0.00000000000E+00 0.  1.
          1   -1    0    0  501    0  0.00000000000E+00 -0.00000000000E+00 -0.16924456921E+03  0.16924456921E+03  0.00000000000E+00 0. -1.
         25    2    1    2    0    0 -0.35666276707E+02  0.23298028107E+02 -0.50411369136E+02  0.14144063931E+03  0.12509702995E+03 0.  0.
         23    2    1    2    0    0  0.35666276707E+02 -0.23298028107E+02 -0.35404288895E+02  0.11123284108E+03  0.96459317101E+02 0.  0.
          5    1    3    3  502    0  0.85431969651E+01 -0.40140405394E+02  0.10903767819E+02  0.42668523671E+02  0.41800000000E+01 0.  1.
         -5    1    3    3    0  502 -0.44209473673E+02  0.63438433501E+02 -0.61315136955E+02  0.98772115636E+02  0.41800000000E+01 0.  1.
        -11    1    4    4    0    0 -0.93469498785E+01  0.25523106564E+02 -0.35646238292E+02  0.44826875255E+02  0.00000000000E+00 0. -1.
         11    1    4    4    0    0  0.45013226586E+02 -0.48821134671E+02  0.24194939783E+00  0.66405965829E+02  0.00000000000E+00 0.  1.
</event>
<event>
 8    1  0.3708258E-009  0.1332119E+03  0.7561462E-02  0.1222766E+00
         -1   -1    0    0    0  501 -0.00000000000E+00  0.00000000000E+00  0.31244101247E+02  0.31244101247E+02  0.00000000000E+00 0.  1.
          1   -1    0    0  501    0  0.00000000000E+00 -0.00000000000E+00 -0.95125122838E+03  0.95125122838E+03  0.00000000000E+00 0. -1.
         25    2    1    2    0    0 -0.99477544282E+02 -0.65887184987E+02 -0.66052763949E+03  0.68277461648E+03  0.12509001328E+03 0.  0.
         23    2    1    2    0    0  0.99477544282E+02  0.65887184987E+02 -0.25947948764E+03  0.29972071314E+03  0.90917536359E+02 0.  0.
          5    1    3    3  502    0 -0.10316299758E+02 -0.96602456027E+01 -0.90121964034E+00  0.14765872228E+02  0.41800000000E+01 0.  1.
         -5    1    3    3    0  502 -0.89161244523E+02 -0.56226939385E+02 -0.65962641985E+03  0.66800874425E+03  0.41800000000E+01 0.  1.
        -11    1    4    4    0    0  0.19826845146E+02  0.63481760200E+02 -0.15208971577E+03  0.16599493760E+03  0.00000000000E+00 0. -1.
         11    1    4    4    0    0  0.79650699135E+02  0.24054247878E+01 -0.10738977187E+03  0.13372577554E+03  0.00000000000E+00 0.  1.
</event>
<event>
 8    1  0.3708258E-009  0.1917785E+03  0.7561462E-02  0.1156867E+00
          4   -1    0    0  501    0  0.00000000000E+00  0.00000000000E+00  0.10055304598E+04  0.10055304598E+04  0.00000000000E+00 0. -1.
         -4   -1    0    0    0  501 -0.00000000000E+00 -0.00000000000E+00 -0.48552694500E+02  0.48552694500E+02  0.00000000000E+00 0.  1.
         25    2    1    2    0    0  0.11472205364E+03 -0.13475840784E+03  0.67894800224E+03  0.71269608306E+03  0.12507733203E+03 0.  0.
         23    2    1    2    0    0 -0.11472205364E+03  0.13475840784E+03  0.27802976309E+03  0.34138707127E+03  0.89014634701E+02 0.  0.
          5    1    3    3  502    0  0.11449069812E+03 -0.13923886988E+03  0.68228879221E+03  0.70571315080E+03  0.41800000000E+01 0.  1.
         -5    1    3    3    0  502  0.23135551821E+00  0.44804620344E+01 -0.33407899631E+01  0.69829322634E+01  0.41800000000E+01 0.  1.
        -11    1    4    4    0    0 -0.11834905422E+03  0.81423748480E+02  0.18680825004E+03  0.23565578230E+03  0.00000000000E+00 0.  1.
         11    1    4    4    0    0  0.36270005829E+01  0.53334659362E+02  0.91221513053E+02  0.10573128897E+03  0.00000000000E+00 0. -1.
</event>
<event>
 8    1  0.3708258E-009  0.7596560E+02  0.7561462E-02  0.1340907E+00
         -1   -1    0    0    0  501 -0.00000000000E+00  0.00000000000E+00  0.19166481752E+03  0.19166481752E+03  0.00000000000E+00 0.  1.
          1   -1    0    0  501    0  0.00000000000E+00 -0.00000000000E+00 -0.81775253818E+02  0.81775253818E+02  0.00000000000E+00 0. -1.
         25    2    1    2    0    0  0.69660578090E+01  0.59965565022E+02  0.60346736336E+02  0.15143819955E+03  0.12508958689E+03 0.  0.
         23    2    1    2    0    0 -0.69660578090E+01 -0.59965565022E+02  0.49542827363E+02  0.12200187178E+03  0.93731371618E+02 0.  0.
          5    1    3    3  502    0  0.16859862486E+01  0.35268514586E+02 -0.36684205529E+02  0.51087317468E+02  0.41800000000E+01 0. -1.
         -5    1    3    3    0  502  0.52800715604E+01  0.24697050436E+02  0.97030941865E+02  0.10035088208E+03  0.41800000000E+01 0. -1.
        -11    1    4    4    0    0  0.19157106577E+02 -0.61690999217E+02  0.64967018050E+02  0.91615978689E+02  0.00000000000E+00 0.  1.
         11    1    4    4    0    0 -0.26123164386E+02  0.17254341953E+01 -0.15424190687E+02  0.30385893093E+02  0.00000000000E+00 0. -1.
</event>
<event>
 8    1  0.3708258E-009  0.1191078E+03  0.7561462E-02  0.1244576E+00
          2   -1    0    0  501    0  0.00000000000E+00  0.00000000000E+00  0.26358799936E+03  0.26358799936E+03  0.00000000000E+00 0. -1.
         -2   -1    0    0    0  501 -0.00000000000E+00 -0.00000000000E+00 -0.82662860908E+02  0.82662860908E+02  0.00000000000E+00 0.  1.
         25    2    1    2    0    0 -0.14703782864E+01  0.60074500816E+02  0.58356672670E+01  0.13890856873E+03  0.12510166982E+03 0.  0.
         23    2    1    2    0    0  0.14703782864E+01 -0.60074500816E+02  0.17508947118E+03  0.20734229154E+03  0.93399118202E+02 0.  0.
          5    1    3    3  502    0 -0.59827176564E+02  0.29999095171E+02  0.23052051324E+02  0.70909140715E+02  0.41800000000E+01 0.  1.
         -5    1    3    3    0  502  0.58356798277E+02  0.30075405645E+02 -0.17216384057E+02  0.67999428012E+02  0.41800000000E+01 0.  1.
        -11    1    4    4    0    0 -0.39904507471E+02 -0.11420971399E+02  0.10289895137E+03  0.11095495706E+03  0.00000000000E+00 0. -1.
         11    1    4    4    0    0  0.41374885758E+02 -0.48653529417E+02  0.72190519813E+02  0.96387334475E+02  0.00000000000E+00 0.  1.
</event>
<event>
 8    1  0.3708258E-009  0.1502037E+03  0.7561462E-02  0.1200223E+00
         -4   -1    0    0    0  501 -0.00000000000E+00  0.00000000000E+00  0.25195439076E+03  0.25195439076E+03  0.00000000000E+00 0.  1.
          4   -1    0    0  501    0  0.00000000000E+00 -0.00000000000E+00 -0.10366134041E+03  0.10366134041E+03  0.00000000000E+00 0. -1.
         25    2    1    2    0    0 -0.10637666919E+02  0.11254411255E+03  0.37161596414E+02  0.17263868231E+03  0.12507515003E+03 0.  0.
         23    2    1    2    0    0  0.10637666919E+02 -0.11254411255E+03  0.11113145394E+03  0.18297704885E+03  0.91384151399E+02 0.  0.
          5    1    3    3  502    0  0.47084270068E+02  0.30327252478E+02  0.44749228601E+02  0.71809724906E+02  0.41800000000E+01 0.  1.
         -5    1    3    3    0  502 -0.57721936987E+02  0.82216860070E+02 -0.75876321870E+01  0.10082895741E+03  0.41800000000E+01 0.  1.
        -11    1    4    4    0    0  0.35096790581E+02 -0.75534417092E+01  0.40378886248E+02  0.54030488109E+02  0.00000000000E+00 0.  1.
         11    1    4    4    0    0 -0.24459123662E+02 -0.10499067084E+03  0.70752567689E+02  0.12894656075E+03  0.00000000000E+00 0. -1.
</event>
<event>
 8    1  0.3708258E-009  0.1947264E+03  0.7561462E-02  0.1154266E+00
          2   -1    0    0  501    0  0.00000000000E+00  0.00000000000E+00  0.74995194840E+03  0.74995194840E+03  0.00000000000E+00 0.  1.
         -2   -1    0    0    0  501 -0.00000000000E+00 -0.00000000000E+00 -0.63872814321E+02  0.63872814321E+02  0.00000000000E+00 0. -1.
         25    2    1    2    0    0 -0.12520658946E+03 -0.10553128724E+03  0.17821556585E+03  0.27243515378E+03  0.12508630010E+03 0.  0.
         23    2    1    2    0    0  0.12520658946E+03  0.10553128724E+03  0.50786356823E+03  0.54138960895E+03  0.91453606290E+02 0.  0.
          5    1    3    3  502    0  0.23479431303E+02 -0.13854180278E+02  0.44744292375E+02  0.52561831262E+02  0.41800000000E+01 0.  1.
         -5    1    3    3    0  502 -0.14868602077E+03 -0.91677106960E+02  0.13347127347E+03  0.21987332251E+03  0.41800000000E+01 0.  1.
        -11    1    4    4    0    0  0.36885252622E+02  0.90269070070E+02  0.24667490657E+03  0.26524995080E+03  0.00000000000E+00 0.  1.
         11    1    4    4    0    0  0.88321336841E+02  0.15262217168E+02  0.26118866167E+03  0.27613965814E+03  0.00000000000E+00 0. -1.
</event>
<event>
 8    1  0.3708258E-009  0.2471508E+03  0.7561462E-02  0.1115119E+00
          1   -1    0    0  501    0  0.00000000000E+00  0.00000000000E+00  0.75241657909E+03  0.75241657909E+03  0.00000000000E+00 0. -1.
         -1   -1    0    0    0  501 -0.00000000000E+00 -0.00000000000E+00 -0.93086474933E+02  0.93086474933E+02  0.00000000000E+00 0.  1.
         25    2    1    2    0    0  0.10397892547E+03 -0.21053018980E+03  0.41581662868E+03  0.49364286331E+03  0.12508089403E+03 0.  0.
         23    2    1    2    0    0 -0.10397892547E+03  0.21053018980E+03  0.24351347548E+03  0.35186019072E+03  0.96810140552E+02 0.  0.
          5    1    3    3  502    0 -0.11455858962E+02  0.29967431740E+01  0.70015583057E+02  0.71132773354E+02  0.41800000000E+01 0.  1.
         -5    1    3    3    0  502  0.11543478443E+03 -0.21352693297E+03  0.34580104562E+03  0.42251008996E+03  0.41800000000E+01 0.  1.
        -11    1    4    4    0    0 -0.58029689951E+01  0.53278042429E+02  0.11323896756E+03  0.12528083664E+03  0.00000000000E+00 0. -1.
         11    1    4    4    0    0 -0.98175956470E+02  0.15725214737E+03  0.13027450791E+03  0.22657935407E+03  0.00000000000E+00 0.  1.
</event>
<event>
 8    1  0.3708258E-009  0.1473455E+03  0.7561462E-02  0.1203773E+00
          1   -1    0    0  501    0  0.00000000000E+00  0.00000000000E+00  0.10976924102E+03  0.10976924102E+03  0.00000000000E+00 0. -1.
         -1   -1    0    0    0  501 -0.00000000000E+00 -0.00000000000E+00 -0.55848645622E+03  0.55848645622E+03  0.00000000000E+00 0.  1.
         25    2    1    2    0    0 -0.69430041802E+02  0.11383441400E+03 -0.47339036825E+03  0.50747043903E+03  0.12509596802E+03 0.  0.
         23    2    1    2    0    0  0.69430041802E+02 -0.11383441400E+03  0.24673153058E+02  0.16078525822E+03  0.86396355615E+02 0.  0.
          5    1    3    3  502    0 -0.45655076937E+02  0.48296631708E+02 -0.40243931393E+03  0.40791154002E+03  0.41800000000E+01 0.  1.
         -5    1    3    3    0  502 -0.23774964865E+02  0.65537782291E+02 -0.70951054321E+02  0.99558899006E+02  0.41800000000E+01 0.  1.
        -11    1    4    4    0    0  0.56820064147E+01 -0.90031296403E+02  0.21095909637E+02  0.92644249321E+02  0.00000000000E+00 0. -1.
         11    1    4    4    0    0  0.63748035387E+02 -0.23803117595E+02  0.35772434216E+01  0.68141008897E+02  0.00000000000E+00 0.  1.
</event>
<event>
 8    1  0.3708258E-009  0.1283258E+03  0.7561462E-02  0.1229961E+00
         -2   -1    0    0    0  501 -0.00000000000E+00  0.00000000000E+00  0.23813638866E+02  0.23813638866E+02  0.00000000000E+00 0.  1.
          2   -1    0    0  501    0  0.00000000000E+00 -0.00000000000E+00 -0.99455477040E+03  0.99455477040E+03  0.00000000000E+00 0. -1.
         25    2    1    2    0    0  0.99809802594E+02 -0.20192500704E+02 -0.39052830536E+03  0.42252854947E+03  0.12509310153E+03 0.  0.
         23    2    1    2    0    0 -0.99809802594E+02  0.20192500704E+02 -0.58021282617E+03  0.59583985980E+03  0.89490117254E+02 0.  0.
          5    1    3    3  502    0  0.88596944778E+02  0.14596885383E+02 -0.36923885867E+03  0.38002275569E+03  0.41800000000E+01 0. -1.
         -5    1    3    3    0  502  0.11212857816E+02 -0.34789386087E+02 -0.21289446686E+02  0.42505793780E+02  0.41800000000E+01 0. -1.
        -11    1    4    4    0    0 -0.99868342416E+02  0.41873722051E+02 -0.53295683287E+03  0.54384747873E+03  0.00000000000E+00 0. -1.
         11    1    4    4    0    0  0.58539821404E-01 -0.21681221347E+02 -0.47255993300E+02  0.51992381064E+02  0.00000000000E+00 0.  1.
</event>
<event>
 8    1  0.3708258E-009  0.9712609E+02  0.7561462E-02  0.1286458E+00
          2   -1    0    0  501    0  0.00000000000E+00  0.00000000000E+00  0.38518254595E+03  0.38518254595E+03  0.00000000000E+00 0. -1.
         -2   -1    0    0    0  501 -0.00000000000E+00 -0.00000000000E+00 -0.36955089654E+02  0.36955089654E+02  0.00000000000E+00 0.  1.
         25    2    1    2    0    0 -0.32181222552E+02  0.37289945005E+02  0.20261418726E+03  0.24315914035E+03  0.12509071738E+03 0.  0.
         23    2    1    2    0    0  0.32181222552E+02 -0.37289945005E+02  0.14561326904E+03  0.17897849525E+03  0.91672823457E+02 0.  0.
          5    1    3    3  502    0  0.27377646245E+02  0.42500162821E+02  0.16447639530E+03  0.17212134198E+03  0.41800000000E+01 0.  1.
         -5    1    3    3    0  502 -0.59558868797E+02 -0.52102178164E+01  0.38137791963E+02  0.71037798375E+02  0.41800000000E+01 0.  1.
        -11    1    4    4    0    0 -0.10961046032E+02 -0.38905389538E+02  0.17975050849E+02  0.44236594786E+02  0.00000000000E+00 0.  1.
         11    1    4    4    0    0  0.43142268584E+02  0.16154445337E+01  0.12763821819E+03  0.13474190047E+03  0.00000000000E+00 0. -1.
</event>
<event>
 8    1  0.3708258E-009  0.9610847E+02  0.7561462E-02  0.1288699E+00
         -3   -1    0    0    0  501 -0.00000000000E+00  0.00000000000E+00  0.18054551706E+03  0.18054551706E+03  0.00000000000E+00 0.  1.
          3   -1    0    0  501    0  0.00000000000E+00 -0.00000000000E+00 -0.68787883896E+02  0.68787883896E+02  0.00000000000E+00 0. -1.
         25    2    1    2    0    0 -0.60056080502E+01 -0.56570584105E+01  0.35793244011E+02  0.13036789987E+03  0.12508622371E+03 0.  0.
         23    2    1    2    0    0  0.60056080502E+01  0.56570584105E+01  0.75964389157E+02  0.11896550108E+03  0.91181864372E+02 0.  0.
          5    1    3    3  502    0 -0.49581691496E+02 -0.44254940610E+02  0.24292885741E+02  0.70883429640E+02  0.41800000000E+01 0. -1.
         -5    1    3    3    0  502  0.43576083445E+02  0.38597882199E+02  0.11500358270E+02  0.59484470234E+02  0.41800000000E+01 0. -1.
        -11    1    4    4    0    0  0.31974307410E+02  0.19884879019E+02  0.80630715983E+02  0.88989196580E+02  0.00000000000E+00 0.  1.
         11    1    4    4    0    0 -0.25968699360E+02 -0.14227820609E+02 -0.46663268261E+01  0.29976304505E+02  0.00000000000E+00 0. -1.
</event>
<event>
 8    1  0.3708258E-009  0.1041711E+03  0.7561462E-02  0.1271761E+00
         -2   -1    0    0    0  501 -0.00000000000E+00  0.00000000000E+00  0.37894339670E+02  0.37894339670E+02  0.00000000000E+00 0.  1.
          2   -1    0    0  501    0  0.00000000000E+00 -0.00000000000E+00 -0.39283881639E+03  0.39283881639E+03  0.00000000000E+00 0. -1.
         25    2    1    2    0    0  0.36622107886E+02  0.36729123546E+02 -0.16231861114E+03  0.21138881452E+03  0.12509073538E+03 0.  0.
         23    2    1    2    0    0 -0.36622107886E+02 -0.36729123546E+02 -0.19262586558E+03  0.21934434155E+03  0.91197635794E+02 0.  0.
          5    1    3    3  502    0  0.61524509095E+02  0.33404479172E+01 -0.15759263701E+03  0.16926114573E+03  0.41800000000E+01 0. -1.
         -5    1    3    3    0  502 -0.24902401208E+02  0.33388675629E+02 -0.47259741252E+01  0.42127668789E+02  0.41800000000E+01 0. -1.
        -11    1    4    4    0    0 -0.60146676902E+02 -0.49553543197E+02 -0.14895622915E+03  0.16811048328E+03  0.00000000000E+00 0.  1.
         11    1    4    4    0    0  0.23524569015E+02  0.12824419651E+02 -0.43669636428E+02  0.51233858263E+02  0.00000000000E+00 0. -1.
</event>
<event>
 8    1  0.3708258E-009  0.1100218E+03  0.7561462E-02  0.1260530E+00
         -2   -1    0    0    0  501 -0.00000000000E+00  0.00000000000E+00  0.44951164519E+02  0.44951164519E+02  0.00000000000E+00 0. -1.
          2   -1    0    0  501    0  0.00000000000E+00 -0.00000000000E+00 -0.11498061188E+04  0.11498061188E+04  0.00000000000E+00 0.  1.
         25    2    1    2    0    0  0.32149084841E+02  0.29701873424E+02 -0.10844189414E+04  0.10924862276E+04  0.12508378010E+03 0.  0.
         23    2    1    2    0    0 -0.32149084841E+02 -0.29701873424E+02 -0.20436012829E+02  0.10227105569E+03  0.90144180454E+02 0.  0.
          5    1    3    3  502    0 -0.26919603909E+02 -0.32935938606E+02 -0.48835627223E+03  0.49022317586E+03  0.41800000000E+01 0. -1.
         -5    1    3    3    0  502  0.59068688750E+02  0.62637812030E+02 -0.59606266920E+03  0.60226305175E+03  0.41800000000E+01 0. -1.
        -11    1    4    4    0    0  0.59295568858E+01  0.24307373202E+02 -0.25838866950E+02  0.35967416951E+02  0.00000000000E+00 0.  1.
         11    1    4    4    0    0 -0.38078641727E+02 -0.54009246627E+02  0.54028541204E+01  0.66303638736E+02  0.00000000000E+00 0. -1.
</event>
<event>
 8    1  0.3708258E-009  0.6347581E+02  0.7561462E-02  0.1383798E+00
          2   -1    0    0  501    0  0.00000000000E+00  0.00000000000E+00  0.62782243251E+03  0.62782243251E+03  0.00000000000E+00 0. -1.
         -2   -1    0    0    0  501 -0.00000000000E+00 -0.00000000000E+00 -0.23353955534E+02  0.23353955534E+02  0.00000000000E+00 0.  1.
         25    2    1    2    0    0 -0.32629743585E+02 -0.41730030245E+02  0.38340842406E+03  0.40676191509E+03  0.12508853000E+03 0.  0.
         23    2    1    2    0    0  0.32629743585E+02  0.41730030245E+02  0.22106005292E+03  0.24441447295E+03  0.89804187004E+02 0.  0.
          5    1    3    3  502    0 -0.27718055506E+02 -0.33568186187E+02  0.29618184087E+02  0.52818774631E+02  0.41800000000E+01 0.  1.
         -5    1    3    3    0  502 -0.49116880797E+01 -0.81618440574E+01  0.35379023997E+03  0.35394314046E+03  0.41800000000E+01 0.  1.
        -11    1    4    4    0    0  0.28532067763E+02 -0.22730794330E+01  0.12516191155E+02  0.31239411358E+02  0.00000000000E+00 0.  1.
         11    1    4    4    0    0  0.40976758222E+01  0.44003109678E+02  0.20854386176E+03  0.21317506160E+03  0.00000000000E+00 0. -1.
</event>
<event>
 8    1  0.3708258E-009  0.1219166E+03  0.7561462E-02  0.1239968E+00
         -1   -1    0    0    0  501 -0.00000000000E+00  0.00000000000E+00  0.26862374101E+02  0.26862374101E+02  0.00000000000E+00 0.  1.
          1   -1    0    0  501    0  0.00000000000E+00 -0.00000000000E+00 -0.71327686385E+03  0.71327686385E+03  0.00000000000E+00 0. -1.
         25    2    1    2    0    0 -0.16895502834E+02 -0.61988655949E+02 -0.53126079361E+03  0.54955891100E+03  0.12509562080E+03 0.  0.
         23    2    1    2    0    0  0.16895502834E+02  0.61988655949E+02 -0.15515369614E+03  0.19058032695E+03  0.90111820063E+02 0.  0.
          5    1    3    3  502    0  0.28592177552E+02  0.26560532406E+02 -0.11400997057E+03  0.12057661585E+03  0.41800000000E+01 0.  1.
         -5    1    3    3    0  502 -0.45487680386E+02 -0.88549188355E+02 -0.41725082304E+03  0.42898229515E+03  0.41800000000E+01 0.  1.
        -11    1    4    4    0    0  0.46912989189E+02  0.58105702013E+02 -0.79392184496E+02  0.10899642251E+03  0.00000000000E+00 0.  1.
         11    1    4    4    0    0 -0.30017486355E+02  0.38829539359E+01 -0.75761511641E+02  0.81583904444E+02  0.00000000000E+00 0. -1.
</event>
<event>
 8    1  0.3708258E-009  0.1050072E+03  0.7561462E-02  0.1270105E+00
         -1   -1    0    0    0  501 -0.00000000000E+00  0.00000000000E+00  0.13206409926E+02  0.13206409926E+02  0.00000000000E+00 0.  1.
          1   -1    0    0  501    0  0.00000000000E+00 -0.00000000000E+00 -0.12678132841E+04  0.12678132841E+04  0.00000000000E+00 0. -1.
         25    2    1    2    0    0 -0.46677473911E+02  0.36725560111E+02 -0.89342783082E+03  0.90409548428E+03  0.12509117670E+03 0.  0.
         23    2    1    2    0    0  0.46677473911E+02 -0.36725560111E+02 -0.36117904338E+03  0.37692420977E+03  0.89966689355E+02 0.  0.
          5    1    3    3  502    0 -0.40298138938E+02 -0.27668466339E+02 -0.14944101520E+03  0.15728818600E+03  0.41800000000E+01 0.  1.
         -5    1    3    3    0  502 -0.63793349723E+01  0.64394026450E+02 -0.74398681561E+03  0.74680729828E+03  0.41800000000E+01 0.  1.
        -11    1    4    4    0    0  0.21692054001E+02 -0.58859905619E+02 -0.30656571164E+03  0.31291783147E+03  0.00000000000E+00 0. -1.
         11    1    4    4    0    0  0.24985419910E+02  0.22134345508E+02 -0.54613331744E+02  0.64006378302E+02  0.00000000000E+00 0.  1.
</event>
<event>
 8    1  0.3708258E-009  0.1719602E+03  0.7561462E-02  0.1175819E+00
         -1   -1    0    0    0  501 -0.00000000000E+00  0.00000000000E+00  0.11577382095E+03  0.11577382095E+03  0.00000000000E+00 0.  1.
          1   -1    0    0  501    0  0.00000000000E+00 -0.00000000000E+00 -0.29386439371E+03  0.29386439371E+03  0.00000000000E+00 0. -1.
         25    2    1    2    0    0  0.21227662529E+02 -0.14756735016E+03 -0.91128817259E+02  0.21489460403E+03  0.12509393677E+03 0.  0.
         23    2    1    2    0    0 -0.21227662529E+02  0.14756735016E+03 -0.86961755500E+02  0.19474361063E+03  0.90199725455E+02 0.  0.
          5    1    3    3  502    0 -0.35448195762E+02 -0.12993101911E+03 -0.57060447309E+02  0.14632843660E+03  0.41800000000E+01 0.  1.
         -5    1    3    3    0  502  0.56675858291E+02 -0.17636331054E+02 -0.34068369950E+02  0.68566167438E+02  0.41800000000E+01 0.  1.
        -11    1    4    4    0    0 -0.50697557009E+01  0.81511886151E+02  0.32953835688E+01  0.81735852351E+02  0.00000000000E+00 0.  1.
         11    1    4    4    0    0 -0.16157906828E+02  0.66055464012E+02 -0.90257139069E+02  0.11300775828E+03  0.00000000000E+00 0. -1.
</event>
<event>
 8    1  0.3708258E-009  0.1365456E+03  0.7561462E-02  0.1218054E+00
         -1   -1    0    0    0  501 -0.00000000000E+00  0.00000000000E+00  0.77304098874E+02  0.77304098874E+02  0.00000000000E+00 0. -1.
          1   -1    0    0  501    0  0.00000000000E+00 -0.00000000000E+00 -0.27524276425E+03  0.27524276425E+03  0.00000000000E+00 0.  1.
         25    2    1    2    0    0  0.11449677534E+02  0.99625799498E+02 -0.92528360891E+02  0.18510908941E+03  0.12508989716E+03 0.  0.
         23    2    1    2    0    0 -0.11449677534E+02 -0.99625799498E+02 -0.10541030448E+03  0.16743777371E+03  0.82871471165E+02 0.  0.
          5    1    3    3  502    0 -0.23518307609E+02  0.10559323209E+03 -0.10137033987E+03  0.14831203479E+03  0.41800000000E+01 0.  1.
         -5    1    3    3    0  502  0.34967985142E+02 -0.59674325945E+01  0.88419789831E+01  0.36797054624E+02  0.41800000000E+01 0.  1.
        -11    1    4    4    0    0  0.28044351972E+02 -0.80469309539E+02 -0.59585987721E+02  0.10398213975E+03  0.00000000000E+00 0.  1.
         11    1    4    4    0    0 -0.39494029506E+02 -0.19156489959E+02 -0.45824316763E+02  0.63455633958E+02  0.00000000000E+00 0. -1.
</event>
<event>
 8    1  0.3708258E-009  0.1043796E+03  0.7561462E-02  0.1271347E+00
         -1   -1    0    0    0  501 -0.00000000000E+00  0.00000000000E+00  0.19952537679E+02  0.19952537679E+02  0.00000000000E+00 0.  1.
          1   -1    0    0  501    0  0.00000000000E+00 -0.00000000000E+00 -0.79669623730E+03  0.79669623730E+03  0.00000000000E+00 0. -1.
         25    2    1    2    0    0  0.17364017443E+02 -0.60638488047E+02 -0.47428861428E+03  0.49454585564E+03  0.12508948141E+03 0.  0.
         23    2    1    2    0    0 -0.17364017443E+02  0.60638488047E+02 -0.30245508534E+03  0.32210291934E+03  0.91064134890E+02 0.  0.
          5    1    3    3  502    0 -0.60448711849E+01  0.18623280014E+02 -0.89913903025E+01  0.21947312494E+02  0.41800000000E+01 0.  1.
         -5    1    3    3    0  502  0.23408888628E+02 -0.79261768061E+02 -0.46529722398E+03  0.47259854315E+03  0.41800000000E+01 0.  1.
        -11    1    4    4    0    0 -0.50264322216E+02  0.21004997099E+02 -0.20192881537E+03  0.20914817348E+03  0.00000000000E+00 0.  1.
         11    1    4    4    0    0  0.32900304773E+02  0.39633490948E+02 -0.10052626997E+03  0.11295474586E+03  0.00000000000E+00 0. -1.
</event>
<event>
 8    1  0.3708258E-009  0.1065638E+03  0.7561462E-02  0.1267069E+00
         -1   -1    0    0    0  501 -0.00000000000E+00  0.00000000000E+00  0.65162878383E+02  0.65162878383E+02  0.00000000000E+00 0.  1.
          1   -1    0    0  501    0  0.00000000000E+00 -0.00000000000E+00 -0.27248371377E+03  0.27248371377E+03  0.00000000000E+00 0. -1.
         25    2    1    2    0    0 -0.18290309133E+02 -0.72397900755E+02 -0.13486323095E+03  0.19852047537E+03  0.12508515754E+03 0.  0.
         23    2    1    2    0    0  0.18290309133E+02  0.72397900755E+02 -0.72457604434E+02  0.13912611678E+03  0.92357893481E+02 0.  0.
          5    1    3    3  502    0  0.42989515366E+02 -0.57991508176E+02 -0.10795177243E+03  0.12993140891E+03  0.41800000000E+01 0.  1.
         -5    1    3    3    0  502 -0.61279824499E+02 -0.14406392579E+02 -0.26911458524E+02  0.68589066459E+02  0.41800000000E+01 0.  1.
        -11    1    4    4    0    0 -0.33291870652E+01  0.29543503426E+02  0.19388601600E+02  0.35493942486E+02  0.00000000000E+00 0.  1.
         11    1    4    4    0    0  0.21619496199E+02  0.42854397329E+02 -0.91846206034E+02  0.10363217429E+03  0.00000000000E+00 0. -1.
</event>
<event>
 8    1  0.3708258E-009  0.1273359E+03  0.7561462E-02  0.1231463E+00
          2   -1    0    0  501    0  0.00000000000E+00  0.00000000000E+00  0.15818157051E+03  0.15818157051E+03  0.00000000000E+00 0. -1.
         -2   -1    0    0    0  501 -0.00000000000E+00 -0.00000000000E+00 -0.17088039521E+03  0.17088039521E+03  0.00000000000E+00 0.  1.
         25    2    1    2    0    0  0.37062151551E+02 -0.88288128153E+02  0.69894779867E+02  0.17233253284E+03  0.12507927475E+03 0.  0.
         23    2    1    2    0    0 -0.37062151551E+02  0.88288128153E+02 -0.82593604566E+02  0.15672943289E+03  0.92595977065E+02 0.  0.
          5    1    3    3  502    0  0.77057161793E+02 -0.80387633206E+02  0.69535642187E+02  0.13134936502E+03  0.41800000000E+01 0.  1.
         -5    1    3    3    0  502 -0.39995010242E+02 -0.79004949463E+01  0.35913768043E+00  0.40983167820E+02  0.41800000000E+01 0.  1.
        -11    1    4    4    0    0 -0.21494324790E+02  0.12455499444E+02 -0.74925430958E+02  0.78936466027E+02  0.00000000000E+00 0.  1.
         11    1    4    4    0    0 -0.15567826761E+02  0.75832628708E+02 -0.76681736073E+01  0.77792966863E+02  0.00000000000E+00 0. -1.
</event>
<event>
 8    1  0.3708258E-009  0.8886733E+02  0.7561462E-02  0.1305618E+00
         -1   -1    0    0    0  501 -0.00000000000E+00  0.00000000000E+00  0.11790727298E+03  0.11790727298E+03  0.00000000000E+00 0.  1.
          1   -1    0    0  501    0  0.00000000000E+00 -0.00000000000E+00 -0.11411778857E+03  0.11411778857E+03  0.00000000000E+00 0. -1.
         25    2    1    2    0    0 -0.12044967286E+02  0.15360518583E+02  0.36450424269E+02  0.13174473404E+03  0.12508802801E+03 0.  0.
         23    2    1    2    0    0  0.12044967286E+02 -0.15360518583E+02 -0.32660939858E+02  0.10028032751E+03  0.92781357642E+02 0.  0.
          5    1    3    3  502    0 -0.39226641017E+02 -0.44960175053E+02  0.11486242423E+02  0.60906098802E+02  0.41800000000E+01 0. -1.
         -5    1    3    3    0  502  0.27181673731E+02  0.60320693636E+02  0.24964181846E+02  0.70838635241E+02  0.41800000000E+01 0. -1.
        -11    1    4    4    0    0  0.11907412137E+02  0.16178505377E+02 -0.57003538387E+02  0.60439506026E+02  0.00000000000E+00 0. -1.
         11    1    4    4    0    0  0.13755514880E+00 -0.31539023960E+02  0.24342598528E+02  0.39840821489E+02  0.00000000000E+00 0.  1.
</event>
<event>
 8    1  0.3708258E-009  0.2369832E+03  0.7561462E-02  0.1121819E+00
          1   -1    0    0  501    0  0.00000000000E+00  0.00000000000E+00  0.33494967328E+03  0.33494967328E+03  0.00000000000E+00 0. -1.
         -1   -1    0    0    0  501 -0.00000000000E+00 -0.00000000000E+00 -0.19347168272E+03  0.19347168272E+03  0.00000000000E+00 0.  1.
         25    2    1    2    0    0  0.12233036956E+03  0.17838076352E+03  0.15311460365E+03  0.29304558444E+03  0.12508883484E+03 0.  0.
         23    2    1    2    0    0 -0.12233036956E+03 -0.17838076352E+03 -0.11636613091E+02  0.23537577155E+03  0.92097377573E+02 0.  0.
          5    1    3    3  502    0  0.51095018184E+02 -0.51432069239E+01  0.45004731659E+02  0.68410903607E+02  0.41800000000E+01 0.  1.
         -5    1    3    3    0  502  0.71235351377E+02  0.18352397044E+03  0.10810987199E+03  0.22463468084E+03  0.41800000000E+01 0.  1.
        -11    1    4    4    0    0 -0.68065366938E+02 -0.14903669780E+03  0.21665517809E+02  0.16527016103E+03  0.00000000000E+00 0.  1.
         11    1    4    4    0    0 -0.54265002622E+02 -0.29344065724E+02 -0.33302130899E+02  0.70105610512E+02  0.00000000000E+00 0. -1.
</event>
<event>
 8    1  0.3708258E-009  0.1003097E+03  0.7561462E-02  0.1279646E+00
         -3   -1    0    0    0  501 -0.00000000000E+00  0.00000000000E+00  0.28850098291E+02  0.28850098291E+02  0.00000000000E+00 0.  1.
          3   -1    0    0  501    0  0.00000000000E+00 -0.00000000000E+00 -0.43067685778E+03  0.43067685778E+03  0.00000000000E+00 0. -1.
         25    2    1    2    0    0 -0.90773416757E-02  0.25436818148E+02 -0.22790443795E+03  0.26121856328E+03  0.12509065978E+03 0.  0.
         23    2    1    2    0    0  0.90773416757E-02 -0.25436818148E+02 -0.17392232154E+03  0.19830839279E+03  0.91816190963E+02 0.  0.
          5    1    3    3  502    0  0.45674830081E+02  0.45342820801E+02 -0.68192828409E+02  0.93861044888E+02  0.41800000000E+01 0. -1.
         -5    1    3    3    0  502 -0.45683907423E+02 -0.19906002653E+02 -0.15971160955E+03  0.16735751839E+03  0.41800000000E+01 0. -1.
        -11    1    4    4    0    0  0.64906881065E+01  0.29801169803E+02 -0.25323004635E+02  0.39642065000E+02  0.00000000000E+00 0.  1.
         11    1    4    4    0    0 -0.64816107648E+01 -0.55237987951E+02 -0.14859931690E+03  0.15866632779E+03  0.00000000000E+00 0. -1.
</event>
<event>
 8    1  0.3708258E-009  0.1726747E+03  0.7561462E-02  0.1175087E+00
          2   -1    0    0  501    0  0.00000000000E+00  0.00000000000E+00  0.14051218500E+04  0.14051218500E+04  0.00000000000E+00 0. -1.
         -2   -1    0    0    0  501 -0.00000000000E+00 -0.00000000000E+00 -0.26063326172E+02  0.26063326172E+02  0.00000000000E+00 0.  1.
         25    2    1    2    0    0 -0.26914274140E+02 -0.15152615341E+03  0.80088618805E+03  0.82507577393E+03  0.12508714242E+03 0.  0.
         23    2    1    2    0    0  0.26914274140E+02  0.15152615341E+03  0.57817233578E+03  0.60610940225E+03  0.96957744959E+02 0.  0.
          5    1    3    3  502    0 -0.69588347748E+02 -0.67134343315E+02  0.29688647069E+03  0.31226368197E+03  0.41800000000E+01 0. -1.
         -5    1    3    3    0  502  0.42674073608E+02 -0.84391810094E+02  0.50399971735E+03  0.51281209196E+03  0.41800000000E+01 0. -1.
        -11    1    4    4    0    0  0.76298892238E+01  0.39003426076E+02  0.41625095696E+02  0.57551116817E+02  0.00000000000E+00 0.  1.
         11    1    4    4    0    0  0.19284384917E+02  0.11252272733E+03  0.53654724009E+03  0.54855828543E+03  0.00000000000E+00 0. -1.
</event>
<event>
 8    1  0.3708258E-009  0.1450786E+03  0.7561462E-02  0.1206654E+00
         -1   -1    0    0    0  501 -0.00000000000E+00  0.00000000000E+00  0.24532207249E+02  0.24532207249E+02  0.00000000000E+00 0.  1.
          1   -1    0    0  501    0  0.00000000000E+00 -0.00000000000E+00 -0.18562119644E+04  0.18562119644E+04  0.00000000000E+00 0. -1.
         25    2    1    2    0    0  0.76850447043E+02  0.12017394389E+03 -0.14610388686E+04  0.14733056541E+04  0.12508879488E+03 0.  0.
         23    2    1    2    0    0 -0.76850447043E+02 -0.12017394389E+03 -0.37064088852E+03  0.40743851759E+03  0.91014885484E+02 0.  0.
          5    1    3    3  502    0  0.41932301581E+02  0.40268534295E+02 -0.17800163197E+03  0.18730169822E+03  0.41800000000E+01 0.  1.
         -5    1    3    3    0  502  0.34918145462E+02  0.79905409595E+02 -0.12830372367E+04  0.12860039558E+04  0.41800000000E+01 0.  1.
        -11    1    4    4    0    0 -0.19371450443E+02 -0.51450183228E+02 -0.25655187436E+03  0.26237613970E+03  0.00000000000E+00 0.  1.
         11    1    4    4    0    0 -0.57478996601E+02 -0.68723760661E+02 -0.11408901416E+03  0.14506237790E+03  0.00000000000E+00 0. -1.
</event>
<event>
 8    1  0.3708258E-009  0.1317925E+03  0.7561462E-02  0.1224820E+00
          1   -1    0    0  501    0  0.00000000000E+00  0.00000000000E+00  0.17467860604E+04  0.17467860604E+04  0.00000000000E+00 0. -1.
         -1   -1    0    0    0  501 -0.00000000000E+00 -0.00000000000E+00 -0.13238592455E+02  0.13238592455E+02  0.00000000000E+00 0.  1.
         25    2    1    2    0    0 -0.79578568143E+02 -0.25262916091E+02  0.13486191225E+04  0.13569792609E+04  0.12509282008E+03 0.  0.
         23    2    1    2    0    0  0.79578568143E+02  0.25262916091E+02  0.38492834549E+03  0.40304539196E+03  0.85468083954E+02 0.  0.
          5    1    3    3  502    0 -0.55765941038E+01  0.43597247181E+02  0.58901280731E+03  0.59066519954E+03  0.41800000000E+01 0. -1.
         -5    1    3    3    0  502 -0.74001974039E+02 -0.68860163272E+02  0.75960631518E+03  0.76631406140E+03  0.41800000000E+01 0. -1.
        -11    1    4    4    0    0 -0.17085793994E+02  0.11568980614E+02  0.47757747818E+02  0.52024687846E+02  0.00000000000E+00 0.  1.
         11    1    4    4    0    0  0.96664362137E+02  0.13693935477E+02  0.33717059768E+03  0.35102070411E+03  0.00000000000E+00 0. -1.
</event>
<event>
 8    1  0.3708258E-009  0.1182261E+03  0.7561462E-02  0.1246052E+00
         -3   -1    0    0    0  501 -0.00000000000E+00  0.00000000000E+00  0.67188213259E+02  0.67188213259E+02  0.00000000000E+00 0.  1.
          3   -1    0    0  501    0  0.00000000000E+00 -0.00000000000E+00 -0.39678988502E+03  0.39678988502E+03  0.00000000000E+00 0. -1.
         25    2    1    2    0    0 -0.55198562095E+02  0.10247854144E+03 -0.12562272731E+03  0.21207807238E+03  0.12508919400E+03 0.  0.
         23    2    1    2    0    0  0.55198562095E+02 -0.10247854144E+03 -0.20397894445E+03  0.25190002590E+03  0.91090507488E+02 0.  0.
          5    1    3    3  502    0 -0.27955657476E+02  0.78577313261E+02 -0.23709380610E+01  0.83540449433E+02  0.41800000000E+01 0. -1.
         -5    1    3    3    0  502 -0.27242904619E+02  0.23901228175E+02 -0.12325178924E+03  0.12853762294E+03  0.41800000000E+01 0. -1.
        -11    1    4    4    0    0  0.41766423968E+02 -0.73904518494E+02 -0.20330826155E+03  0.22031922576E+03  0.00000000000E+00 0. -1.
         11    1    4    4    0    0  0.13432138128E+02 -0.28574022942E+02 -0.67068290314E+00  0.31580800137E+02  0.00000000000E+00 0.  1.
</event>
<event>
 8    1  0.3708258E-009  0.8573755E+02  0.7561462E-02  0.1313515E+00
          2   -1    0    0  501    0  0.00000000000E+00  0.00000000000E+00  0.17982230561E+04  0.17982230561E+04  0.00000000000E+00 0. -1.
         -2   -1    0    0    0  501 -0.00000000000E+00 -0.00000000000E+00 -0.95404526770E+01  0.95404526770E+01  0.00000000000E+00 0.  1.
         25    2    1    2    0    0  0.26739578902E+02 -0.27288745512E+02  0.14636802685E+04  0.14695125353E+04  0.12508989690E+03 0.  0.
         23    2    1    2    0    0 -0.26739578902E+02  0.27288745512E+02  0.32500233492E+03  0.33825097347E+03  0.85600949986E+02 0.  0.
          5    1    3    3  502    0 -0.28806077588E+01  0.29979780922E+02  0.10801669654E+04  0.10805948504E+04  0.41800000000E+01 0. -1.
         -5    1    3    3    0  502  0.29620186661E+02 -0.57268526434E+02  0.38351330310E+03  0.38891768491E+03  0.41800000000E+01 0. -1.
        -11    1    4    4    0    0 -0.21561929149E+02  0.49319634900E+02  0.29888204457E+03  0.30369033528E+03  0.00000000000E+00 0. -1.
         11    1    4    4    0    0 -0.51776497528E+01 -0.22030889387E+02  0.26120290345E+02  0.34560638187E+02  0.00000000000E+00 0.  1.
</event>
<event>
 8    1  0.3708258E-009  0.1492003E+03  0.7561462E-02  0.1201459E+00
         -1   -1    0    0    0  501 -0.00000000000E+00  0.00000000000E+00  0.67793592917E+02  0.67793592917E+02  0.00000000000E+00 0.  1.
          1   -1    0    0  501    0  0.00000000000E+00 -0.00000000000E+00 -0.58109948175E+03  0.58109948175E+03  0.00000000000E+00 0. -1.
         25    2    1    2    0    0  0.33011597377E+02 -0.10819365973E+03 -0.71338502224E+02  0.18311930462E+03  0.12509142359E+03 0.  0.
         23    2    1    2    0    0 -0.33011597377E+02  0.10819365973E+03 -0.44196738660E+03  0.46577377005E+03  0.93885038610E+02 0.  0.
          5    1    3    3  502    0  0.27162398075E+02  0.21117438275E+02  0.11971185484E+01  0.34679209352E+02  0.41800000000E+01 0.  1.
         -5    1    3    3    0  502  0.58491993022E+01 -0.12931109801E+03 -0.72535620772E+02  0.14844009526E+03  0.41800000000E+01 0.  1.
        -11    1    4    4    0    0  0.19103039245E+02  0.61008325296E+02 -0.30709431598E+03  0.31367795710E+03  0.00000000000E+00 0. -1.
         11    1    4    4    0    0 -0.52114636622E+02  0.47185334439E+02 -0.13487307062E+03  0.15209581295E+03  0.00000000000E+00 0.  1.
</event>
<event>
 8    1  0.3708258E-009  0.1823468E+03  0.7561462E-02  0.1165551E+00
         -2   -1    0    0    0  501 -0.00000000000E+00  0.00000000000E+00  0.21957222437E+02  0.21957222437E+02  0.00000000000E+00 0.  1.
          2   -1    0    0  501    0  0.00000000000E+00 -0.00000000000E+00 -0.18502137293E+04  0.18502137293E+04  0.00000000000E+00 0. -1.
         25    2    1    2    0    0  0.15000380518E+03  0.49522897221E+02 -0.12389417030E+04  0.12552201611E+04  0.12508977041E+03 0.  0.
         23    2    1    2    0    0 -0.15000380518E+03 -0.49522897221E+02 -0.58931480384E+03  0.61695079054E+03  0.91556982301E+02 0.  0.
          5    1    3    3  502    0  0.15540563375E+03  0.76186322812E+02 -0.11049449759E+04  0.11184257414E+04  0.41800000000E+01 0. -1.
         -5    1    3    3    0  502 -0.54018285695E+01 -0.26663425591E+02 -0.13399672707E+03  0.13679441977E+03  0.41800000000E+01 0. -1.
        -11    1    4    4    0    0 -0.23800182796E+02 -0.26742797401E+02 -0.43822753461E+02  0.56586744339E+02  0.00000000000E+00 0.  1.
         11    1    4    4    0    0 -0.12620362238E+03 -0.22780099820E+02 -0.54549205038E+03  0.56036404620E+03  0.00000000000E+00 0. -1.
</event>
<event>
 8    1  0.3708258E-009  0.1304969E+03  0.7561462E-02  0.1226720E+00
         -2   -1    0    0    0  501 -0.00000000000E+00  0.00000000000E+00  0.21224007018E+02  0.21224007018E+02  0.00000000000E+00 0. -1.
          2   -1    0    0  501    0  0.00000000000E+00 -0.00000000000E+00 -0.10284458295E+04  0.10284458295E+04  0.00000000000E+00 0.  1.
         25    2    1    2    0    0 -0.39087246626E+02 -0.62344040645E+02 -0.78341691475E+03  0.79674658163E+03  0.12509380789E+03 0.  0.
         23    2    1    2    0    0  0.39087246626E+02  0.62344040645E+02 -0.22380490770E+03  0.25292325485E+03  0.92015997973E+02 0.  0.
          5    1    3    3  502    0 -0.32636522526E+02  0.34675085576E+02 -0.26162183003E+03  0.26595292536E+03  0.41800000000E+01 0.  1.
         -5    1    3    3    0  502 -0.64507240996E+01 -0.97019126221E+02 -0.52179508472E+03  0.53079365627E+03  0.41800000000E+01 0.  1.
        -11    1    4    4    0    0 -0.35033545251E+01  0.72092175704E+02 -0.11627193580E+03  0.13685290770E+03  0.00000000000E+00 0. -1.
         11    1    4    4    0    0  0.42590601151E+02 -0.97481350592E+01 -0.10753297189E+03  0.11607034715E+03  0.00000000000E+00 0.  1.
</event>
<event>
 8    1  0.3708258E-009  0.1355509E+03  0.7561462E-02  0.1219444E+00
          1   -1    0    0  501    0  0.00000000000E+00  0.00000000000E+00  0.14921063221E+04  0.14921063221E+04  0.00000000000E+00 0. -1.
         -1   -1    0    0    0  501 -0.00000000000E+00 -0.00000000000E+00 -0.15589876957E+02  0.15589876957E+02  0.00000000000E+00 0.  1.
         25    2    1    2    0    0 -0.73216527185E+02 -0.76093294301E+02  0.89163150444E+03  0.90653552881E+03  0.12509626688E+03 0.  0.
         23    2    1    2    0    0  0.73216527185E+02  0.76093294301E+02  0.58488494065E+03  0.60116067020E+03  0.90293456587E+02 0.  0.
          5    1    3    3  502    0 -0.30424333147E+02  0.13451175337E+02  0.57890111017E+02  0.66897769163E+02  0.41800000000E+01 0.  1.
         -5    1    3    3    0  502 -0.42792194038E+02 -0.89544469638E+02  0.83374139343E+03  0.83963775965E+03  0.41800000000E+01 0.  1.
        -11    1    4    4    0    0 -0.13585438327E+02  0.43419220025E+02  0.16524148414E+03  0.17139002562E+03  0.00000000000E+00 0.  1.
         11    1    4    4    0    0  0.86801965512E+02  0.32674074277E+02  0.41964345651E+03  0.42977064458E+03  0.00000000000E+00 0. -1.
</event>
<event>
 8    1  0.3708258E-009  0.1191784E+03  0.7561462E-02  0.1244459E+00
         -1   -1    0    0    0  501 -0.00000000000E+00  0.00000000000E+00  0.18689139286E+03  0.18689139286E+03  0.00000000000E+00 0.  1.
          1   -1    0    0  501    0  0.00000000000E+00 -0.00000000000E+00 -0.10062441667E+03  0.10062441667E+03  0.00000000000E+00 0. -1.
         25    2    1    2    0    0 -0.30627542841E+02 -0.65111709956E+02  0.49627007662E+00  0.14431096569E+03  0.12509127620E+03 0.  0.
         23    2    1    2    0    0  0.30627542841E+02  0.65111709956E+02  0.85770706111E+02  0.14320484384E+03  0.89294076608E+02 0.  0.
          5    1    3    3  502    0  0.38419321097E+02  0.36101169747E+01  0.21780729723E+02  0.44507861838E+02  0.41800000000E+01 0.  1.
         -5    1    3    3    0  502 -0.69046863937E+02 -0.68721826931E+02 -0.21284459646E+02  0.99803103853E+02  0.41800000000E+01 0.  1.
        -11    1    4    4    0    0  0.39138708918E+02  0.29018830256E+01  0.30660471759E+01  0.39365722478E+02  0.00000000000E+00 0. -1.
         11    1    4    4    0    0 -0.85111660779E+01  0.62209826930E+02  0.82704658936E+02  0.10383912136E+03  0.00000000000E+00 0.  1.
</event>
<event>
 8    1  0.3708258E-009  0.9733364E+02  0.7561462E-02  0.1286005E+00
          1   -1    0    0  501    0  0.00000000000E+00  0.00000000000E+00  0.23206885181E+02  0.23206885181E+02  0.00000000000E+00 0. -1.
         -1   -1    0    0    0  501 -0.00000000000E+00 -0.00000000000E+00 -0.54772125160E+03  0.54772125160E+03  0.00000000000E+00 0.  1.
         25    2    1    2    0    0  0.15455605493E+02  0.17404098578E+02 -0.38572332607E+03  0.40616822408E+03  0.12509341944E+03 0.  0.
         23    2    1    2    0    0 -0.15455605493E+02 -0.17404098578E+02 -0.13879104035E+03  0.16475991271E+03  0.85680205210E+02 0.  0.
          5    1    3    3  502    0  0.56901023163E+02  0.45768702627E+02 -0.27417977049E+03  0.28376842587E+03  0.41800000000E+01 0. -1.
         -5    1    3    3    0  502 -0.41445417670E+02 -0.28364604049E+02 -0.11154355559E+03  0.12239979821E+03  0.41800000000E+01 0. -1.
        -11    1    4    4    0    0 -0.14474594118E+02 -0.43073105958E+02 -0.12983279983E+03  0.13755494264E+03  0.00000000000E+00 0.  1.
         11    1    4    4    0    0 -0.98101137520E+00  0.25669007380E+02 -0.89582405160E+01  0.27204970066E+02  0.00000000000E+00 0. -1.
</event>
<event>
 8    1  0.3708258E-009  0.1377325E+03  0.7561462E-02  0.1216413E+00
          1   -1    0    0  501    0  0.00000000000E+00  0.00000000000E+00  0.70631177245E+03  0.70631177245E+03  0.00000000000E+00 0. -1.
         -1   -1    0    0    0  501 -0.00000000000E+00 -0.00000000000E+00 -0.38009637541E+02  0.38009637541E+02  0.00000000000E+00 0.  1.
         25    2    1    2    0    0 -0.11224146182E+03 -0.38686143059E+02  0.41532047925E+03  0.44970369652E+03  0.12509017053E+03 0.  0.
         23    2    1    2    0    0  0.11224146182E+03  0.38686143059E+02  0.25298165566E+03  0.29461771347E+03  0.93301208866E+02 0.  0.
          5    1    3    3  502    0 -0.11374931757E+03 -0.31358335511E+02  0.42239843454E+03  0.43858883064E+03  0.41800000000E+01 0. -1.
         -5    1    3    3    0  502  0.15078557501E+01 -0.73278075475E+01 -0.70779552953E+01  0.11114865882E+02  0.41800000000E+01 0. -1.
        -11    1    4    4    0    0  0.33868496095E+02  0.58852883469E+02  0.90958044979E+02  0.11350816212E+03  0.00000000000E+00 0.  1.
         11    1    4    4    0    0  0.78372965724E+02 -0.20166740410E+02  0.16202361068E+03  0.18110955136E+03  0.00000000000E+00 0. -1.
</event>
<event>
 8    1  0.3708258E-009  0.1881007E+03  0.7561462E-02  0.1160186E+00
         -2   -1    0    0    0  501 -0.00000000000E+00  0.00000000000E+00  0.88707048786E+03  0.88707048786E+03  0.00000000000E+00 0.  1.
          2   -1    0    0  501    0  0.00000000000E+00 -0.00000000000E+00 -0.51605975070E+02  0.51605975070E+02  0.00000000000E+00 0. -1.
         25    2    1    2    0    0  0.44973564602E+02  0.17390075945E+03  0.34604733631E+03  0.40946410739E+03  0.12509196866E+03 0.  0.
         23    2    1    2    0    0 -0.44973564602E+02 -0.17390075945E+03  0.48941717648E+03  0.52921235554E+03  0.90953004195E+02 0.  0.
          5    1    3    3  502    0  0.17901499083E+01  0.28151873872E+02  0.18795312823E+03  0.19010413843E+03  0.41800000000E+01 0. -1.
         -5    1    3    3    0  502  0.43183414694E+02  0.14574888558E+03  0.15809420809E+03  0.21935996896E+03  0.41800000000E+01 0. -1.
        -11    1    4    4    0    0 -0.55599262088E+02 -0.62267441914E+02  0.27285856119E+03  0.28534243758E+03  0.00000000000E+00 0. -1.
         11    1    4    4    0    0  0.10625697486E+02 -0.11163331754E+03  0.21655861529E+03  0.24386991796E+03  0.00000000000E+00 0.  1.
</event>
<event>
 8    1  0.3708258E-009  0.1246644E+03  0.7561462E-02  0.1235595E+00
          1   -1    0    0  501    0  0.00000000000E+00  0.00000000000E+00  0.77889912421E+03  0.77889912421E+03  0.00000000000E+00 0. -1.
         -1   -1    0    0    0  501 -0.00000000000E+00 -0.00000000000E+00 -0.24398600170E+02  0.24398600170E+02  0.00000000000E+00 0.  1.
         25    2    1    2    0    0 -0.71809282669E+02 -0.35348203390E+02  0.47201347911E+03  0.49482397047E+03  0.12509184118E+03 0.  0.
         23    2    1    2    0    0  0.71809282669E+02  0.35348203390E+02  0.28248704493E+03  0.30847375391E+03  0.94610029790E+02 0.  0.
          5    1    3    3  502    0 -0.98366765137E+02 -0.40024133344E+02  0.25733682731E+03  0.27841994688E+03  0.41800000000E+01 0. -1.
         -5    1    3    3    0  502  0.26557482468E+02  0.46759299540E+01  0.21467665181E+03  0.21640402359E+03  0.41800000000E+01 0. -1.
        -11    1    4    4    0    0 -0.14499409261E+00 -0.23074602524E+02  0.11267708803E+03  0.11501558360E+03  0.00000000000E+00 0. -1.
         11    1    4    4    0    0  0.71954276761E+02  0.58422805914E+02  0.16980995690E+03  0.19345817030E+03  0.00000000000E+00 0.  1.
</event>
<event>
 8    1  0.3708258E-009  0.1004942E+03  0.7561462E-02  0.1279260E+00
         -1   -1    0    0    0  501 -0.00000000000E+00  0.00000000000E+00  0.33558361190E+02  0.33558361190E+02  0.00000000000E+00 0.  1.
          1   -1    0    0  501    0  0.00000000000E+00 -0.00000000000E+00 -0.54136113620E+03  0.54136113620E+03  0.00000000000E+00 0. -1.
         25    2    1    2    0    0 -0.41992035393E+02  0.67742905855E+02 -0.30541299099E+03  0.33952482352E+03  0.12509028095E+03 0.  0.
         23    2    1    2    0    0  0.41992035393E+02 -0.67742905855E+02 -0.20238978402E+03  0.23539467387E+03  0.89981084030E+02 0.  0.
          5    1    3    3  502    0 -0.12932924494E+02  0.65626931142E+01  0.92004064632E+01  0.17676237042E+02  0.41800000000E+01 0. -1.
         -5    1    3    3    0  502 -0.29059110899E+02  0.61180212740E+02 -0.31461339745E+03  0.32184858647E+03  0.41800000000E+01 0. -1.
        -11    1    4    4    0    0 -0.95181985882E+00 -0.74549613082E+02 -0.14838294233E+03  0.16606037561E+03  0.00000000000E+00 0. -1.
         11    1    4    4    0    0  0.42943855252E+02  0.68067072276E+01 -0.54006841685E+02  0.69334298266E+02  0.00000000000E+00 0.  1.
</event>
<event>
 8    1  0.3708258E-009  0.1708523E+03  0.7561462E-02  0.1176962E+00
          1   -1    0    0  501    0  0.00000000000E+00  0.00000000000E+00  0.21912380179E+03  0.21912380179E+03  0.00000000000E+00 0. -1.
         -1   -1    0    0    0  501 -0.00000000000E+00 -0.00000000000E+00 -0.18865789011E+03  0.18865789011E+03  0.00000000000E+00 0.  1.
         25    2    1    2    0    0 -0.99764905122E+02  0.13220016783E+03  0.62579294154E+02  0.21678171237E+03  0.12509285390E+03 0.  0.
         23    2    1    2    0    0  0.99764905122E+02 -0.13220016783E+03 -0.32113382477E+02  0.19099997952E+03  0.89553348204E+02 0.  0.
          5    1    3    3  502    0 -0.80146875380E+02  0.92976994969E+02 -0.18789081721E+02  0.12425274733E+03  0.41800000000E+01 0. -1.
         -5    1    3    3    0  502 -0.19618029741E+02  0.39223172859E+02  0.81368375875E+02  0.92528965047E+02  0.41800000000E+01 0. -1.
        -11    1    4    4    0    0  0.36335132190E+02 -0.94008259964E+02  0.16918942528E+02  0.10219611240E+03  0.00000000000E+00 0. -1.
         11    1    4    4    0    0  0.63429772932E+02 -0.38191907864E+02 -0.49032325006E+02  0.88803867123E+02  0.00000000000E+00 0.  1.
</event>
<event>
 8    1  0.3708258E-009  0.1258439E+03  0.7561462E-02  0.1233756E+00
         -2   -1    0    0    0  501 -0.00000000000E+00  0.00000000000E+00  0.79945594759E+03  0.79945594759E+03  0.00000000000E+00 0.  1.
          2   -1    0    0  501    0  0.00000000000E+00 -0.00000000000E+00 -0.25418633975E+02  0.25418633975E+02  0.00000000000E+00 0. -1.
         25    2    1    2    0    0 -0.47614888567E+02 -0.61074701443E+02  0.55407104855E+03  0.57327289392E+03  0.12509910990E+03 0.  0.
         23    2    1    2    0    0  0.47614888567E+02  0.61074701443E+02  0.21996626507E+03  0.25160168764E+03  0.94450805646E+02 0.  0.
          5    1    3    3  502    0  0.17290830512E+02 -0.62203712598E+02  0.14129703682E+03  0.15540463216E+03  0.41800000000E+01 0.  1.
         -5    1    3    3    0  502 -0.64905719079E+02  0.11290111544E+01  0.41277401172E+03  0.41786826176E+03  0.41800000000E+01 0.  1.
        -11    1    4    4    0    0  0.70241869538E+02  0.16806174960E+02  0.13728831620E+03  0.15512720431E+03  0.00000000000E+00 0.  1.
         11    1    4    4    0    0 -0.22626980970E+02  0.44268526483E+02  0.82677948869E+02  0.96474483331E+02  0.00000000000E+00 0. -1.
</event>
<event>
 8    1  0.3708258E-009  0.9533025E+02  0.7561462E-02  0.1290434E+00
          2   -1    0    0  501    0  0.00000000000E+00  0.00000000000E+00  0.29130636559E+03  0.29130636559E+03  0.00000000000E+00 0. -1.
         -2   -1    0    0    0  501 -0.00000000000E+00 -0.00000000000E+00 -0.46751169803E+02  0.46751169803E+02  0.00000000000E+00 0.  1.
         25    2    1    2    0    0 -0.21420538145E+02  0.22934603576E+02  0.96234672269E+02  0.16091487967E+03  0.12509057062E+03 0.  0.
         23    2    1    2    0    0  0.21420538145E+02 -0.22934603576E+02  0.14832052352E+03  0.17714265572E+03  0.91628092217E+02 0.  0.
          5    1    3    3  502    0  0.51721702241E+02  0.67900868542E+01  0.52253759565E+02  0.73953820393E+02  0.41800000000E+01 0.  1.
         -5    1    3    3    0  502 -0.73142240385E+02  0.16144516722E+02  0.43980912704E+02  0.86961059280E+02  0.41800000000E+01 0.  1.
        -11    1    4    4    0    0  0.94298490952E+01  0.18180500651E+02 -0.22461620382E+01  0.20603346858E+02  0.00000000000E+00 0.  1.
         11    1    4    4    0    0  0.11990689049E+02 -0.41115104226E+02  0.15056668556E+03  0.15653930886E+03  0.00000000000E+00 0. -1.
</event>
<event>
 8    1  0.3708258E-009  0.1354182E+03  0.7561462E-02  0.1219630E+00
          1   -1    0    0  501    0  0.00000000000E+00  0.00000000000E+00  0.68233590629E+03  0.68233590629E+03  0.00000000000E+00 0. -1.
         -1   -1    0    0    0  501 -0.00000000000E+00 -0.00000000000E+00 -0.30372149985E+02  0.30372149985E+02  0.00000000000E+00 0.  1.
         25    2    1    2    0    0 -0.29239779150E+02  0.82603552582E+02  0.26731345430E+03  0.30786793603E+03  0.12509145294E+03 0.  0.
         23    2    1    2    0    0  0.29239779150E+02 -0.82603552582E+02  0.38465030200E+03  0.40484012024E+03  0.90892004851E+02 0.  0.
          5    1    3    3  502    0 -0.21219077980E+02 -0.28499875806E+02  0.10529003754E+03  0.11120232280E+03  0.41800000000E+01 0.  1.
         -5    1    3    3    0  502 -0.80207011705E+01  0.11110342839E+03  0.16202341676E+03  0.19666561323E+03  0.41800000000E+01 0.  1.
        -11    1    4    4    0    0  0.59943451713E+02 -0.44507302734E+02  0.19020454602E+03  0.20433278427E+03  0.00000000000E+00 0.  1.
         11    1    4    4    0    0 -0.30703672563E+02 -0.38096249848E+02  0.19444575598E+03  0.20050733597E+03  0.00000000000E+00 0. -1.
</event>
<event>
 8    1  0.3708258E-009  0.1070567E+03  0.7561462E-02  0.1266120E+00
          3   -1    0    0  501    0  0.00000000000E+00  0.00000000000E+00  0.32346622925E+03  0.32346622925E+03  0.00000000000E+00 0. -1.
         -3   -1    0    0    0  501 -0.00000000000E+00 -0.00000000000E+00 -0.40811519797E+02  0.40811519797E+02  0.00000000000E+00 0.  1.
         25    2    1    2    0    0  0.35721273475E+02 -0.79290257646E+01  0.16553525430E+03  0.21068470773E+03  0.12508895566E+03 0.  0.
         23    2    1    2    0    0 -0.35721273475E+02  0.79290257646E+01  0.11711945516E+03  0.15359304132E+03  0.92384937826E+02 0.  0.
          5    1    3    3  502    0 -0.37659438816E+02 -0.27231301744E+02  0.99946595524E+02  0.11030218259E+03  0.41800000000E+01 0. -1.
         -5    1    3    3    0  502  0.73380712291E+02  0.19302275979E+02  0.65588658772E+02  0.10038252514E+03  0.41800000000E+01 0. -1.
        -11    1    4    4    0    0 -0.50368097748E+02  0.34548006548E+02  0.10376226060E+03  0.12040397315E+03  0.00000000000E+00 0. -1.
         11    1    4    4    0    0  0.14646824273E+02 -0.26618980783E+02  0.13357194564E+02  0.33189068168E+02  0.00000000000E+00 0.  1.
</event>
<event>
 8    1  0.3708258E-009  0.9158373E+02  0.7561462E-02  0.1299061E+00
          1   -1    0    0  501    0  0.00000000000E+00  0.00000000000E+00  0.45368013404E+03  0.45368013404E+03  0.00000000000E+00 0. -1.
         -1   -1    0    0    0  501 -0.00000000000E+00 -0.00000000000E+00 -0.41052107908E+02  0.41052107908E+02  0.00000000000E+00 0.  1.
         25    2    1    2    0    0  0.57595052166E+02 -0.47873531920E+02  0.16062857625E+03  0.21692647739E+03  0.12508593842E+03 0.  0.
         23    2    1    2    0    0 -0.57595052166E+02  0.47873531920E+02  0.25199944988E+03  0.27780576456E+03  0.89795629017E+02 0.  0.
          5    1    3    3  502    0  0.21682375570E+02  0.13073277199E+02  0.14110889690E+03  0.14342325185E+03  0.41800000000E+01 0. -1.
         -5    1    3    3    0  502  0.35912676596E+02 -0.60946809119E+02  0.19519679351E+02  0.73503225535E+02  0.41800000000E+01 0. -1.
        -11    1    4    4    0    0 -0.41251350999E+02  0.55051118523E+02  0.25063403475E+03  0.25990328775E+03  0.00000000000E+00 0. -1.
         11    1    4    4    0    0 -0.16343701167E+02 -0.71775866032E+01  0.13654151277E+01  0.17902476805E+02  0.00000000000E+00 0.  1.
</event>
<event>
 8    1  0.3708258E-009  0.8596119E+02  0.7561462E-02  0.1312938E+00
          1   -1    0    0  501    0  0.00000000000E+00  0.00000000000E+00  0.10936528686E+04  0.10936528686E+04  0.00000000000E+00 0. -1.
         -1   -1    0    0    0  501 -0.00000000000E+00 -0.00000000000E+00 -0.16927557248E+02  0.16927557248E+02  0.00000000000E+00 0.  1.
         25    2    1    2    0    0 -0.44831131575E+02 -0.40520730729E+02  0.78502291904E+03  0.79721969210E+03  0.12508594678E+03 0.  0.
         23    2    1    2    0    0  0.44831131575E+02  0.40520730729E+02  0.29170239231E+03  0.31336073374E+03  0.97226044838E+02 0.  0.
          5    1    3    3  502    0 -0.41318099285E+02 -0.19575784249E+02  0.82908951144E+02  0.94772164887E+02  0.41800000000E+01 0. -1.
         -5    1    3    3    0  502 -0.35130322908E+01 -0.20944946480E+02  0.70211396789E+03  0.70244752721E+03  0.41800000000E+01 0. -1.
        -11    1    4    4    0    0  0.63682623135E+02  0.46610348952E+01  0.10993664674E+03  0.12713484193E+03  0.00000000000E+00 0.  1.
         11    1    4    4    0    0 -0.18851491560E+02  0.35859695834E+02  0.18176574557E+03  0.18622589181E+03  0.00000000000E+00 0. -1.
</event>
<event>
 8    1  0.3708258E-009  0.2013612E+03  0.7561462E-02  0.1148596E+00
          1   -1    0    0  501    0  0.00000000000E+00  0.00000000000E+00  0.23592585743E+03  0.23592585743E+03  0.00000000000E+00 0. -1.
         -1   -1    0    0    0  501 -0.00000000000E+00 -0.00000000000E+00 -0.20294068662E+03  0.20294068662E+03  0.00000000000E+00 0.  1.
         25    2    1    2    0    0 -0.17200763138E+03 -0.48631879144E+02 -0.46384644266E+02  0.22305048989E+03  0.12509316886E+03 0.  0.
         23    2    1    2    0    0  0.17200763138E+03  0.48631879144E+02  0.79369815080E+02  0.21581605416E+03  0.91243173797E+02 0.  0.
          5    1    3    3  502    0 -0.24834566415E+02 -0.63694591889E+02 -0.27671991777E+02  0.73871295196E+02  0.41800000000E+01 0.  1.
         -5    1    3    3    0  502 -0.14717306497E+03  0.15062712745E+02 -0.18712652489E+02  0.14917919470E+03  0.41800000000E+01 0.  1.
        -11    1    4    4    0    0  0.84818784517E+02  0.51068296779E+02  0.81998903088E+02  0.12855355791E+03  0.00000000000E+00 0. -1.
         11    1    4    4    0    0  0.87188846865E+02 -0.24364176346E+01 -0.26290880081E+01  0.87262496253E+02  0.00000000000E+00 0.  1.
</event>
<event>
 8    1  0.3708258E-009  0.2880547E+03  0.7561462E-02  0.1091369E+00
          2   -1    0    0  501    0  0.00000000000E+00  0.00000000000E+00  0.10513757015E+03  0.10513757015E+03  0.00000000000E+00 0.  1.
         -2   -1    0    0    0  501 -0.00000000000E+00 -0.00000000000E+00 -0.90399771644E+03  0.90399771644E+03  0.00000000000E+00 0. -1.
         25    2    1    2    0    0  0.26712965575E+03 -0.82634685507E+02 -0.51468926594E+03  0.59894766267E+03  0.12508604209E+03 0.  0.
         23    2    1    2    0    0 -0.26712965575E+03  0.82634685507E+02 -0.28417088036E+03  0.41018762391E+03  0.96509343264E+02 0.  0.
          5    1    3    3  502    0 -0.77832967729E+01  0.33698542532E+00  0.77799011276E+00  0.88752992314E+01  0.41800000000E+01 0.  1.
         -5    1    3    3    0  502  0.27491295252E+03 -0.82971670932E+02 -0.51546725605E+03  0.59007236344E+03  0.41800000000E+01 0.  1.
        -11    1    4    4    0    0 -0.10399376220E+03  0.24031093611E+02 -0.17608415787E+03  0.20590732549E+03  0.00000000000E+00 0. -1.
         11    1    4    4    0    0 -0.16313589354E+03  0.58603591896E+02 -0.10808672249E+03  0.20428029843E+03  0.00000000000E+00 0.  1.
</event>
<event>
 8    1  0.3708258E-009  0.9470406E+02  0.7561462E-02  0.1291844E+00
          2   -1    0    0  501    0  0.00000000000E+00  0.00000000000E+00  0.51558610509E+03  0.51558610509E+03  0.00000000000E+00 0. -1.
         -2   -1    0    0    0  501 -0.00000000000E+00 -0.00000000000E+00 -0.27932880530E+02  0.27932880530E+02  0.00000000000E+00 0.  1.
         25    2    1    2    0    0  0.14007850129E+02 -0.10473097120E+02  0.39596993859E+03  0.41562681413E+03  0.12509017040E+03 0.  0.
         23    2    1    2    0    0 -0.14007850129E+02  0.10473097120E+02  0.91683285969E+02  0.12789217149E+03  0.87433843405E+02 0.  0.
          5    1    3    3  502    0 -0.72001830287E+01  0.54245684935E+02  0.13141382303E+03  0.14241313932E+03  0.41800000000E+01 0.  1.
         -5    1    3    3    0  502  0.21208033158E+02 -0.64718782054E+02  0.26455611556E+03  0.27321367481E+03  0.41800000000E+01 0.  1.
        -11    1    4    4    0    0 -0.39687497126E+02  0.80937005892E+01  0.93643649936E+02  0.10202812647E+03  0.00000000000E+00 0. -1.
         11    1    4    4    0    0  0.25679646997E+02  0.23793965307E+01 -0.19603639663E+01  0.25864045017E+02  0.00000000000E+00 0.  1.
</event>
<event>
 8    1  0.3708258E-009  0.8639934E+02  0.7561462E-02  0.1311813E+00
         -1   -1    0    0    0  501 -0.00000000000E+00  0.00000000000E+00  0.15148782715E+03  0.15148782715E+03  0.00000000000E+00 0.  1.
          1   -1    0    0  501    0  0.00000000000E+00 -0.00000000000E+00 -0.12389090221E+03  0.12389090221E+03  0.00000000000E+00 0. -1.
         25    2    1    2    0    0  0.34610182961E+02 -0.36379626722E+01 -0.60813273812E+02  0.14337906800E+03  0.12509277889E+03 0.  0.
         23    2    1    2    0    0 -0.34610182961E+02  0.36379626722E+01  0.88410198758E+02  0.13199966136E+03  0.91632133112E+02 0.  0.
          5    1    3    3  502    0  0.53962313722E+02 -0.34976839325E+02 -0.79114423709E+02  0.10203859579E+03  0.41800000000E+01 0. -1.
         -5    1    3    3    0  502 -0.19352130761E+02  0.31338876653E+02  0.18301149897E+02  0.41340472209E+02  0.41800000000E+01 0. -1.
        -11    1    4    4    0    0 -0.52773744763E+02  0.53175012064E-01  0.13001811814E+02  0.54351799182E+02  0.00000000000E+00 0. -1.
         11    1    4    4    0    0  0.18163561802E+02  0.35847876601E+01  0.75408386944E+02  0.77647862181E+02  0.00000000000E+00 0.  1.
</event>
<event>
 8    1  0.3708258E-009  0.9978497E+02  0.7561462E-02  0.1280749E+00
          2   -1    0    0  501    0  0.00000000000E+00  0.00000000000E+00  0.34025869698E+03  0.34025869698E+03  0.00000000000E+00 0.  1.
         -2   -1    0    0    0  501 -0.00000000000E+00 -0.00000000000E+00 -0.57428766349E+02  0.57428766349E+02  0.00000000000E+00 0. -1.
         25    2    1    2    0    0  0.36728389713E+01  0.82566466103E+02  0.18480723441E+03  0.23797254747E+03  0.12508600397E+03 0.  0.
         23    2    1    2    0    0 -0.36728389713E+01 -0.82566466103E+02  0.98022696221E+02  0.15971491586E+03  0.95234942650E+02 0.  0.
          5    1    3    3  502    0 -0.17422542479E+02  0.50642394992E+02  0.19150996678E+03  0.19890132461E+03  0.41800000000E+01 0.  1.
         -5    1    3    3    0  502  0.21095381450E+02  0.31924071111E+02 -0.67027323670E+01  0.39071222863E+02  0.41800000000E+01 0.  1.
        -11    1    4    4    0    0  0.14684636405E+02  0.67602485767E+01 -0.94818748960E+01  0.18741543659E+02  0.00000000000E+00 0. -1.
         11    1    4    4    0    0 -0.18357475376E+02 -0.89326714679E+02  0.10750457112E+03  0.14097337220E+03  0.00000000000E+00 0.  1.
</event>
<event>
 8    1  0.3708258E-009  0.8991903E+02  0.7561462E-02  0.1303048E+00
          2   -1    0    0  501    0  0.00000000000E+00  0.00000000000E+00  0.28763036424E+03  0.28763036424E+03  0.00000000000E+00 0. -1.
         -2   -1    0    0    0  501 -0.00000000000E+00 -0.00000000000E+00 -0.59025211463E+02  0.59025211463E+02  0.00000000000E+00 0.  1.
         25    2    1    2    0    0 -0.54212301571E+02  0.35282935506E+02  0.82469275607E+02  0.16319826617E+03  0.12509449820E+03 0.  0.
         23    2    1    2    0    0  0.54212301571E+02 -0.35282935506E+02  0.14613587717E+03  0.18345730954E+03  0.90094565022E+02 0.  0.
          5    1    3    3  502    0  0.80897068948E+01  0.17379718479E+02  0.95032261849E+02  0.97036597035E+02  0.41800000000E+01 0.  1.
         -5    1    3    3    0  502 -0.62302008466E+02  0.17903217028E+02 -0.12562986242E+02  0.66161669131E+02  0.41800000000E+01 0.  1.
        -11    1    4    4    0    0  0.40280944512E+01  0.20112824276E+02  0.14002502030E+01  0.20559959774E+02  0.00000000000E+00 0.  1.
         11    1    4    4    0    0  0.50184207120E+02 -0.55395759783E+02  0.14473562697E+03  0.16289734976E+03  0.00000000000E+00 0. -1.
</event>
<event>
 8    1  0.3708258E-009  0.1154750E+03  0.7561462E-02  0.1250754E+00
          1   -1    0    0  501    0  0.00000000000E+00  0.00000000000E+00  0.69624982847E+03  0.69624982847E+03  0.00000000000E+00 0. -1.
         -1   -1    0    0    0  501 -0.00000000000E+00 -0.00000000000E+00 -0.34615685090E+02  0.34615685090E+02  0.00000000000E+00 0.  1.
         25    2    1    2    0    0  0.35694904470E+02 -0.82364287078E+02  0.50193057479E+03  0.52501353908E+03  0.12508761856E+03 0.  0.
         23    2    1    2    0    0 -0.35694904470E+02  0.82364287078E+02  0.15970356859E+03  0.20585197448E+03  0.93871207439E+02 0.  0.
          5    1    3    3  502    0 -0.55065255761E+01 -0.82468450818E+02  0.15581207029E+03  0.17642630431E+03  0.41800000000E+01 0.  1.
         -5    1    3    3    0  502  0.41201430046E+02  0.10416373991E+00  0.34611850449E+03  0.34858723476E+03  0.41800000000E+01 0.  1.
        -11    1    4    4    0    0  0.16681039476E+01  0.65947701197E+02  0.15005587576E+03  0.16391658767E+03  0.00000000000E+00 0. -1.
         11    1    4    4    0    0 -0.37363008418E+02  0.16416585881E+02  0.96476928341E+01  0.41935386812E+02  0.00000000000E+00 0.  1.
</event>
<event>
 8    1  0.3708258E-009  0.9755347E+02  0.7561462E-02  0.1285526E+00
         -2   -1    0    0    0  501 -0.00000000000E+00  0.00000000000E+00  0.51527661464E+02  0.51527661464E+02  0.00000000000E+00 0.  1.
          2   -1    0    0  501    0  0.00000000000E+00 -0.00000000000E+00 -0.33163124242E+03  0.33163124242E+03  0.00000000000E+00 0. -1.
         25    2    1    2    0    0  0.64331310920E+02 -0.51314479153E+01 -0.20878770837E+03  0.25180215201E+03  0.12508863764E+03 0.  0.
         23    2    1    2    0    0 -0.64331310920E+02  0.51314479153E+01 -0.71315872583E+02  0.13135675188E+03  0.89463921547E+02 0.  0.
          5    1    3    3  502    0  0.10026678393E+02 -0.53043020525E+02 -0.14651564451E+03  0.15619988090E+03  0.41800000000E+01 0.  1.
         -5    1    3    3    0  502  0.54304632527E+02  0.47911572610E+02 -0.62272063861E+02  0.95602271109E+02  0.41800000000E+01 0.  1.
        -11    1    4    4    0    0 -0.57785831223E+02 -0.31451998192E+01 -0.91682179038E+02  0.10841917047E+03  0.00000000000E+00 0. -1.
         11    1    4    4    0    0 -0.65454796967E+01  0.82766477344E+01  0.20366306455E+02  0.22937581407E+02  0.00000000000E+00 0.  1.
</event>
<event>
 8    1  0.3708258E-009  0.1920727E+03  0.7561462E-02  0.1156605E+00
         -2   -1    0    0    0  501 -0.00000000000E+00  0.00000000000E+00  0.18182432332E+03  0.18182432332E+03  0.00000000000E+00 0.  1.
          2   -1    0    0  501    0  0.00000000000E+00 -0.00000000000E+00 -0.24938851047E+03  0.24938851047E+03  0.00000000000E+00 0. -1.
         25    2    1    2    0    0 -0.13960159002E+03 -0.10969042392E+03 -0.83148500674E+02  0.23255297933E+03  0.12508645808E+03 0.  0.
         23    2    1    2    0    0  0.13960159002E+03  0.10969042392E+03  0.15584313522E+02  0.19865985446E+03  0.87762599729E+02 0.  0.
          5    1    3    3  502    0 -0.30616600060E+02 -0.65936197845E+02  0.20726641851E+02  0.75710134513E+02  0.41800000000E+01 0. -1.
         -5    1    3    3    0  502 -0.10898498996E+03 -0.43754226078E+02 -0.10387514252E+03  0.15684284482E+03  0.41800000000E+01 0. -1.
        -11    1    4    4    0    0  0.12960899623E+03  0.59457814263E+02  0.29436106184E+02  0.14560291181E+03  0.00000000000E+00 0.  1.
         11    1    4    4    0    0  0.99925937923E+01  0.50232609661E+02 -0.13851792662E+02  0.53056942656E+02  0.00000000000E+00 0. -1.
</event>
<event>
 8    1  0.3708258E-009  0.7361335E+02  0.7561462E-02  0.1348220E+00
         -2   -1    0    0    0  501 -0.00000000000E+00  0.00000000000E+00  0.21328204045E+02  0.21328204045E+02  0.00000000000E+00 0.  1.
          2   -1    0    0  501    0  0.00000000000E+00 -0.00000000000E+00 -0.66042320098E+03  0.66042320098E+03  0.00000000000E+00 0. -1.
         25    2    1    2    0    0 -0.36044359042E+02  0.31690829663E+02 -0.39576486553E+03  0.41782400618E+03  0.12507424532E+03 0.  0.
         23    2    1    2    0    0  0.36044359042E+02 -0.31690829663E+02 -0.24333013140E+03  0.26392739885E+03  0.90247518038E+02 0.  0.
          5    1    3    3  502    0 -0.22038278105E+02  0.47097546584E+02 -0.52875316888E+02  0.74277426800E+02  0.41800000000E+01 0.  1.
         -5    1    3    3    0  502 -0.14006080938E+02 -0.15406716921E+02 -0.34288954865E+03  0.34354657937E+03  0.41800000000E+01 0.  1.
        -11    1    4    4    0    0  0.25569275472E+02  0.12462260382E+02 -0.17095617521E+02  0.33186682878E+02  0.00000000000E+00 0.  1.
         11    1    4    4    0    0  0.10475083570E+02 -0.44153090046E+02 -0.22623451388E+03  0.23074071597E+03  0.00000000000E+00 0. -1.
</event>
<event>
 8    1  0.3708258E-009  0.1043091E+03  0.7561462E-02  0.1271487E+00
          2   -1    0    0  501    0  0.00000000000E+00  0.00000000000E+00  0.21052132858E+03  0.21052132858E+03  0.00000000000E+00 0. -1.
         -2   -1    0    0    0  501 -0.00000000000E+00 -0.00000000000E+00 -0.11618531457E+03  0.11618531457E+03  0.00000000000E+00 0.  1.
         25    2    1    2    0    0  0.20456485382E+02  0.59884142713E+02  0.14802580238E+03  0.20387331939E+03  0.12509242123E+03 0.  0.
         23    2    1    2    0    0 -0.20456485382E+02 -0.59884142713E+02 -0.53689788367E+02  0.12283332377E+03  0.90558565081E+02 0.  0.
          5    1    3    3  502    0  0.18171647286E+02 -0.37003810352E+02  0.30312889308E+02  0.51340377909E+02  0.41800000000E+01 0.  1.
         -5    1    3    3    0  502  0.22848380953E+01  0.96887953065E+02  0.11771291307E+03  0.15253294148E+03  0.41800000000E+01 0.  1.
        -11    1    4    4    0    0  0.26467834734E+01 -0.38827489675E+02 -0.75347332722E+02  0.84804480811E+02  0.00000000000E+00 0.  1.
         11    1    4    4    0    0 -0.23103268855E+02 -0.21056653038E+02  0.21657544355E+02  0.38028842954E+02  0.00000000000E+00 0. -1.
</event>
<event>
 8    1  0.3708258E-009  0.2556703E+03  0.7561462E-02  0.1109773E+00
         -1   -1    0    0    0  501 -0.00000000000E+00  0.00000000000E+00  0.21903793812E+03  0.21903793812E+03  0.00000000000E+00 0.  1.
          1   -1    0    0  501    0  0.00000000000E+00 -0.00000000000E+00 -0.43533407287E+03  0.43533407287E+03  0.00000000000E+00 0. -1.
         25    2    1    2    0    0  0.21136984701E+03  0.11365804254E+03 -0.28042949879E+03  0.38972283170E+03  0.12509124228E+03 0.  0.
         23    2    1    2    0    0 -0.21136984701E+03 -0.11365804254E+03  0.64133364035E+02  0.26464917929E+03  0.91272870338E+02 0.  0.
          5    1    3    3  502    0  0.26456914996E+02 -0.13689896270E+02 -0.91301913055E+02  0.96129565372E+02  0.41800000000E+01 0. -1.
         -5    1    3    3    0  502  0.18491293201E+03  0.12734793881E+03 -0.18912758574E+03  0.29359326632E+03  0.41800000000E+01 0. -1.
        -11    1    4    4    0    0 -0.16033265444E+03 -0.12631801826E+03  0.48636019733E+02  0.20982913104E+03  0.00000000000E+00 0.  1.
         11    1    4    4    0    0 -0.51037192567E+02  0.12659975717E+02  0.15497344302E+02  0.54820048255E+02  0.00000000000E+00 0. -1.
</event>
<event>
 8    1  0.3708258E-009  0.9562159E+02  0.7561462E-02  0.1289782E+00
         -1   -1    0    0    0  501 -0.00000000000E+00  0.00000000000E+00  0.30914850023E+02  0.30914850023E+02  0.00000000000E+00 0.  1.
          1   -1    0    0  501    0  0.00000000000E+00 -0.00000000000E+00 -0.41815841905E+03  0.41815841905E+03  0.00000000000E+00 0. -1.
         25    2    1    2    0    0  0.12441907191E+02 -0.32156750528E+02 -0.22939296552E+03  0.26354828856E+03  0.12509080747E+03 0.  0.
         23    2    1    2    0    0 -0.12441907191E+02  0.32156750528E+02 -0.15785060351E+03  0.18552498052E+03  0.91180303288E+02 0.  0.
          5    1    3    3  502    0 -0.41978585661E+02 -0.54719463949E+02 -0.10287471573E+03  0.12392377062E+03  0.41800000000E+01 0.  1.
         -5    1    3    3    0  502  0.54420492852E+02  0.22562713421E+02 -0.12651824979E+03  0.13962451794E+03  0.41800000000E+01 0.  1.
        -11    1    4    4    0    0  0.20790193640E+02  0.94276718056E+01 -0.21486352584E+00  0.22828913982E+02  0.00000000000E+00 0.  1.
         11    1    4    4    0    0 -0.33232100831E+02  0.22729078722E+02 -0.15763573998E+03  0.16269606653E+03  0.00000000000E+00 0. -1.
</event>
<event>
 8    1  0.3708258E-009  0.9504082E+02  0.7561462E-02  0.1291084E+00
         -4   -1    0    0    0  501 -0.00000000000E+00  0.00000000000E+00  0.20287954709E+02  0.20287954709E+02  0.00000000000E+00 0. -1.
          4   -1    0    0  501    0  0.00000000000E+00 -0.00000000000E+00 -0.89361077456E+03  0.89361077456E+03  0.00000000000E+00 0.  1.
         25    2    1    2    0    0  0.66429003439E+02 -0.72219212959E+01 -0.33796951423E+03  0.36651811637E+03  0.12508864232E+03 0.  0.
         23    2    1    2    0    0 -0.66429003439E+02  0.72219212959E+01 -0.53535330562E+03  0.54738061290E+03  0.92506242428E+02 0.  0.
          5    1    3    3  502    0  0.19422142312E+02 -0.19756880290E+02 -0.30790255627E+03  0.30917472485E+03  0.41800000000E+01 0. -1.
         -5    1    3    3    0  502  0.47006861128E+02  0.12534958994E+02 -0.30066957958E+02  0.57343391519E+02  0.41800000000E+01 0. -1.
        -11    1    4    4    0    0 -0.23847236250E+02 -0.41908997580E+02 -0.26215396303E+03  0.26655159929E+03  0.00000000000E+00 0.  1.
         11    1    4    4    0    0 -0.42581767189E+02  0.49130918876E+02 -0.27319934260E+03  0.28082901360E+03  0.00000000000E+00 0. -1.
</event>
<event>
 8    1  0.3708258E-009  0.1613340E+03  0.7561462E-02  0.1187199E+00
         -2   -1    0    0    0  501 -0.00000000000E+00  0.00000000000E+00  0.56912739377E+02  0.56912739377E+02  0.00000000000E+00 0. -1.
          2   -1    0    0  501    0  0.00000000000E+00 -0.00000000000E+00 -0.59476481094E+03  0.59476481094E+03  0.00000000000E+00 0.  1.
         25    2    1    2    0    0 -0.14123088949E+03  0.14337176179E+02 -0.32199978624E+03  0.37347430762E+03  0.12508987705E+03 0.  0.
         23    2    1    2    0    0  0.14123088949E+03 -0.14337176179E+02 -0.21585228532E+03  0.27820324270E+03  0.10321393512E+03 0.  0.
          5    1    3    3  502    0 -0.64306076136E+02 -0.43232956171E+02 -0.21999836989E+03  0.23328333648E+03  0.41800000000E+01 0.  1.
         -5    1    3    3    0  502 -0.76924813359E+02  0.57570132350E+02 -0.10200141635E+03  0.14019097113E+03  0.41800000000E+01 0.  1.
        -11    1    4    4    0    0  0.77036646059E+02  0.14720049861E+02 -0.18565345350E+03  0.20154039173E+03  0.00000000000E+00 0.  1.
         11    1    4    4    0    0  0.64194243435E+02 -0.29057226040E+02 -0.30198831825E+02  0.76662850970E+02  0.00000000000E+00 0. -1.
</event>
<event>
 8    1  0.3708258E-009  0.9468473E+02  0.7561462E-02  0.1291888E+00
          2   -1    0    0  501    0  0.00000000000E+00  0.00000000000E+00  0.40723827137E+03  0.40723827137E+03  0.00000000000E+00 0. -1.
         -2   -1    0    0    0  501 -0.00000000000E+00 -0.00000000000E+00 -0.30665583000E+02  0.30665583000E+02  0.00000000000E+00 0.  1.
         25    2    1    2    0    0 -0.26639937717E+02 -0.14312595371E+01  0.18378437023E+03  0.22390647016E+03  0.12508268407E+03 0.  0.
         23    2    1    2    0    0  0.26639937717E+02  0.14312595371E+01  0.19278831814E+03  0.21399738421E+03  0.88970838207E+02 0.  0.
          5    1    3    3  502    0 -0.29209849724E+02 -0.55940836360E+02  0.14067095983E+03  0.15423483339E+03  0.41800000000E+01 0.  1.
         -5    1    3    3    0  502  0.25699120068E+01  0.54509576823E+02  0.43113410403E+02  0.69671636766E+02  0.41800000000E+01 0.  1.
        -11    1    4    4    0    0 -0.15562449218E+02 -0.18954961768E+02  0.12134492259E+02  0.27362863587E+02  0.00000000000E+00 0.  1.
         11    1    4    4    0    0  0.42202386934E+02  0.20386221306E+02  0.18065382588E+03  0.18663452062E+03  0.00000000000E+00 0. -1.
</event>
<event>
 8    1  0.3708258E-009  0.9955069E+02  0.7561462E-02  0.1281244E+00
         -1   -1    0    0    0  501 -0.00000000000E+00  0.00000000000E+00  0.47477170593E+02  0.47477170593E+02  0.00000000000E+00 0.  1.
          1   -1    0    0  501    0  0.00000000000E+00 -0.00000000000E+00 -0.34313126040E+03  0.34313126040E+03  0.00000000000E+00 0. -1.
         25    2    1    2    0    0 -0.47052890347E+02  0.47439847484E+02 -0.14459752565E+03  0.20252829210E+03  0.12507897928E+03 0.  0.
         23    2    1    2    0    0  0.47052890347E+02 -0.47439847484E+02 -0.15105656416E+03  0.18808013889E+03  0.89952984669E+02 0.  0.
          5    1    3    3  502    0 -0.62266948171E+02  0.33028891266E+02 -0.16086058981E+03  0.17567493346E+03  0.41800000000E+01 0.  1.
         -5    1    3    3    0  502  0.15214057825E+02  0.14410956218E+02  0.16263064158E+02  0.26853358643E+02  0.41800000000E+01 0.  1.
        -11    1    4    4    0    0 -0.22841881229E+02 -0.24654355610E+02 -0.24036680966E+02  0.41320101893E+02  0.00000000000E+00 0.  1.
         11    1    4    4    0    0  0.69894771575E+02 -0.22785491874E+02 -0.12701988319E+03  0.14676003700E+03  0.00000000000E+00 0. -1.
</event>
<event>
 8    1  0.3708258E-009  0.9348525E+02  0.7561462E-02  0.1294625E+00
          1   -1    0    0  501    0  0.00000000000E+00  0.00000000000E+00  0.67334944155E+03  0.67334944155E+03  0.00000000000E+00 0. -1.
         -1   -1    0    0    0  501 -0.00000000000E+00 -0.00000000000E+00 -0.18068572380E+02  0.18068572380E+02  0.00000000000E+00 0.  1.
         25    2    1    2    0    0  0.19248693942E+00 -0.39045456588E+01  0.42077582513E+03  0.43899320570E+03  0.12508979619E+03 0.  0.
         23    2    1    2    0    0 -0.19248693942E+00  0.39045456588E+01  0.23450504404E+03  0.25242480823E+03  0.93329446588E+02 0.  0.
          5    1    3    3  502    0 -0.52548697739E+01 -0.54141512902E+02  0.33451068632E+03  0.33893035972E+03  0.41800000000E+01 0. -1.
         -5    1    3    3    0  502  0.54473567133E+01  0.50236967243E+02  0.86265138812E+02  0.10006284599E+03  0.41800000000E+01 0. -1.
        -11    1    4    4    0    0 -0.40376983101E+02  0.85055701049E+01  0.56988294142E+02  0.70358447654E+02  0.00000000000E+00 0.  1.
         11    1    4    4    0    0  0.40184496162E+02 -0.46010244461E+01  0.17751674990E+03  0.18206636057E+03  0.00000000000E+00 0. -1.
</event>
<event>
 8    1  0.3708258E-009  0.1203715E+03  0.7561462E-02  0.1242486E+00
          1   -1    0    0  501    0  0.00000000000E+00  0.00000000000E+00  0.10038340702E+04  0.10038340702E+04  0.00000000000E+00 0. -1.
         -1   -1    0    0    0  501 -0.00000000000E+00 -0.00000000000E+00 -0.17344595767E+02  0.17344595767E+02  0.00000000000E+00 0.  1.
         25    2    1    2    0    0  0.48674179332E+02  0.54245750372E+02  0.61178775160E+03  0.62868464140E+03  0.12509335776E+03 0.  0.
         23    2    1    2    0    0 -0.48674179332E+02 -0.54245750372E+02  0.37470172281E+03  0.39249402454E+03  0.91314845776E+02 0.  0.
          5    1    3    3  502    0 -0.29585689518E+02  0.29144766841E+02  0.76845404877E+02  0.87449523207E+02  0.41800000000E+01 0.  1.
         -5    1    3    3    0  502  0.78259868850E+02  0.25100983532E+02  0.53494234672E+03  0.54123511819E+03  0.41800000000E+01 0.  1.
        -11    1    4    4    0    0 -0.56706402946E+02  0.49963312134E+01  0.19180080323E+03  0.20007030659E+03  0.00000000000E+00 0.  1.
         11    1    4    4    0    0  0.80322236143E+01 -0.59242081586E+02  0.18290091958E+03  0.19242371795E+03  0.00000000000E+00 0. -1.
</event>
<event>
 8    1  0.3708258E-009  0.1282941E+03  0.7561462E-02  0.1230009E+00
          1   -1    0    0  501    0  0.00000000000E+00  0.00000000000E+00  0.44115386349E+03  0.44115386349E+03  0.00000000000E+00 0. -1.
         -1   -1    0    0    0  501 -0.00000000000E+00 -0.00000000000E+00 -0.48893142120E+02  0.48893142120E+02  0.00000000000E+00 0.  1.
         25    2    1    2    0    0  0.81558505411E+02 -0.36112061425E+02  0.14330087961E+03  0.21008945565E+03  0.12508623623E+03 0.  0.
         23    2    1    2    0    0 -0.81558505411E+02  0.36112061425E+02  0.24895984176E+03  0.27995754995E+03  0.91865968579E+02 0.  0.
          5    1    3    3  502    0  0.70481074599E+02  0.31012427607E+02  0.41489468958E+02  0.87568264669E+02  0.41800000000E+01 0. -1.
         -5    1    3    3    0  502  0.11077430812E+02 -0.67124489032E+02  0.10181141065E+03  0.12252119098E+03  0.41800000000E+01 0. -1.
        -11    1    4    4    0    0 -0.27924724188E+02 -0.19493368292E+02  0.15309588426E+03  0.15683791443E+03  0.00000000000E+00 0. -1.
         11    1    4    4    0    0 -0.53633781223E+02  0.55605429717E+02  0.95863957501E+02  0.12311963552E+03  0.00000000000E+00 0.  1.
</event>
<event>
 8    1  0.3708258E-009  0.3252886E+03  0.7561462E-02  0.1073241E+00
          2   -1    0    0  501    0  0.00000000000E+00  0.00000000000E+00  0.26900211992E+04  0.26900211992E+04  0.00000000000E+00 0. -1.
         -2   -1    0    0    0  501 -0.00000000000E+00 -0.00000000000E+00 -0.42041951992E+02  0.42041951992E+02  0.00000000000E+00 0.  1.
         25    2    1    2    0    0 -0.22126225091E+03 -0.22739155272E+03  0.12831600614E+04  0.13277090176E+04  0.12509032927E+03 0.  0.
         23    2    1    2    0    0  0.22126225091E+03  0.22739155272E+03  0.13648191859E+04  0.14043541336E+04  0.93889405660E+02 0.  0.
          5    1    3    3  502    0 -0.13650462080E+03 -0.10768132003E+03  0.91504500148E+03  0.93142557691E+03  0.41800000000E+01 0. -1.
         -5    1    3    3    0  502 -0.84757630107E+02 -0.11971023270E+03  0.36811505987E+03  0.39628344071E+03  0.41800000000E+01 0. -1.
        -11    1    4    4    0    0  0.21450461110E+03  0.17426397188E+03  0.11012971510E+04  0.11354450999E+04  0.00000000000E+00 0. -1.
         11    1    4    4    0    0  0.67576398140E+01  0.53127580839E+02  0.26352203492E+03  0.26890903375E+03  0.00000000000E+00 0.  1.
</event>
<event>
 8    1  0.3708258E-009  0.1423961E+03  0.7561462E-02  0.1210141E+00
         -2   -1    0    0    0  501 -0.00000000000E+00  0.00000000000E+00  0.60182648665E+03  0.60182648665E+03  0.00000000000E+00 0.  1.
          2   -1    0    0  501    0  0.00000000000E+00 -0.00000000000E+00 -0.37251103456E+02  0.37251103456E+02  0.00000000000E+00 0. -1.
         25    2    1    2    0    0  0.56452052599E+02 -0.80602678954E+02  0.37533557966E+03  0.40768592520E+03  0.12508952854E+03 0.  0.
         23    2    1    2    0    0 -0.56452052599E+02  0.80602678954E+02  0.18923980354E+03  0.23139166491E+03  0.89703808439E+02 0.  0.
          5    1    3    3  502    0  0.25244357931E+02 -0.10845285995E+03  0.31518315990E+03  0.33430105761E+03  0.41800000000E+01 0. -1.
         -5    1    3    3    0  502  0.31207694669E+02  0.27850180992E+02  0.60152419765E+02  0.73384867591E+02  0.41800000000E+01 0. -1.
        -11    1    4    4    0    0  0.15282523222E+02  0.51829359063E+02  0.97143748383E+02  0.11116090062E+03  0.00000000000E+00 0. -1.
         11    1    4    4    0    0 -0.71734575822E+02  0.28773319891E+02  0.92096055154E+02  0.12023076429E+03  0.00000000000E+00 0.  1.
</event>
<event>
 8    1  0.3708258E-009  0.1248565E+03  0.7561462E-02  0.1235294E+00
          2   -1    0    0  501    0  0.00000000000E+00  0.00000000000E+00  0.48760309892E+03  0.48760309892E+03  0.00000000000E+00 0. -1.
         -2   -1    0    0    0  501 -0.00000000000E+00 -0.00000000000E+00 -0.38936138016E+02  0.38936138016E+02  0.00000000000E+00 0.  1.
         25    2    1    2    0    0  0.53886799089E+02  0.64522602631E+02  0.20173943660E+03  0.25181984114E+03  0.12508988267E+03 0.  0.
         23    2    1    2    0    0 -0.53886799089E+02 -0.64522602631E+02  0.24692752431E+03  0.27471939579E+03  0.86200874700E+02 0.  0.
          5    1    3    3  502    0  0.17051719503E+02  0.92765069811E+02  0.17294789602E+03  0.19703950480E+03  0.41800000000E+01 0. -1.
         -5    1    3    3    0  502  0.36835079586E+02 -0.28242467180E+02  0.28791540577E+02  0.54780336338E+02  0.41800000000E+01 0. -1.
        -11    1    4    4    0    0  0.25808926243E+01 -0.50432111941E+02  0.17529910505E+03  0.18242761620E+03  0.00000000000E+00 0. -1.
         11    1    4    4    0    0 -0.56467691714E+02 -0.14090490690E+02  0.71628419259E+02  0.92291779595E+02  0.00000000000E+00 0.  1.
</event>
<event>
 8    1  0.3708258E-009  0.9283409E+02  0.7561462E-02  0.1296130E+00
         -2   -1    0    0    0  501 -0.00000000000E+00  0.00000000000E+00  0.74133156606E+03  0.74133156606E+03  0.00000000000E+00 0.  1.
          2   -1    0    0  501    0  0.00000000000E+00 -0.00000000000E+00 -0.28797400116E+02  0.28797400116E+02  0.00000000000E+00 0. -1.
         25    2    1    2    0    0  0.59585364697E+02 -0.68694958323E+02  0.48237070214E+03  0.50655513707E+03  0.12508876696E+03 0.  0.
         23    2    1    2    0    0 -0.59585364697E+02  0.68694958323E+02  0.23016346380E+03  0.26357382911E+03  0.90700222361E+02 0.  0.
          5    1    3    3  502    0  0.28041228466E+02 -0.14868294742E+02  0.40858963755E+03  0.40984184876E+03  0.41800000000E+01 0.  1.
         -5    1    3    3    0  502  0.31544136231E+02 -0.53826663580E+02  0.73781064592E+02  0.96713288307E+02  0.41800000000E+01 0.  1.
        -11    1    4    4    0    0 -0.29710311817E+02  0.38730183620E+02  0.21196523216E+03  0.21751319361E+03  0.00000000000E+00 0.  1.
         11    1    4    4    0    0 -0.29875052880E+02  0.29964774703E+02  0.18198231649E+02  0.46060635501E+02  0.00000000000E+00 0. -1.
</event>
<event>
 8    1  0.3708258E-009  0.1364579E+03  0.7561462E-02  0.1218176E+00
          1   -1    0    0  501    0  0.00000000000E+00  0.00000000000E+00  0.15356660020E+03  0.15356660020E+03  0.00000000000E+00 0. -1.
         -1   -1    0    0    0  501 -0.00000000000E+00 -0.00000000000E+00 -0.14275770322E+03  0.14275770322E+03  0.00000000000E+00 0.  1.
         25    2    1    2    0    0 -0.81909343614E+02 -0.51064840152E+02  0.33868420262E+02  0.16159463479E+03  0.12509595370E+03 0.  0.
         23    2    1    2    0    0  0.81909343614E+02  0.51064840152E+02 -0.23059523281E+02  0.13472966862E+03  0.91124000799E+02 0.  0.
          5    1    3    3  502    0  0.99988111010E+01 -0.64052494236E+02  0.17133302243E+02  0.67184229452E+02  0.41800000000E+01 0. -1.
         -5    1    3    3    0  502 -0.91908154715E+02  0.12987654085E+02  0.16735118020E+02  0.94410405342E+02  0.41800000000E+01 0. -1.
        -11    1    4    4    0    0  0.20825739700E+02 -0.14539307539E+02 -0.36107907162E+02  0.44146164696E+02  0.00000000000E+00 0.  1.
         11    1    4    4    0    0  0.61083603914E+02  0.65604147691E+02  0.13048383881E+02  0.90583503924E+02  0.00000000000E+00 0. -1.
</event>
<event>
 8    1  0.3708258E-009  0.2715969E+03  0.7561462E-02  0.1100369E+00
         -1   -1    0    0    0  501 -0.00000000000E+00  0.00000000000E+00  0.23466189152E+03  0.23466189152E+03  0.00000000000E+00 0.  1.
          1   -1    0    0  501    0  0.00000000000E+00 -0.00000000000E+00 -0.41990693946E+03  0.41990693946E+03  0.00000000000E+00 0. -1.
         25    2    1    2    0    0 -0.17880740834E+03 -0.19324372220E+03 -0.23084917108E+03  0.37182674658E+03  0.12509422146E+03 0.  0.
         23    2    1    2    0    0  0.17880740834E+03  0.19324372220E+03  0.45604123152E+02  0.28274208439E+03  0.92456069541E+02 0.  0.
          5    1    3    3  502    0 -0.10975638115E+03 -0.14183150413E+03 -0.76449288831E+02  0.19499898699E+03  0.41800000000E+01 0. -1.
         -5    1    3    3    0  502 -0.69051027188E+02 -0.51412218070E+02 -0.15439988225E+03  0.17682775959E+03  0.41800000000E+01 0. -1.
        -11    1    4    4    0    0  0.16951040384E+03  0.12981228966E+03  0.46997256205E+02  0.21861781640E+03  0.00000000000E+00 0. -1.
         11    1    4    4    0    0  0.92970044946E+01  0.63431432531E+02 -0.13931330529E+01  0.64124267990E+02  0.00000000000E+00 0.  1.
</event>
<event>
 8    1  0.3708258E-009  0.1301335E+03  0.7561462E-02  0.1227258E+00
         -2   -1    0    0    0  501 -0.00000000000E+00  0.00000000000E+00  0.85816958220E+02  0.85816958220E+02  0.00000000000E+00 0.  1.
          2   -1    0    0  501    0  0.00000000000E+00 -0.00000000000E+00 -0.23418284157E+03  0.23418284157E+03  0.00000000000E+00 0. -1.
         25    2    1    2    0    0 -0.10904699213E+01  0.90803319692E+02 -0.96504889078E+02  0.18222771166E+03  0.12508922131E+03 0.  0.
         23    2    1    2    0    0  0.10904699213E+01 -0.90803319692E+02 -0.51860994270E+02  0.13777208813E+03  0.89694779944E+02 0.  0.
          5    1    3    3  502    0 -0.50756838905E+02  0.47609719100E+02 -0.92934106874E+02  0.11617728982E+03  0.41800000000E+01 0.  1.
         -5    1    3    3    0  502  0.49666368983E+02  0.43193600592E+02 -0.35707822041E+01  0.66050421843E+02  0.41800000000E+01 0.  1.
        -11    1    4    4    0    0 -0.40595001334E+02 -0.28370027191E+02 -0.35511898708E+02  0.60941837238E+02  0.00000000000E+00 0. -1.
         11    1    4    4    0    0  0.41685471255E+02 -0.62433292501E+02 -0.16349095562E+02  0.76830250891E+02  0.00000000000E+00 0.  1.
</event>
<event>
 8    1  0.3708258E-009  0.1695888E+03  0.7561462E-02  0.1178277E+00
          2   -1    0    0  501    0  0.00000000000E+00  0.00000000000E+00  0.16062416592E+03  0.16062416592E+03  0.00000000000E+00 0. -1.
         -2   -1    0    0    0  501 -0.00000000000E+00 -0.00000000000E+00 -0.20182750229E+03  0.20182750229E+03  0.00000000000E+00 0.  1.
         25    2    1    2    0    0 -0.25149241100E+02  0.14062237130E+03 -0.32781381846E+02  0.19268999425E+03  0.12509068410E+03 0.  0.
         23    2    1    2    0    0  0.25149241100E+02 -0.14062237130E+03 -0.84219545220E+01  0.16976167396E+03  0.91328861747E+02 0.  0.
          5    1    3    3  502    0  0.47431503074E+02  0.78101097563E+02 -0.31662675036E+02  0.96796313539E+02  0.41800000000E+01 0.  1.
         -5    1    3    3    0  502 -0.72580744173E+02  0.62521273739E+02 -0.11187068100E+01  0.95893680707E+02  0.41800000000E+01 0.  1.
        -11    1    4    4    0    0 -0.73534506010E+00 -0.11629355773E+03 -0.39235767770E+02  0.12273621216E+03  0.00000000000E+00 0.  1.
         11    1    4    4    0    0  0.25884586160E+02 -0.24328813568E+02  0.30813813248E+02  0.47025461797E+02  0.00000000000E+00 0. -1.
</event>
<event>
 8    1  0.3708258E-009  0.1108543E+03  0.7561462E-02  0.1258996E+00
          2   -1    0    0  501    0  0.00000000000E+00  0.00000000000E+00  0.34570268439E+03  0.34570268439E+03  0.00000000000E+00 0. -1.
         -2   -1    0    0    0  501 -0.00000000000E+00 -0.00000000000E+00 -0.36969974965E+02  0.36969974965E+02  0.00000000000E+00 0.  1.
         25    2    1    2    0    0 -0.11540065354E+01 -0.48922485689E+01  0.13646111322E+03  0.18518222431E+03  0.12508219279E+03 0.  0.
         23    2    1    2    0    0  0.11540065354E+01  0.48922485689E+01  0.17227159620E+03  0.19749043504E+03  0.96434969006E+02 0.  0.
          5    1    3    3  502    0  0.54610420844E+02 -0.31557941988E+02  0.70510954564E+02  0.94696720538E+02  0.41800000000E+01 0. -1.
         -5    1    3    3    0  502 -0.55764427379E+02  0.26665693419E+02  0.65950158657E+02  0.90485503775E+02  0.41800000000E+01 0. -1.
        -11    1    4    4    0    0 -0.43407475915E+02  0.22180939534E+02  0.89080664129E+02  0.10154588995E+03  0.00000000000E+00 0.  1.
         11    1    4    4    0    0  0.44561482451E+02 -0.17288690965E+02  0.83190932072E+02  0.95944545090E+02  0.00000000000E+00 0. -1.
</event>
<event>
 8    1  0.3708258E-009  0.7693123E+02  0.7561462E-02  0.1337993E+00
         -3   -1    0    0    0  501 -0.00000000000E+00  0.00000000000E+00  0.23941239552E+03  0.23941239552E+03  0.00000000000E+00 0.  1.
          3   -1    0    0  501    0  0.00000000000E+00 -0.00000000000E+00 -0.72433761952E+02  0.72433761952E+02  0.00000000000E+00 0. -1.
         25    2    1    2    0    0  0.20261967087E+02  0.13671612958E+02  0.17519748115E+03  0.21665537165E+03  0.12509169577E+03 0.  0.
         23    2    1    2    0    0 -0.20261967087E+02 -0.13671612958E+02 -0.82188475826E+01  0.95190785827E+02  0.91631195232E+02 0.  0.
          5    1    3    3  502    0  0.35694406692E+02 -0.43129478106E+02  0.13225045102E+03  0.14367288104E+03  0.41800000000E+01 0.  1.
         -5    1    3    3    0  502 -0.15432439606E+02  0.56801091064E+02  0.42947030131E+02  0.72982490607E+02  0.41800000000E+01 0.  1.
        -11    1    4    4    0    0 -0.15730280496E+02  0.72403026846E+01  0.39371525794E+02  0.43011402568E+02  0.00000000000E+00 0.  1.
         11    1    4    4    0    0 -0.45316865901E+01 -0.20911915642E+02 -0.47590373377E+02  0.52179383259E+02  0.00000000000E+00 0. -1.
</event>
<event>
 8    1  0.3708258E-009  0.1050597E+03  0.7561462E-02  0.1270002E+00
         -2   -1    0    0    0  501 -0.00000000000E+00  0.00000000000E+00  0.20235516533E+02  0.20235516533E+02  0.00000000000E+00 0.  1.
          2   -1    0    0  501    0  0.00000000000E+00 -0.00000000000E+00 -0.10664588821E+04  0.10664588821E+04  0.00000000000E+00 0. -1.
         25    2    1    2    0    0 -0.70847062919E+02  0.49827235588E+02 -0.74456848798E+03  0.75995547893E+03  0.12509211380E+03 0.  0.
         23    2    1    2    0    0  0.70847062919E+02 -0.49827235588E+02 -0.30165487758E+03  0.32673891970E+03  0.90887825065E+02 0.  0.
          5    1    3    3  502    0 -0.54022209016E+02  0.60323347121E+02 -0.21163211019E+03  0.22663390686E+03  0.41800000000E+01 0. -1.
         -5    1    3    3    0  502 -0.16824853904E+02 -0.10496111533E+02 -0.53293637779E+03  0.53332157207E+03  0.41800000000E+01 0. -1.
        -11    1    4    4    0    0 -0.94424265708E+00 -0.35560637017E+02 -0.18951819013E+03  0.19282788929E+03  0.00000000000E+00 0.  1.
         11    1    4    4    0    0  0.71791305577E+02 -0.14266598571E+02 -0.11213668746E+03  0.13391103041E+03  0.00000000000E+00 0. -1.
</event>
<event>
 8    1  0.3708258E-009  0.1456239E+03  0.7561462E-02  0.1205956E+00
          1   -1    0    0  501    0  0.00000000000E+00  0.00000000000E+00  0.38318480000E+02  0.38318480000E+02  0.00000000000E+00 0. -1.
         -1   -1    0    0    0  501 -0.00000000000E+00 -0.00000000000E+00 -0.80347783580E+03  0.80347783580E+03  0.00000000000E+00 0.  1.
         25    2    1    2    0    0  0.12542590208E+03  0.23036674832E+02 -0.52666559746E+03  0.55613421978E+03  0.12508506532E+03 0.  0.
         23    2    1    2    0    0 -0.12542590208E+03 -0.23036674832E+02 -0.23849375834E+03  0.28566209601E+03  0.91984863067E+02 0.  0.
          5    1    3    3  502    0  0.12707688833E+03  0.49759985082E+02 -0.32297953442E+03  0.35065345245E+03  0.41800000000E+01 0. -1.
         -5    1    3    3    0  502 -0.16509862506E+01 -0.26723310250E+02 -0.20368606304E+03  0.20548076733E+03  0.41800000000E+01 0. -1.
        -11    1    4    4    0    0 -0.64907980188E+02 -0.14347794640E+02 -0.39135129171E+02  0.77139247068E+02  0.00000000000E+00 0.  1.
         11    1    4    4    0    0 -0.60517921891E+02 -0.86888801916E+01 -0.19935862917E+03  0.20852284895E+03  0.00000000000E+00 0. -1.
</event>
<event>
 8    1  0.3708258E-009  0.1101765E+03  0.7561462E-02  0.1260243E+00
          1   -1    0    0  501    0  0.00000000000E+00  0.00000000000E+00  0.10787772201E+04  0.10787772201E+04  0.00000000000E+00 0. -1.
         -1   -1    0    0    0  501 -0.00000000000E+00 -0.00000000000E+00 -0.12799277769E+02  0.12799277769E+02  0.00000000000E+00 0.  1.
         25    2    1    2    0    0 -0.16518794510E+02  0.36576356898E+02  0.54149928926E+03  0.55720489018E+03  0.12508040977E+03 0.  0.
         23    2    1    2    0    0  0.16518794510E+02 -0.36576356898E+02  0.52447865304E+03  0.53437160767E+03  0.94151246026E+02 0.  0.
          5    1    3    3  502    0 -0.25225665920E+02  0.74558853884E+02  0.46079618954E+03  0.46748899197E+03  0.41800000000E+01 0.  1.
         -5    1    3    3    0  502  0.87068714098E+01 -0.37982496986E+02  0.80703099722E+02  0.89715898211E+02  0.41800000000E+01 0.  1.
        -11    1    4    4    0    0  0.51518012791E+02 -0.42571371011E+02  0.33932106653E+03  0.34583986679E+03  0.00000000000E+00 0.  1.
         11    1    4    4    0    0 -0.34999218281E+02  0.59950141126E+01  0.18515758652E+03  0.18853174088E+03  0.00000000000E+00 0. -1.
</event>
<event>
 8    1  0.3708258E-009  0.7807089E+02  0.7561462E-02  0.1334617E+00
          2   -1    0    0  501    0  0.00000000000E+00  0.00000000000E+00  0.13085221650E+03  0.13085221650E+03  0.00000000000E+00 0. -1.
         -2   -1    0    0    0  501 -0.00000000000E+00 -0.00000000000E+00 -0.88583606723E+02  0.88583606723E+02  0.00000000000E+00 0.  1.
         25    2    1    2    0    0  0.49686834935E+01 -0.91078472328E+01  0.23913338044E+02  0.12777589537E+03  0.12508873252E+03 0.  0.
         23    2    1    2    0    0 -0.49686834935E+01  0.91078472328E+01  0.18355271734E+02  0.91659927857E+02  0.89201937633E+02 0.  0.
          5    1    3    3  502    0  0.22344398223E+02  0.28793277229E+02 -0.38127083463E+02  0.52910035333E+02  0.41800000000E+01 0. -1.
         -5    1    3    3    0  502 -0.17375714729E+02 -0.37901124462E+02  0.62040421507E+02  0.74865860034E+02  0.41800000000E+01 0. -1.
        -11    1    4    4    0    0 -0.21719512086E+02  0.38223354132E+02 -0.12859258198E+02  0.45805267468E+02  0.00000000000E+00 0.  1.
         11    1    4    4    0    0  0.16750828593E+02 -0.29115506900E+02  0.31214529932E+02  0.45854660389E+02  0.00000000000E+00 0. -1.
</event>
<event>
 8    1  0.3708258E-009  0.1009494E+03  0.7561462E-02  0.1278312E+00
          2   -1    0    0  501    0  0.00000000000E+00  0.00000000000E+00  0.59900283691E+02  0.59900283691E+02  0.00000000000E+00 0. -1.
         -2   -1    0    0    0  501 -0.00000000000E+00 -0.00000000000E+00 -0.26856170881E+03  0.26856170881E+03  0.00000000000E+00 0.  1.
         25    2    1    2    0    0  0.41046970552E+02 -0.12378916516E+02 -0.53153265415E+02  0.14251605393E+03  0.12508982627E+03 0.  0.
         23    2    1    2    0    0 -0.41046970552E+02  0.12378916516E+02 -0.15550815970E+03  0.18594593858E+03  0.92493313126E+02 0.  0.
          5    1    3    3  502    0  0.64944361116E+02 -0.46837134868E+02 -0.59571241080E+02  0.99888399763E+02  0.41800000000E+01 0. -1.
         -5    1    3    3    0  502 -0.23897390563E+02  0.34458218352E+02  0.64179756648E+01  0.42627654162E+02  0.41800000000E+01 0. -1.
        -11    1    4    4    0    0 -0.63945521525E+01 -0.26636867937E+02 -0.11936687440E+03  0.12246984827E+03  0.00000000000E+00 0.  1.
         11    1    4    4    0    0 -0.34652418400E+02  0.39015784453E+02 -0.36141285304E+02  0.63476090308E+02  0.00000000000E+00 0. -1.
</event>
<event>
 8    1  0.3708258E-009  0.1105242E+03  0.7561462E-02  0.1259602E+00
          2   -1    0    0  501    0  0.00000000000E+00  0.00000000000E+00  0.94399841573E+02  0.94399841573E+02  0.00000000000E+00 0. -1.
         -2   -1    0    0    0  501 -0.00000000000E+00 -0.00000000000E+00 -0.19055471900E+03  0.19055471900E+03  0.00000000000E+00 0.  1.
         25    2    1    2    0    0  0.24516886001E+02  0.69128795255E+02 -0.78518278683E+02  0.16489993925E+03  0.12508797642E+03 0.  0.
         23    2    1    2    0    0 -0.24516886001E+02 -0.69128795255E+02 -0.17636598740E+02  0.12005462132E+03  0.93392689496E+02 0.  0.
          5    1    3    3  502    0 -0.13350510346E+02 -0.32910109842E+02 -0.24277398931E+02  0.43222401081E+02  0.41800000000E+01 0.  1.
         -5    1    3    3    0  502  0.37867396347E+02  0.10203890510E+03 -0.54240879752E+02  0.12167753817E+03  0.41800000000E+01 0.  1.
        -11    1    4    4    0    0 -0.14256325233E+02 -0.12945877218E+02  0.36559284134E+02  0.41320936612E+02  0.00000000000E+00 0. -1.
         11    1    4    4    0    0 -0.10260560768E+02 -0.56182918037E+02 -0.54195882874E+02  0.78733684703E+02  0.00000000000E+00 0.  1.
</event>
<event>
 8    1  0.3708258E-009  0.8137859E+02  0.7561462E-02  0.1325184E+00
         -1   -1    0    0    0  501 -0.00000000000E+00  0.00000000000E+00  0.30201261423E+03  0.30201261423E+03  0.00000000000E+00 0.  1.
          1   -1    0    0  501    0  0.00000000000E+00 -0.00000000000E+00 -0.42879636608E+02  0.42879636608E+02  0.00000000000E+00 0. -1.
         25    2    1    2    0    0 -0.97079663814E+01 -0.17853584714E+02  0.10188014085E+03  0.16260520646E+03  0.12509154635E+03 0.  0.
         23    2    1    2    0    0  0.97079663814E+01  0.17853584714E+02  0.15725283678E+03  0.18228704438E+03  0.89928398057E+02 0.  0.
          5    1    3    3  502    0  0.26110887427E+02 -0.30971885784E+02  0.11504146963E+03  0.12203707751E+03  0.41800000000E+01 0.  1.
         -5    1    3    3    0  502 -0.35818853808E+02  0.13118301070E+02 -0.13161328785E+02  0.40568128950E+02  0.41800000000E+01 0.  1.
        -11    1    4    4    0    0  0.27165042189E+02 -0.25291219840E+02  0.10943575545E+03  0.11555851283E+03  0.00000000000E+00 0.  1.
         11    1    4    4    0    0 -0.17457075807E+02  0.43144804554E+02  0.47817081331E+02  0.66728531550E+02  0.00000000000E+00 0. -1.
</event>
<event>
 8    1  0.3708258E-009  0.7811767E+02  0.7561462E-02  0.1334480E+00
         -2   -1    0    0    0  501 -0.00000000000E+00  0.00000000000E+00  0.78169461920E+02  0.78169461920E+02  0.00000000000E+00 0.  1.
          2   -1    0    0  501    0  0.00000000000E+00 -0.00000000000E+00 -0.20573693261E+03  0.20573693261E+03  0.00000000000E+00 0. -1.
         25    2    1    2    0    0  0.31627146357E+02 -0.71880231220E+01 -0.52680706370E+01  0.12933724619E+03  0.12509367139E+03 0.  0.
         23    2    1    2    0    0 -0.31627146357E+02  0.71880231220E+01 -0.12229940006E+03  0.15456914834E+03  0.88783637578E+02 0.  0.
          5    1    3    3  502    0  0.45003353096E+02 -0.25812211540E+02 -0.54195867722E+02  0.75141443509E+02  0.41800000000E+01 0.  1.
         -5    1    3    3    0  502 -0.13376206739E+02  0.18624188418E+02  0.48927797085E+02  0.54195802683E+02  0.41800000000E+01 0.  1.
        -11    1    4    4    0    0  0.21278560019E+02  0.16795043107E+02 -0.80169226028E+01  0.28268739580E+02  0.00000000000E+00 0.  1.
         11    1    4    4    0    0 -0.52905706376E+02 -0.96070199854E+01 -0.11428247745E+03  0.12630040876E+03  0.00000000000E+00 0. -1.
</event>
<event>
 8    1  0.3708258E-009  0.1037279E+03  0.7561462E-02  0.1272646E+00
         -2   -1    0    0    0  501 -0.00000000000E+00  0.00000000000E+00  0.14101856633E+03  0.14101856633E+03  0.00000000000E+00 0.  1.
          2   -1    0    0  501    0  0.00000000000E+00 -0.00000000000E+00 -0.15195460303E+03  0.15195460303E+03  0.00000000000E+00 0. -1.
         25    2    1    2    0    0 -0.45814342762E+02 -0.38933536191E+02  0.71103917821E+02  0.15594352071E+03  0.12509132775E+03 0.  0.
         23    2    1    2    0    0  0.45814342762E+02  0.38933536191E+02 -0.82039954519E+02  0.13702964866E+03  0.91824812721E+02 0.  0.
          5    1    3    3  502    0  0.14240088283E+02 -0.69562477633E+02  0.39685870345E+02  0.81450347536E+02  0.41800000000E+01 0. -1.
         -5    1    3    3    0  502 -0.60054431046E+02  0.30628941442E+02  0.31418047476E+02  0.74493173172E+02  0.41800000000E+01 0. -1.
        -11    1    4    4    0    0  0.12934328545E+02 -0.50362975616E+01  0.18109961255E+02  0.22817358407E+02  0.00000000000E+00 0.  1.
         11    1    4    4    0    0  0.32880014217E+02  0.43969833752E+02 -0.10014991577E+03  0.11421229025E+03  0.00000000000E+00 0. -1.
</event>
<event>
 8    1  0.3708258E-009  0.1109290E+03  0.7561462E-02  0.1258859E+00
          2   -1    0    0  501    0  0.00000000000E+00  0.00000000000E+00  0.27861920093E+03  0.27861920093E+03  0.00000000000E+00 0. -1.
         -2   -1    0    0    0  501 -0.00000000000E+00 -0.00000000000E+00 -0.11669281966E+03  0.11669281966E+03  0.00000000000E+00 0.  1.
         25    2    1    2    0    0 -0.71420571419E+02  0.62393889841E+01 -0.50580861571E+02  0.15279457343E+03  0.12509168684E+03 0.  0.
         23    2    1    2    0    0  0.71420571419E+02 -0.62393889841E+01  0.21250724284E+03  0.24251744716E+03  0.92279769824E+02 0.  0.
          5    1    3    3  502    0  0.76624931250E+01 -0.44017908917E+02  0.26403490136E+01  0.44952574444E+02  0.41800000000E+01 0. -1.
         -5    1    3    3    0  502 -0.79083064544E+02  0.50257297901E+02 -0.53221210585E+02  0.10784199899E+03  0.41800000000E+01 0. -1.
        -11    1    4    4    0    0  0.29949231865E+02  0.18206036395E+02  0.13156792155E+02  0.37436845891E+02  0.00000000000E+00 0.  1.
         11    1    4    4    0    0  0.41471339554E+02 -0.24445425379E+02  0.19935045069E+03  0.20508060126E+03  0.00000000000E+00 0. -1.
</event>
<event>
 8    1  0.3708258E-009  0.1123684E+03  0.7561462E-02  0.1256246E+00
          2   -1    0    0  501    0  0.00000000000E+00  0.00000000000E+00  0.16580732474E+03  0.16580732474E+03  0.00000000000E+00 0. -1.
         -2   -1    0    0    0  501 -0.00000000000E+00 -0.00000000000E+00 -0.12476360377E+03  0.12476360377E+03  0.00000000000E+00 0.  1.
         25    2    1    2    0    0  0.50107331012E+02 -0.78319511816E+02  0.33199514515E+02  0.15935587593E+03  0.12508955542E+03 0.  0.
         23    2    1    2    0    0 -0.50107331012E+02  0.78319511816E+02  0.78442064546E+01  0.13121505258E+03  0.92255991113E+02 0.  0.
          5    1    3    3  502    0 -0.10818937949E+02  0.41692955057E+01 -0.34344994651E+02  0.36489498502E+02  0.41800000000E+01 0.  1.
         -5    1    3    3    0  502  0.60926268961E+02 -0.82488807321E+02  0.67544509166E+02  0.12286637742E+03  0.41800000000E+01 0.  1.
        -11    1    4    4    0    0 -0.63371391334E+01  0.63128373906E+02 -0.31129702696E+02  0.70671134944E+02  0.00000000000E+00 0.  1.
         11    1    4    4    0    0 -0.43770191878E+02  0.15191137910E+02  0.38973909150E+02  0.60543917635E+02  0.00000000000E+00 0. -1.
</event>
<event>
 8    1  0.3708258E-009  0.1035490E+03  0.7561462E-02  0.1273005E+00
         -1   -1    0    0    0  501 -0.00000000000E+00  0.00000000000E+00  0.60109568330E+02  0.60109568330E+02  0.00000000000E+00 0.  1.
          1   -1    0    0  501    0  0.00000000000E+00 -0.00000000000E+00 -0.36930436680E+03  0.36930436680E+03  0.00000000000E+00 0. -1.
         25    2    1    2    0    0  0.35810294725E+02  0.58902637210E+02 -0.59818355244E+02  0.15484232097E+03  0.12508401521E+03 0.  0.
         23    2    1    2    0    0 -0.35810294725E+02 -0.58902637210E+02 -0.24937644322E+03  0.27457161415E+03  0.91918784724E+02 0.  0.
          5    1    3    3  502    0  0.15397047968E+02  0.74439575301E+02 -0.88096554422E+02  0.11643364960E+03  0.41800000000E+01 0. -1.
         -5    1    3    3    0  502  0.20413246756E+02 -0.15536938091E+02  0.28278199178E+02  0.38408671379E+02  0.41800000000E+01 0. -1.
        -11    1    4    4    0    0  0.18350890954E+02  0.70288150781E+01 -0.13782399260E+02  0.24002374249E+02  0.00000000000E+00 0.  1.
         11    1    4    4    0    0 -0.54161185679E+02 -0.65931452288E+02 -0.23559404396E+03  0.25056923990E+03  0.00000000000E+00 0. -1.
</event>
<event>
 8    1  0.3708258E-009  0.1050433E+03  0.7561462E-02  0.1270034E+00
         -1   -1    0    0    0  501 -0.00000000000E+00  0.00000000000E+00  0.48903076391E+03  0.48903076391E+03  0.00000000000E+00 0.  1.
          1   -1    0    0  501    0  0.00000000000E+00 -0.00000000000E+00 -0.59746575576E+02  0.59746575576E+02  0.00000000000E+00 0. -1.
         25    2    1    2    0    0  0.40257813928E+02  0.21516412011E+02  0.29398923958E+02  0.13636590750E+03  0.12509083272E+03 0.  0.
         23    2    1    2    0    0 -0.40257813928E+02 -0.21516412011E+02  0.39988526438E+03  0.41241143199E+03  0.89951748179E+02 0.  0.
          5    1    3    3  502    0 -0.39255061007E+02  0.99804836053E+01  0.37691122259E+02  0.55485700543E+02  0.41800000000E+01 0.  1.
         -5    1    3    3    0  502  0.79512874935E+02  0.11535928406E+02 -0.82921983014E+01  0.80880206956E+02  0.41800000000E+01 0.  1.
        -11    1    4    4    0    0 -0.61658166132E+02 -0.49619149266E+01  0.35215159392E+03  0.35754313747E+03  0.00000000000E+00 0.  1.
         11    1    4    4    0    0  0.21400352204E+02 -0.16554497085E+02  0.47733670459E+02  0.54868294522E+02  0.00000000000E+00 0. -1.
</event>
<event>
 8    1  0.3708258E-009  0.1536168E+03  0.7561462E-02  0.1196098E+00
         -1   -1    0    0    0  501 -0.00000000000E+00  0.00000000000E+00  0.10001866915E+03  0.10001866915E+03  0.00000000000E+00 0.  1.
          1   -1    0    0  501    0  0.00000000000E+00 -0.00000000000E+00 -0.23653689800E+03  0.23653689800E+03  0.00000000000E+00 0. -1.
         25    2    1    2    0    0 -0.84222506458E+02 -0.65955442629E+02 -0.80761617021E+02  0.18334062268E+03  0.12509114330E+03 0.  0.
         23    2    1    2    0    0  0.84222506458E+02  0.65955442629E+02 -0.55756611829E+02  0.15321494448E+03  0.94458818768E+02 0.  0.
          5    1    3    3  502    0 -0.50410920030E+02  0.32647274318E+02 -0.32090267010E+02  0.68222892165E+02  0.41800000000E+01 0. -1.
         -5    1    3    3    0  502 -0.33811586428E+02 -0.98602716947E+02 -0.48671350011E+02  0.11511773051E+03  0.41800000000E+01 0. -1.
        -11    1    4    4    0    0  0.79474658802E+02  0.29572388098E+01 -0.30575735322E+02  0.85204707872E+02  0.00000000000E+00 0.  1.
         11    1    4    4    0    0  0.47478476556E+01  0.62998203820E+02 -0.25180876507E+02  0.68010236608E+02  0.00000000000E+00 0. -1.
</event>
<event>
 8    1  0.3708258E-009  0.9585808E+02  0.7561462E-02  0.1289255E+00
         -3   -1    0    0    0  501 -0.00000000000E+00  0.00000000000E+00  0.56159997775E+02  0.56159997775E+02  0.00000000000E+00 0.  1.
          3   -1    0    0  501    0  0.00000000000E+00 -0.00000000000E+00 -0.32720301521E+03  0.32720301521E+03  0.00000000000E+00 0. -1.
         25    2    1    2    0    0  0.92000854824E+01 -0.37555320962E+02 -0.24824387234E+03  0.28065197048E+03  0.12508183191E+03 0.  0.
         23    2    1    2    0    0 -0.92000854824E+01  0.37555320962E+02 -0.22799145090E+02  0.10271104250E+03  0.92383513299E+02 0.  0.
          5    1    3    3  502    0  0.57589266884E+02  0.14636074223E+02 -0.11724820005E+03  0.13151179089E+03  0.41800000000E+01 0. -1.
         -5    1    3    3    0  502 -0.48389181401E+02 -0.52191395186E+02 -0.13099567230E+03  0.14914017959E+03  0.41800000000E+01 0. -1.
        -11    1    4    4    0    0 -0.59833081757E+01  0.48796662294E+02 -0.51815998980E+02  0.71426969543E+02  0.00000000000E+00 0. -1.
         11    1    4    4    0    0 -0.32167773067E+01 -0.11241341332E+02  0.29016853891E+02  0.31284072959E+02  0.00000000000E+00 0.  1.
</event>
<event>
 8    1  0.3708258E-009  0.1091626E+03  0.7561462E-02  0.1262128E+00
         -1   -1    0    0    0  501 -0.00000000000E+00  0.00000000000E+00  0.50969768634E+02  0.50969768634E+02  0.00000000000E+00 0.  1.
          1   -1    0    0  501    0  0.00000000000E+00 -0.00000000000E+00 -0.32649632655E+03  0.32649632655E+03  0.00000000000E+00 0. -1.
         25    2    1    2    0    0 -0.87010952173E+01 -0.51572725789E+02 -0.21859102494E+03  0.25722433528E+03  0.12508743891E+03 0.  0.
         23    2    1    2    0    0  0.87010952173E+01  0.51572725789E+02 -0.56935532979E+02  0.12024175990E+03  0.92092186454E+02 0.  0.
          5    1    3    3  502    0  0.49726574895E+01 -0.85691443784E+02 -0.19565792827E+03  0.21369896620E+03  0.41800000000E+01 0.  1.
         -5    1    3    3    0  502 -0.13673752707E+02  0.34118717994E+02 -0.22933096663E+02  0.43525369076E+02  0.41800000000E+01 0.  1.
        -11    1    4    4    0    0  0.44177751419E+02  0.34335328684E+02 -0.66689452934E+01  0.56347700464E+02  0.00000000000E+00 0.  1.
         11    1    4    4    0    0 -0.35476656201E+02  0.17237397106E+02 -0.50266587686E+02  0.63894059440E+02  0.00000000000E+00 0. -1.
</event>
<event>
 8    1  0.3708258E-009  0.9882093E+02  0.7561462E-02  0.1282795E+00
          2   -1    0    0  501    0  0.00000000000E+00  0.00000000000E+00  0.44183227311E+03  0.44183227311E+03  0.00000000000E+00 0. -1.
         -2   -1    0    0    0  501 -0.00000000000E+00 -0.00000000000E+00 -0.47505241532E+02  0.47505241532E+02  0.00000000000E+00 0.  1.
         25    2    1    2    0    0  0.14786729468E+02 -0.45846788955E+02  0.35193423557E+03  0.37659996765E+03  0.12509697854E+03 0.  0.
         23    2    1    2    0    0 -0.14786729468E+02  0.45846788955E+02  0.42392796009E+02  0.11273754700E+03  0.92693203221E+02 0.  0.
          5    1    3    3  502    0 -0.34798396671E+02 -0.39895687447E+02  0.29910150817E+03  0.30377916137E+03  0.41800000000E+01 0.  1.
         -5    1    3    3    0  502  0.49585126139E+02 -0.59511015079E+01  0.52832727396E+02  0.72820806281E+02  0.41800000000E+01 0.  1.
        -11    1    4    4    0    0 -0.29937292613E+02  0.64072470549E+02  0.51353458124E+02  0.87399660369E+02  0.00000000000E+00 0. -1.
         11    1    4    4    0    0  0.15150563145E+02 -0.18225681594E+02 -0.89606621149E+01  0.25337886627E+02  0.00000000000E+00 0.  1.
</event>
<event>
 8    1  0.3708258E-009  0.1826721E+03  0.7561462E-02  0.1165242E+00
          2   -1    0    0  501    0  0.00000000000E+00  0.00000000000E+00  0.36254031358E+03  0.36254031358E+03  0.00000000000E+00 0. -1.
         -2   -1    0    0    0  501 -0.00000000000E+00 -0.00000000000E+00 -0.12829768168E+03  0.12829768168E+03  0.00000000000E+00 0.  1.
         25    2    1    2    0    0 -0.13289702129E+03  0.11779921211E+03  0.58966834040E+02  0.22508321194E+03  0.12508833735E+03 0.  0.
         23    2    1    2    0    0  0.13289702129E+03 -0.11779921211E+03  0.17527579786E+03  0.26575478332E+03  0.91464347702E+02 0.  0.
          5    1    3    3  502    0 -0.13705020315E+03  0.11528319372E+03  0.14024219015E+02  0.17968618216E+03  0.41800000000E+01 0. -1.
         -5    1    3    3    0  502  0.41531818650E+01  0.25160183863E+01  0.44942615025E+02  0.45397029786E+02  0.41800000000E+01 0. -1.
        -11    1    4    4    0    0  0.11377188295E+03 -0.11238985672E+03  0.10165291623E+03  0.18949627073E+03  0.00000000000E+00 0.  1.
         11    1    4    4    0    0  0.19125138340E+02 -0.54093553903E+01  0.73622881636E+02  0.76258512591E+02  0.00000000000E+00 0. -1.
</event>
<event>
 8    1  0.3708258E-009  0.1224599E+03  0.7561462E-02  0.1239093E+00
         -1   -1    0    0    0  501 -0.00000000000E+00  0.00000000000E+00  0.19128950667E+02  0.19128950667E+02  0.00000000000E+00 0.  1.
          1   -1    0    0  501    0  0.00000000000E+00 -0.00000000000E+00 -0.95587654794E+03  0.95587654794E+03  0.00000000000E+00 0. -1.
         25    2    1    2    0    0 -0.43627940748E+02 -0.35518743320E+02 -0.71375624781E+03  0.72681633868E+03  0.12509608524E+03 0.  0.
         23    2    1    2    0    0  0.43627940748E+02  0.35518743320E+02 -0.22299134946E+03  0.24818915993E+03  0.93315265790E+02 0.  0.
          5    1    3    3  502    0 -0.24918389462E+02  0.46007159555E+02 -0.31713694662E+03  0.32145124074E+03  0.41800000000E+01 0. -1.
         -5    1    3    3    0  502 -0.18709551286E+02 -0.81525902875E+02 -0.39661930119E+03  0.40536509794E+03  0.41800000000E+01 0. -1.
        -11    1    4    4    0    0  0.40691321034E+02 -0.25219201026E+02 -0.10712738196E+03  0.11733740952E+03  0.00000000000E+00 0. -1.
         11    1    4    4    0    0  0.29366197147E+01  0.60737944345E+02 -0.11586396750E+03  0.13085175040E+03  0.00000000000E+00 0.  1.
</event>
<event>
 8    1  0.3708258E-009  0.1165367E+03  0.7561462E-02  0.1248922E+00
         -1   -1    0    0    0  501 -0.00000000000E+00  0.00000000000E+00  0.84797709015E+02  0.84797709015E+02  0.00000000000E+00 0.  1.
          1   -1    0    0  501    0  0.00000000000E+00 -0.00000000000E+00 -0.18565722555E+03  0.18565722555E+03  0.00000000000E+00 0. -1.
         25    2    1    2    0    0  0.55370949426E+02 -0.29395561037E+02 -0.50878580227E+02  0.14887830135E+03  0.12508428214E+03 0.  0.
         23    2    1    2    0    0 -0.55370949426E+02  0.29395561037E+02 -0.49980936311E+02  0.12157663322E+03  0.91393340577E+02 0.  0.
          5    1    3    3  502    0  0.86805993195E+02 -0.20098007652E+02 -0.67524555046E+02  0.11187603988E+03  0.41800000000E+01 0.  1.
         -5    1    3    3    0  502 -0.31435043769E+02 -0.92975533848E+01  0.16645974819E+02  0.37002261463E+02  0.41800000000E+01 0.  1.
        -11    1    4    4    0    0  0.25081182611E+02 -0.26067546392E+00 -0.11544686550E+02  0.27611835513E+02  0.00000000000E+00 0. -1.
         11    1    4    4    0    0 -0.80452132036E+02  0.29656236501E+02 -0.38436249761E+02  0.93964797708E+02  0.00000000000E+00 0.  1.
</event>
<event>
 8    1  0.3708258E-009  0.2201118E+03  0.7561462E-02  0.1133800E+00
          4   -1    0    0  501    0  0.00000000000E+00  0.00000000000E+00  0.11176431491E+03  0.11176431491E+03  0.00000000000E+00 0. -1.
         -4   -1    0    0    0  501 -0.00000000000E+00 -0.00000000000E+00 -0.56774801185E+03  0.56774801185E+03  0.00000000000E+00 0.  1.
         25    2    1    2    0    0  0.46085288385E+02  0.21429028628E+03 -0.15495292465E+03  0.29615018919E+03  0.12510133932E+03 0.  0.
         23    2    1    2    0    0 -0.46085288385E+02 -0.21429028628E+03 -0.30103077229E+03  0.38336213757E+03  0.91119822517E+02 0.  0.
          5    1    3    3  502    0  0.19919023653E+02  0.42421392980E+02 -0.10524828303E+03  0.11528666691E+03  0.41800000000E+01 0.  1.
         -5    1    3    3    0  502  0.26166264732E+02  0.17186889330E+03 -0.49704641619E+02  0.18086352229E+03  0.41800000000E+01 0.  1.
        -11    1    4    4    0    0 -0.41715176298E+02 -0.20098167891E+03 -0.30602536641E+03  0.36849059158E+03  0.00000000000E+00 0.  1.
         11    1    4    4    0    0 -0.43701120875E+01 -0.13308607369E+02  0.49945941226E+01  0.14871545993E+02  0.00000000000E+00 0. -1.
</event>
<event>
 8    1  0.3708258E-009  0.1387186E+03  0.7561462E-02  0.1215064E+00
         -3   -1    0    0    0  501 -0.00000000000E+00  0.00000000000E+00  0.10155563853E+03  0.10155563853E+03  0.00000000000E+00 0.  1.
          3   -1    0    0  501    0  0.00000000000E+00 -0.00000000000E+00 -0.31691575403E+03  0.31691575403E+03  0.00000000000E+00 0. -1.
         25    2    1    2    0    0 -0.10558483741E+03  0.19445679632E+02 -0.40427183625E+01  0.16490876398E+03  0.12510901054E+03 0.  0.
         23    2    1    2    0    0  0.10558483741E+03 -0.19445679632E+02 -0.21131739713E+03  0.25356262858E+03  0.90070372121E+02 0.  0.
          5    1    3    3  502    0 -0.12639647071E+03  0.14451660607E+02 -0.30231697221E+02  0.13082945471E+03  0.41800000000E+01 0.  1.
         -5    1    3    3    0  502  0.20811633301E+02  0.49940190250E+01  0.26188978858E+02  0.34079309270E+02  0.41800000000E+01 0.  1.
        -11    1    4    4    0    0  0.50804731475E+02  0.26085450659E+02 -0.45252406119E+02  0.72865298571E+02  0.00000000000E+00 0.  1.
         11    1    4    4    0    0  0.54780105935E+02 -0.45531130291E+02 -0.16606499101E+03  0.18069733001E+03  0.00000000000E+00 0. -1.
</event>
<event>
 8    1  0.3708258E-009  0.9326454E+02  0.7561462E-02  0.1295133E+00
          3   -1    0    0  501    0  0.00000000000E+00  0.00000000000E+00  0.13041169346E+03  0.13041169346E+03  0.00000000000E+00 0. -1.
         -3   -1    0    0    0  501 -0.00000000000E+00 -0.00000000000E+00 -0.95680441449E+02  0.95680441449E+02  0.00000000000E+00 0.  1.
         25    2    1    2    0    0 -0.78155238293E+01  0.98477072041E+01 -0.56451265307E+01  0.12584140375E+03  0.12508449821E+03 0.  0.
         23    2    1    2    0    0  0.78155238293E+01 -0.98477072041E+01  0.40376378544E+02  0.10025073116E+03  0.90894980085E+02 0.  0.
          5    1    3    3  502    0  0.46518685083E+02  0.41545829852E+02 -0.59974772957E+01  0.62797182850E+02  0.41800000000E+01 0.  1.
         -5    1    3    3    0  502 -0.54334208912E+02 -0.31698122648E+02  0.35235076497E+00  0.63044220898E+02  0.41800000000E+01 0.  1.
        -11    1    4    4    0    0 -0.19936016122E+02  0.14020001636E+02  0.55523352669E+02  0.60637017376E+02  0.00000000000E+00 0. -1.
         11    1    4    4    0    0  0.27751539951E+02 -0.23867708840E+02 -0.15146974125E+02  0.39613713788E+02  0.00000000000E+00 0.  1.
</event>
<event>
 8    1  0.3708258E-009  0.1362160E+03  0.7561462E-02  0.1218513E+00
          2   -1    0    0  501    0  0.00000000000E+00  0.00000000000E+00  0.47514057466E+03  0.47514057466E+03  0.00000000000E+00 0.  1.
         -2   -1    0    0    0  501 -0.00000000000E+00 -0.00000000000E+00 -0.68168259101E+02  0.68168259101E+02  0.00000000000E+00 0. -1.
         25    2    1    2    0    0  0.89480890447E+02  0.70840679516E+02  0.34462474003E+03  0.38397822662E+03  0.12509130844E+03 0.  0.
         23    2    1    2    0    0 -0.89480890447E+02 -0.70840679516E+02  0.62347575526E+02  0.15933060714E+03  0.92053194228E+02 0.  0.
          5    1    3    3  502    0 -0.10152116975E+02  0.42651514247E+02  0.20737688288E+03  0.21200203089E+03  0.41800000000E+01 0. -1.
         -5    1    3    3    0  502  0.99633007423E+02  0.28189165269E+02  0.13724785715E+03  0.17197619573E+03  0.41800000000E+01 0. -1.
        -11    1    4    4    0    0 -0.63071382825E+01  0.79810013342E+01  0.41666063600E+02  0.42889826667E+02  0.00000000000E+00 0.  1.
         11    1    4    4    0    0 -0.83173752165E+02 -0.78821680850E+02  0.20681511926E+02  0.11644078047E+03  0.00000000000E+00 0. -1.
</event>
<event>
 8    1  0.3708258E-009  0.2649162E+03  0.7561462E-02  0.1104225E+00
          1   -1    0    0  501    0  0.00000000000E+00  0.00000000000E+00  0.14232834862E+04  0.14232834862E+04  0.00000000000E+00 0. -1.
         -1   -1    0    0    0  501 -0.00000000000E+00 -0.00000000000E+00 -0.57660522345E+02  0.57660522345E+02  0.00000000000E+00 0.  1.
         25    2    1    2    0    0  0.17190499341E+03 -0.16909622015E+03  0.41854199801E+03  0.49896845923E+03  0.12508901144E+03 0.  0.
         23    2    1    2    0    0 -0.17190499341E+03  0.16909622015E+03  0.94708096586E+03  0.98197554933E+03  0.95753669130E+02 0.  0.
          5    1    3    3  502    0  0.18864807407E+03 -0.17005758294E+03  0.39758152959E+03  0.47180104116E+03  0.41800000000E+01 0.  1.
         -5    1    3    3    0  502 -0.16743080662E+02  0.96136279035E+00  0.20960468414E+02  0.27167418070E+02  0.41800000000E+01 0.  1.
        -11    1    4    4    0    0 -0.48190627908E+02  0.11269460812E+03  0.49038545418E+03  0.50547037993E+03  0.00000000000E+00 0. -1.
         11    1    4    4    0    0 -0.12371436550E+03  0.56401612035E+02  0.45669551168E+03  0.47650516940E+03  0.00000000000E+00 0.  1.
</event>
<event>
 8    1  0.3708258E-009  0.1255750E+03  0.7561462E-02  0.1234173E+00
          1   -1    0    0  501    0  0.00000000000E+00  0.00000000000E+00  0.12890687036E+04  0.12890687036E+04  0.00000000000E+00 0. -1.
         -1   -1    0    0    0  501 -0.00000000000E+00 -0.00000000000E+00 -0.12415815548E+02  0.12415815548E+02  0.00000000000E+00 0.  1.
         25    2    1    2    0    0 -0.31813730854E+02  0.53084391009E+02  0.64557381277E+03  0.66048600345E+03  0.12508455933E+03 0.  0.
         23    2    1    2    0    0  0.31813730854E+02 -0.53084391009E+02  0.63107907524E+03  0.64099851565E+03  0.93745569613E+02 0.  0.
          5    1    3    3  502    0  0.35683667918E+02 -0.18604735363E+02  0.16242981259E+03  0.16739288143E+03  0.41800000000E+01 0. -1.
         -5    1    3    3    0  502 -0.67497398773E+02  0.71689126372E+02  0.48314400018E+03  0.49309312203E+03  0.41800000000E+01 0. -1.
        -11    1    4    4    0    0  0.65245656131E+02 -0.32697308124E+02  0.42830478545E+03  0.43447796128E+03  0.00000000000E+00 0. -1.
         11    1    4    4    0    0 -0.33431925276E+02 -0.20387082884E+02  0.20277428979E+03  0.20652055437E+03  0.00000000000E+00 0.  1.
</event>
<event>
 8    1  0.3708258E-009  0.8512071E+02  0.7561462E-02  0.1315117E+00
          2   -1    0    0  501    0  0.00000000000E+00  0.00000000000E+00  0.38305799064E+03  0.38305799064E+03  0.00000000000E+00 0. -1.
         -2   -1    0    0    0  501 -0.00000000000E+00 -0.00000000000E+00 -0.33418987233E+02  0.33418987233E+02  0.00000000000E+00 0.  1.
         25    2    1    2    0    0 -0.17044019076E+02 -0.87269252044E+01  0.17080671547E+03  0.21257753930E+03  0.12509044070E+03 0.  0.
         23    2    1    2    0    0  0.17044019076E+02  0.87269252044E+01  0.17883228794E+03  0.20389943857E+03  0.96059023692E+02 0.  0.
          5    1    3    3  502    0  0.39405493179E+02 -0.26329151923E+02  0.13543521029E+03  0.14354854830E+03  0.41800000000E+01 0. -1.
         -5    1    3    3    0  502 -0.56449512255E+02  0.17602226719E+02  0.35371505182E+02  0.69028990997E+02  0.41800000000E+01 0. -1.
        -11    1    4    4    0    0  0.18115308242E+01  0.33908690018E+02  0.14450562425E+02  0.36903924684E+02  0.00000000000E+00 0.  1.
         11    1    4    4    0    0  0.15232488252E+02 -0.25181764814E+02  0.16438172551E+03  0.16699551389E+03  0.00000000000E+00 0. -1.
</event>
<event>
 8    1  0.3708258E-009  0.1014921E+03  0.7561462E-02  0.1277189E+00
         -1   -1    0    0    0  501 -0.00000000000E+00  0.00000000000E+00  0.82096533804E+03  0.82096533804E+03  0.00000000000E+00 0.  1.
          1   -1    0    0  501    0  0.00000000000E+00 -0.00000000000E+00 -0.15752768232E+02  0.15752768232E+02  0.00000000000E+00 0. -1.
         25    2    1    2    0    0 -0.25434168816E+02 -0.78456126699E+01  0.54090945199E+03  0.55582325234E+03  0.12509197420E+03 0.  0.
         23    2    1    2    0    0  0.25434168816E+02  0.78456126699E+01  0.26430311782E+03  0.28089485393E+03  0.91308982555E+02 0.  0.
          5    1    3    3  502    0 -0.26160109598E+01  0.56358367393E+02  0.18621674310E+03  0.19462080285E+03  0.41800000000E+01 0. -1.
         -5    1    3    3    0  502 -0.22818157856E+02 -0.64203980063E+02  0.35469270889E+03  0.36120244950E+03  0.41800000000E+01 0. -1.
        -11    1    4    4    0    0 -0.25938060595E+02  0.65654028214E+01  0.26703616634E+02  0.37801728042E+02  0.00000000000E+00 0.  1.
         11    1    4    4    0    0  0.51372229411E+02  0.12802098485E+01  0.23759950118E+03  0.24309312589E+03  0.00000000000E+00 0. -1.
</event>
<event>
 8    1  0.3708258E-009  0.1809295E+03  0.7561462E-02  0.1166906E+00
          2   -1    0    0  501    0  0.00000000000E+00  0.00000000000E+00  0.81872476439E+03  0.81872476439E+03  0.00000000000E+00 0. -1.
         -2   -1    0    0    0  501 -0.00000000000E+00 -0.00000000000E+00 -0.53006588936E+02  0.53006588936E+02  0.00000000000E+00 0.  1.
         25    2    1    2    0    0 -0.71227732896E+02 -0.16199187694E+03  0.43072474850E+03  0.48216956256E+03  0.12509564323E+03 0.  0.
         23    2    1    2    0    0  0.71227732896E+02  0.16199187694E+03  0.33499342695E+03  0.38956179077E+03  0.90680949495E+02 0.  0.
          5    1    3    3  502    0 -0.68956544788E+02 -0.16358078413E+03  0.28127775331E+03  0.33263842969E+03  0.41800000000E+01 0.  1.
         -5    1    3    3    0  502 -0.22711881079E+01  0.15889071916E+01  0.14944699520E+03  0.14953113286E+03  0.41800000000E+01 0.  1.
        -11    1    4    4    0    0  0.19277860879E+01  0.31174434319E+02  0.14697602443E+03  0.15025815609E+03  0.00000000000E+00 0. -1.
         11    1    4    4    0    0  0.69299946808E+02  0.13081744262E+03  0.18801740252E+03  0.23930363468E+03  0.00000000000E+00 0.  1.
</event>
<event>
 8    1  0.3708258E-009  0.1047380E+03  0.7561462E-02  0.1270637E+00
          1   -1    0    0  501    0  0.00000000000E+00  0.00000000000E+00  0.84216106675E+02  0.84216106675E+02  0.00000000000E+00 0. -1.
         -1   -1    0    0    0  501 -0.00000000000E+00 -0.00000000000E+00 -0.15065818913E+03  0.15065818913E+03  0.00000000000E+00 0.  1.
         25    2    1    2    0    0  0.67004363082E+01 -0.98089593629E+01 -0.76045906409E+01  0.12588349925E+03  0.12509082322E+03 0.  0.
         23    2    1    2    0    0 -0.67004363082E+01  0.98089593629E+01 -0.58837491810E+02  0.10899079655E+03  0.90972697879E+02 0.  0.
          5    1    3    3  502    0 -0.11921763080E+02  0.55012175852E+02  0.66170303546E+01  0.56830673211E+02  0.41800000000E+01 0.  1.
         -5    1    3    3    0  502  0.18622199389E+02 -0.64821135215E+02 -0.14221620995E+02  0.69052826042E+02  0.41800000000E+01 0.  1.
        -11    1    4    4    0    0  0.78632779548E+01  0.45885381642E+02 -0.11948642028E+02  0.48063181698E+02  0.00000000000E+00 0. -1.
         11    1    4    4    0    0 -0.14563714263E+02 -0.36076422279E+02 -0.46888849782E+02  0.60927614851E+02  0.00000000000E+00 0.  1.
</event>
<event>
 8    1  0.3708258E-009  0.1370955E+03  0.7561462E-02  0.1217292E+00
         -1   -1    0    0    0  501 -0.00000000000E+00  0.00000000000E+00  0.74108355393E+02  0.74108355393E+02  0.00000000000E+00 0.  1.
          1   -1    0    0  501    0  0.00000000000E+00 -0.00000000000E+00 -0.35332941133E+03  0.35332941133E+03  0.00000000000E+00 0. -1.
         25    2    1    2    0    0 -0.36915269304E+02  0.11558774613E+03 -0.18155622672E+03  0.25166122307E+03  0.12508974207E+03 0.  0.
         23    2    1    2    0    0  0.36915269304E+02 -0.11558774613E+03 -0.97664829216E+02  0.17577654366E+03  0.81459869080E+02 0.  0.
          5    1    3    3  502    0 -0.20680991479E+02  0.14664809832E+01  0.13472043817E+02  0.25076330266E+02  0.41800000000E+01 0. -1.
         -5    1    3    3    0  502 -0.16234277825E+02  0.11412126515E+03 -0.19502827054E+03  0.22658489280E+03  0.41800000000E+01 0. -1.
        -11    1    4    4    0    0  0.53100032437E+02 -0.61571005792E+02 -0.85700320958E+02  0.11813190598E+03  0.00000000000E+00 0.  1.
         11    1    4    4    0    0 -0.16184763133E+02 -0.54016740340E+02 -0.11964508258E+02  0.57644637674E+02  0.00000000000E+00 0. -1.
</event>
<event>
 8    1  0.3708258E-009  0.7519519E+02  0.7561462E-02  0.1343268E+00
         -1   -1    0    0    0  501 -0.00000000000E+00  0.00000000000E+00  0.21509066872E+03  0.21509066872E+03  0.00000000000E+00 0.  1.
          1   -1    0    0  501    0  0.00000000000E+00 -0.00000000000E+00 -0.56741050763E+02  0.56741050763E+02  0.00000000000E+00 0. -1.
         25    2    1    2    0    0 -0.18037911873E+02  0.59424410753E+01  0.10612259526E+03  0.16513941395E+03  0.12509333294E+03 0.  0.
         23    2    1    2    0    0  0.18037911873E+02 -0.59424410753E+01  0.52227022699E+02  0.10669230553E+03  0.91076381619E+02 0.  0.
          5    1    3    3  502    0 -0.23813331196E+02  0.38086591930E+02  0.12090562921E+03  0.12904769197E+03  0.41800000000E+01 0.  1.
         -5    1    3    3    0  502  0.57754193230E+01 -0.32144150854E+02 -0.14783033956E+02  0.36091721980E+02  0.41800000000E+01 0.  1.
        -11    1    4    4    0    0 -0.23589920279E+02  0.12642962023E+02  0.54846908343E+02  0.61028781589E+02  0.00000000000E+00 0.  1.
         11    1    4    4    0    0  0.41627832152E+02 -0.18585403098E+02 -0.26198856442E+01  0.45663523942E+02  0.00000000000E+00 0. -1.
</event>
<event>
 8    1  0.3708258E-009  0.1491397E+03  0.7561462E-02  0.1201534E+00
         -1   -1    0    0    0  501 -0.00000000000E+00  0.00000000000E+00  0.50928318341E+02  0.50928318341E+02  0.00000000000E+00 0.  1.
          1   -1    0    0  501    0  0.00000000000E+00 -0.00000000000E+00 -0.77214854383E+03  0.77214854383E+03  0.00000000000E+00 0. -1.
         25    2    1    2    0    0  0.70592021946E+02  0.73331946926E+02 -0.10672388477E+03  0.19338293484E+03  0.12508462696E+03 0.  0.
         23    2    1    2    0    0 -0.70592021946E+02 -0.73331946926E+02 -0.61449634071E+03  0.62969392733E+03  0.92454753077E+02 0.  0.
          5    1    3    3  502    0  0.78578358996E+02  0.10334440577E+03 -0.87610186445E+02  0.15667687090E+03  0.41800000000E+01 0.  1.
         -5    1    3    3    0  502 -0.79863370497E+01 -0.30012458848E+02 -0.19113698328E+02  0.36706063932E+02  0.41800000000E+01 0.  1.
        -11    1    4    4    0    0 -0.16056278419E+02 -0.80463410949E+02 -0.34228315893E+03  0.35198000720E+03  0.00000000000E+00 0. -1.
         11    1    4    4    0    0 -0.54535743527E+02  0.71314640228E+01 -0.27221318178E+03  0.27771392013E+03  0.00000000000E+00 0.  1.
</event>
<event>
 8    1  0.3708258E-009  0.1100856E+03  0.7561462E-02  0.1260411E+00
          3   -1    0    0  501    0  0.00000000000E+00  0.00000000000E+00  0.13060337522E+02  0.13060337522E+02  0.00000000000E+00 0. -1.
         -3   -1    0    0    0  501 -0.00000000000E+00 -0.00000000000E+00 -0.10881127292E+04  0.10881127292E+04  0.00000000000E+00 0.  1.
         25    2    1    2    0    0 -0.23227565953E+02  0.31176310143E+02 -0.61066945624E+03  0.62456381056E+03  0.12510510202E+03 0.  0.
         23    2    1    2    0    0  0.23227565953E+02 -0.31176310143E+02 -0.46438293545E+03  0.47660925617E+03  0.99966945500E+02 0.  0.
          5    1    3    3  502    0 -0.52878638824E+02 -0.18200328272E+02 -0.14737073959E+03  0.15768008650E+03  0.41800000000E+01 0. -1.
         -5    1    3    3    0  502  0.29651072871E+02  0.49376638415E+02 -0.46329871665E+03  0.46688372406E+03  0.41800000000E+01 0. -1.
        -11    1    4    4    0    0  0.54904200288E+02  0.85177879893E+01 -0.27348398132E+03  0.27907080098E+03  0.00000000000E+00 0.  1.
         11    1    4    4    0    0 -0.31676634335E+02 -0.39694098133E+02 -0.19089895413E+03  0.19753845519E+03  0.00000000000E+00 0. -1.
</event>
<event>
 8    1  0.3708258E-009  0.1265539E+03  0.7561462E-02  0.1232661E+00
         -2   -1    0    0    0  501 -0.00000000000E+00  0.00000000000E+00  0.69654682483E+02  0.69654682483E+02  0.00000000000E+00 0. -1.
          2   -1    0    0  501    0  0.00000000000E+00 -0.00000000000E+00 -0.25825019429E+03  0.25825019429E+03  0.00000000000E+00 0.  1.
         25    2    1    2    0    0  0.74995194575E+02  0.21853535900E+02 -0.10512687719E+03  0.18111415466E+03  0.12509524560E+03 0.  0.
         23    2    1    2    0    0 -0.74995194575E+02 -0.21853535900E+02 -0.83468634618E+02  0.14679072211E+03  0.92079568262E+02 0.  0.
          5    1    3    3  502    0 -0.22757837616E+02 -0.27755743420E+02 -0.14946481828E+02  0.39104605673E+02  0.41800000000E+01 0.  1.
         -5    1    3    3    0  502  0.97753032191E+02  0.49609279320E+02 -0.90180395358E+02  0.14200954899E+03  0.41800000000E+01 0.  1.
        -11    1    4    4    0    0 -0.64500166682E+02  0.17264199819E+02 -0.16911138383E+02  0.68878956865E+02  0.00000000000E+00 0. -1.
         11    1    4    4    0    0 -0.10495027893E+02 -0.39117735719E+02 -0.66557496235E+02  0.77911765243E+02  0.00000000000E+00 0.  1.
</event>
<event>
 8    1  0.3708258E-009  0.1260501E+03  0.7561462E-02  0.1233437E+00
          1   -1    0    0  501    0  0.00000000000E+00  0.00000000000E+00  0.15383493970E+03  0.15383493970E+03  0.00000000000E+00 0. -1.
         -1   -1    0    0    0  501 -0.00000000000E+00 -0.00000000000E+00 -0.11955968658E+03  0.11955968658E+03  0.00000000000E+00 0.  1.
         25    2    1    2    0    0  0.36818579937E+02  0.62075205877E+02 -0.20951202993E+02  0.14592863935E+03  0.12508907171E+03 0.  0.
         23    2    1    2    0    0 -0.36818579937E+02 -0.62075205877E+02  0.55226456118E+02  0.12746598694E+03  0.89379401192E+02 0.  0.
          5    1    3    3  502    0 -0.12894953192E+02 -0.31887845546E+02 -0.19017102744E+02  0.39525145264E+02  0.41800000000E+01 0.  1.
         -5    1    3    3    0  502  0.49713533129E+02  0.93963051424E+02 -0.19341002486E+01  0.10640349408E+03  0.41800000000E+01 0.  1.
        -11    1    4    4    0    0  0.13214086775E+02  0.14484423836E+02 -0.17943985542E+01  0.19688333838E+02  0.00000000000E+00 0.  1.
         11    1    4    4    0    0 -0.50032666712E+02 -0.76559629713E+02  0.57020854672E+02  0.10777765310E+03  0.00000000000E+00 0. -1.
</event>
<event>
 8    1  0.3708258E-009  0.1031461E+03  0.7561462E-02  0.1273816E+00
          1   -1    0    0  501    0  0.00000000000E+00  0.00000000000E+00  0.70810872965E+02  0.70810872965E+02  0.00000000000E+00 0. -1.
         -1   -1    0    0    0  501 -0.00000000000E+00 -0.00000000000E+00 -0.33212603026E+03  0.33212603026E+03  0.00000000000E+00 0.  1.
         25    2    1    2    0    0  0.56402873848E+02 -0.48579638200E+02 -0.24324226620E+03  0.28347268180E+03  0.12509474744E+03 0.  0.
         23    2    1    2    0    0 -0.56402873848E+02  0.48579638200E+02 -0.18072891101E+02  0.11946422142E+03  0.91672271609E+02 0.  0.
          5    1    3    3  502    0 -0.19325585507E+02 -0.49021671096E+02 -0.39252971707E+02  0.65839734812E+02  0.41800000000E+01 0. -1.
         -5    1    3    3    0  502  0.75728459355E+02  0.44203289678E+00 -0.20398929449E+03  0.21763294699E+03  0.41800000000E+01 0. -1.
        -11    1    4    4    0    0 -0.46319079471E+02  0.49088294892E+02 -0.51275619089E+02  0.84760291006E+02  0.00000000000E+00 0.  1.
         11    1    4    4    0    0 -0.10083794376E+02 -0.50865669285E+00  0.33202727988E+02  0.34703930419E+02  0.00000000000E+00 0. -1.
</event>
<event>
 8    1  0.3708258E-009  0.1585520E+03  0.7561462E-02  0.1190341E+00
         -2   -1    0    0    0  501 -0.00000000000E+00  0.00000000000E+00  0.20108033894E+02  0.20108033894E+02  0.00000000000E+00 0.  1.
          2   -1    0    0  501    0  0.00000000000E+00 -0.00000000000E+00 -0.16520106156E+04  0.16520106156E+04  0.00000000000E+00 0. -1.
         25    2    1    2    0    0  0.11805951435E+03  0.44886017798E+02 -0.12100143784E+04  0.12230021642E+04  0.12508674661E+03 0.  0.
         23    2    1    2    0    0 -0.11805951435E+03 -0.44886017798E+02 -0.42188820331E+03  0.44911648529E+03  0.88108783627E+02 0.  0.
          5    1    3    3  502    0  0.34862583138E+02 -0.43661680091E+02 -0.35793297967E+03  0.36229163991E+03  0.41800000000E+01 0. -1.
         -5    1    3    3    0  502  0.83196931211E+02  0.88547697889E+02 -0.85208139872E+03  0.86071052428E+03  0.41800000000E+01 0. -1.
        -11    1    4    4    0    0 -0.26516060106E+02 -0.39792392557E+02 -0.65336805244E+02  0.80965635109E+02  0.00000000000E+00 0.  1.
         11    1    4    4    0    0 -0.91543454242E+02 -0.50936252404E+01 -0.35655139806E+03  0.36815085019E+03  0.00000000000E+00 0. -1.
</event>
<event>
 8    1  0.3708258E-009  0.2308515E+03  0.7561462E-02  0.1126042E+00
         -2   -1    0    0    0  501 -0.00000000000E+00  0.00000000000E+00  0.66350142910E+02  0.66350142910E+02  0.00000000000E+00 0.  1.
          2   -1    0    0  501    0  0.00000000000E+00 -0.00000000000E+00 -0.11682814469E+04  0.11682814469E+04  0.00000000000E+00 0. -1.
         25    2    1    2    0    0 -0.22484569115E+03 -0.34417759276E+02 -0.82623243212E+03  0.86605242211E+03  0.12508636611E+03 0.  0.
         23    2    1    2    0    0  0.22484569115E+03  0.34417759276E+02 -0.27569887191E+03  0.36857916773E+03  0.90003155134E+02 0.  0.
          5    1    3    3  502    0 -0.22340614906E+03 -0.26420359907E+02 -0.82682728636E+03  0.85689507918E+03  0.41800000000E+01 0.  1.
         -5    1    3    3    0  502 -0.14395420864E+01 -0.79973993690E+01  0.59485423943E+00  0.91573429363E+01  0.41800000000E+01 0.  1.
        -11    1    4    4    0    0  0.26342957555E+02  0.62237529229E+01 -0.94623537889E+02  0.98419004445E+02  0.00000000000E+00 0.  1.
         11    1    4    4    0    0  0.19850273359E+03  0.28194006353E+02 -0.18107533402E+03  0.27016016329E+03  0.00000000000E+00 0. -1.
</event>
<event>
 8    1  0.3708258E-009  0.1090722E+03  0.7561462E-02  0.1262298E+00
         -2   -1    0    0    0  501 -0.00000000000E+00  0.00000000000E+00  0.17597960714E+02  0.17597960714E+02  0.00000000000E+00 0. -1.
          2   -1    0    0  501    0  0.00000000000E+00 -0.00000000000E+00 -0.88404992278E+03  0.88404992278E+03  0.00000000000E+00 0.  1.
         25    2    1    2    0    0  0.13496976624E+02  0.26552492365E+02 -0.66210854459E+03  0.67448046843E+03  0.12509586019E+03 0.  0.
         23    2    1    2    0    0 -0.13496976624E+02 -0.26552492365E+02 -0.20434341748E+03  0.22716741507E+03  0.94665722284E+02 0.  0.
          5    1    3    3  502    0  0.89737946886E+01 -0.45529034488E+02 -0.14412042916E+03  0.15146482256E+03  0.41800000000E+01 0. -1.
         -5    1    3    3    0  502  0.45231819356E+01  0.72081526853E+02 -0.51798811543E+03  0.52301564586E+03  0.41800000000E+01 0. -1.
        -11    1    4    4    0    0  0.40097069824E+02 -0.21173024267E+02 -0.96359211033E+02  0.10649492718E+03  0.00000000000E+00 0.  1.
         11    1    4    4    0    0 -0.53594046448E+02 -0.53794680983E+01 -0.10798420644E+03  0.12067248789E+03  0.00000000000E+00 0. -1.
</event>
<event>
 8    1  0.3708258E-009  0.1082487E+03  0.7561462E-02  0.1263848E+00
         -2   -1    0    0    0  501 -0.00000000000E+00  0.00000000000E+00  0.36418944337E+02  0.36418944337E+02  0.00000000000E+00 0.  1.
          2   -1    0    0  501    0  0.00000000000E+00 -0.00000000000E+00 -0.64712621112E+03  0.64712621112E+03  0.00000000000E+00 0. -1.
         25    2    1    2    0    0 -0.96715758118E+01  0.16596792396E+02 -0.57040613761E+03  0.58427686902E+03  0.12508918799E+03 0.  0.
         23    2    1    2    0    0  0.96715758118E+01 -0.16596792396E+02 -0.40301129167E+02  0.99268286431E+02  0.88662386513E+02 0.  0.
          5    1    3    3  502    0 -0.66094539400E+02 -0.19688619549E+01 -0.26844083461E+03  0.27649650747E+03  0.41800000000E+01 0. -1.
         -5    1    3    3    0  502  0.56422963588E+02  0.18565654351E+02 -0.30196530300E+03  0.30778036156E+03  0.41800000000E+01 0. -1.
        -11    1    4    4    0    0  0.16824212482E+02 -0.51960237240E+02 -0.25378531050E+02  0.60224498486E+02  0.00000000000E+00 0.  1.
         11    1    4    4    0    0 -0.71526366698E+01  0.35363444843E+02 -0.14922598118E+02  0.39043787945E+02  0.00000000000E+00 0. -1.
</event>
<event>
 8    1  0.3708258E-009  0.1059450E+03  0.7561462E-02  0.1268269E+00
          2   -1    0    0  501    0  0.00000000000E+00  0.00000000000E+00  0.97179442443E+02  0.97179442443E+02  0.00000000000E+00 0.  1.
         -2   -1    0    0    0  501 -0.00000000000E+00 -0.00000000000E+00 -0.20597827389E+03  0.20597827389E+03  0.00000000000E+00 0. -1.
         25    2    1    2    0    0 -0.84921671227E+02  0.28912008736E+02 -0.67939618771E+02  0.16826015739E+03  0.12509234299E+03 0.  0.
         23    2    1    2    0    0  0.84921671227E+02 -0.28912008736E+02 -0.40859212673E+02  0.13489755894E+03  0.92088444736E+02 0.  0.
          5    1    3    3  502    0 -0.62185429518E+02 -0.16717899575E+02 -0.91482151318E+02  0.11195075802E+03  0.41800000000E+01 0. -1.
         -5    1    3    3    0  502 -0.22736241709E+02  0.45629908311E+02  0.23542532547E+02  0.56309399377E+02  0.41800000000E+01 0. -1.
        -11    1    4    4    0    0  0.57602845269E+02 -0.16671779352E+01 -0.66939346485E+02  0.88327478019E+02  0.00000000000E+00 0. -1.
         11    1    4    4    0    0  0.27318825958E+02 -0.27244830800E+02  0.26080133812E+02  0.46570080918E+02  0.00000000000E+00 0.  1.
</event>
<event>
 8    1  0.3708258E-009  0.9301767E+02  0.7561462E-02  0.1295704E+00
         -1   -1    0    0    0  501 -0.00000000000E+00  0.00000000000E+00  0.47050390619E+02  0.47050390619E+02  0.00000000000E+00 0.  1.
          1   -1    0    0  501    0  0.00000000000E+00 -0.00000000000E+00 -0.35785485985E+03  0.35785485985E+03  0.00000000000E+00 0. -1.
         25    2    1    2    0    0  0.41435203990E+02  0.62152178353E+02 -0.18315157060E+03  0.23403296426E+03  0.12508861317E+03 0.  0.
         23    2    1    2    0    0 -0.41435203990E+02 -0.62152178353E+02 -0.12765289863E+03  0.17087228620E+03  0.85570475398E+02 0.  0.
          5    1    3    3  502    0  0.31807972158E+02  0.27939553042E+02  0.47018687888E+01  0.42801234644E+02  0.41800000000E+01 0.  1.
         -5    1    3    3    0  502  0.96272318327E+01  0.34212625312E+02 -0.18785343939E+03  0.19123172962E+03  0.41800000000E+01 0.  1.
        -11    1    4    4    0    0 -0.55170276942E+02 -0.13013007778E+02 -0.39743485888E+02  0.69228913756E+02  0.00000000000E+00 0.  1.
         11    1    4    4    0    0  0.13735072952E+02 -0.49139170575E+02 -0.87909412740E+02  0.10164337245E+03  0.00000000000E+00 0. -1.
</event>
<event>
 8    1  0.3708258E-009  0.2118743E+03  0.7561462E-02  0.1140090E+00
         -1   -1    0    0    0  501 -0.00000000000E+00  0.00000000000E+00  0.14407207852E+03  0.14407207852E+03  0.00000000000E+00 0.  1.
          1   -1    0    0  501    0  0.00000000000E+00 -0.00000000000E+00 -0.46275624547E+03  0.46275624547E+03  0.00000000000E+00 0. -1.
         25    2    1    2    0    0  0.13853094569E+03  0.12484701784E+03 -0.32954951169E+03  0.39878408351E+03  0.12509302071E+03 0.  0.
         23    2    1    2    0    0 -0.13853094569E+03 -0.12484701784E+03  0.10865344743E+02  0.20804424048E+03  0.91579197969E+02 0.  0.
          5    1    3    3  502    0  0.93151633449E+02  0.14426979886E+03 -0.22487445021E+03  0.28297878443E+03  0.41800000000E+01 0.  1.
         -5    1    3    3    0  502  0.45379312246E+02 -0.19422781012E+02 -0.10467506147E+03  0.11580529909E+03  0.41800000000E+01 0.  1.
        -11    1    4    4    0    0 -0.39962446833E+02 -0.88974916103E+02  0.28641361469E+02  0.10165559719E+03  0.00000000000E+00 0.  1.
         11    1    4    4    0    0 -0.98568498862E+02 -0.35872101741E+02 -0.17776016726E+02  0.10638864329E+03  0.00000000000E+00 0. -1.
</event>
<event>
 8    1  0.3708258E-009  0.9046057E+02  0.7561462E-02  0.1301740E+00
         -1   -1    0    0    0  501 -0.00000000000E+00  0.00000000000E+00  0.30672831171E+03  0.30672831171E+03  0.00000000000E+00 0.  1.
          1   -1    0    0  501    0  0.00000000000E+00 -0.00000000000E+00 -0.49904167686E+02  0.49904167686E+02  0.00000000000E+00 0. -1.
         25    2    1    2    0    0  0.13158369482E+02  0.11183455709E+02  0.22697880970E+03  0.25974374497E+03  0.12509684500E+03 0.  0.
         23    2    1    2    0    0 -0.13158369482E+02 -0.11183455709E+02  0.29845334331E+02  0.96888734432E+02  0.90545405789E+02 0.  0.
          5    1    3    3  502    0 -0.27636312238E+02  0.34828354491E+02  0.22783106847E+02  0.50133046869E+02  0.41800000000E+01 0. -1.
         -5    1    3    3    0  502  0.40794681721E+02 -0.23644898782E+02  0.20419570285E+03  0.20961069810E+03  0.41800000000E+01 0. -1.
        -11    1    4    4    0    0 -0.50676702764E+02 -0.75004007342E+01  0.44234243496E+01  0.51419363057E+02  0.00000000000E+00 0. -1.
         11    1    4    4    0    0  0.37518333282E+02 -0.36830549751E+01  0.25421909981E+02  0.45469371375E+02  0.00000000000E+00 0.  1.
</event>
<event>
 8    1  0.3708258E-009  0.1037702E+03  0.7561462E-02  0.1272562E+00
          1   -1    0    0  501    0  0.00000000000E+00  0.00000000000E+00  0.11700974328E+04  0.11700974328E+04  0.00000000000E+00 0. -1.
         -1   -1    0    0    0  501 -0.00000000000E+00 -0.00000000000E+00 -0.22215061693E+02  0.22215061693E+02  0.00000000000E+00 0.  1.
         25    2    1    2    0    0  0.18298079755E+02 -0.62550109381E+02  0.98252220527E+03  0.99259486664E+03  0.12508936615E+03 0.  0.
         23    2    1    2    0    0 -0.18298079755E+02  0.62550109381E+02  0.16536016589E+03  0.19971762790E+03  0.91081340168E+02 0.  0.
          5    1    3    3  502    0 -0.17330166669E+02 -0.64805605692E+02  0.24086047311E+03  0.25006267437E+03  0.41800000000E+01 0.  1.
         -5    1    3    3    0  502  0.35628246424E+02  0.22554963109E+01  0.74166173216E+03  0.74253219227E+03  0.41800000000E+01 0.  1.
        -11    1    4    4    0    0 -0.35821216040E+02  0.74846606032E+02  0.94816488501E+02  0.12599738269E+03  0.00000000000E+00 0.  1.
         11    1    4    4    0    0  0.17523136285E+02 -0.12296496651E+02  0.70543677385E+02  0.73720245212E+02  0.00000000000E+00 0. -1.
</event>
<event>
 8    1  0.3708258E-009  0.9410078E+02  0.7561462E-02  0.1293214E+00
          3   -1    0    0  501    0  0.00000000000E+00  0.00000000000E+00  0.30836288717E+02  0.30836288717E+02  0.00000000000E+00 0. -1.
         -3   -1    0    0    0  501 -0.00000000000E+00 -0.00000000000E+00 -0.53825821318E+03  0.53825821318E+03  0.00000000000E+00 0.  1.
         25    2    1    2    0    0  0.25766700631E+02  0.28235001745E+02 -0.15185372459E+03  0.20042236590E+03  0.12509369647E+03 0.  0.
         23    2    1    2    0    0 -0.25766700631E+02 -0.28235001745E+02 -0.35556819988E+03  0.36867213600E+03  0.89606143277E+02 0.  0.
          5    1    3    3  502    0 -0.30023509655E+02  0.26038388762E+01  0.59882938741E+01  0.31008437116E+02  0.41800000000E+01 0.  1.
         -5    1    3    3    0  502  0.55790210285E+02  0.25631162869E+02 -0.15784201846E+03  0.16941392878E+03  0.41800000000E+01 0.  1.
        -11    1    4    4    0    0 -0.16258577410E+02  0.31661460211E+02 -0.16025971944E+03  0.16416445132E+03  0.00000000000E+00 0.  1.
         11    1    4    4    0    0 -0.95081232203E+01 -0.59896461956E+02 -0.19530848044E+03  0.20450768468E+03  0.00000000000E+00 0. -1.
</event>
<event>
 8    1  0.3708258E-009  0.9756918E+02  0.7561462E-02  0.1285492E+00
         -1   -1    0    0    0  501 -0.00000000000E+00  0.00000000000E+00  0.69472007039E+02  0.69472007039E+02  0.00000000000E+00 0.  1.
          1   -1    0    0  501    0  0.00000000000E+00 -0.00000000000E+00 -0.21693968930E+03  0.21693968930E+03  0.00000000000E+00 0. -1.
         25    2    1    2    0    0  0.51062875894E+02  0.18291126420E+01 -0.11211741230E+03  0.17557618369E+03  0.12508364878E+03 0.  0.
         23    2    1    2    0    0 -0.51062875894E+02 -0.18291126420E+01 -0.35350269966E+02  0.11083551265E+03  0.91782930492E+02 0.  0.
          5    1    3    3  502    0  0.44146582411E+02 -0.32492222008E+02  0.31226226186E+01  0.55062586223E+02  0.41800000000E+01 0.  1.
         -5    1    3    3    0  502  0.69162934834E+01  0.34321334650E+02 -0.11524003491E+03  0.12051359747E+03  0.41800000000E+01 0.  1.
        -11    1    4    4    0    0 -0.22963575493E+02  0.44869147745E+02 -0.19870331321E+02  0.54179297573E+02  0.00000000000E+00 0. -1.
         11    1    4    4    0    0 -0.28099300401E+02 -0.46698260387E+02 -0.15479938645E+02  0.56656215075E+02  0.00000000000E+00 0.  1.
</event>
<event>
 8    1  0.3708258E-009  0.1707215E+03  0.7561462E-02  0.1177097E+00
         -1   -1    0    0    0  501 -0.00000000000E+00  0.00000000000E+00  0.37287066438E+02  0.37287066438E+02  0.00000000000E+00 0.  1.
          1   -1    0    0  501    0  0.00000000000E+00 -0.00000000000E+00 -0.95383748252E+03  0.95383748252E+03  0.00000000000E+00 0. -1.
         25    2    1    2    0    0  0.13577343217E+01 -0.15302843752E+03 -0.47594312187E+03  0.51535337057E+03  0.12509074774E+03 0.  0.
         23    2    1    2    0    0 -0.13577343217E+01  0.15302843752E+03 -0.44060729422E+03  0.47577117839E+03  0.93828995204E+02 0.  0.
          5    1    3    3  502    0 -0.44643005892E+02 -0.12848912445E+03 -0.40472401701E+03  0.42699116551E+03  0.41800000000E+01 0.  1.
         -5    1    3    3    0  502  0.46000740214E+02 -0.24539313070E+02 -0.71219104858E+02  0.88362205059E+02  0.41800000000E+01 0.  1.
        -11    1    4    4    0    0  0.57687581219E+00  0.58466414984E+02 -0.30428159754E+03  0.30984826136E+03  0.00000000000E+00 0. -1.
         11    1    4    4    0    0 -0.19346101339E+01  0.94562022537E+02 -0.13632569668E+03  0.16592291704E+03  0.00000000000E+00 0.  1.
</event>
<event>
 8    1  0.3708258E-009  0.1754031E+03  0.7561462E-02  0.1172328E+00
         -3   -1    0    0    0  501 -0.00000000000E+00  0.00000000000E+00  0.14561732245E+03  0.14561732245E+03  0.00000000000E+00 0.  1.
          3   -1    0    0  501    0  0.00000000000E+00 -0.00000000000E+00 -0.26279650705E+03  0.26279650705E+03  0.00000000000E+00 0. -1.
         25    2    1    2    0    0 -0.30763490157E+02  0.15103506600E+03 -0.11824731337E+03  0.23105827772E+03  0.12509003596E+03 0.  0.
         23    2    1    2    0    0  0.30763490157E+02 -0.15103506600E+03  0.10681287674E+01  0.17735555179E+03  0.87726092822E+02 0.  0.
          5    1    3    3  502    0  0.45894518611E+01  0.15421848553E+03 -0.11964997746E+03  0.19528951291E+03  0.41800000000E+01 0. -1.
         -5    1    3    3    0  502 -0.35352942018E+02 -0.31834195282E+01  0.14026640976E+01  0.35768764807E+02  0.41800000000E+01 0. -1.
        -11    1    4    4    0    0  0.42196398376E+02 -0.10224699020E+03 -0.34543821893E+02  0.11588036362E+03  0.00000000000E+00 0. -1.
         11    1    4    4    0    0 -0.11432908219E+02 -0.48788075797E+02  0.35611950660E+02  0.61475188167E+02  0.00000000000E+00 0.  1.
</event>
<event>
 8    1  0.3708258E-009  0.1399504E+03  0.7561462E-02  0.1213396E+00
          2   -1    0    0  501    0  0.00000000000E+00  0.00000000000E+00  0.22597482034E+04  0.22597482034E+04  0.00000000000E+00 0. -1.
         -2   -1    0    0    0  501 -0.00000000000E+00 -0.00000000000E+00 -0.19410337134E+02  0.19410337134E+02  0.00000000000E+00 0.  1.
         25    2    1    2    0    0  0.20853662301E+00  0.10583936473E+03  0.19468130396E+04  0.19536966599E+04  0.12509041959E+03 0.  0.
         23    2    1    2    0    0 -0.20853662301E+00 -0.10583936473E+03  0.29352482672E+03  0.32546188070E+03  0.92555914316E+02 0.  0.
          5    1    3    3  502    0 -0.47827284106E+02  0.32093955074E+02  0.12502734550E+04  0.12516064300E+04  0.41800000000E+01 0.  1.
         -5    1    3    3    0  502  0.48035820729E+02  0.73745409659E+02  0.69653958461E+03  0.70209022985E+03  0.41800000000E+01 0.  1.
        -11    1    4    4    0    0  0.15144728609E+02 -0.11511348143E+03  0.20928731060E+03  0.23933586190E+03  0.00000000000E+00 0.  1.
         11    1    4    4    0    0 -0.15353265232E+02  0.92741166932E+01  0.84237516113E+02  0.86126018802E+02  0.00000000000E+00 0. -1.
</event>
<event>
 8    1  0.3708258E-009  0.1199207E+03  0.7561462E-02  0.1243228E+00
         -2   -1    0    0    0  501 -0.00000000000E+00  0.00000000000E+00  0.35395045030E+02  0.35395045030E+02  0.00000000000E+00 0. -1.
          2   -1    0    0  501    0  0.00000000000E+00 -0.00000000000E+00 -0.50704316867E+03  0.50704316867E+03  0.00000000000E+00 0.  1.
         25    2    1    2    0    0 -0.65025713667E+02  0.12101234674E+02 -0.17482019659E+03  0.22491181475E+03  0.12509372470E+03 0.  0.
         23    2    1    2    0    0  0.65025713667E+02 -0.12101234674E+02 -0.29682792706E+03  0.31752639896E+03  0.91331333269E+02 0.  0.
          5    1    3    3  502    0 -0.43156981011E+02  0.60682722195E+02 -0.51857316446E+02  0.90838160769E+02  0.41800000000E+01 0. -1.
         -5    1    3    3    0  502 -0.21868732656E+02 -0.48581487520E+02 -0.12296288014E+03  0.13407365398E+03  0.41800000000E+01 0. -1.
        -11    1    4    4    0    0  0.58090126527E+02  0.32580423815E+02 -0.19647858590E+03  0.20746031315E+03  0.00000000000E+00 0.  1.
         11    1    4    4    0    0  0.69355871400E+01 -0.44681658489E+02 -0.10034934116E+03  0.11006608581E+03  0.00000000000E+00 0. -1.
</event>
<event>
 8    1  0.3708258E-009  0.2979150E+03  0.7561462E-02  0.1086288E+00
         -2   -1    0    0    0  501 -0.00000000000E+00  0.00000000000E+00  0.14381876646E+03  0.14381876646E+03  0.00000000000E+00 0.  1.
          2   -1    0    0  501    0  0.00000000000E+00 -0.00000000000E+00 -0.78421668991E+03  0.78421668991E+03  0.00000000000E+00 0. -1.
         25    2    1    2    0    0  0.25081730696E+03  0.13446585373E+03 -0.52020080304E+03  0.60600914040E+03  0.12509122858E+03 0.  0.
         23    2    1    2    0    0 -0.25081730696E+03 -0.13446585373E+03 -0.12019712041E+03  0.32202631597E+03  0.90902217418E+02 0.  0.
          5    1    3    3  502    0  0.17226126914E+03  0.15251985378E+03 -0.38923616080E+03  0.45217088796E+03  0.41800000000E+01 0. -1.
         -5    1    3    3    0  502  0.78556037822E+02 -0.18054000048E+02 -0.13096464224E+03  0.15383825244E+03  0.41800000000E+01 0. -1.
        -11    1    4    4    0    0 -0.97901321301E+02 -0.44056009212E+02 -0.93544571505E+02  0.14239447854E+03  0.00000000000E+00 0. -1.
         11    1    4    4    0    0 -0.15291598566E+03 -0.90409844519E+02 -0.26652548910E+02  0.17963183743E+03  0.00000000000E+00 0.  1.
</event>
<event>
 8    1  0.3708258E-009  0.1178894E+03  0.7561462E-02  0.1246620E+00
         -2   -1    0    0    0  501 -0.00000000000E+00  0.00000000000E+00  0.15025849618E+02  0.15025849618E+02  0.00000000000E+00 0.  1.
          2   -1    0    0  501    0  0.00000000000E+00 -0.00000000000E+00 -0.13704887113E+04  0.13704887113E+04  0.00000000000E+00 0. -1.
         25    2    1    2    0    0 -0.65980057044E+02  0.63614560386E+02 -0.86064860037E+03  0.87450772703E+03  0.12509025179E+03 0.  0.
         23    2    1    2    0    0  0.65980057044E+02 -0.63614560386E+02 -0.49481426126E+03  0.51100683384E+03  0.88806817652E+02 0.  0.
          5    1    3    3  502    0 -0.37750056779E+01  0.50673087955E+02 -0.11088226030E+03  0.12204245392E+03  0.41800000000E+01 0.  1.
         -5    1    3    3    0  502 -0.62205051367E+02  0.12941472431E+02 -0.74976634008E+03  0.75246527311E+03  0.41800000000E+01 0.  1.
        -11    1    4    4    0    0  0.23897055013E+01 -0.57151519833E+02 -0.15465618098E+03  0.16489554641E+03  0.00000000000E+00 0.  1.
         11    1    4    4    0    0  0.63590351543E+02 -0.64630405538E+01 -0.34015808028E+03  0.34611128743E+03  0.00000000000E+00 0. -1.
</event>
<event>
 8    1  0.3708258E-009  0.2609597E+03  0.7561462E-02  0.1106568E+00
          1   -1    0    0  501    0  0.00000000000E+00  0.00000000000E+00  0.11075747265E+04  0.11075747265E+04  0.00000000000E+00 0. -1.
         -1   -1    0    0    0  501 -0.00000000000E+00 -0.00000000000E+00 -0.70978045427E+02  0.70978045427E+02  0.00000000000E+00 0.  1.
         25    2    1    2    0    0 -0.23448581330E+03 -0.96810489516E+02  0.64080649072E+03  0.70045482262E+03  0.12509249559E+03 0.  0.
         23    2    1    2    0    0  0.23448581330E+03  0.96810489516E+02  0.39579019038E+03  0.47809794934E+03  0.87016704388E+02 0.  0.
          5    1    3    3  502    0 -0.49566333597E+02 -0.61563562504E+01  0.36493894927E+02  0.61999991254E+02  0.41800000000E+01 0.  1.
         -5    1    3    3    0  502 -0.18491947971E+03 -0.90654133266E+02  0.60431259580E+03  0.63845483136E+03  0.41800000000E+01 0.  1.
        -11    1    4    4    0    0  0.42562308674E+02  0.54722143728E+02  0.76903084496E+02  0.10353814533E+03  0.00000000000E+00 0.  1.
         11    1    4    4    0    0  0.19192350463E+03  0.42088345788E+02  0.31888710588E+03  0.37455980401E+03  0.00000000000E+00 0. -1.
</event>
<event>
 8    1  0.3708258E-009  0.1064211E+03  0.7561462E-02  0.1267345E+00
         -2   -1    0    0    0  501 -0.00000000000E+00  0.00000000000E+00  0.88853857053E+02  0.88853857053E+02  0.00000000000E+00 0.  1.
          2   -1    0    0  501    0  0.00000000000E+00 -0.00000000000E+00 -0.18378923510E+03  0.18378923510E+03  0.00000000000E+00 0. -1.
         25    2    1    2    0    0 -0.13966918917E+02  0.27439016578E+02 -0.11658636415E+03  0.17374571405E+03  0.12508884199E+03 0.  0.
         23    2    1    2    0    0  0.13966918917E+02 -0.27439016578E+02  0.21650986098E+02  0.98897378105E+02  0.91454643088E+02 0.  0.
          5    1    3    3  502    0  0.37276250988E+02 -0.23477411870E+02 -0.10750192438E+02  0.45538410087E+02  0.41800000000E+01 0. -1.
         -5    1    3    3    0  502 -0.51243169905E+02  0.50916428448E+02 -0.10583617171E+03  0.12820730397E+03  0.41800000000E+01 0. -1.
        -11    1    4    4    0    0 -0.38552782150E+02 -0.19202302261E+02  0.60447388545E+01  0.43492347504E+02  0.00000000000E+00 0.  1.
         11    1    4    4    0    0  0.52519701067E+02 -0.82367143171E+01  0.15606247243E+02  0.55405030601E+02  0.00000000000E+00 0. -1.
</event>
<event>
 8    1  0.3708258E-009  0.1175488E+03  0.7561462E-02  0.1247196E+00
          2   -1    0    0  501    0  0.00000000000E+00  0.00000000000E+00  0.70142628076E+03  0.70142628076E+03  0.00000000000E+00 0. -1.
         -2   -1    0    0    0  501 -0.00000000000E+00 -0.00000000000E+00 -0.33216480062E+02  0.33216480062E+02  0.00000000000E+00 0.  1.
         25    2    1    2    0    0 -0.58514199294E+02  0.49609516375E+02  0.53267206809E+03  0.55251459093E+03  0.12509126844E+03 0.  0.
         23    2    1    2    0    0  0.58514199294E+02 -0.49609516375E+02  0.13553773261E+03  0.18212816989E+03  0.94420218557E+02 0.  0.
          5    1    3    3  502    0 -0.20458900576E+02  0.71889729123E+02  0.15368908135E+03  0.17095176481E+03  0.41800000000E+01 0. -1.
         -5    1    3    3    0  502 -0.38055298719E+02 -0.22280212748E+02  0.37898298674E+03  0.38156282612E+03  0.41800000000E+01 0. -1.
        -11    1    4    4    0    0  0.71884945784E+02 -0.81101872373E+01  0.56224909805E+02  0.91621291466E+02  0.00000000000E+00 0.  1.
         11    1    4    4    0    0 -0.13370746490E+02 -0.41499329137E+02  0.79312822807E+02  0.90506878425E+02  0.00000000000E+00 0. -1.
</event>
<event>
 8    1  0.3708258E-009  0.1092796E+03  0.7561462E-02  0.1261910E+00
          1   -1    0    0  501    0  0.00000000000E+00  0.00000000000E+00  0.62669715668E+02  0.62669715668E+02  0.00000000000E+00 0. -1.
         -1   -1    0    0    0  501 -0.00000000000E+00 -0.00000000000E+00 -0.23849293135E+03  0.23849293135E+03  0.00000000000E+00 0.  1.
         25    2    1    2    0    0 -0.22134414735E+02  0.15033084008E+02 -0.36016703502E+02  0.13289201595E+03  0.12508860476E+03 0.  0.
         23    2    1    2    0    0  0.22134414735E+02 -0.15033084008E+02 -0.13980651218E+03  0.16827063106E+03  0.89739726438E+02 0.  0.
          5    1    3    3  502    0 -0.56177768167E+02  0.51064176082E+02 -0.33491031759E+02  0.83081967499E+02  0.41800000000E+01 0. -1.
         -5    1    3    3    0  502  0.34043353433E+02 -0.36031092074E+02 -0.25256717430E+01  0.49810048451E+02  0.41800000000E+01 0. -1.
        -11    1    4    4    0    0  0.40635368798E+02 -0.43054618663E+02 -0.77893322389E+02  0.97838147256E+02  0.00000000000E+00 0.  1.
         11    1    4    4    0    0 -0.18500954064E+02  0.28021534655E+02 -0.61913189788E+02  0.70432483809E+02  0.00000000000E+00 0. -1.
</event>
<event>
 8    1  0.3708258E-009  0.1241554E+03  0.7561462E-02  0.1236395E+00
          1   -1    0    0  501    0  0.00000000000E+00  0.00000000000E+00  0.26188849869E+02  0.26188849869E+02  0.00000000000E+00 0. -1.
         -1   -1    0    0    0  501 -0.00000000000E+00 -0.00000000000E+00 -0.65043413311E+03  0.65043413311E+03  0.00000000000E+00 0.  1.
         25    2    1    2    0    0 -0.71498835659E+02  0.20790994400E+02 -0.33938983523E+03  0.36929341568E+03  0.12509123736E+03 0.  0.
         23    2    1    2    0    0  0.71498835659E+02 -0.20790994400E+02 -0.28485544802E+03  0.30732956730E+03  0.88116330615E+02 0.  0.
          5    1    3    3  502    0  0.28251800208E+02 -0.15863249164E+02 -0.40430301898E+02  0.51979694117E+02  0.41800000000E+01 0. -1.
         -5    1    3    3    0  502 -0.99750635866E+02  0.36654243563E+02 -0.29895953333E+03  0.31731372157E+03  0.41800000000E+01 0. -1.
        -11    1    4    4    0    0 -0.10456767924E+02 -0.25128177818E+02 -0.12156811523E+03  0.12457759011E+03  0.00000000000E+00 0. -1.
         11    1    4    4    0    0  0.81955603583E+02  0.43371834177E+01 -0.16328733279E+03  0.18275197719E+03  0.00000000000E+00 0.  1.
</event>
<event>
 8    1  0.3708258E-009  0.1326209E+03  0.7561462E-02  0.1223618E+00
         -1   -1    0    0    0  501 -0.00000000000E+00  0.00000000000E+00  0.37837290269E+03  0.37837290269E+03  0.00000000000E+00 0.  1.
          1   -1    0    0  501    0  0.00000000000E+00 -0.00000000000E+00 -0.52841463906E+02  0.52841463906E+02  0.00000000000E+00 0. -1.
         25    2    1    2    0    0 -0.31170278920E+02 -0.81403700796E+02  0.22922640060E+03  0.27529878952E+03  0.12508609831E+03 0.  0.
         23    2    1    2    0    0  0.31170278920E+02  0.81403700796E+02  0.96305038184E+02  0.15591557707E+03  0.86237219363E+02 0.  0.
          5    1    3    3  502    0 -0.58961096849E+02 -0.27998484096E+01  0.49563004836E+02  0.77189467812E+02  0.41800000000E+01 0. -1.
         -5    1    3    3    0  502  0.27790817928E+02 -0.78603852386E+02  0.17966339577E+03  0.19810932171E+03  0.41800000000E+01 0. -1.
        -11    1    4    4    0    0  0.59954247545E+02  0.39662221053E+02  0.54841577050E+02  0.90416824490E+02  0.00000000000E+00 0.  1.
         11    1    4    4    0    0 -0.28783968624E+02  0.41741479743E+02  0.41463461135E+02  0.65498752584E+02  0.00000000000E+00 0. -1.
</event>
<event>
 8    1  0.3708258E-009  0.1394672E+03  0.7561462E-02  0.1214048E+00
         -1   -1    0    0    0  501 -0.00000000000E+00  0.00000000000E+00  0.69790443319E+02  0.69790443319E+02  0.00000000000E+00 0.  1.
          1   -1    0    0  501    0  0.00000000000E+00 -0.00000000000E+00 -0.34027944853E+03  0.34027944853E+03  0.00000000000E+00 0. -1.
         25    2    1    2    0    0  0.82930474280E+02  0.74512464921E+02 -0.14412581202E+03  0.22101951042E+03  0.12509117996E+03 0.  0.
         23    2    1    2    0    0 -0.82930474280E+02 -0.74512464921E+02 -0.12636319319E+03  0.18905038142E+03  0.85690251083E+02 0.  0.
          5    1    3    3  502    0  0.72831010487E+02 -0.82738365930E+01 -0.29319614539E+02  0.79056464994E+02  0.41800000000E+01 0.  1.
         -5    1    3    3    0  502  0.10099463793E+02  0.82786301514E+02 -0.11480619748E+03  0.14196304543E+03  0.41800000000E+01 0.  1.
        -11    1    4    4    0    0 -0.29176250892E+02  0.11486550328E+01  0.35240359036E+01  0.29410743846E+02  0.00000000000E+00 0.  1.
         11    1    4    4    0    0 -0.53754223388E+02 -0.75661119954E+02 -0.12988722909E+03  0.15963963758E+03  0.00000000000E+00 0. -1.
</event>
<event>
 8    1  0.3708258E-009  0.1158022E+03  0.7561462E-02  0.1250187E+00
          3   -1    0    0  501    0  0.00000000000E+00  0.00000000000E+00  0.23566335132E+03  0.23566335132E+03  0.00000000000E+00 0. -1.
         -3   -1    0    0    0  501 -0.00000000000E+00 -0.00000000000E+00 -0.11081940087E+03  0.11081940087E+03  0.00000000000E+00 0.  1.
         25    2    1    2    0    0  0.58998229453E+02  0.64978307518E+02 -0.18182288506E+02  0.15388532563E+03  0.12508847390E+03 0.  0.
         23    2    1    2    0    0 -0.58998229453E+02 -0.64978307518E+02  0.14302623896E+03  0.19259742656E+03  0.94521384683E+02 0.  0.
          5    1    3    3  502    0  0.81007916960E+02  0.49555602799E+02  0.29038289275E+02  0.99391825735E+02  0.41800000000E+01 0. -1.
         -5    1    3    3    0  502 -0.22009687507E+02  0.15422704719E+02 -0.47220577781E+02  0.54493499897E+02  0.41800000000E+01 0. -1.
        -11    1    4    4    0    0  0.11530226468E+02 -0.26747289925E+02  0.94390269477E+02  0.98782015633E+02  0.00000000000E+00 0. -1.
         11    1    4    4    0    0 -0.70528455921E+02 -0.38231017593E+02  0.48635969481E+02  0.93815410931E+02  0.00000000000E+00 0.  1.
</event>
<event>
 8    1  0.3708258E-009  0.1011600E+03  0.7561462E-02  0.1277875E+00
          2   -1    0    0  501    0  0.00000000000E+00  0.00000000000E+00  0.22314014795E+03  0.22314014795E+03  0.00000000000E+00 0. -1.
         -2   -1    0    0    0  501 -0.00000000000E+00 -0.00000000000E+00 -0.70104436749E+02  0.70104436749E+02  0.00000000000E+00 0.  1.
         25    2    1    2    0    0  0.64375389801E+02 -0.75164958555E+00  0.98338120791E+02  0.17164570703E+03  0.12508839656E+03 0.  0.
         23    2    1    2    0    0 -0.64375389801E+02  0.75164958555E+00  0.54697590406E+02  0.12159887766E+03  0.87462591222E+02 0.  0.
          5    1    3    3  502    0  0.97025857112E+02  0.14122112740E+02  0.46839678685E+02  0.10874225911E+03  0.41800000000E+01 0.  1.
         -5    1    3    3    0  502 -0.32650467311E+02 -0.14873762326E+02  0.51498442107E+02  0.62903447924E+02  0.41800000000E+01 0.  1.
        -11    1    4    4    0    0 -0.18681259697E+02 -0.98996316766E+01 -0.22743907576E+02  0.31052817956E+02  0.00000000000E+00 0.  1.
         11    1    4    4    0    0 -0.45694130104E+02  0.10651281262E+02  0.77441497982E+02  0.90546059706E+02  0.00000000000E+00 0. -1.
</event>
<event>
 8    1  0.3708258E-009  0.1851654E+03  0.7561462E-02  0.1162896E+00
         -2   -1    0    0    0  501 -0.00000000000E+00  0.00000000000E+00  0.97374171632E+02  0.97374171632E+02  0.00000000000E+00 0.  1.
          2   -1    0    0  501    0  0.00000000000E+00 -0.00000000000E+00 -0.43371259401E+03  0.43371259401E+03  0.00000000000E+00 0. -1.
         25    2    1    2    0    0 -0.10743981145E+03  0.12847440504E+03 -0.11364635407E+03  0.23793194458E+03  0.12508849116E+03 0.  0.
         23    2    1    2    0    0  0.10743981145E+03 -0.12847440504E+03 -0.22269206831E+03  0.29315482107E+03  0.91098880313E+02 0.  0.
          5    1    3    3  502    0 -0.15225177322E+02  0.88175626604E+02 -0.10322260900E+03  0.13667160115E+03  0.41800000000E+01 0. -1.
         -5    1    3    3    0  502 -0.92214634124E+02  0.40298778439E+02 -0.10423745076E+02  0.10126034343E+03  0.41800000000E+01 0. -1.
        -11    1    4    4    0    0  0.65452813518E+02 -0.28103274419E+02 -0.43332539582E+02  0.83376098596E+02  0.00000000000E+00 0.  1.
         11    1    4    4    0    0  0.41986997928E+02 -0.10037113062E+03 -0.17935952872E+03  0.20977872247E+03  0.00000000000E+00 0. -1.
</event>
<event>
 8    1  0.3708258E-009  0.1014135E+03  0.7561462E-02  0.1277351E+00
         -2   -1    0    0    0  501 -0.00000000000E+00  0.00000000000E+00  0.24564619201E+02  0.24564619201E+02  0.00000000000E+00 0.  1.
          2   -1    0    0  501    0  0.00000000000E+00 -0.00000000000E+00 -0.53834994265E+03  0.53834994265E+03  0.00000000000E+00 0. -1.
         25    2    1    2    0    0 -0.35125145553E+02  0.85474376202E+01 -0.25759560556E+03  0.28863339283E+03  0.12508758897E+03 0.  0.
         23    2    1    2    0    0  0.35125145553E+02 -0.85474376202E+01 -0.25618971788E+03  0.27428116901E+03  0.91050280535E+02 0.  0.
          5    1    3    3  502    0 -0.63103832516E+02 -0.22506178068E+02 -0.72391120713E+02  0.98724710622E+02  0.41800000000E+01 0.  1.
         -5    1    3    3    0  502  0.27978686963E+02  0.31053615688E+02 -0.18520448485E+03  0.18990868221E+03  0.41800000000E+01 0.  1.
        -11    1    4    4    0    0 -0.29051438442E+02 -0.94274647261E+00 -0.12095119980E+03  0.12439480528E+03  0.00000000000E+00 0. -1.
         11    1    4    4    0    0  0.64176583995E+02 -0.76046911476E+01 -0.13523851808E+03  0.14988636373E+03  0.00000000000E+00 0.  1.
</event>
<event>
 8    1  0.3708258E-009  0.7897242E+02  0.7561462E-02  0.1331993E+00
          1   -1    0    0  501    0  0.00000000000E+00  0.00000000000E+00  0.40189390493E+03  0.40189390493E+03  0.00000000000E+00 0. -1.
         -1   -1    0    0    0  501 -0.00000000000E+00 -0.00000000000E+00 -0.42727060197E+02  0.42727060197E+02  0.00000000000E+00 0.  1.
         25    2    1    2    0    0  0.50874484023E+02  0.28208068339E+02  0.12553508794E+03  0.18651468544E+03  0.12507902036E+03 0.  0.
         23    2    1    2    0    0 -0.50874484023E+02 -0.28208068339E+02  0.23363175679E+03  0.25810627969E+03  0.93011534719E+02 0.  0.
          5    1    3    3  502    0  0.62412997115E+02  0.32812921705E+02  0.14601264529E+03  0.16220121770E+03  0.41800000000E+01 0.  1.
         -5    1    3    3    0  502 -0.11538513092E+02 -0.46048533665E+01 -0.20477557341E+02  0.24313467740E+02  0.41800000000E+01 0.  1.
        -11    1    4    4    0    0 -0.34372773495E+02 -0.40868471347E+02  0.23105807067E+03  0.23714879618E+03  0.00000000000E+00 0. -1.
         11    1    4    4    0    0 -0.16501710528E+02  0.12660403008E+02  0.25736861156E+01  0.20957483506E+02  0.00000000000E+00 0.  1.
</event>
<event>
 8    1  0.3708258E-009  0.1066911E+03  0.7561462E-02  0.1266823E+00
         -1   -1    0    0    0  501 -0.00000000000E+00  0.00000000000E+00  0.37471106868E+02  0.37471106868E+02  0.00000000000E+00 0.  1.
          1   -1    0    0  501    0  0.00000000000E+00 -0.00000000000E+00 -0.39578536169E+03  0.39578536169E+03  0.00000000000E+00 0. -1.
         25    2    1    2    0    0  0.11586137536E+02  0.22235968066E+02 -0.28905951810E+03  0.31596129000E+03  0.12508978742E+03 0.  0.
         23    2    1    2    0    0 -0.11586137536E+02 -0.22235968066E+02 -0.69254736726E+02  0.11729517856E+03  0.91286710398E+02 0.  0.
          5    1    3    3  502    0 -0.29740997823E+01 -0.51653299620E+02 -0.10833029981E+03  0.12012424771E+03  0.41800000000E+01 0. -1.
         -5    1    3    3    0  502  0.14560237318E+02  0.73889267686E+02 -0.18072921829E+03  0.19583704229E+03  0.41800000000E+01 0. -1.
        -11    1    4    4    0    0  0.96831149364E+01 -0.50081632927E+02 -0.64036287923E+02  0.81869278991E+02  0.00000000000E+00 0. -1.
         11    1    4    4    0    0 -0.21269252472E+02  0.27845664861E+02 -0.52184488032E+01  0.35425899568E+02  0.00000000000E+00 0.  1.
</event>
<event>
 8    1  0.3708258E-009  0.8505268E+02  0.7561462E-02  0.1315295E+00
          2   -1    0    0  501    0  0.00000000000E+00  0.00000000000E+00  0.13343977447E+03  0.13343977447E+03  0.00000000000E+00 0. -1.
         -2   -1    0    0    0  501 -0.00000000000E+00 -0.00000000000E+00 -0.11686446331E+03  0.11686446331E+03  0.00000000000E+00 0.  1.
         25    2    1    2    0    0 -0.23954981735E+02  0.49551974107E+02 -0.19546286462E+02  0.13805288060E+03  0.12508917315E+03 0.  0.
         23    2    1    2    0    0  0.23954981735E+02 -0.49551974107E+02  0.36121597624E+02  0.11225135718E+03  0.90919514324E+02 0.  0.
          5    1    3    3  502    0 -0.34814879077E+01  0.48845542106E+02  0.47179773570E+02  0.68127903063E+02  0.41800000000E+01 0.  1.
         -5    1    3    3    0  502 -0.20473493827E+02  0.70643200072E+00 -0.66726060032E+02  0.69924977534E+02  0.41800000000E+01 0.  1.
        -11    1    4    4    0    0  0.45291334310E+02 -0.60890694944E+02  0.42876344506E+02  0.87162851104E+02  0.00000000000E+00 0. -1.
         11    1    4    4    0    0 -0.21336352575E+02  0.11338720838E+02 -0.67547468820E+01  0.25088506071E+02  0.00000000000E+00 0.  1.
</event>
<event>
 8    1  0.3708258E-009  0.9404756E+02  0.7561462E-02  0.1293336E+00
         -3   -1    0    0    0  501 -0.00000000000E+00  0.00000000000E+00  0.88772609422E+02  0.88772609422E+02  0.00000000000E+00 0.  1.
          3   -1    0    0  501    0  0.00000000000E+00 -0.00000000000E+00 -0.13345069918E+03  0.13345069918E+03  0.00000000000E+00 0. -1.
         25    2    1    2    0    0  0.10605604183E+02 -0.31939048898E+01 -0.29402290008E+02  0.12896483786E+03  0.12507899455E+03 0.  0.
         23    2    1    2    0    0 -0.10605604183E+02  0.31939048898E+01 -0.15275799749E+02  0.93258470739E+02  0.91329690890E+02 0.  0.
          5    1    3    3  502    0  0.42535380489E+02  0.29573941860E+02 -0.55573881627E+02  0.76090770463E+02  0.41800000000E+01 0. -1.
         -5    1    3    3    0  502 -0.31929776306E+02 -0.32767846750E+02  0.26171591619E+02  0.52874067401E+02  0.41800000000E+01 0. -1.
        -11    1    4    4    0    0  0.37022174819E+02  0.16784466614E+02  0.22726566491E+01  0.40712709515E+02  0.00000000000E+00 0.  1.
         11    1    4    4    0    0 -0.47627779002E+02 -0.13590561724E+02 -0.17548456398E+02  0.52545761224E+02  0.00000000000E+00 0. -1.
</event>
<event>
 8    1  0.3708258E-009  0.1623313E+03  0.7561462E-02  0.1186090E+00
          2   -1    0    0  501    0  0.00000000000E+00  0.00000000000E+00  0.35893433400E+02  0.35893433400E+02  0.00000000000E+00 0. -1.
         -2   -1    0    0    0  501 -0.00000000000E+00 -0.00000000000E+00 -0.81809913163E+03  0.81809913163E+03  0.00000000000E+00 0.  1.
         25    2    1    2    0    0  0.12680027747E+03  0.38661497110E+02 -0.41138624977E+03  0.44995490526E+03  0.12509096109E+03 0.  0.
         23    2    1    2    0    0 -0.12680027747E+03 -0.38661497110E+02 -0.37081944846E+03  0.40403765977E+03  0.90367834043E+02 0.  0.
          5    1    3    3  502    0  0.45418228477E+02  0.67420551756E+02 -0.11271909616E+03  0.13903745293E+03  0.41800000000E+01 0. -1.
         -5    1    3    3    0  502  0.81382048989E+02 -0.28759054646E+02 -0.29866715361E+03  0.31091745233E+03  0.41800000000E+01 0. -1.
        -11    1    4    4    0    0 -0.13851352324E+03 -0.41870069494E+02 -0.35910718546E+03  0.38716542909E+03  0.00000000000E+00 0.  1.
         11    1    4    4    0    0  0.11713245771E+02  0.32085723839E+01 -0.11712263005E+02  0.16872230675E+02  0.00000000000E+00 0. -1.
</event>
<event>
 8    1  0.3708258E-009  0.1255938E+03  0.7561462E-02  0.1234144E+00
          1   -1    0    0  501    0  0.00000000000E+00  0.00000000000E+00  0.32686686000E+03  0.32686686000E+03  0.00000000000E+00 0. -1.
         -1   -1    0    0    0  501 -0.00000000000E+00 -0.00000000000E+00 -0.77817847899E+02  0.77817847899E+02  0.00000000000E+00 0.  1.
         25    2    1    2    0    0  0.77799918952E+02 -0.31135772246E+02  0.29684711835E+02  0.15346304503E+03  0.12508980922E+03 0.  0.
         23    2    1    2    0    0 -0.77799918952E+02  0.31135772246E+02  0.21936430027E+03  0.25122166287E+03  0.89271294164E+02 0.  0.
          5    1    3    3  502    0 -0.24471210414E+02 -0.32611806240E+01  0.39668748644E+02  0.46910099736E+02  0.41800000000E+01 0.  1.
         -5    1    3    3    0  502  0.10227112937E+03 -0.27874591622E+02 -0.99840368091E+01  0.10655294529E+03  0.41800000000E+01 0.  1.
        -11    1    4    4    0    0 -0.92896352617E+02  0.41508233014E+02  0.20099310920E+03  0.22527959447E+03  0.00000000000E+00 0. -1.
         11    1    4    4    0    0  0.15096433665E+02 -0.10372460768E+02  0.18371191063E+02  0.25942068400E+02  0.00000000000E+00 0.  1.
</event>
<event>
 8    1  0.3708258E-009  0.8418572E+02  0.7561462E-02  0.1317576E+00
         -1   -1    0    0    0  501 -0.00000000000E+00  0.00000000000E+00  0.45700662495E+02  0.45700662495E+02  0.00000000000E+00 0.  1.
          1   -1    0    0  501    0  0.00000000000E+00 -0.00000000000E+00 -0.31927068840E+03  0.31927068840E+03  0.00000000000E+00 0. -1.
         25    2    1    2    0    0  0.42279790976E+02 -0.23609286369E+02 -0.18691581563E+03  0.23006462927E+03  0.12508889791E+03 0.  0.
         23    2    1    2    0    0 -0.42279790976E+02  0.23609286369E+02 -0.86654210272E+02  0.13490672162E+03  0.91355855055E+02 0.  0.
          5    1    3    3  502    0  0.16980388162E+02  0.16057734075E+02  0.11303794961E+02  0.26295105747E+02  0.41800000000E+01 0.  1.
         -5    1    3    3    0  502  0.25299402814E+02 -0.39667020443E+02 -0.19821961060E+03  0.20376952353E+03  0.41800000000E+01 0.  1.
        -11    1    4    4    0    0  0.16565177387E+02  0.33832382788E+02 -0.12498174546E+02  0.39689288151E+02  0.00000000000E+00 0. -1.
         11    1    4    4    0    0 -0.58844968362E+02 -0.10223096419E+02 -0.74156035726E+02  0.95217433470E+02  0.00000000000E+00 0.  1.
</event>
<event>
 8    1  0.3708258E-009  0.1509251E+03  0.7561462E-02  0.1199341E+00
          2   -1    0    0  501    0  0.00000000000E+00  0.00000000000E+00  0.46201378637E+03  0.46201378637E+03  0.00000000000E+00 0. -1.
         -2   -1    0    0    0  501 -0.00000000000E+00 -0.00000000000E+00 -0.68564393856E+02  0.68564393856E+02  0.00000000000E+00 0.  1.
         25    2    1    2    0    0  0.12085680530E+03  0.58505339071E+02  0.14493614912E+03  0.23384494312E+03  0.12509087902E+03 0.  0.
         23    2    1    2    0    0 -0.12085680530E+03 -0.58505339071E+02  0.24851324339E+03  0.29673323710E+03  0.90898513605E+02 0.  0.
          5    1    3    3  502    0  0.85698731206E+02  0.12842604556E+02  0.15262028605E+03  0.17555520253E+03  0.41800000000E+01 0. -1.
         -5    1    3    3    0  502  0.35158074093E+02  0.45662734515E+02 -0.76841369286E+01  0.58289740587E+02  0.41800000000E+01 0. -1.
        -11    1    4    4    0    0 -0.67924005931E+02 -0.75653472675E+02  0.12399861626E+03  0.16035203567E+03  0.00000000000E+00 0.  1.
         11    1    4    4    0    0 -0.52932799368E+02  0.17148133604E+02  0.12451462713E+03  0.13638120143E+03  0.00000000000E+00 0. -1.
</event>
<event>
 8    1  0.3708258E-009  0.8294317E+02  0.7561462E-02  0.1320901E+00
         -1   -1    0    0    0  501 -0.00000000000E+00  0.00000000000E+00  0.13768247254E+03  0.13768247254E+03  0.00000000000E+00 0.  1.
          1   -1    0    0  501    0  0.00000000000E+00 -0.00000000000E+00 -0.96106508668E+02  0.96106508668E+02  0.00000000000E+00 0. -1.
         25    2    1    2    0    0  0.72712363618E+01  0.37316264854E+02  0.36487557917E+02  0.13573509111E+03  0.12508916250E+03 0.  0.
         23    2    1    2    0    0 -0.72712363618E+01 -0.37316264854E+02  0.50884059530E+01  0.98053890091E+02  0.90240229310E+02 0.  0.
          5    1    3    3  502    0  0.51055535985E+02  0.31586391113E+01 -0.21221260585E+02  0.55537906483E+02  0.41800000000E+01 0. -1.
         -5    1    3    3    0  502 -0.43784299623E+02  0.34157625743E+02  0.57708818502E+02  0.80197184631E+02  0.41800000000E+01 0. -1.
        -11    1    4    4    0    0  0.66651531031E+01 -0.43225329671E+02  0.40459132876E+02  0.59580154616E+02  0.00000000000E+00 0.  1.
         11    1    4    4    0    0 -0.13936389465E+02  0.59090648164E+01 -0.35370726923E+02  0.38473735475E+02  0.00000000000E+00 0. -1.
</event>
<event>
 8    1  0.3708258E-009  0.9757160E+02  0.7561462E-02  0.1285487E+00
          1   -1    0    0  501    0  0.00000000000E+00  0.00000000000E+00  0.13513110401E+03  0.13513110401E+03  0.00000000000E+00 0. -1.
         -1   -1    0    0    0  501 -0.00000000000E+00 -0.00000000000E+00 -0.14527897038E+03  0.14527897038E+03  0.00000000000E+00 0.  1.
         25    2    1    2    0    0  0.12660621765E+01 -0.81235525930E+02 -0.40724717976E+02  0.15461179895E+03  0.12508194168E+03 0.  0.
         23    2    1    2    0    0 -0.12660621765E+01  0.81235525930E+02  0.30576851601E+02  0.12579827544E+03  0.91046409393E+02 0.  0.
          5    1    3    3  502    0  0.13629381683E+02 -0.86525137303E+02  0.21931496994E+02  0.90392601416E+02  0.41800000000E+01 0. -1.
         -5    1    3    3    0  502 -0.12363319507E+02  0.52896113729E+01 -0.62656214970E+02  0.64219197535E+02  0.41800000000E+01 0. -1.
        -11    1    4    4    0    0 -0.21547647406E+02  0.61107800568E+02  0.57432402633E+02  0.86584902098E+02  0.00000000000E+00 0. -1.
         11    1    4    4    0    0  0.20281585230E+02  0.20127725362E+02 -0.26855551033E+02  0.39213373343E+02  0.00000000000E+00 0.  1.
</event>
<event>
 8    1  0.3708258E-009  0.1169528E+03  0.7561462E-02  0.1248210E+00
         -2   -1    0    0    0  501 -0.00000000000E+00  0.00000000000E+00  0.23407987450E+02  0.23407987450E+02  0.00000000000E+00 0.  1.
          2   -1    0    0  501    0  0.00000000000E+00 -0.00000000000E+00 -0.10981907494E+04  0.10981907494E+04  0.00000000000E+00 0. -1.
         25    2    1    2    0    0 -0.50124369101E+02 -0.33954945184E+02 -0.91265390756E+03  0.92317412837E+03  0.12509166895E+03 0.  0.
         23    2    1    2    0    0  0.50124369101E+02  0.33954945184E+02 -0.16212885441E+03  0.19842460850E+03  0.97062707273E+02 0.  0.
          5    1    3    3  502    0  0.40585807353E+02 -0.24056206614E+01 -0.34850908221E+03  0.35089748867E+03  0.41800000000E+01 0.  1.
         -5    1    3    3    0  502 -0.90710176454E+02 -0.31549324523E+02 -0.56414482535E+03  0.57227663971E+03  0.41800000000E+01 0.  1.
        -11    1    4    4    0    0  0.86666698758E+01  0.51253673788E+02 -0.32674794567E+02  0.61397821163E+02  0.00000000000E+00 0.  1.
         11    1    4    4    0    0  0.41457699225E+02 -0.17298728604E+02 -0.12945405984E+03  0.13702678733E+03  0.00000000000E+00 0. -1.
</event>
<event>
 8    1  0.3708258E-009  0.1203265E+03  0.7561462E-02  0.1242559E+00
         -2   -1    0    0    0  501 -0.00000000000E+00  0.00000000000E+00  0.10030630707E+03  0.10030630707E+03  0.00000000000E+00 0.  1.
          2   -1    0    0  501    0  0.00000000000E+00 -0.00000000000E+00 -0.20301526870E+03  0.20301526870E+03  0.00000000000E+00 0. -1.
         25    2    1    2    0    0 -0.85114666179E+02  0.29840821534E+01 -0.22386363210E+02  0.15298446283E+03  0.12509870289E+03 0.  0.
         23    2    1    2    0    0  0.85114666179E+02 -0.29840821534E+01 -0.80322598418E+02  0.15033711294E+03  0.94319226914E+02 0.  0.
          5    1    3    3  502    0 -0.85293134098E+02  0.27100779173E+02  0.30554131001E+02  0.94659380292E+02  0.41800000000E+01 0.  1.
         -5    1    3    3    0  502  0.17846791984E+00 -0.24116697020E+02 -0.52940494212E+02  0.58325082540E+02  0.41800000000E+01 0.  1.
        -11    1    4    4    0    0  0.29418917745E+02 -0.47099928281E+02 -0.28682666558E+02  0.62502570557E+02  0.00000000000E+00 0.  1.
         11    1    4    4    0    0  0.55695748434E+02  0.44115846128E+02 -0.51639931861E+02  0.87834542384E+02  0.00000000000E+00 0. -1.
</event>
<event>
 8    1  0.3708258E-009  0.1427163E+03  0.7561462E-02  0.1209720E+00
         -1   -1    0    0    0  501 -0.00000000000E+00  0.00000000000E+00  0.16539583123E+03  0.16539583123E+03  0.00000000000E+00 0.  1.
          1   -1    0    0  501    0  0.00000000000E+00 -0.00000000000E+00 -0.24943362930E+03  0.24943362930E+03  0.00000000000E+00 0. -1.
         25    2    1    2    0    0 -0.15148825335E+02  0.13014489512E+03  0.68914268318E+02  0.19381826954E+03  0.12509662105E+03 0.  0.
         23    2    1    2    0    0  0.15148825335E+02 -0.13014489512E+03 -0.15295206638E+03  0.22101119098E+03  0.91018851314E+02 0.  0.
          5    1    3    3  502    0  0.16741972650E+02  0.47261210718E+02 -0.31766554181E+02  0.59502118040E+02  0.41800000000E+01 0.  1.
         -5    1    3    3    0  502 -0.31890797985E+02  0.82883684398E+02  0.10068082250E+03  0.13431615150E+03  0.41800000000E+01 0.  1.
        -11    1    4    4    0    0  0.32822841452E+02 -0.12273773031E+03 -0.91309801206E+02  0.15645884174E+03  0.00000000000E+00 0.  1.
         11    1    4    4    0    0 -0.17674016117E+02 -0.74071648039E+01 -0.61642265178E+02  0.64552349240E+02  0.00000000000E+00 0. -1.
</event>
<event>
 8    1  0.3708258E-009  0.1170402E+03  0.7561462E-02  0.1248061E+00
          2   -1    0    0  501    0  0.00000000000E+00  0.00000000000E+00  0.76495175188E+03  0.76495175188E+03  0.00000000000E+00 0. -1.
         -2   -1    0    0    0  501 -0.00000000000E+00 -0.00000000000E+00 -0.20576260034E+02  0.20576260034E+02  0.00000000000E+00 0.  1.
         25    2    1    2    0    0 -0.45925606272E+02  0.35156323678E+02  0.34961444073E+03  0.37579595185E+03  0.12508881587E+03 0.  0.
         23    2    1    2    0    0  0.45925606272E+02 -0.35156323678E+02  0.39476105112E+03  0.40973206007E+03  0.93268135813E+02 0.  0.
          5    1    3    3  502    0 -0.51774583770E+02  0.75290664149E+02  0.18734485518E+03  0.20848227453E+03  0.41800000000E+01 0. -1.
         -5    1    3    3    0  502  0.58489774971E+01 -0.40134340472E+02  0.16226958555E+03  0.16731367731E+03  0.41800000000E+01 0. -1.
        -11    1    4    4    0    0  0.59610220266E+02  0.46040393870E+01  0.30234027548E+03  0.30819509684E+03  0.00000000000E+00 0. -1.
         11    1    4    4    0    0 -0.13684613994E+02 -0.39760363065E+02  0.92420775642E+02  0.10153696323E+03  0.00000000000E+00 0.  1.
</event>
<event>
 8    1  0.3708258E-009  0.1490667E+03  0.7561462E-02  0.1201625E+00
         -2   -1    0    0    0  501 -0.00000000000E+00  0.00000000000E+00  0.56268646038E+02  0.56268646038E+02  0.00000000000E+00 0.  1.
          2   -1    0    0  501    0  0.00000000000E+00 -0.00000000000E+00 -0.60738797578E+03  0.60738797578E+03  0.00000000000E+00 0. -1.
         25    2    1    2    0    0 -0.98610159248E+02 -0.47714646092E+02 -0.47258177058E+03  0.50098139195E+03  0.12509266263E+03 0.  0.
         23    2    1    2    0    0  0.98610159248E+02  0.47714646092E+02 -0.78537559164E+02  0.16267522986E+03  0.91073768196E+02 0.  0.
          5    1    3    3  502    0 -0.86322484631E+02  0.25036134146E+02 -0.30103959740E+03  0.31419848977E+03  0.41800000000E+01 0.  1.
         -5    1    3    3    0  502 -0.12287674617E+02 -0.72750780238E+02 -0.17154217317E+03  0.18678290219E+03  0.41800000000E+01 0.  1.
        -11    1    4    4    0    0  0.40031441172E+01  0.39049321159E+02  0.24720179522E+00  0.39254754547E+02  0.00000000000E+00 0.  1.
         11    1    4    4    0    0  0.94607015131E+02  0.86653249323E+01 -0.78784760959E+02  0.12342047532E+03  0.00000000000E+00 0. -1.
</event>
<event>
 8    1  0.3708258E-009  0.1089661E+03  0.7561462E-02  0.1262496E+00
         -2   -1    0    0    0  501 -0.00000000000E+00  0.00000000000E+00  0.18515543791E+03  0.18515543791E+03  0.00000000000E+00 0.  1.
          2   -1    0    0  501    0  0.00000000000E+00 -0.00000000000E+00 -0.64996166209E+02  0.64996166209E+02  0.00000000000E+00 0. -1.
         25    2    1    2    0    0 -0.75315134803E+01 -0.12767410147E+02  0.68045902062E+02  0.14316405152E+03  0.12508385349E+03 0.  0.
         23    2    1    2    0    0  0.75315134803E+01  0.12767410147E+02  0.52113369643E+02  0.10698755260E+03  0.92254011616E+02 0.  0.
          5    1    3    3  502    0  0.10681290991E+02  0.54125901366E+02  0.20541784900E+02  0.59018137066E+02  0.41800000000E+01 0. -1.
         -5    1    3    3    0  502 -0.18212804471E+02 -0.66893311513E+02  0.47504117162E+02  0.84145914454E+02  0.41800000000E+01 0. -1.
        -11    1    4    4    0    0 -0.42369667729E+02  0.57709736268E+01  0.28112737891E+02  0.51174397034E+02  0.00000000000E+00 0.  1.
         11    1    4    4    0    0  0.49901181209E+02  0.69964365205E+01  0.24000631753E+02  0.55813155569E+02  0.00000000000E+00 0. -1.
</event>
<event>
 8    1  0.3708258E-009  0.8068678E+02  0.7561462E-02  0.1327114E+00
         -2   -1    0    0    0  501 -0.00000000000E+00  0.00000000000E+00  0.21869410364E+02  0.21869410364E+02  0.00000000000E+00 0. -1.
          2   -1    0    0  501    0  0.00000000000E+00 -0.00000000000E+00 -0.67801387080E+03  0.67801387080E+03  0.00000000000E+00 0.  1.
         25    2    1    2    0    0 -0.50271570199E+02 -0.16713698634E+02 -0.42764422731E+03  0.44870219762E+03  0.12508996167E+03 0.  0.
         23    2    1    2    0    0  0.50271570199E+02  0.16713698634E+02 -0.22850023313E+03  0.25118108354E+03  0.89849884233E+02 0.  0.
          5    1    3    3  502    0  0.62980222149E+01  0.29624138332E+01 -0.35215351029E+03  0.35224708400E+03  0.41800000000E+01 0. -1.
         -5    1    3    3    0  502 -0.56569592413E+02 -0.19676112468E+02 -0.75490717021E+02  0.96455113623E+02  0.41800000000E+01 0. -1.
        -11    1    4    4    0    0  0.70158135239E+02  0.54717564572E+01 -0.21093700875E+03  0.22236574763E+03  0.00000000000E+00 0.  1.
         11    1    4    4    0    0 -0.19886565041E+02  0.11241942177E+02 -0.17563224379E+02  0.28815335910E+02  0.00000000000E+00 0. -1.
</event>
<event>
 8    1  0.3708258E-009  0.8723934E+02  0.7561462E-02  0.1309678E+00
          2   -1    0    0  501    0  0.00000000000E+00  0.00000000000E+00  0.19492354983E+03  0.19492354983E+03  0.00000000000E+00 0. -1.
         -2   -1    0    0    0  501 -0.00000000000E+00 -0.00000000000E+00 -0.90667065462E+02  0.90667065462E+02  0.00000000000E+00 0.  1.
         25    2    1    2    0    0  0.38939063377E+01 -0.59915929555E+02  0.10758689833E+03  0.17557706319E+03  0.12508910147E+03 0.  0.
         23    2    1    2    0    0 -0.38939063377E+01  0.59915929555E+02 -0.33304139625E+01  0.11001355210E+03  0.92123877835E+02 0.  0.
          5    1    3    3  502    0 -0.10115221754E+02 -0.28835258959E+02 -0.24316291428E+02  0.39275237735E+02  0.41800000000E+01 0. -1.
         -5    1    3    3    0  502  0.14009128091E+02 -0.31080670597E+02  0.13190318976E+03  0.13630182546E+03  0.41800000000E+01 0. -1.
        -11    1    4    4    0    0 -0.15809221982E+02 -0.21677531127E+02  0.44185577439E+01  0.27191368262E+02  0.00000000000E+00 0.  1.
         11    1    4    4    0    0  0.11915315644E+02  0.81593460683E+02 -0.77489717064E+01  0.82822183837E+02  0.00000000000E+00 0. -1.
</event>
<event>
 8    1  0.3708258E-009  0.1405024E+03  0.7561462E-02  0.1212655E+00
          1   -1    0    0  501    0  0.00000000000E+00  0.00000000000E+00  0.23270192117E+03  0.23270192117E+03  0.00000000000E+00 0. -1.
         -1   -1    0    0    0  501 -0.00000000000E+00 -0.00000000000E+00 -0.85823436171E+02  0.85823436171E+02  0.00000000000E+00 0.  1.
         25    2    1    2    0    0  0.34724600180E+02 -0.82901379776E+02  0.66900941249E+02  0.16793340192E+03  0.12508978741E+03 0.  0.
         23    2    1    2    0    0 -0.34724600180E+02  0.82901379776E+02  0.79977543753E+02  0.15059195542E+03  0.90570927496E+02 0.  0.
          5    1    3    3  502    0  0.33277533973E+02  0.27495240379E+02  0.22525110976E+02  0.48869576787E+02  0.41800000000E+01 0. -1.
         -5    1    3    3    0  502  0.14470662062E+01 -0.11039662016E+03  0.44375830274E+02  0.11906382513E+03  0.41800000000E+01 0. -1.
        -11    1    4    4    0    0  0.27888786909E+02  0.47876226387E+02  0.41140985297E+02  0.69010855374E+02  0.00000000000E+00 0. -1.
         11    1    4    4    0    0 -0.62613387089E+02  0.35025153390E+02  0.38836558455E+02  0.81581100050E+02  0.00000000000E+00 0.  1.
</event>
<event>
 8    1  0.3708258E-009  0.6423550E+02  0.7561462E-02  0.1380871E+00
         -1   -1    0    0    0  501 -0.00000000000E+00  0.00000000000E+00  0.45539204930E+02  0.45539204930E+02  0.00000000000E+00 0.  1.
          1   -1    0    0  501    0  0.00000000000E+00 -0.00000000000E+00 -0.29489445029E+03  0.29489445029E+03  0.00000000000E+00 0. -1.
         25    2    1    2    0    0 -0.11801926686E+02  0.33315346363E+02 -0.17285944278E+03  0.21628012292E+03  0.12508999495E+03 0.  0.
         23    2    1    2    0    0  0.11801926686E+02 -0.33315346363E+02 -0.76495802585E+02  0.12415353230E+03  0.91177266865E+02 0.  0.
          5    1    3    3  502    0  0.34222109840E+02  0.26836738988E+02 -0.73328463527E+01  0.44301313717E+02  0.41800000000E+01 0.  1.
         -5    1    3    3    0  502 -0.46024036526E+02  0.64786073751E+01 -0.16552659643E+03  0.17197880921E+03  0.41800000000E+01 0.  1.
        -11    1    4    4    0    0  0.30778130450E+01 -0.27406059622E+02 -0.97138246294E+02  0.10097724462E+03  0.00000000000E+00 0. -1.
         11    1    4    4    0    0  0.87241136406E+01 -0.59092867408E+01  0.20642443709E+02  0.23176287686E+02  0.00000000000E+00 0.  1.
</event>
<event>
 8    1  0.3708258E-009  0.1871358E+03  0.7561462E-02  0.1161070E+00
          2   -1    0    0  501    0  0.00000000000E+00  0.00000000000E+00  0.27135979051E+04  0.27135979051E+04  0.00000000000E+00 0. -1.
         -2   -1    0    0    0  501 -0.00000000000E+00 -0.00000000000E+00 -0.22315655039E+02  0.22315655039E+02  0.00000000000E+00 0.  1.
         25    2    1    2    0    0 -0.39591201072E+02 -0.15488253092E+03  0.22337676190E+04  0.22429718883E+04  0.12509618128E+03 0.  0.
         23    2    1    2    0    0  0.39591201072E+02  0.15488253092E+03  0.45751463110E+03  0.49294167184E+03  0.90087693842E+02 0.  0.
          5    1    3    3  502    0 -0.65022168305E+00  0.18277159694E+02  0.45010900499E+03  0.45049979592E+03  0.41800000000E+01 0.  1.
         -5    1    3    3    0  502 -0.38940979389E+02 -0.17315969062E+03  0.17836586140E+04  0.17924720924E+04  0.41800000000E+01 0.  1.
        -11    1    4    4    0    0  0.63463304067E+02  0.11928744422E+03  0.39218099389E+03  0.41480479419E+03  0.00000000000E+00 0. -1.
         11    1    4    4    0    0 -0.23872102995E+02  0.35595086701E+02  0.65333637201E+02  0.78136877648E+02  0.00000000000E+00 0.  1.
</event>
<event>
 8    1  0.3708258E-009  0.8924365E+02  0.7561462E-02  0.1304694E+00
          1   -1    0    0  501    0  0.00000000000E+00  0.00000000000E+00  0.15986410023E+03  0.15986410023E+03  0.00000000000E+00 0. -1.
         -1   -1    0    0    0  501 -0.00000000000E+00 -0.00000000000E+00 -0.77905309615E+02  0.77905309615E+02  0.00000000000E+00 0.  1.
         25    2    1    2    0    0 -0.10087014108E+02 -0.14582164491E+02  0.22974037927E+02  0.12841147047E+03  0.12508921598E+03 0.  0.
         23    2    1    2    0    0  0.10087014108E+02  0.14582164491E+02  0.58984752692E+02  0.10935793938E+03  0.90363546193E+02 0.  0.
          5    1    3    3  502    0 -0.46941462766E+02 -0.27084313220E+02  0.55378670914E+02  0.77597232820E+02  0.41800000000E+01 0.  1.
         -5    1    3    3    0  502  0.36854448658E+02  0.12502148730E+02 -0.32404632987E+02  0.50814237648E+02  0.41800000000E+01 0.  1.
        -11    1    4    4    0    0 -0.35611344285E+02 -0.36320444644E+01  0.46356202354E+02  0.58568396644E+02  0.00000000000E+00 0. -1.
         11    1    4    4    0    0  0.45698358393E+02  0.18214208955E+02  0.12628550338E+02  0.50789542736E+02  0.00000000000E+00 0.  1.
</event>
<event>
 8    1  0.3708258E-009  0.1634056E+03  0.7561462E-02  0.1184905E+00
          2   -1    0    0  501    0  0.00000000000E+00  0.00000000000E+00  0.50778027569E+02  0.50778027569E+02  0.00000000000E+00 0. -1.
         -2   -1    0    0    0  501 -0.00000000000E+00 -0.00000000000E+00 -0.78445039980E+03  0.78445039980E+03  0.00000000000E+00 0.  1.
         25    2    1    2    0    0  0.13640137640E+03 -0.49973335813E+02 -0.55415881934E+03  0.58637998773E+03  0.12508726227E+03 0.  0.
         23    2    1    2    0    0 -0.13640137640E+03  0.49973335813E+02 -0.17951355290E+03  0.24884843965E+03  0.92724109405E+02 0.  0.
          5    1    3    3  502    0  0.20867650967E+02 -0.31257690215E+02 -0.34165233708E+03  0.34373870001E+03  0.41800000000E+01 0. -1.
         -5    1    3    3    0  502  0.11553372543E+03 -0.18715645598E+02 -0.21250648226E+03  0.24264128771E+03  0.41800000000E+01 0. -1.
        -11    1    4    4    0    0 -0.34461120437E+02 -0.27299699432E+02 -0.38245735103E+02  0.58271593976E+02  0.00000000000E+00 0.  1.
         11    1    4    4    0    0 -0.10194025596E+03  0.77273035245E+02 -0.14126781779E+03  0.19057684567E+03  0.00000000000E+00 0. -1.
</event>
<event>
 8    1  0.3708258E-009  0.9970282E+02  0.7561462E-02  0.1280922E+00
         -1   -1    0    0    0  501 -0.00000000000E+00  0.00000000000E+00  0.21988262148E+02  0.21988262148E+02  0.00000000000E+00 0.  1.
          1   -1    0    0  501    0  0.00000000000E+00 -0.00000000000E+00 -0.54765177596E+03  0.54765177596E+03  0.00000000000E+00 0. -1.
         25    2    1    2    0    0 -0.24609344491E+01  0.14809548126E+02 -0.33265504227E+03  0.35571355551E+03  0.12508947804E+03 0.  0.
         23    2    1    2    0    0  0.24609344491E+01 -0.14809548126E+02 -0.19300847154E+03  0.21392648259E+03  0.91032362119E+02 0.  0.
          5    1    3    3  502    0  0.49270313915E+02 -0.21278121324E+02 -0.22045058362E+03  0.22692786189E+03  0.41800000000E+01 0.  1.
         -5    1    3    3    0  502 -0.51731248364E+02  0.36087669451E+02 -0.11220445864E+03  0.12878569363E+03  0.41800000000E+01 0.  1.
        -11    1    4    4    0    0 -0.67200620318E+01 -0.47721697576E+02 -0.15724414198E+03  0.16446349090E+03  0.00000000000E+00 0. -1.
         11    1    4    4    0    0  0.91809964809E+01  0.32912149450E+02 -0.35764329567E+02  0.49462991693E+02  0.00000000000E+00 0.  1.
</event>
<event>
 8    1  0.3708258E-009  0.1822337E+03  0.7561462E-02  0.1165659E+00
          3   -1    0    0  501    0  0.00000000000E+00  0.00000000000E+00  0.33809608668E+03  0.33809608668E+03  0.00000000000E+00 0. -1.
         -3   -1    0    0    0  501 -0.00000000000E+00 -0.00000000000E+00 -0.10831895937E+03  0.10831895937E+03  0.00000000000E+00 0.  1.
         25    2    1    2    0    0  0.74143581786E+02  0.13615319960E+03  0.93104111990E+02  0.21988583798E+03  0.12508573697E+03 0.  0.
         23    2    1    2    0    0 -0.74143581786E+02 -0.13615319960E+03  0.13667301532E+03  0.22652920808E+03  0.92741600777E+02 0.  0.
          5    1    3    3  502    0 -0.44715299120E+01 -0.20748937755E+02  0.20873190085E+02  0.30061195286E+02  0.41800000000E+01 0.  1.
         -5    1    3    3    0  502  0.78615111698E+02  0.15690213735E+03  0.72230921905E+02  0.18982464269E+03  0.41800000000E+01 0.  1.
        -11    1    4    4    0    0 -0.42009800852E+02 -0.12716155686E+03  0.13907868901E+03  0.19307451062E+03  0.00000000000E+00 0. -1.
         11    1    4    4    0    0 -0.32133780934E+02 -0.89916427336E+01 -0.24056736969E+01  0.33454697460E+02  0.00000000000E+00 0.  1.
</event>
<event>
 8    1  0.3708258E-009  0.1170069E+03  0.7561462E-02  0.1248118E+00
          2   -1    0    0  501    0  0.00000000000E+00  0.00000000000E+00  0.14270152054E+03  0.14270152054E+03  0.00000000000E+00 0. -1.
         -2   -1    0    0    0  501 -0.00000000000E+00 -0.00000000000E+00 -0.14919171423E+03  0.14919171423E+03  0.00000000000E+00 0.  1.
         25    2    1    2    0    0 -0.47846566206E+02 -0.62679680031E+02 -0.59243963126E+02  0.15929274094E+03  0.12508514684E+03 0.  0.
         23    2    1    2    0    0  0.47846566206E+02  0.62679680031E+02  0.52753769436E+02  0.13260049383E+03  0.92638515676E+02 0.  0.
          5    1    3    3  502    0  0.22178772523E+02 -0.84913341148E+01  0.26595538715E+02  0.35899802022E+02  0.41800000000E+01 0.  1.
         -5    1    3    3    0  502 -0.70025338729E+02 -0.54188345916E+02 -0.85839501841E+02  0.12339293891E+03  0.41800000000E+01 0.  1.
        -11    1    4    4    0    0  0.63735624885E+01 -0.24179681590E+02  0.66427305471E+01  0.25872865510E+02  0.00000000000E+00 0.  1.
         11    1    4    4    0    0  0.41473003718E+02  0.86859361621E+02  0.46111038889E+02  0.10672762832E+03  0.00000000000E+00 0. -1.
</event>
<event>
 8    1  0.3708258E-009  0.1059925E+03  0.7561462E-02  0.1268176E+00
         -1   -1    0    0    0  501 -0.00000000000E+00  0.00000000000E+00  0.13332014328E+03  0.13332014328E+03  0.00000000000E+00 0.  1.
          1   -1    0    0  501    0  0.00000000000E+00 -0.00000000000E+00 -0.23963430212E+03  0.23963430212E+03  0.00000000000E+00 0. -1.
         25    2    1    2    0    0  0.45884788233E+02  0.85429097497E+02  0.52824740334E+02  0.16685771016E+03  0.12508995867E+03 0.  0.
         23    2    1    2    0    0 -0.45884788233E+02 -0.85429097497E+02 -0.15913889917E+03  0.20609673524E+03  0.88017785444E+02 0.  0.
          5    1    3    3  502    0  0.30895932806E+01 -0.72534857045E+01  0.63505790628E+02  0.64129684895E+02  0.41800000000E+01 0.  1.
         -5    1    3    3    0  502  0.42795194953E+02  0.92682583201E+02 -0.10681050294E+02  0.10272802527E+03  0.41800000000E+01 0.  1.
        -11    1    4    4    0    0 -0.45549189056E+02 -0.59375075470E+02 -0.41427070580E+02  0.85535550431E+02  0.00000000000E+00 0.  1.
         11    1    4    4    0    0 -0.33559917736E+00 -0.26054022027E+02 -0.11771182859E+03  0.12056118481E+03  0.00000000000E+00 0. -1.
</event>
<event>
 8    1  0.3708258E-009  0.1381177E+03  0.7561462E-02  0.1215884E+00
          2   -1    0    0  501    0  0.00000000000E+00  0.00000000000E+00  0.47317702191E+03  0.47317702191E+03  0.00000000000E+00 0. -1.
         -2   -1    0    0    0  501 -0.00000000000E+00 -0.00000000000E+00 -0.54849222182E+02  0.54849222182E+02  0.00000000000E+00 0.  1.
         25    2    1    2    0    0  0.11210195950E+03  0.66238057398E+01  0.16181718019E+03  0.23332632402E+03  0.12508257094E+03 0.  0.
         23    2    1    2    0    0 -0.11210195950E+03 -0.66238057398E+01  0.25651061954E+03  0.29469992006E+03  0.91867408945E+02 0.  0.
          5    1    3    3  502    0  0.10292315521E+03 -0.21105198125E+02  0.47709511839E+02  0.11546547183E+03  0.41800000000E+01 0.  1.
         -5    1    3    3    0  502  0.91788042900E+01  0.27729003864E+02  0.11410766835E+03  0.11786085219E+03  0.41800000000E+01 0.  1.
        -11    1    4    4    0    0 -0.12015625554E+03  0.12525233952E+02  0.19122543684E+03  0.22618924582E+03  0.00000000000E+00 0.  1.
         11    1    4    4    0    0  0.80542960415E+01 -0.19149039691E+02  0.65285182693E+02  0.68510674242E+02  0.00000000000E+00 0. -1.
</event>
<event>
 8    1  0.3708258E-009  0.1094430E+03  0.7561462E-02  0.1261605E+00
         -1   -1    0    0    0  501 -0.00000000000E+00  0.00000000000E+00  0.61447039693E+02  0.61447039693E+02  0.00000000000E+00 0.  1.
          1   -1    0    0  501    0  0.00000000000E+00 -0.00000000000E+00 -0.22224499896E+03  0.22224499896E+03  0.00000000000E+00 0. -1.
         25    2    1    2    0    0 -0.18096979721E+02 -0.38316535162E+02 -0.90231514842E+02  0.15995102240E+03  0.12508775221E+03 0.  0.
         23    2    1    2    0    0  0.18096979721E+02  0.38316535162E+02 -0.70566444423E+02  0.12374101625E+03  0.92393498056E+02 0.  0.
          5    1    3    3  502    0 -0.46810058693E+02  0.30678157243E+02 -0.48967345722E+02  0.74482241331E+02  0.41800000000E+01 0. -1.
         -5    1    3    3    0  502  0.28713078971E+02 -0.68994692404E+02 -0.41264169120E+02  0.85468781068E+02  0.41800000000E+01 0. -1.
        -11    1    4    4    0    0  0.48531053948E+02  0.20804465166E+02 -0.10012513098E+02  0.53743272943E+02  0.00000000000E+00 0.  1.
         11    1    4    4    0    0 -0.30434074226E+02  0.17512069996E+02 -0.60553931325E+02  0.69997743309E+02  0.00000000000E+00 0. -1.
</event>
<event>
 8    1  0.3708258E-009  0.1340332E+03  0.7561462E-02  0.1221591E+00
          2   -1    0    0  501    0  0.00000000000E+00  0.00000000000E+00  0.40439703602E+03  0.40439703602E+03  0.00000000000E+00 0. -1.
         -2   -1    0    0    0  501 -0.00000000000E+00 -0.00000000000E+00 -0.61619199551E+02  0.61619199551E+02  0.00000000000E+00 0.  1.
         25    2    1    2    0    0 -0.13125705498E+02  0.11093791707E+03  0.14719126807E+03  0.22314384310E+03  0.12509356390E+03 0.  0.
         23    2    1    2    0    0  0.13125705498E+02 -0.11093791707E+03  0.19558656840E+03  0.24287239248E+03  0.90848157387E+02 0.  0.
          5    1    3    3  502    0 -0.50047230838E+02  0.45064490924E+02  0.12431279736E+02  0.68611535274E+02  0.41800000000E+01 0.  1.
         -5    1    3    3    0  502  0.36921525340E+02  0.65873426142E+02  0.13475998833E+03  0.15453230782E+03  0.41800000000E+01 0.  1.
        -11    1    4    4    0    0 -0.26215732629E+01 -0.10907086849E+03  0.19872750546E+03  0.22670674543E+03  0.00000000000E+00 0. -1.
         11    1    4    4    0    0  0.15747278761E+02 -0.18670485742E+01 -0.31409370554E+01  0.16165647044E+02  0.00000000000E+00 0.  1.
</event>
<event>
 8    1  0.3708258E-009  0.6189046E+02  0.7561462E-02  0.1390065E+00
         -1   -1    0    0    0  501 -0.00000000000E+00  0.00000000000E+00  0.34446730120E+02  0.34446730120E+02  0.00000000000E+00 0.  1.
          1   -1    0    0  501    0  0.00000000000E+00 -0.00000000000E+00 -0.33350397545E+03  0.33350397545E+03  0.00000000000E+00 0. -1.
         25    2    1    2    0    0  0.13063984558E+02 -0.14222052350E+01 -0.16171329948E+03  0.20486983343E+03  0.12509103509E+03 0.  0.
         23    2    1    2    0    0 -0.13063984558E+02  0.14222052350E+01 -0.13734394585E+03  0.16308087214E+03  0.86944355981E+02 0.  0.
          5    1    3    3  502    0  0.25180991956E+02 -0.36180492304E+01  0.13550030122E+02  0.29124703473E+02  0.41800000000E+01 0.  1.
         -5    1    3    3    0  502 -0.12117007398E+02  0.21958439955E+01 -0.17526332961E+03  0.17574512996E+03  0.41800000000E+01 0.  1.
        -11    1    4    4    0    0  0.92230775900E+01 -0.38328994216E+02 -0.43185705828E+02  0.58473773144E+02  0.00000000000E+00 0.  1.
         11    1    4    4    0    0 -0.22287062148E+02  0.39751199451E+02 -0.94158240021E+02  0.10460709900E+03  0.00000000000E+00 0. -1.
</event>
<event>
 8    1  0.3708258E-009  0.1142180E+03  0.7561462E-02  0.1252952E+00
          2   -1    0    0  501    0  0.00000000000E+00  0.00000000000E+00  0.44080617646E+03  0.44080617646E+03  0.00000000000E+00 0.  1.
         -2   -1    0    0    0  501 -0.00000000000E+00 -0.00000000000E+00 -0.47426373342E+02  0.47426373342E+02  0.00000000000E+00 0. -1.
         25    2    1    2    0    0  0.27302907778E+02 -0.63614720746E+02  0.10331018847E+03  0.17638878176E+03  0.12509087025E+03 0.  0.
         23    2    1    2    0    0 -0.27302907778E+02  0.63614720746E+02  0.29006961465E+03  0.31184376805E+03  0.91180441192E+02 0.  0.
          5    1    3    3  502    0  0.71032903096E+02 -0.31953666651E+02  0.26439144352E+02  0.82360250660E+02  0.41800000000E+01 0. -1.
         -5    1    3    3    0  502 -0.43729995319E+02 -0.31661054095E+02  0.76871044117E+02  0.94028531099E+02  0.41800000000E+01 0. -1.
        -11    1    4    4    0    0  0.84428409171E+01  0.59735681837E+02  0.88591488739E+02  0.10718248516E+03  0.00000000000E+00 0. -1.
         11    1    4    4    0    0 -0.35745748695E+02  0.38790389090E+01  0.20147812591E+03  0.20466128289E+03  0.00000000000E+00 0.  1.
</event>
<event>
 8    1  0.3708258E-009  0.1083266E+03  0.7561462E-02  0.1263701E+00
         -1   -1    0    0    0  501 -0.00000000000E+00  0.00000000000E+00  0.12377656682E+03  0.12377656682E+03  0.00000000000E+00 0.  1.
          1   -1    0    0  501    0  0.00000000000E+00 -0.00000000000E+00 -0.18145262507E+03  0.18145262507E+03  0.00000000000E+00 0. -1.
         25    2    1    2    0    0 -0.67228484495E+02 -0.14701269094E+02 -0.11038314737E+03  0.18046491977E+03  0.12508937446E+03 0.  0.
         23    2    1    2    0    0  0.67228484495E+02  0.14701269094E+02  0.52707089122E+02  0.12476427212E+03  0.89734552502E+02 0.  0.
          5    1    3    3  502    0 -0.92078183630E+02 -0.25651038294E+02 -0.11803800911E+03  0.15194344889E+03  0.41800000000E+01 0.  1.
         -5    1    3    3    0  502  0.24849699135E+02  0.10949769200E+02  0.76548617381E+01  0.28521470875E+02  0.41800000000E+01 0.  1.
        -11    1    4    4    0    0  0.60858054183E+02  0.36382914171E+02  0.67385609353E+02  0.97817378570E+02  0.00000000000E+00 0.  1.
         11    1    4    4    0    0  0.63704303119E+01 -0.21681645078E+02 -0.14678520231E+02  0.26946893546E+02  0.00000000000E+00 0. -1.
</event>
<event>
 8    1  0.3708258E-009  0.1388824E+03  0.7561462E-02  0.1214841E+00
          2   -1    0    0  501    0  0.00000000000E+00  0.00000000000E+00  0.15193014616E+04  0.15193014616E+04  0.00000000000E+00 0. -1.
         -2   -1    0    0    0  501 -0.00000000000E+00 -0.00000000000E+00 -0.18663232320E+02  0.18663232320E+02  0.00000000000E+00 0.  1.
         25    2    1    2    0    0  0.12117779498E+02 -0.12354713677E+03  0.95036906003E+03  0.96657110223E+03  0.12509040658E+03 0.  0.
         23    2    1    2    0    0 -0.12117779498E+02  0.12354713677E+03  0.55026916924E+03  0.57139359168E+03  0.91015066956E+02 0.  0.
          5    1    3    3  502    0  0.10451962860E+02 -0.39108143119E+02  0.61851708612E+02  0.74039156155E+02  0.41800000000E+01 0.  1.
         -5    1    3    3    0  502  0.16658166378E+01 -0.84438993651E+02  0.88851735142E+03  0.89253194608E+03  0.41800000000E+01 0.  1.
        -11    1    4    4    0    0  0.34857816622E+02  0.23662803774E+02  0.11956776575E+03  0.12677320801E+03  0.00000000000E+00 0.  1.
         11    1    4    4    0    0 -0.46975596120E+02  0.99884332996E+02  0.43070140349E+03  0.44462038367E+03  0.00000000000E+00 0. -1.
</event>
<event>
 8    1  0.3708258E-009  0.8816421E+02  0.7561462E-02  0.1307359E+00
          2   -1    0    0  501    0  0.00000000000E+00  0.00000000000E+00  0.41672348744E+03  0.41672348744E+03  0.00000000000E+00 0. -1.
         -2   -1    0    0    0  501 -0.00000000000E+00 -0.00000000000E+00 -0.34422145837E+02  0.34422145837E+02  0.00000000000E+00 0.  1.
         25    2    1    2    0    0 -0.39338110241E+02 -0.11532495133E+01  0.28130272469E+03  0.31036720797E+03  0.12509102269E+03 0.  0.
         23    2    1    2    0    0  0.39338110241E+02  0.11532495133E+01  0.10099861691E+03  0.14077842531E+03  0.89827765828E+02 0.  0.
          5    1    3    3  502    0 -0.93880031229E+00 -0.38535348789E+02  0.20065716920E+02  0.43657300052E+02  0.41800000000E+01 0. -1.
         -5    1    3    3    0  502 -0.38399309929E+02  0.37382099275E+02  0.26123700777E+03  0.26670990791E+03  0.41800000000E+01 0. -1.
        -11    1    4    4    0    0 -0.22083809983E+02 -0.27624471925E+01 -0.28887477872E+00  0.22257790243E+02  0.00000000000E+00 0.  1.
         11    1    4    4    0    0  0.61421920224E+02  0.39156967057E+01  0.10128749169E+03  0.11852063507E+03  0.00000000000E+00 0. -1.
</event>
<event>
 8    1  0.3708258E-009  0.1214877E+03  0.7561462E-02  0.1240663E+00
         -2   -1    0    0    0  501 -0.00000000000E+00  0.00000000000E+00  0.97091212893E+02  0.97091212893E+02  0.00000000000E+00 0. -1.
          2   -1    0    0  501    0  0.00000000000E+00 -0.00000000000E+00 -0.15744717818E+03  0.15744717818E+03  0.00000000000E+00 0.  1.
         25    2    1    2    0    0 -0.13527862449E+02  0.54855392901E+02 -0.56466552724E+02  0.14840585311E+03  0.12507481149E+03 0.  0.
         23    2    1    2    0    0  0.13527862449E+02 -0.54855392901E+02 -0.38894125629E+01  0.10613253796E+03  0.89760074036E+02 0.  0.
          5    1    3    3  502    0  0.18239669598E+02  0.88641160735E+02 -0.39769660600E+02  0.98939573618E+02  0.41800000000E+01 0. -1.
         -5    1    3    3    0  502 -0.31767532046E+02 -0.33785767833E+02 -0.16696892124E+02  0.49466279494E+02  0.41800000000E+01 0. -1.
        -11    1    4    4    0    0 -0.33790487197E+02 -0.46946665199E+02  0.14548234821E+01  0.57861065577E+02  0.00000000000E+00 0. -1.
         11    1    4    4    0    0  0.47318349646E+02 -0.79087277020E+01 -0.53442360450E+01  0.48271472382E+02  0.00000000000E+00 0.  1.
</event>
<event>
 8    1  0.3708258E-009  0.1901867E+03  0.7561462E-02  0.1158293E+00
         -1   -1    0    0    0  501 -0.00000000000E+00  0.00000000000E+00  0.46860452287E+02  0.46860452287E+02  0.00000000000E+00 0.  1.
          1   -1    0    0  501    0  0.00000000000E+00 -0.00000000000E+00 -0.10689310227E+04  0.10689310227E+04  0.00000000000E+00 0. -1.
         25    2    1    2    0    0  0.17489680011E+03  0.43462031583E+02 -0.71851112693E+03  0.75125456955E+03  0.12508936754E+03 0.  0.
         23    2    1    2    0    0 -0.17489680011E+03 -0.43462031583E+02 -0.30355944347E+03  0.36453690542E+03  0.90889937934E+02 0.  0.
          5    1    3    3  502    0  0.26555755092E+02  0.67360656759E+01 -0.36566412444E+03  0.36671283999E+03  0.41800000000E+01 0. -1.
         -5    1    3    3    0  502  0.14834104502E+03  0.36725965907E+02 -0.35284700249E+03  0.38454172956E+03  0.41800000000E+01 0. -1.
        -11    1    4    4    0    0  0.14472758886E+01 -0.22102472186E+02 -0.52595311405E+02  0.57069086781E+02  0.00000000000E+00 0. -1.
         11    1    4    4    0    0 -0.17634407600E+03 -0.21359559397E+02 -0.25096413206E+03  0.30746781864E+03  0.00000000000E+00 0.  1.
</event>
<event>
 8    1  0.3708258E-009  0.2462164E+03  0.7561462E-02  0.1115720E+00
          1   -1    0    0  501    0  0.00000000000E+00  0.00000000000E+00  0.90962798880E+03  0.90962798880E+03  0.00000000000E+00 0. -1.
         -1   -1    0    0    0  501 -0.00000000000E+00 -0.00000000000E+00 -0.79155263788E+02  0.79155263788E+02  0.00000000000E+00 0.  1.
         25    2    1    2    0    0 -0.15758097846E+03  0.18030127144E+03  0.50411430658E+03  0.57194279813E+03  0.12508803694E+03 0.  0.
         23    2    1    2    0    0  0.15758097846E+03 -0.18030127144E+03  0.32635841844E+03  0.41684045446E+03  0.99528055999E+02 0.  0.
          5    1    3    3  502    0 -0.50777208653E+02  0.10419627546E+03  0.35425358983E+03  0.37275765189E+03  0.41800000000E+01 0.  1.
         -5    1    3    3    0  502 -0.10680376981E+03  0.76104995982E+02  0.14986071675E+03  0.19918514624E+03  0.41800000000E+01 0.  1.
        -11    1    4    4    0    0  0.81847307684E+02 -0.13230088409E+03  0.26792529161E+03  0.30981682909E+03  0.00000000000E+00 0. -1.
         11    1    4    4    0    0  0.75733670777E+02 -0.48000387355E+02  0.58433126834E+02  0.10702362537E+03  0.00000000000E+00 0.  1.
</event>
<event>
 8    1  0.3708258E-009  0.1607072E+03  0.7561462E-02  0.1187901E+00
         -2   -1    0    0    0  501 -0.00000000000E+00  0.00000000000E+00  0.11493145552E+03  0.11493145552E+03  0.00000000000E+00 0.  1.
          2   -1    0    0  501    0  0.00000000000E+00 -0.00000000000E+00 -0.26808740967E+03  0.26808740967E+03  0.00000000000E+00 0. -1.
         25    2    1    2    0    0 -0.12522511079E+03 -0.60831239409E+02 -0.79194354674E+02  0.20322280370E+03  0.12508394810E+03 0.  0.
         23    2    1    2    0    0  0.12522511079E+03  0.60831239409E+02 -0.73961599481E+02  0.17979606148E+03  0.86455407390E+02 0.  0.
          5    1    3    3  502    0 -0.87024666913E+01 -0.61742609472E+02 -0.39883020494E+00  0.62494113454E+02  0.41800000000E+01 0. -1.
         -5    1    3    3    0  502 -0.11652264410E+03  0.91137006244E+00 -0.78795524469E+02  0.14072869025E+03  0.41800000000E+01 0. -1.
        -11    1    4    4    0    0  0.95150308560E+02  0.31287909048E+02 -0.90032455791E+02  0.13467871980E+03  0.00000000000E+00 0. -1.
         11    1    4    4    0    0  0.30074802230E+02  0.29543330361E+02  0.16070856309E+02  0.45117341683E+02  0.00000000000E+00 0.  1.
</event>
<event>
 8    1  0.3708258E-009  0.1216529E+03  0.7561462E-02  0.1240395E+00
          2   -1    0    0  501    0  0.00000000000E+00  0.00000000000E+00  0.50143351303E+03  0.50143351303E+03  0.00000000000E+00 0. -1.
         -2   -1    0    0    0  501 -0.00000000000E+00 -0.00000000000E+00 -0.35982772350E+02  0.35982772350E+02  0.00000000000E+00 0.  1.
         25    2    1    2    0    0 -0.53347808913E+02  0.41458258091E+02  0.17308283055E+03  0.22399378808E+03  0.12510305745E+03 0.  0.
         23    2    1    2    0    0  0.53347808913E+02 -0.41458258091E+02  0.29236791013E+03  0.31342249730E+03  0.90498016909E+02 0.  0.
          5    1    3    3  502    0 -0.89029174770E+02  0.80492039805E+01  0.13463687429E+03  0.16166491259E+03  0.41800000000E+01 0. -1.
         -5    1    3    3    0  502  0.35681365857E+02  0.33409054111E+02  0.38445956261E+02  0.62328875482E+02  0.41800000000E+01 0. -1.
        -11    1    4    4    0    0  0.74653078359E+02 -0.29083491397E+02  0.26379767474E+03  0.27569574676E+03  0.00000000000E+00 0. -1.
         11    1    4    4    0    0 -0.21305269446E+02 -0.12374766695E+02  0.28570235386E+02  0.37726750548E+02  0.00000000000E+00 0.  1.
</event>
<event>
 8    1  0.3708258E-009  0.1409347E+03  0.7561462E-02  0.1212077E+00
          2   -1    0    0  501    0  0.00000000000E+00  0.00000000000E+00  0.39572805310E+02  0.39572805310E+02  0.00000000000E+00 0. -1.
         -2   -1    0    0    0  501 -0.00000000000E+00 -0.00000000000E+00 -0.56568610042E+03  0.56568610042E+03  0.00000000000E+00 0.  1.
         25    2    1    2    0    0 -0.98674675990E+02 -0.69155142753E+01 -0.22843653641E+03  0.27859616292E+03  0.12509218523E+03 0.  0.
         23    2    1    2    0    0  0.98674675990E+02  0.69155142753E+01 -0.29767675870E+03  0.32666274281E+03  0.91173345079E+02 0.  0.
          5    1    3    3  502    0 -0.44499970721E+02  0.58184030447E+02 -0.12387767017E+03  0.14397492268E+03  0.41800000000E+01 0. -1.
         -5    1    3    3    0  502 -0.54174705269E+02 -0.65099544722E+02 -0.10455886624E+03  0.13462124024E+03  0.41800000000E+01 0. -1.
        -11    1    4    4    0    0  0.78215153993E+02 -0.28132984835E+02 -0.25300465802E+03  0.26630890358E+03  0.00000000000E+00 0. -1.
         11    1    4    4    0    0  0.20459521997E+02  0.35048499111E+02 -0.44672100681E+02  0.60353839228E+02  0.00000000000E+00 0.  1.
</event>
<event>
 8    1  0.3708258E-009  0.8897176E+02  0.7561462E-02  0.1305361E+00
         -2   -1    0    0    0  501 -0.00000000000E+00  0.00000000000E+00  0.10274928786E+03  0.10274928786E+03  0.00000000000E+00 0.  1.
          2   -1    0    0  501    0  0.00000000000E+00 -0.00000000000E+00 -0.15545647975E+03  0.15545647975E+03  0.00000000000E+00 0. -1.
         25    2    1    2    0    0  0.36298976577E+02 -0.28308799168E+02 -0.76800124606E+02  0.15382378412E+03  0.12507795014E+03 0.  0.
         23    2    1    2    0    0 -0.36298976577E+02  0.28308799168E+02  0.24092932720E+02  0.10438198349E+03  0.90532454181E+02 0.  0.
          5    1    3    3  502    0 -0.22817755667E+02 -0.60143152902E+02 -0.25925979581E+02  0.69480052043E+02  0.41800000000E+01 0.  1.
         -5    1    3    3    0  502  0.59116732244E+02  0.31834353734E+02 -0.50874145025E+02  0.84343732078E+02  0.41800000000E+01 0.  1.
        -11    1    4    4    0    0 -0.10051701423E+02  0.56320595039E+01  0.56047788008E+02  0.57219850895E+02  0.00000000000E+00 0.  1.
         11    1    4    4    0    0 -0.26247275154E+02  0.22676739664E+02 -0.31954855288E+02  0.47162132599E+02  0.00000000000E+00 0. -1.
</event>
<event>
 8    1  0.3708258E-009  0.1190497E+03  0.7561462E-02  0.1244673E+00
         -1   -1    0    0    0  501 -0.00000000000E+00  0.00000000000E+00  0.38574070359E+03  0.38574070359E+03  0.00000000000E+00 0.  1.
          1   -1    0    0  501    0  0.00000000000E+00 -0.00000000000E+00 -0.48049424664E+02  0.48049424664E+02  0.00000000000E+00 0. -1.
         25    2    1    2    0    0  0.49644982871E+02  0.53440749634E+02  0.13131832367E+03  0.19548016346E+03  0.12508978428E+03 0.  0.
         23    2    1    2    0    0 -0.49644982871E+02 -0.53440749634E+02  0.20637295526E+03  0.23830996479E+03  0.94240673860E+02 0.  0.
          5    1    3    3  502    0  0.49066742295E+02  0.87441959953E+02  0.12556071220E+03  0.16073769442E+03  0.41800000000E+01 0.  1.
         -5    1    3    3    0  502  0.57824057623E+00 -0.34001210319E+02  0.57576114656E+01  0.34742469042E+02  0.41800000000E+01 0.  1.
        -11    1    4    4    0    0 -0.69122995211E+02 -0.40916696436E+02  0.19802169008E+03  0.21369313105E+03  0.00000000000E+00 0.  1.
         11    1    4    4    0    0  0.19478012340E+02 -0.12524053198E+02  0.83512651725E+01  0.24616833737E+02  0.00000000000E+00 0. -1.
</event>
<event>
 8    1  0.3708258E-009  0.9861572E+02  0.7561462E-02  0.1283234E+00
         -1   -1    0    0    0  501 -0.00000000000E+00  0.00000000000E+00  0.19678782390E+03  0.19678782390E+03  0.00000000000E+00 0.  1.
          1   -1    0    0  501    0  0.00000000000E+00 -0.00000000000E+00 -0.80584755123E+02  0.80584755123E+02  0.00000000000E+00 0. -1.
         25    2    1    2    0    0 -0.37466404762E+02  0.43081141383E+02  0.94224746532E+02  0.16669044285E+03  0.12509070569E+03 0.  0.
         23    2    1    2    0    0  0.37466404762E+02 -0.43081141383E+02  0.21978322249E+02  0.11068213618E+03  0.92237586653E+02 0.  0.
          5    1    3    3  502    0 -0.80261583336E+01 -0.44247369614E+02  0.28176671805E+02  0.53232003244E+02  0.41800000000E+01 0.  1.
         -5    1    3    3    0  502 -0.29440246428E+02  0.87328510996E+02  0.66048074727E+02  0.11345843961E+03  0.41800000000E+01 0.  1.
        -11    1    4    4    0    0  0.21239959107E+02 -0.11127240396E+02 -0.35563972096E+02  0.42892277311E+02  0.00000000000E+00 0. -1.
         11    1    4    4    0    0  0.16226445655E+02 -0.31953900987E+02  0.57542294344E+02  0.67789858868E+02  0.00000000000E+00 0.  1.
</event>
<event>
 8    1  0.3708258E-009  0.9806539E+02  0.7561462E-02  0.1284418E+00
          1   -1    0    0  501    0  0.00000000000E+00  0.00000000000E+00  0.13324901825E+04  0.13324901825E+04  0.00000000000E+00 0. -1.
         -1   -1    0    0    0  501 -0.00000000000E+00 -0.00000000000E+00 -0.16328036747E+02  0.16328036747E+02  0.00000000000E+00 0.  1.
         25    2    1    2    0    0  0.11113620784E+01  0.49151010835E+02  0.11044724603E+04  0.11126202403E+04  0.12508927449E+03 0.  0.
         23    2    1    2    0    0 -0.11113620784E+01 -0.49151010835E+02  0.21168968544E+03  0.23619797893E+03  0.92519756458E+02 0.  0.
          5    1    3    3  502    0  0.29814995384E+02 -0.10561312001E+02  0.81536794151E+03  0.81599192870E+03  0.41800000000E+01 0. -1.
         -5    1    3    3    0  502 -0.28703633306E+02  0.59712322837E+02  0.28910451880E+03  0.29662831162E+03  0.41800000000E+01 0. -1.
        -11    1    4    4    0    0  0.79302149441E+01 -0.72432439468E+02  0.11345717513E+03  0.13484019128E+03  0.00000000000E+00 0.  1.
         11    1    4    4    0    0 -0.90415770225E+01  0.23281428632E+02  0.98232510315E+02  0.10135778765E+03  0.00000000000E+00 0. -1.
</event>
<event>
 8    1  0.3708258E-009  0.1289928E+03  0.7561462E-02  0.1228958E+00
         -3   -1    0    0    0  501 -0.00000000000E+00  0.00000000000E+00  0.48024104257E+03  0.48024104257E+03  0.00000000000E+00 0.  1.
          3   -1    0    0  501    0  0.00000000000E+00 -0.00000000000E+00 -0.47833853992E+02  0.47833853992E+02  0.00000000000E+00 0. -1.
         25    2    1    2    0    0  0.48193529564E+02 -0.50376379088E+02  0.95560775460E+02  0.17216095729E+03  0.12508851885E+03 0.  0.
         23    2    1    2    0    0 -0.48193529564E+02  0.50376379088E+02  0.33684641312E+03  0.35591393927E+03  0.91371933729E+02 0.  0.
          5    1    3    3  502    0 -0.40867351187E+02 -0.65504262085E+00  0.25763932179E+02  0.48495588204E+02  0.41800000000E+01 0.  1.
         -5    1    3    3    0  502  0.89060880752E+02 -0.49721336467E+02  0.69796843282E+02  0.12366536909E+03  0.41800000000E+01 0.  1.
        -11    1    4    4    0    0  0.27483687381E+02  0.12680496368E+02  0.81873259120E+02  0.87289052115E+02  0.00000000000E+00 0.  1.
         11    1    4    4    0    0 -0.75677216945E+02  0.37695882719E+02  0.25497315400E+03  0.26862488715E+03  0.00000000000E+00 0. -1.
</event>
<event>
 8    1  0.3708258E-009  0.1142583E+03  0.7561462E-02  0.1252881E+00
         -2   -1    0    0    0  501 -0.00000000000E+00  0.00000000000E+00  0.14482953148E+03  0.14482953148E+03  0.00000000000E+00 0. -1.
          2   -1    0    0  501    0  0.00000000000E+00 -0.00000000000E+00 -0.18790405926E+03  0.18790405926E+03  0.00000000000E+00 0.  1.
         25    2    1    2    0    0  0.66174106476E+02 -0.10863184822E+02  0.80484427696E+02  0.16316477750E+03  0.12509188768E+03 0.  0.
         23    2    1    2    0    0 -0.66174106476E+02  0.10863184822E+02 -0.12355895548E+03  0.16956881324E+03  0.94814269973E+02 0.  0.
          5    1    3    3  502    0  0.83734541057E+02 -0.39498753504E+02  0.21470605401E+02  0.95131930447E+02  0.41800000000E+01 0.  1.
         -5    1    3    3    0  502 -0.17560434581E+02  0.28635568682E+02  0.59013822295E+02  0.68032847054E+02  0.41800000000E+01 0.  1.
        -11    1    4    4    0    0  0.17168088695E+02 -0.32140098186E+01  0.26553882249E+01  0.17667037533E+02  0.00000000000E+00 0. -1.
         11    1    4    4    0    0 -0.83342195171E+02  0.14077194641E+02 -0.12621434370E+03  0.15190177570E+03  0.00000000000E+00 0.  1.
</event>
<event>
 8    1  0.3708258E-009  0.6139667E+02  0.7561462E-02  0.1392062E+00
         -3   -1    0    0    0  501 -0.00000000000E+00  0.00000000000E+00  0.11308274790E+03  0.11308274790E+03  0.00000000000E+00 0.  1.
          3   -1    0    0  501    0  0.00000000000E+00 -0.00000000000E+00 -0.11774002485E+03  0.11774002485E+03  0.00000000000E+00 0. -1.
         25    2    1    2    0    0 -0.39863717912E+02 -0.22029906713E+01 -0.18619096445E+02  0.13261717914E+03  0.12508667506E+03 0.  0.
         23    2    1    2    0    0  0.39863717912E+02  0.22029906713E+01  0.13961819487E+02  0.98205593608E+02  0.88630903408E+02 0.  0.
          5    1    3    3  502    0 -0.27648575709E+02  0.19619607668E+02  0.49380566403E+02  0.60044029529E+02  0.41800000000E+01 0. -1.
         -5    1    3    3    0  502 -0.12215142203E+02 -0.21822598340E+02 -0.67999662848E+02  0.72573149614E+02  0.41800000000E+01 0. -1.
        -11    1    4    4    0    0 -0.18710437706E+01  0.18411904208E+02 -0.30135044785E+02  0.35364105327E+02  0.00000000000E+00 0. -1.
         11    1    4    4    0    0  0.41734761683E+02 -0.16208913536E+02  0.44096864272E+02  0.62841488281E+02  0.00000000000E+00 0.  1.
</event>
<event>
 8    1  0.3708258E-009  0.1314730E+03  0.7561462E-02  0.1225286E+00
         -2   -1    0    0    0  501 -0.00000000000E+00  0.00000000000E+00  0.10887011133E+03  0.10887011133E+03  0.00000000000E+00 0.  1.
          2   -1    0    0  501    0  0.00000000000E+00 -0.00000000000E+00 -0.28918677563E+03  0.28918677563E+03  0.00000000000E+00 0. -1.
         25    2    1    2    0    0  0.86509302416E+02 -0.51177319539E+01 -0.21805565756E+03  0.26590474815E+03  0.12508802786E+03 0.  0.
         23    2    1    2    0    0 -0.86509302416E+02  0.51177319539E+01  0.37738993250E+02  0.13215213881E+03  0.92357488028E+02 0.  0.
          5    1    3    3  502    0  0.89536207715E+02  0.37380868577E+02 -0.95987855953E+02  0.13654743761E+03  0.41800000000E+01 0.  1.
         -5    1    3    3    0  502 -0.30269052989E+01 -0.42498600531E+02 -0.12206780160E+03  0.12935731054E+03  0.41800000000E+01 0.  1.
        -11    1    4    4    0    0 -0.86634308984E+01 -0.34570792550E+02 -0.29537936364E+01  0.35761985813E+02  0.00000000000E+00 0.  1.
         11    1    4    4    0    0 -0.77845871518E+02  0.39688524504E+02  0.40692786887E+02  0.96390152994E+02  0.00000000000E+00 0. -1.
</event>
<event>
 8    1  0.3708258E-009  0.1167817E+03  0.7561462E-02  0.1248503E+00
         -3   -1    0    0    0  501 -0.00000000000E+00  0.00000000000E+00  0.29300320936E+03  0.29300320936E+03  0.00000000000E+00 0.  1.
          3   -1    0    0  501    0  0.00000000000E+00 -0.00000000000E+00 -0.58251675469E+02  0.58251675469E+02  0.00000000000E+00 0. -1.
         25    2    1    2    0    0 -0.56652911261E+01 -0.65631437850E+02  0.16733081404E+03  0.21905947448E+03  0.12509145004E+03 0.  0.
         23    2    1    2    0    0  0.56652911261E+01  0.65631437850E+02  0.67420719845E+02  0.13219541034E+03  0.92684906506E+02 0.  0.
          5    1    3    3  502    0  0.22531146928E+02 -0.87482971879E+02  0.15783739880E+03  0.18190942749E+03  0.41800000000E+01 0.  1.
         -5    1    3    3    0  502 -0.28196438054E+02  0.21851534029E+02  0.94934152437E+01  0.37150046990E+02  0.41800000000E+01 0.  1.
        -11    1    4    4    0    0  0.35500662561E+02  0.68587863235E+02  0.26884321171E+02  0.81776272538E+02  0.00000000000E+00 0. -1.
         11    1    4    4    0    0 -0.29835371435E+02 -0.29564253852E+01  0.40536398674E+02  0.50419137807E+02  0.00000000000E+00 0.  1.
</event>
<event>
 8    1  0.3708258E-009  0.1152917E+03  0.7561462E-02  0.1251073E+00
          4   -1    0    0  501    0  0.00000000000E+00  0.00000000000E+00  0.10116827590E+03  0.10116827590E+03  0.00000000000E+00 0.  1.
         -4   -1    0    0    0  501 -0.00000000000E+00 -0.00000000000E+00 -0.16807121107E+03  0.16807121107E+03  0.00000000000E+00 0. -1.
         25    2    1    2    0    0  0.28918943202E+02 -0.58273569639E+02 -0.17116240698E+02  0.14203128963E+03  0.12509119611E+03 0.  0.
         23    2    1    2    0    0 -0.28918943202E+02  0.58273569639E+02 -0.49786694480E+02  0.12720819734E+03  0.97319557796E+02 0.  0.
          5    1    3    3  502    0 -0.30927193366E+02 -0.43026294611E+02  0.32847328007E+02  0.62483379187E+02  0.41800000000E+01 0.  1.
         -5    1    3    3    0  502  0.59846136569E+02 -0.15247275029E+02 -0.49963568704E+02  0.79547910442E+02  0.41800000000E+01 0.  1.
        -11    1    4    4    0    0 -0.39877934423E+02 -0.14126878229E+02 -0.85206282859E+01  0.43155758002E+02  0.00000000000E+00 0.  1.
         11    1    4    4    0    0  0.10958991221E+02  0.72400447868E+02 -0.41266066194E+02  0.84052439341E+02  0.00000000000E+00 0. -1.
</event>
<event>
 8    1  0.3708258E-009  0.1120767E+03  0.7561462E-02  0.1256772E+00
         -4   -1    0    0    0  501 -0.00000000000E+00  0.00000000000E+00  0.17668376161E+03  0.17668376161E+03  0.00000000000E+00 0.  1.
          4   -1    0    0  501    0  0.00000000000E+00 -0.00000000000E+00 -0.10381367033E+03  0.10381367033E+03  0.00000000000E+00 0. -1.
         25    2    1    2    0    0 -0.43649506124E+02 -0.40523463618E+01  0.10819495648E+03  0.17109907375E+03  0.12508814306E+03 0.  0.
         23    2    1    2    0    0  0.43649506124E+02  0.40523463618E+01 -0.35324865201E+02  0.10939835819E+03  0.93800073440E+02 0.  0.
          5    1    3    3  502    0 -0.40008713985E+02  0.57273190257E+02  0.47126468580E+02  0.84375896782E+02  0.41800000000E+01 0. -1.
         -5    1    3    3    0  502 -0.36407921389E+01 -0.61325536618E+02  0.61068487900E+02  0.86723176968E+02  0.41800000000E+01 0. -1.
        -11    1    4    4    0    0  0.47925398588E+02  0.36261438070E+02 -0.45468693871E+02  0.75360054691E+02  0.00000000000E+00 0. -1.
         11    1    4    4    0    0 -0.42758924637E+01 -0.32209091708E+02  0.10143828670E+02  0.34038303500E+02  0.00000000000E+00 0.  1.
</event>
<event>
 8    1  0.3708258E-009  0.9344138E+02  0.7561462E-02  0.1294726E+00
          1   -1    0    0  501    0  0.00000000000E+00  0.00000000000E+00  0.49294070545E+02  0.49294070545E+02  0.00000000000E+00 0. -1.
         -1   -1    0    0    0  501 -0.00000000000E+00 -0.00000000000E+00 -0.30583641399E+03  0.30583641399E+03  0.00000000000E+00 0.  1.
         25    2    1    2    0    0  0.51169428828E+02 -0.34634923088E+01 -0.10516783679E+03  0.17128443688E+03  0.12509107961E+03 0.  0.
         23    2    1    2    0    0 -0.51169428828E+02  0.34634923088E+01 -0.15137450666E+03  0.18384604765E+03  0.90856049584E+02 0.  0.
          5    1    3    3  502    0  0.75304942400E+02  0.39950549741E+02 -0.66159985451E+02  0.10798841072E+03  0.41800000000E+01 0.  1.
         -5    1    3    3    0  502 -0.24135513572E+02 -0.43414042049E+02 -0.39007851337E+02  0.63296026166E+02  0.41800000000E+01 0.  1.
        -11    1    4    4    0    0 -0.33772146123E+02 -0.77361023488E+00 -0.16031277369E+03  0.16383327420E+03  0.00000000000E+00 0.  1.
         11    1    4    4    0    0 -0.17397282705E+02  0.42371025437E+01  0.89382670371E+01  0.20012773449E+02  0.00000000000E+00 0. -1.
</event>
<event>
 8    1  0.3708258E-009  0.1288808E+03  0.7561462E-02  0.1229126E+00
          1   -1    0    0  501    0  0.00000000000E+00  0.00000000000E+00  0.23167891730E+02  0.23167891730E+02  0.00000000000E+00 0. -1.
         -1   -1    0    0    0  501 -0.00000000000E+00 -0.00000000000E+00 -0.85961710957E+03  0.85961710957E+03  0.00000000000E+00 0.  1.
         25    2    1    2    0    0 -0.83557624564E+02  0.27714912628E+02 -0.49155715298E+03  0.51480670353E+03  0.12509002498E+03 0.  0.
         23    2    1    2    0    0  0.83557624564E+02 -0.27714912628E+02 -0.34489206486E+03  0.36797829777E+03  0.93313976562E+02 0.  0.
          5    1    3    3  502    0  0.16687871014E+02  0.23537929437E+02 -0.26981964963E+03  0.27139018938E+03  0.41800000000E+01 0. -1.
         -5    1    3    3    0  502 -0.10024549558E+03  0.41769831914E+01 -0.22173750335E+03  0.24341651415E+03  0.41800000000E+01 0. -1.
        -11    1    4    4    0    0  0.10120514407E+03 -0.37595146267E+02 -0.28501316394E+03  0.30477595021E+03  0.00000000000E+00 0.  1.
         11    1    4    4    0    0 -0.17647519505E+02  0.98802336393E+01 -0.59878900920E+02  0.63202347558E+02  0.00000000000E+00 0. -1.
</event>
<event>
 8    1  0.3708258E-009  0.1483465E+03  0.7561462E-02  0.1202520E+00
         -2   -1    0    0    0  501 -0.00000000000E+00  0.00000000000E+00  0.39635096154E+02  0.39635096154E+02  0.00000000000E+00 0.  1.
          2   -1    0    0  501    0  0.00000000000E+00 -0.00000000000E+00 -0.68561275254E+03  0.68561275254E+03  0.00000000000E+00 0. -1.
         25    2    1    2    0    0 -0.10771664622E+03  0.36373989692E+02 -0.45121327399E+03  0.48183622663E+03  0.12508712031E+03 0.  0.
         23    2    1    2    0    0  0.10771664622E+03 -0.36373989692E+02 -0.19476438239E+03  0.24341162207E+03  0.91597544224E+02 0.  0.
          5    1    3    3  502    0 -0.14129178320E+02  0.67858932876E+02 -0.16402070683E+03  0.17811438212E+03  0.41800000000E+01 0.  1.
         -5    1    3    3    0  502 -0.93587467900E+02 -0.31484943184E+02 -0.28719256716E+03  0.30372184450E+03  0.41800000000E+01 0.  1.
        -11    1    4    4    0    0  0.50056834941E+02 -0.48280474834E+02 -0.45901249160E+02  0.83328360412E+02  0.00000000000E+00 0.  1.
         11    1    4    4    0    0  0.57659811279E+02  0.11906485142E+02 -0.14886313323E+03  0.16008326165E+03  0.00000000000E+00 0. -1.
</event>
<event>
 8    1  0.3708258E-009  0.8654172E+02  0.7561462E-02  0.1311449E+00
         -2   -1    0    0    0  501 -0.00000000000E+00  0.00000000000E+00  0.18764643523E+02  0.18764643523E+02  0.00000000000E+00 0.  1.
          2   -1    0    0  501    0  0.00000000000E+00 -0.00000000000E+00 -0.84340251389E+03  0.84340251389E+03  0.00000000000E+00 0. -1.
         25    2    1    2    0    0 -0.26251817696E+02 -0.45649837344E+02 -0.58452118614E+03  0.60007269069E+03  0.12509656864E+03 0.  0.
         23    2    1    2    0    0  0.26251817696E+02  0.45649837344E+02 -0.24011668423E+03  0.26209446673E+03  0.90908865681E+02 0.  0.
          5    1    3    3  502    0  0.10985865967E+02 -0.18460555690E+02 -0.52105746709E+03  0.52151686241E+03  0.41800000000E+01 0.  1.
         -5    1    3    3    0  502 -0.37237683662E+02 -0.27189281654E+02 -0.63463719045E+02  0.78555828278E+02  0.41800000000E+01 0.  1.
        -11    1    4    4    0    0  0.59368740697E+02  0.18819191961E+02 -0.13544087369E+03  0.14907394013E+03  0.00000000000E+00 0.  1.
         11    1    4    4    0    0 -0.33116923001E+02  0.26830645384E+02 -0.10467581054E+03  0.11302052660E+03  0.00000000000E+00 0. -1.
</event>
<event>
 8    1  0.3708258E-009  0.1002454E+03  0.7561462E-02  0.1279781E+00
          2   -1    0    0  501    0  0.00000000000E+00  0.00000000000E+00  0.60980644895E+03  0.60980644895E+03  0.00000000000E+00 0.  1.
         -2   -1    0    0    0  501 -0.00000000000E+00 -0.00000000000E+00 -0.21024454051E+02  0.21024454051E+02  0.00000000000E+00 0. -1.
         25    2    1    2    0    0  0.32559810907E+02  0.91814681708E+01  0.30697508558E+03  0.33320469338E+03  0.12508886392E+03 0.  0.
         23    2    1    2    0    0 -0.32559810907E+02 -0.91814681708E+01  0.28180690932E+03  0.29762620963E+03  0.89564423021E+02 0.  0.
          5    1    3    3  502    0  0.35407952919E+02 -0.48759044716E+02  0.88702683997E+02  0.10731638328E+03  0.41800000000E+01 0. -1.
         -5    1    3    3    0  502 -0.28481420115E+01  0.57940512887E+02  0.21827240158E+03  0.22588831010E+03  0.41800000000E+01 0. -1.
        -11    1    4    4    0    0 -0.21292861655E+02 -0.42075154047E+02  0.23285964218E+03  0.23758644216E+03  0.00000000000E+00 0.  1.
         11    1    4    4    0    0 -0.11266949252E+02  0.32893685877E+02  0.48947267148E+02  0.60039767465E+02  0.00000000000E+00 0. -1.
</event>
<event>
 8    1  0.3708258E-009  0.1220094E+03  0.7561462E-02  0.1239819E+00
         -1   -1    0    0    0  501 -0.00000000000E+00  0.00000000000E+00  0.59090984945E+03  0.59090984945E+03  0.00000000000E+00 0.  1.
          1   -1    0    0  501    0  0.00000000000E+00 -0.00000000000E+00 -0.31702303255E+02  0.31702303255E+02  0.00000000000E+00 0. -1.
         25    2    1    2    0    0  0.18272059547E+02  0.77044629964E+02  0.25261596871E+03  0.29279981851E+03  0.12508862022E+03 0.  0.
         23    2    1    2    0    0 -0.18272059547E+02 -0.77044629964E+02  0.30659157749E+03  0.32981233419E+03  0.92239022301E+02 0.  0.
          5    1    3    3  502    0  0.55067827139E+02  0.12180173385E+01  0.55144983985E+02  0.78053768716E+02  0.41800000000E+01 0. -1.
         -5    1    3    3    0  502 -0.36795767592E+02  0.75826612625E+02  0.19747098473E+03  0.21474604980E+03  0.41800000000E+01 0. -1.
        -11    1    4    4    0    0 -0.41215793129E+02 -0.68432317270E+02  0.28848669855E+03  0.29934311232E+03  0.00000000000E+00 0.  1.
         11    1    4    4    0    0  0.22943733582E+02 -0.86123126937E+01  0.18104878934E+02  0.30469221878E+02  0.00000000000E+00 0. -1.
</event>
<event>
 8    1  0.3708258E-009  0.8297923E+02  0.7561462E-02  0.1320803E+00
          1   -1    0    0  501    0  0.00000000000E+00  0.00000000000E+00  0.21303257910E+02  0.21303257910E+02  0.00000000000E+00 0. -1.
         -1   -1    0    0    0  501 -0.00000000000E+00 -0.00000000000E+00 -0.66691774861E+03  0.66691774861E+03  0.00000000000E+00 0.  1.
         25    2    1    2    0    0  0.26060581123E+02 -0.17241115679E+02 -0.47785460931E+03  0.49494568380E+03  0.12509912995E+03 0.  0.
         23    2    1    2    0    0 -0.26060581123E+02  0.17241115679E+02 -0.16775988139E+03  0.19327532272E+03  0.90750000610E+02 0.  0.
          5    1    3    3  502    0  0.48172942334E+02 -0.13164392194E+02 -0.46690971965E+03  0.46959140995E+03  0.41800000000E+01 0.  1.
         -5    1    3    3    0  502 -0.22112361211E+02 -0.40767234850E+01 -0.10944889657E+02  0.25354273847E+02  0.41800000000E+01 0.  1.
        -11    1    4    4    0    0 -0.53063055660E+02 -0.10685279401E+02 -0.73132428316E+02  0.90984697302E+02  0.00000000000E+00 0.  1.
         11    1    4    4    0    0  0.27002474537E+02  0.27926395080E+02 -0.94627453077E+02  0.10229062542E+03  0.00000000000E+00 0. -1.
</event>
<event>
 8    1  0.3708258E-009  0.1484600E+03  0.7561462E-02  0.1202378E+00
          1   -1    0    0  501    0  0.00000000000E+00  0.00000000000E+00  0.12627190372E+04  0.12627190372E+04  0.00000000000E+00 0. -1.
         -1   -1    0    0    0  501 -0.00000000000E+00 -0.00000000000E+00 -0.24334691166E+02  0.24334691166E+02  0.00000000000E+00 0.  1.
         25    2    1    2    0    0 -0.95611828031E+01  0.13435021225E+03  0.76195521730E+03  0.78381409411E+03  0.12508950883E+03 0.  0.
         23    2    1    2    0    0  0.95611828031E+01 -0.13435021225E+03  0.47642912874E+03  0.50323963425E+03  0.90133340242E+02 0.  0.
          5    1    3    3  502    0 -0.66128836811E+01  0.60497742734E+02  0.62638581611E+03  0.62934916392E+03  0.41800000000E+01 0. -1.
         -5    1    3    3    0  502 -0.29482991220E+01  0.73852469515E+02  0.13556940119E+03  0.15446493019E+03  0.41800000000E+01 0. -1.
        -11    1    4    4    0    0 -0.39135700540E+02 -0.79027723002E+02  0.27119265202E+03  0.28517089362E+03  0.00000000000E+00 0.  1.
         11    1    4    4    0    0  0.48696883343E+02 -0.55322489248E+02  0.20523647672E+03  0.21806874063E+03  0.00000000000E+00 0. -1.
</event>
<event>
 8    1  0.3708258E-009  0.8763975E+02  0.7561462E-02  0.1308670E+00
          2   -1    0    0  501    0  0.00000000000E+00  0.00000000000E+00  0.45207731156E+03  0.45207731156E+03  0.00000000000E+00 0. -1.
         -2   -1    0    0    0  501 -0.00000000000E+00 -0.00000000000E+00 -0.40882636400E+02  0.40882636400E+02  0.00000000000E+00 0.  1.
         25    2    1    2    0    0  0.68685328028E+02 -0.30537750983E+02  0.18088905187E+03  0.23241533791E+03  0.12508321905E+03 0.  0.
         23    2    1    2    0    0 -0.68685328028E+02  0.30537750983E+02  0.23030562329E+03  0.26054461005E+03  0.95877970280E+02 0.  0.
          5    1    3    3  502    0  0.35263031121E+02 -0.20931824103E+01 -0.96380337838E+01  0.36854129642E+02  0.41800000000E+01 0.  1.
         -5    1    3    3    0  502  0.33422296907E+02 -0.28444568572E+02  0.19052708566E+03  0.19556120827E+03  0.41800000000E+01 0.  1.
        -11    1    4    4    0    0 -0.33552876205E+02 -0.16113008459E+02  0.19945718281E+02  0.42228618507E+02  0.00000000000E+00 0.  1.
         11    1    4    4    0    0 -0.35132451823E+02  0.46650759442E+02  0.21035990501E+03  0.21831599154E+03  0.00000000000E+00 0. -1.
</event>
<event>
 8    1  0.3708258E-009  0.1254483E+03  0.7561462E-02  0.1234370E+00
         -2   -1    0    0    0  501 -0.00000000000E+00  0.00000000000E+00  0.26716917479E+03  0.26716917479E+03  0.00000000000E+00 0.  1.
          2   -1    0    0  501    0  0.00000000000E+00 -0.00000000000E+00 -0.62884337308E+02  0.62884337308E+02  0.00000000000E+00 0. -1.
         25    2    1    2    0    0  0.68577345342E+02 -0.22662024654E+02  0.11726184819E+03  0.18605021206E+03  0.12509164925E+03 0.  0.
         23    2    1    2    0    0 -0.68577345342E+02  0.22662024654E+02  0.87022989287E+02  0.14400330003E+03  0.89148920910E+02 0.  0.
          5    1    3    3  502    0  0.33999158697E+01  0.47859026341E+02  0.34994798063E+02  0.59532798705E+02  0.41800000000E+01 0. -1.
         -5    1    3    3    0  502  0.65177429472E+02 -0.70521050995E+02  0.82267050129E+02  0.12651741336E+03  0.41800000000E+01 0. -1.
        -11    1    4    4    0    0  0.12040665427E+02  0.23041265934E+02  0.86905702408E+00  0.26012166767E+02  0.00000000000E+00 0. -1.
         11    1    4    4    0    0 -0.80618010769E+02 -0.37924128058E+00  0.86153932263E+02  0.11799113326E+03  0.00000000000E+00 0.  1.
</event>
<event>
 8    1  0.3708258E-009  0.9858532E+02  0.7561462E-02  0.1283299E+00
          1   -1    0    0  501    0  0.00000000000E+00  0.00000000000E+00  0.51583240828E+03  0.51583240828E+03  0.00000000000E+00 0.  1.
         -1   -1    0    0    0  501 -0.00000000000E+00 -0.00000000000E+00 -0.23431939482E+02  0.23431939482E+02  0.00000000000E+00 0. -1.
         25    2    1    2    0    0 -0.30766498950E+01 -0.14603523010E+02  0.28858769211E+03  0.31488617869E+03  0.12509085031E+03 0.  0.
         23    2    1    2    0    0  0.30766498950E+01  0.14603523010E+02  0.20381277669E+03  0.22437816908E+03  0.92645486444E+02 0.  0.
          5    1    3    3  502    0 -0.19311740836E+00 -0.60196582819E+02  0.24236143529E+03  0.24976029226E+03  0.41800000000E+01 0.  1.
         -5    1    3    3    0  502 -0.28835324866E+01  0.45593059809E+02  0.46226256824E+02  0.65125886423E+02  0.41800000000E+01 0.  1.
        -11    1    4    4    0    0  0.31377973164E+02  0.41421428082E+02  0.88219466288E+02  0.10238645485E+03  0.00000000000E+00 0. -1.
         11    1    4    4    0    0 -0.28301323269E+02 -0.26817905073E+02  0.11559331040E+03  0.12199171423E+03  0.00000000000E+00 0.  1.
</event>
<event>
 8    1  0.3708258E-009  0.1790339E+03  0.7561462E-02  0.1168741E+00
          2   -1    0    0  501    0  0.00000000000E+00  0.00000000000E+00  0.11742352141E+03  0.11742352141E+03  0.00000000000E+00 0.  1.
         -2   -1    0    0    0  501 -0.00000000000E+00 -0.00000000000E+00 -0.32216165884E+03  0.32216165884E+03  0.00000000000E+00 0. -1.
         25    2    1    2    0    0  0.10563927632E+03 -0.11297390953E+03 -0.15536966557E+03  0.25240799063E+03  0.12508916747E+03 0.  0.
         23    2    1    2    0    0 -0.10563927632E+03  0.11297390953E+03 -0.49368471866E+02  0.18717718962E+03  0.93141254890E+02 0.  0.
          5    1    3    3  502    0  0.54392374772E+02 -0.11664986339E+03 -0.15412788126E+03  0.20084470928E+03  0.41800000000E+01 0. -1.
         -5    1    3    3    0  502  0.51246901551E+02  0.36759538591E+01 -0.12417843033E+01  0.51563281351E+02  0.41800000000E+01 0. -1.
        -11    1    4    4    0    0 -0.56464874552E+02  0.11543806004E+03 -0.20588049661E+02  0.13014643888E+03  0.00000000000E+00 0.  1.
         11    1    4    4    0    0 -0.49174401771E+02 -0.24641505144E+01 -0.28780422205E+02  0.57030750736E+02  0.00000000000E+00 0. -1.
</event>
<event>
 8    1  0.3708258E-009  0.1288750E+03  0.7561462E-02  0.1229135E+00
          2   -1    0    0  501    0  0.00000000000E+00  0.00000000000E+00  0.15766526424E+03  0.15766526424E+03  0.00000000000E+00 0. -1.
         -2   -1    0    0    0  501 -0.00000000000E+00 -0.00000000000E+00 -0.14051634936E+03  0.14051634936E+03  0.00000000000E+00 0.  1.
         25    2    1    2    0    0  0.64749397505E+02  0.50347011903E+02 -0.51160897885E+02  0.15808769946E+03  0.12508787776E+03 0.  0.
         23    2    1    2    0    0 -0.64749397505E+02 -0.50347011903E+02  0.68309812763E+02  0.14009391415E+03  0.90734602976E+02 0.  0.
          5    1    3    3  502    0  0.34269093639E+02 -0.33130437768E+02  0.11572263304E+02  0.49227902287E+02  0.41800000000E+01 0.  1.
         -5    1    3    3    0  502  0.30480303866E+02  0.83477449671E+02 -0.62733161189E+02  0.10885979717E+03  0.41800000000E+01 0.  1.
        -11    1    4    4    0    0 -0.22365767284E+02 -0.70530164571E+02  0.31404666769E+02  0.80380251029E+02  0.00000000000E+00 0.  1.
         11    1    4    4    0    0 -0.42383630221E+02  0.20183152669E+02  0.36905145994E+02  0.59713663120E+02  0.00000000000E+00 0. -1.
</event>
<event>
 8    1  0.3708258E-009  0.1033699E+03  0.7561462E-02  0.1273365E+00
          2   -1    0    0  501    0  0.00000000000E+00  0.00000000000E+00  0.44902696498E+02  0.44902696498E+02  0.00000000000E+00 0.  1.
         -2   -1    0    0    0  501 -0.00000000000E+00 -0.00000000000E+00 -0.34657860754E+03  0.34657860754E+03  0.00000000000E+00 0. -1.
         25    2    1    2    0    0  0.12675869280E+01 -0.35645365856E+02 -0.24161540982E+03  0.27440492158E+03  0.12509138995E+03 0.  0.
         23    2    1    2    0    0 -0.12675869280E+01  0.35645365856E+02 -0.60060501218E+02  0.11707638246E+03  0.93954332730E+02 0.  0.
          5    1    3    3  502    0  0.36484522315E+02 -0.60932906361E+02 -0.80160496758E+02  0.10717796922E+03  0.41800000000E+01 0.  1.
         -5    1    3    3    0  502 -0.35216935387E+02  0.25287540504E+02 -0.16145491306E+03  0.16722695236E+03  0.41800000000E+01 0.  1.
        -11    1    4    4    0    0 -0.10609088425E+02 -0.26839663691E+02  0.14534976631E+01  0.28896936857E+02  0.00000000000E+00 0.  1.
         11    1    4    4    0    0  0.93415014967E+01  0.62485029547E+02 -0.61513998881E+02  0.88179445599E+02  0.00000000000E+00 0. -1.
</event>
<event>
 8    1  0.3708258E-009  0.1782101E+03  0.7561462E-02  0.1169547E+00
         -1   -1    0    0    0  501 -0.00000000000E+00  0.00000000000E+00  0.32589199925E+03  0.32589199925E+03  0.00000000000E+00 0.  1.
          1   -1    0    0  501    0  0.00000000000E+00 -0.00000000000E+00 -0.10913216930E+03  0.10913216930E+03  0.00000000000E+00 0. -1.
         25    2    1    2    0    0  0.14502988294E+03  0.36937683938E+02  0.70832863247E+02  0.20751472953E+03  0.12508800509E+03 0.  0.
         23    2    1    2    0    0 -0.14502988294E+03 -0.36937683938E+02  0.14592696671E+03  0.22750943902E+03  0.89820965209E+02 0.  0.
          5    1    3    3  502    0  0.16195524342E+02  0.49679425673E+02  0.56695358871E+02  0.77215131039E+02  0.41800000000E+01 0.  1.
         -5    1    3    3    0  502  0.12883435859E+03 -0.12741741735E+02  0.14137504376E+02  0.13029959849E+03  0.41800000000E+01 0.  1.
        -11    1    4    4    0    0 -0.11179429202E+03  0.15013086271E+02  0.97502617074E+02  0.14909767545E+03  0.00000000000E+00 0.  1.
         11    1    4    4    0    0 -0.33235590914E+02 -0.51950770209E+02  0.48424349632E+02  0.78411763569E+02  0.00000000000E+00 0. -1.
</event>
<event>
 8    1  0.3708258E-009  0.9169761E+02  0.7561462E-02  0.1298792E+00
         -2   -1    0    0    0  501 -0.00000000000E+00  0.00000000000E+00  0.79290521325E+02  0.79290521325E+02  0.00000000000E+00 0.  1.
          2   -1    0    0  501    0  0.00000000000E+00 -0.00000000000E+00 -0.25631453133E+03  0.25631453133E+03  0.00000000000E+00 0. -1.
         25    2    1    2    0    0 -0.27627003647E+02  0.20674249484E+01 -0.20540403993E+03  0.24208575181E+03  0.12508863271E+03 0.  0.
         23    2    1    2    0    0  0.27627003647E+02 -0.20674249484E+01  0.28380029927E+02  0.93519300842E+02  0.84693021878E+02 0.  0.
          5    1    3    3  502    0  0.37278349876E+02 -0.85680472833E+01 -0.15335119781E+03  0.15810486733E+03  0.41800000000E+01 0.  1.
         -5    1    3    3    0  502 -0.64905353524E+02  0.10635472232E+02 -0.52052842123E+02  0.83980884484E+02  0.41800000000E+01 0.  1.
        -11    1    4    4    0    0  0.51059144705E+02  0.10933082028E+02 -0.29410320961E+01  0.52299313670E+02  0.00000000000E+00 0. -1.
         11    1    4    4    0    0 -0.23432141057E+02 -0.13000506976E+02  0.31321062023E+02  0.41219987172E+02  0.00000000000E+00 0.  1.
</event>
<event>
 8    1  0.3708258E-009  0.1763368E+03  0.7561462E-02  0.1171396E+00
          1   -1    0    0  501    0  0.00000000000E+00  0.00000000000E+00  0.32359905676E+03  0.32359905676E+03  0.00000000000E+00 0. -1.
         -1   -1    0    0    0  501 -0.00000000000E+00 -0.00000000000E+00 -0.11943950681E+03  0.11943950681E+03  0.00000000000E+00 0.  1.
         25    2    1    2    0    0 -0.14842945876E+03 -0.30234095816E+02  0.36049210819E+02  0.19973210486E+03  0.12509181961E+03 0.  0.
         23    2    1    2    0    0  0.14842945876E+03  0.30234095816E+02  0.16811033914E+03  0.24330645871E+03  0.89395424652E+02 0.  0.
          5    1    3    3  502    0 -0.75983389998E+02  0.31770962399E+02 -0.25311243048E+02  0.86261237135E+02  0.41800000000E+01 0. -1.
         -5    1    3    3    0  502 -0.72446068757E+02 -0.62005058215E+02  0.61360453867E+02  0.11347086772E+03  0.41800000000E+01 0. -1.
        -11    1    4    4    0    0  0.15011759276E+03  0.47468205938E+02  0.15890693035E+03  0.22369607673E+03  0.00000000000E+00 0. -1.
         11    1    4    4    0    0 -0.16881340033E+01 -0.17234110122E+02  0.92034087866E+01  0.19610381980E+02  0.00000000000E+00 0.  1.
</event>
<event>
 8    1  0.3708258E-009  0.1045801E+03  0.7561462E-02  0.1270949E+00
         -3   -1    0    0    0  501 -0.00000000000E+00  0.00000000000E+00  0.51153131375E+02  0.51153131375E+02  0.00000000000E+00 0.  1.
          3   -1    0    0  501    0  0.00000000000E+00 -0.00000000000E+00 -0.28550178326E+03  0.28550178326E+03  0.00000000000E+00 0. -1.
         25    2    1    2    0    0 -0.20531300784E+02 -0.21483329903E+02 -0.19111523347E+03  0.23033908948E+03  0.12509194979E+03 0.  0.
         23    2    1    2    0    0  0.20531300784E+02  0.21483329903E+02 -0.43233418419E+02  0.10631582516E+03  0.92470851815E+02 0.  0.
          5    1    3    3  502    0 -0.54404638897E+02 -0.48839952588E+02 -0.16203248473E+03  0.17781227239E+03  0.41800000000E+01 0. -1.
         -5    1    3    3    0  502  0.33873338113E+02  0.27356622685E+02 -0.29082748730E+02  0.52526817088E+02  0.41800000000E+01 0. -1.
        -11    1    4    4    0    0  0.22334571673E+02  0.54616579793E+02 -0.43205429027E+02  0.73133528409E+02  0.00000000000E+00 0.  1.
         11    1    4    4    0    0 -0.18032708882E+01 -0.33133249890E+02 -0.27989391822E-01  0.33182296750E+02  0.00000000000E+00 0. -1.
</event>
<event>
 8    1  0.3708258E-009  0.2699430E+03  0.7561462E-02  0.1101312E+00
         -2   -1    0    0    0  501 -0.00000000000E+00  0.00000000000E+00  0.57208663527E+03  0.57208663527E+03  0.00000000000E+00 0. -1.
          2   -1    0    0  501    0  0.00000000000E+00 -0.00000000000E+00 -0.17533977126E+03  0.17533977126E+03  0.00000000000E+00 0.  1.
         25    2    1    2    0    0  0.20050500013E+02  0.26039117024E+03  0.36245979740E+02  0.29183400565E+03  0.12509089383E+03 0.  0.
         23    2    1    2    0    0 -0.20050500013E+02 -0.26039117024E+03  0.36050088427E+03  0.45559240087E+03  0.96943097139E+02 0.  0.
          5    1    3    3  502    0  0.13075768436E+02  0.12794840253E+03  0.80699538359E+02  0.15189357235E+03  0.41800000000E+01 0.  1.
         -5    1    3    3    0  502  0.69747315770E+01  0.13244276771E+03 -0.44453558619E+02  0.13994043330E+03  0.41800000000E+01 0.  1.
        -11    1    4    4    0    0  0.29338742177E+02 -0.19156083758E+03  0.25526897069E+03  0.32049736923E+03  0.00000000000E+00 0.  1.
         11    1    4    4    0    0 -0.49389242190E+02 -0.68830332653E+02  0.10523191358E+03  0.13509503164E+03  0.00000000000E+00 0. -1.
</event>
<event>
 8    1  0.3708258E-009  0.1563879E+03  0.7561462E-02  0.1192836E+00
          1   -1    0    0  501    0  0.00000000000E+00  0.00000000000E+00  0.54099744388E+03  0.54099744388E+03  0.00000000000E+00 0. -1.
         -1   -1    0    0    0  501 -0.00000000000E+00 -0.00000000000E+00 -0.70293187230E+02  0.70293187230E+02  0.00000000000E+00 0.  1.
         25    2    1    2    0    0 -0.10825176658E+02 -0.11728296750E+03  0.42020244555E+03  0.45397128323E+03  0.12508937539E+03 0.  0.
         23    2    1    2    0    0  0.10825176658E+02  0.11728296750E+03  0.50501811096E+02  0.15731934788E+03  0.91249467823E+02 0.  0.
          5    1    3    3  502    0 -0.40733618428E+02  0.76364355442E+01  0.13190492699E+03  0.13832543144E+03  0.41800000000E+01 0. -1.
         -5    1    3    3    0  502  0.29908441770E+02 -0.12491940304E+03  0.28829751856E+03  0.31564585179E+03  0.41800000000E+01 0. -1.
        -11    1    4    4    0    0  0.40208168340E+02  0.10166771428E+03  0.57182205478E+02  0.12338081517E+03  0.00000000000E+00 0. -1.
         11    1    4    4    0    0 -0.29382991682E+02  0.15615253213E+02 -0.66803943825E+01  0.33938532706E+02  0.00000000000E+00 0.  1.
</event>
<event>
 8    1  0.3708258E-009  0.1068487E+03  0.7561462E-02  0.1266519E+00
          2   -1    0    0  501    0  0.00000000000E+00  0.00000000000E+00  0.48360892323E+03  0.48360892323E+03  0.00000000000E+00 0. -1.
         -2   -1    0    0    0  501 -0.00000000000E+00 -0.00000000000E+00 -0.49619877083E+02  0.49619877083E+02  0.00000000000E+00 0.  1.
         25    2    1    2    0    0 -0.88484169492E+02 -0.47382520369E+02  0.31013880998E+03  0.34915243952E+03  0.12508714196E+03 0.  0.
         23    2    1    2    0    0  0.88484169492E+02  0.47382520369E+02  0.12385023617E+03  0.18407636079E+03  0.92036265217E+02 0.  0.
          5    1    3    3  502    0 -0.31465346003E+02 -0.14639199419E+02  0.26946860021E+03  0.27172628334E+03  0.41800000000E+01 0. -1.
         -5    1    3    3    0  502 -0.57018823489E+02 -0.32743320950E+02  0.40670209768E+02  0.77426156184E+02  0.41800000000E+01 0. -1.
        -11    1    4    4    0    0  0.80402705669E+02  0.58271206431E+02  0.13425347477E+03  0.16698540076E+03  0.00000000000E+00 0. -1.
         11    1    4    4    0    0  0.80814638235E+01 -0.10888686062E+02 -0.10403238596E+02  0.17090960037E+02  0.00000000000E+00 0.  1.
</event>
<event>
 8    1  0.3708258E-009  0.1486912E+03  0.7561462E-02  0.1202090E+00
         -2   -1    0    0    0  501 -0.00000000000E+00  0.00000000000E+00  0.10119593077E+03  0.10119593077E+03  0.00000000000E+00 0.  1.
          2   -1    0    0  501    0  0.00000000000E+00 -0.00000000000E+00 -0.30933905818E+03  0.30933905818E+03  0.00000000000E+00 0. -1.
         25    2    1    2    0    0  0.41324838485E+02 -0.11759768081E+03 -0.34855382962E+02  0.17999732907E+03  0.12508870430E+03 0.  0.
         23    2    1    2    0    0 -0.41324838485E+02  0.11759768081E+03 -0.17328774445E+03  0.23053765987E+03  0.87074757733E+02 0.  0.
          5    1    3    3  502    0  0.75631797070E+02 -0.44449182046E+02  0.84547377457E+01  0.88231816841E+02  0.41800000000E+01 0. -1.
         -5    1    3    3    0  502 -0.34306958585E+02 -0.73148498767E+02 -0.43310120708E+02  0.91765512230E+02  0.41800000000E+01 0. -1.
        -11    1    4    4    0    0 -0.43341174410E+02  0.79858827597E+02 -0.16980268195E+03  0.19258463215E+03  0.00000000000E+00 0. -1.
         11    1    4    4    0    0  0.20163359250E+01  0.37738853216E+02 -0.34850625047E+01  0.37953027722E+02  0.00000000000E+00 0.  1.
</event>
<event>
 8    1  0.3708258E-009  0.1129582E+03  0.7561462E-02  0.1255188E+00
          2   -1    0    0  501    0  0.00000000000E+00  0.00000000000E+00  0.71811593334E+03  0.71811593334E+03  0.00000000000E+00 0. -1.
         -2   -1    0    0    0  501 -0.00000000000E+00 -0.00000000000E+00 -0.22340643210E+02  0.22340643210E+02  0.00000000000E+00 0.  1.
         25    2    1    2    0    0 -0.62295652413E+02  0.19032457216E+02  0.35747460117E+03  0.38428991967E+03  0.12509064370E+03 0.  0.
         23    2    1    2    0    0  0.62295652413E+02 -0.19032457216E+02  0.33830068896E+03  0.35616665688E+03  0.90356784942E+02 0.  0.
          5    1    3    3  502    0 -0.46913783488E+02 -0.39765816082E+02  0.84465405186E+02  0.10456624830E+03  0.41800000000E+01 0.  1.
         -5    1    3    3    0  502 -0.15381868926E+02  0.58798273297E+02  0.27300919598E+03  0.27972367137E+03  0.41800000000E+01 0.  1.
        -11    1    4    4    0    0  0.77107966441E+02 -0.32175297052E+02  0.31343071525E+03  0.32437586453E+03  0.00000000000E+00 0. -1.
         11    1    4    4    0    0 -0.14812314027E+02  0.13142839836E+02  0.24869973713E+02  0.31790792350E+02  0.00000000000E+00 0.  1.
</event>
<event>
 8    1  0.3708258E-009  0.1302613E+03  0.7561462E-02  0.1227069E+00
          2   -1    0    0  501    0  0.00000000000E+00  0.00000000000E+00  0.11162034116E+03  0.11162034116E+03  0.00000000000E+00 0. -1.
         -2   -1    0    0    0  501 -0.00000000000E+00 -0.00000000000E+00 -0.18044291686E+03  0.18044291686E+03  0.00000000000E+00 0.  1.
         25    2    1    2    0    0 -0.30710312778E+02 -0.84850815837E+02 -0.53239319191E+02  0.16318178497E+03  0.12510429880E+03 0.  0.
         23    2    1    2    0    0  0.30710312778E+02  0.84850815837E+02 -0.15583256514E+02  0.12888147305E+03  0.90690748992E+02 0.  0.
          5    1    3    3  502    0 -0.78308474294E+02 -0.59431912810E+02 -0.45861721673E+02  0.10855938154E+03  0.41800000000E+01 0.  1.
         -5    1    3    3    0  502  0.47598161517E+02 -0.25418903027E+02 -0.73775975184E+01  0.54622403426E+02  0.41800000000E+01 0.  1.
        -11    1    4    4    0    0  0.35961594102E+02  0.16697375363E+02  0.27344886304E+02  0.48164109058E+02  0.00000000000E+00 0. -1.
         11    1    4    4    0    0 -0.52512813241E+01  0.68153440474E+02 -0.42928142818E+02  0.80717363992E+02  0.00000000000E+00 0.  1.
</event>
<event>
 8    1  0.3708258E-009  0.1698035E+03  0.7561462E-02  0.1178053E+00
         -1   -1    0    0    0  501 -0.00000000000E+00  0.00000000000E+00  0.11462815834E+03  0.11462815834E+03  0.00000000000E+00 0. -1.
          1   -1    0    0  501    0  0.00000000000E+00 -0.00000000000E+00 -0.29381014754E+03  0.29381014754E+03  0.00000000000E+00 0.  1.
         25    2    1    2    0    0  0.14585091057E+03  0.23669317095E+02 -0.93656922361E+02  0.21506023891E+03  0.12508622053E+03 0.  0.
         23    2    1    2    0    0 -0.14585091057E+03 -0.23669317095E+02 -0.85525066840E+02  0.19337806697E+03  0.90817482014E+02 0.  0.
          5    1    3    3  502    0  0.54115362749E+02  0.64166287960E+02 -0.75686320973E+02  0.11310029433E+03  0.41800000000E+01 0. -1.
         -5    1    3    3    0  502  0.91735547823E+02 -0.40496970865E+02 -0.17970601388E+02  0.10195994458E+03  0.41800000000E+01 0. -1.
        -11    1    4    4    0    0 -0.72653098391E+02  0.12226090024E+02  0.20846151873E+01  0.73704108457E+02  0.00000000000E+00 0.  1.
         11    1    4    4    0    0 -0.73197812181E+02 -0.35895407119E+02 -0.87609682027E+02  0.11967395851E+03  0.00000000000E+00 0. -1.
</event>
<event>
 8    1  0.3708258E-009  0.9554242E+02  0.7561462E-02  0.1289959E+00
          2   -1    0    0  501    0  0.00000000000E+00  0.00000000000E+00  0.76500821104E+03  0.76500821104E+03  0.00000000000E+00 0. -1.
         -2   -1    0    0    0  501 -0.00000000000E+00 -0.00000000000E+00 -0.16681476114E+02  0.16681476114E+02  0.00000000000E+00 0.  1.
         25    2    1    2    0    0 -0.27787230648E+01 -0.13746466690E+02  0.51246066829E+03  0.52769569916E+03  0.12510047052E+03 0.  0.
         23    2    1    2    0    0  0.27787230648E+01  0.13746466690E+02  0.23586606664E+03  0.25399398800E+03  0.93185073352E+02 0.  0.
          5    1    3    3  502    0  0.51311312138E+02  0.13812941923E+02  0.35332469543E+03  0.35732262861E+03  0.41800000000E+01 0. -1.
         -5    1    3    3    0  502 -0.54090035203E+02 -0.27559408613E+02  0.15913597286E+03  0.17037307055E+03  0.41800000000E+01 0. -1.
        -11    1    4    4    0    0 -0.21987326163E+02  0.36948711673E+02  0.54188696010E+02  0.69174161227E+02  0.00000000000E+00 0.  1.
         11    1    4    4    0    0  0.24766049228E+02 -0.23202244984E+02  0.18167737063E+03  0.18481982677E+03  0.00000000000E+00 0. -1.
</event>
<event>
 8    1  0.3708258E-009  0.9224809E+02  0.7561462E-02  0.1297497E+00
         -1   -1    0    0    0  501 -0.00000000000E+00  0.00000000000E+00  0.90795225262E+03  0.90795225262E+03  0.00000000000E+00 0. -1.
          1   -1    0    0  501    0  0.00000000000E+00 -0.00000000000E+00 -0.14684949952E+02  0.14684949952E+02  0.00000000000E+00 0.  1.
         25    2    1    2    0    0 -0.18246233834E+02 -0.16460766009E+02  0.65900534563E+03  0.67122254342E+03  0.12509106822E+03 0.  0.
         23    2    1    2    0    0  0.18246233834E+02  0.16460766009E+02  0.23426195703E+03  0.25141465916E+03  0.87902130002E+02 0.  0.
          5    1    3    3  502    0  0.37272410102E+02  0.18434775751E+02  0.10018189360E+03  0.10854933310E+03  0.41800000000E+01 0. -1.
         -5    1    3    3    0  502 -0.55518643936E+02 -0.34895541760E+02  0.55882345204E+03  0.56267321032E+03  0.41800000000E+01 0. -1.
        -11    1    4    4    0    0 -0.28439139614E+02  0.43870757936E+01  0.16203188541E+03  0.16456719900E+03  0.00000000000E+00 0. -1.
         11    1    4    4    0    0  0.46685373448E+02  0.12073690215E+02  0.72230071617E+02  0.86847460154E+02  0.00000000000E+00 0.  1.
</event>
<event>
 8    1  0.3708258E-009  0.7801356E+02  0.7561462E-02  0.1334785E+00
         -2   -1    0    0    0  501 -0.00000000000E+00  0.00000000000E+00  0.38737391422E+02  0.38737391422E+02  0.00000000000E+00 0. -1.
          2   -1    0    0  501    0  0.00000000000E+00 -0.00000000000E+00 -0.33762915402E+03  0.33762915402E+03  0.00000000000E+00 0.  1.
         25    2    1    2    0    0 -0.23126647274E+02 -0.14628797775E+02 -0.12332840051E+03  0.17778058149E+03  0.12508875746E+03 0.  0.
         23    2    1    2    0    0  0.23126647274E+02  0.14628797775E+02 -0.17556336209E+03  0.19858596395E+03  0.88685102654E+02 0.  0.
          5    1    3    3  502    0 -0.42530098871E+02 -0.40164841162E+01  0.87432765598E+01  0.43804779872E+02  0.41800000000E+01 0.  1.
         -5    1    3    3    0  502  0.19403451597E+02 -0.10612313659E+02 -0.13207167707E+03  0.13397580161E+03  0.41800000000E+01 0.  1.
        -11    1    4    4    0    0 -0.33121302012E+02  0.41452547752E+01 -0.44935600229E+02  0.55976887660E+02  0.00000000000E+00 0. -1.
         11    1    4    4    0    0  0.56247949287E+02  0.10483543000E+02 -0.13062776186E+03  0.14260907629E+03  0.00000000000E+00 0.  1.
</event>
<event>
 8    1  0.3708258E-009  0.6374334E+02  0.7561462E-02  0.1382762E+00
          1   -1    0    0  501    0  0.00000000000E+00  0.00000000000E+00  0.14584880235E+04  0.14584880235E+04  0.00000000000E+00 0. -1.
         -1   -1    0    0    0  501 -0.00000000000E+00 -0.00000000000E+00 -0.87291357213E+01  0.87291357213E+01  0.00000000000E+00 0.  1.
         25    2    1    2    0    0 -0.83325201197E+01 -0.28910683602E+02  0.89387744227E+03  0.90308872140E+03  0.12508836242E+03 0.  0.
         23    2    1    2    0    0  0.83325201197E+01  0.28910683602E+02  0.55588144546E+03  0.56412843777E+03  0.91276800845E+02 0.  0.
          5    1    3    3  502    0 -0.21619662667E+01 -0.99219292070E+01  0.87569097174E+03  0.87575982390E+03  0.41800000000E+01 0. -1.
         -5    1    3    3    0  502 -0.61705538531E+01 -0.18988754395E+02  0.18186470529E+02  0.27328897502E+02  0.41800000000E+01 0. -1.
        -11    1    4    4    0    0 -0.37794708038E+02  0.32490287870E+02  0.28989032738E+03  0.29414360552E+03  0.00000000000E+00 0. -1.
         11    1    4    4    0    0  0.46127228158E+02 -0.35796042677E+01  0.26599111809E+03  0.26998483225E+03  0.00000000000E+00 0.  1.
</event>
<event>
 8    1  0.3708258E-009  0.7545547E+02  0.7561462E-02  0.1342466E+00
          1   -1    0    0  501    0  0.00000000000E+00  0.00000000000E+00  0.18720966956E+03  0.18720966956E+03  0.00000000000E+00 0. -1.
         -1   -1    0    0    0  501 -0.00000000000E+00 -0.00000000000E+00 -0.64623080218E+02  0.64623080218E+02  0.00000000000E+00 0.  1.
         25    2    1    2    0    0  0.57599999201E+01  0.55471433860E+01  0.88622582689E+02  0.15350549343E+03  0.12508407553E+03 0.  0.
         23    2    1    2    0    0 -0.57599999201E+01 -0.55471433860E+01  0.33964006648E+02  0.98327256342E+02  0.91927945661E+02 0.  0.
          5    1    3    3  502    0 -0.13974839472E+02  0.53504186216E+02  0.84818891857E+02  0.10133958208E+03  0.41800000000E+01 0. -1.
         -5    1    3    3    0  502  0.19734839392E+02 -0.47957042830E+02  0.38036908325E+01  0.52165911348E+02  0.41800000000E+01 0. -1.
        -11    1    4    4    0    0  0.17893576140E+02 -0.80894650179E+01 -0.26712414122E+02  0.33153771725E+02  0.00000000000E+00 0.  1.
         11    1    4    4    0    0 -0.23653576060E+02  0.25423216319E+01  0.60676420770E+02  0.65173484617E+02  0.00000000000E+00 0. -1.
</event>
<event>
 8    1  0.3708258E-009  0.1554392E+03  0.7561462E-02  0.1193944E+00
         -1   -1    0    0    0  501 -0.00000000000E+00  0.00000000000E+00  0.36902381622E+02  0.36902381622E+02  0.00000000000E+00 0.  1.
          1   -1    0    0  501    0  0.00000000000E+00 -0.00000000000E+00 -0.74527160357E+03  0.74527160357E+03  0.00000000000E+00 0. -1.
         25    2    1    2    0    0  0.24107203950E+02 -0.11568294072E+03 -0.27984218666E+03  0.32851720220E+03  0.12509277617E+03 0.  0.
         23    2    1    2    0    0 -0.24107203950E+02  0.11568294072E+03 -0.42852703529E+03  0.45365678300E+03  0.90583424133E+02 0.  0.
          5    1    3    3  502    0  0.52980918935E+02 -0.12745640684E+03 -0.20333535142E+03  0.24579432652E+03  0.41800000000E+01 0. -1.
         -5    1    3    3    0  502 -0.28873714985E+02  0.11773466119E+02 -0.76506835237E+02  0.82722875672E+02  0.41800000000E+01 0. -1.
        -11    1    4    4    0    0 -0.52530686101E+02  0.69938249262E+02 -0.32972763498E+03  0.34113215176E+03  0.00000000000E+00 0. -1.
         11    1    4    4    0    0  0.28423482151E+02  0.45744691454E+02 -0.98799400308E+02  0.11252463124E+03  0.00000000000E+00 0.  1.
</event>
<event>
 8    1  0.3708258E-009  0.1924742E+03  0.7561462E-02  0.1156248E+00
          1   -1    0    0  501    0  0.00000000000E+00  0.00000000000E+00  0.12419433501E+04  0.12419433501E+04  0.00000000000E+00 0. -1.
         -1   -1    0    0    0  501 -0.00000000000E+00 -0.00000000000E+00 -0.35538695289E+02  0.35538695289E+02  0.00000000000E+00 0.  1.
         25    2    1    2    0    0  0.14623352077E+03  0.10296992444E+03  0.56310679456E+03  0.60392387370E+03  0.12509090780E+03 0.  0.
         23    2    1    2    0    0 -0.14623352077E+03 -0.10296992444E+03  0.64329786028E+03  0.67355817171E+03  0.88664681253E+02 0.  0.
          5    1    3    3  502    0  0.12186815893E+03  0.10541997736E+03  0.30818088493E+03  0.34779038231E+03  0.41800000000E+01 0.  1.
         -5    1    3    3    0  502  0.24365361840E+02 -0.24500529112E+01  0.25492590962E+03  0.25613349140E+03  0.41800000000E+01 0.  1.
        -11    1    4    4    0    0 -0.13868781143E+03 -0.53145356557E+02  0.50385359939E+03  0.52528771886E+03  0.00000000000E+00 0.  1.
         11    1    4    4    0    0 -0.75457093372E+01 -0.49824567887E+02  0.13944426089E+03  0.14827045285E+03  0.00000000000E+00 0. -1.
</event>
<event>
 8    1  0.3708258E-009  0.1867511E+03  0.7561462E-02  0.1161425E+00
          2   -1    0    0  501    0  0.00000000000E+00  0.00000000000E+00  0.39684599425E+03  0.39684599425E+03  0.00000000000E+00 0.  1.
         -2   -1    0    0    0  501 -0.00000000000E+00 -0.00000000000E+00 -0.11765726847E+03  0.11765726847E+03  0.00000000000E+00 0. -1.
         25    2    1    2    0    0 -0.15220696005E+03 -0.85538153944E+02  0.22547738332E+03  0.31139713317E+03  0.12507753471E+03 0.  0.
         23    2    1    2    0    0  0.15220696005E+03  0.85538153944E+02  0.53711342459E+02  0.20310612955E+03  0.88788834228E+02 0.  0.
          5    1    3    3  502    0 -0.13462177773E+03 -0.56054585391E+02  0.89636087747E+02  0.17122277947E+03  0.41800000000E+01 0. -1.
         -5    1    3    3    0  502 -0.17585182324E+02 -0.29483568553E+02  0.13584129558E+03  0.14017435370E+03  0.41800000000E+01 0. -1.
        -11    1    4    4    0    0  0.10154932358E+02  0.43821446320E+02  0.27586479753E+02  0.52767941725E+02  0.00000000000E+00 0.  1.
         11    1    4    4    0    0  0.14205202769E+03  0.41716707624E+02  0.26124862707E+02  0.15033818783E+03  0.00000000000E+00 0. -1.
</event>
<event>
 8    1  0.3708258E-009  0.8344433E+02  0.7561462E-02  0.1319552E+00
         -2   -1    0    0    0  501 -0.00000000000E+00  0.00000000000E+00  0.44545963690E+02  0.44545963690E+02  0.00000000000E+00 0. -1.
          2   -1    0    0  501    0  0.00000000000E+00 -0.00000000000E+00 -0.24790499561E+04  0.24790499561E+04  0.00000000000E+00 0.  1.
         25    2    1    2    0    0 -0.39321943025E+02 -0.50977267588E+02 -0.24037106512E+04  0.24078242364E+04  0.12509101384E+03 0.  0.
         23    2    1    2    0    0  0.39321943025E+02  0.50977267588E+02 -0.30793341175E+02  0.11577168334E+03  0.91158958909E+02 0.  0.
          5    1    3    3  502    0  0.12017562692E+02  0.11958984983E+02 -0.54987589406E+02  0.57693557037E+02  0.41800000000E+01 0. -1.
         -5    1    3    3    0  502 -0.51339505717E+02 -0.62936252571E+02 -0.23487230618E+04  0.23501306794E+04  0.41800000000E+01 0. -1.
        -11    1    4    4    0    0  0.36867220645E+02  0.31569352961E+02 -0.62123159270E+02  0.78835924058E+02  0.00000000000E+00 0.  1.
         11    1    4    4    0    0  0.24547223803E+01  0.19407914627E+02  0.31329818094E+02  0.36935759285E+02  0.00000000000E+00 0. -1.
</event>
<event>
 8    1  0.3708258E-009  0.1081630E+03  0.7561462E-02  0.1264010E+00
          4   -1    0    0  501    0  0.00000000000E+00  0.00000000000E+00  0.12042870555E+03  0.12042870555E+03  0.00000000000E+00 0. -1.
         -4   -1    0    0    0  501 -0.00000000000E+00 -0.00000000000E+00 -0.21026372137E+03  0.21026372137E+03  0.00000000000E+00 0.  1.
         25    2    1    2    0    0  0.65134594050E+02 -0.29525437737E+02 -0.14287294572E+03  0.20291577577E+03  0.12509143305E+03 0.  0.
         23    2    1    2    0    0 -0.65134594050E+02  0.29525437737E+02  0.53037929900E+02  0.12777665116E+03  0.91649243084E+02 0.  0.
          5    1    3    3  502    0  0.83886341289E+02 -0.60528726743E+02 -0.12497900480E+03  0.16228946071E+03  0.41800000000E+01 0.  1.
         -5    1    3    3    0  502 -0.18751747239E+02  0.31003289006E+02 -0.17893940914E+02  0.40626315057E+02  0.41800000000E+01 0.  1.
        -11    1    4    4    0    0 -0.87629170288E+01  0.16170539471E+02 -0.24719389549E+02  0.30811090233E+02  0.00000000000E+00 0.  1.
         11    1    4    4    0    0 -0.56371677021E+02  0.13354898266E+02  0.77757319449E+02  0.96965560927E+02  0.00000000000E+00 0. -1.
</event>
<event>
 8    1  0.3708258E-009  0.2297673E+03  0.7561462E-02  0.1126804E+00
         -2   -1    0    0    0  501 -0.00000000000E+00  0.00000000000E+00  0.10793968815E+03  0.10793968815E+03  0.00000000000E+00 0.  1.
          2   -1    0    0  501    0  0.00000000000E+00 -0.00000000000E+00 -0.50489373539E+03  0.50489373539E+03  0.00000000000E+00 0. -1.
         25    2    1    2    0    0 -0.71903416441E+02 -0.19240878331E+03 -0.17893447696E+03  0.29976105754E+03  0.12509157997E+03 0.  0.
         23    2    1    2    0    0  0.71903416441E+02  0.19240878331E+03 -0.21801957028E+03  0.31307236600E+03  0.91052359316E+02 0.  0.
          5    1    3    3  502    0 -0.48321132906E+02 -0.20683818106E+03 -0.16067803534E+03  0.26636791937E+03  0.41800000000E+01 0.  1.
         -5    1    3    3    0  502 -0.23582283535E+02  0.14429397747E+02 -0.18256441623E+02  0.33393138169E+02  0.41800000000E+01 0.  1.
        -11    1    4    4    0    0  0.78353377618E+02  0.10265813282E+03 -0.93472628351E+02  0.15942106595E+03  0.00000000000E+00 0. -1.
         11    1    4    4    0    0 -0.64499611777E+01  0.89750650487E+02 -0.12454694193E+03  0.15365130005E+03  0.00000000000E+00 0.  1.
</event>
<event>
 8    1  0.3708258E-009  0.1751033E+03  0.7561462E-02  0.1172628E+00
         -3   -1    0    0    0  501 -0.00000000000E+00  0.00000000000E+00  0.94074224654E+03  0.94074224654E+03  0.00000000000E+00 0.  1.
          3   -1    0    0  501    0  0.00000000000E+00 -0.00000000000E+00 -0.38864789125E+02  0.38864789125E+02  0.00000000000E+00 0. -1.
         25    2    1    2    0    0  0.12935966685E+03 -0.81060185275E+02  0.36892981665E+03  0.41840363628E+03  0.12509083177E+03 0.  0.
         23    2    1    2    0    0 -0.12935966685E+03  0.81060185275E+02  0.53294764076E+03  0.56120339939E+03  0.87243284240E+02 0.  0.
          5    1    3    3  502    0  0.10698136075E+03  0.67462902808E-01  0.25613679767E+03  0.27761222527E+03  0.41800000000E+01 0.  1.
         -5    1    3    3    0  502  0.22378306099E+02 -0.81127648178E+02  0.11279301898E+03  0.14079141101E+03  0.41800000000E+01 0.  1.
        -11    1    4    4    0    0 -0.35967367115E+02  0.47634964079E+02  0.32949551884E+03  0.33485823603E+03  0.00000000000E+00 0.  1.
         11    1    4    4    0    0 -0.93392299730E+02  0.33425221196E+02  0.20345212192E+03  0.22634516336E+03  0.00000000000E+00 0. -1.
</event>
<event>
 8    1  0.3708258E-009  0.1129351E+03  0.7561462E-02  0.1255229E+00
         -1   -1    0    0    0  501 -0.00000000000E+00  0.00000000000E+00  0.10669421553E+03  0.10669421553E+03  0.00000000000E+00 0.  1.
          1   -1    0    0  501    0  0.00000000000E+00 -0.00000000000E+00 -0.26434718197E+03  0.26434718197E+03  0.00000000000E+00 0. -1.
         25    2    1    2    0    0  0.72696600028E+02  0.72615776437E+02 -0.16772153656E+03  0.23310040226E+03  0.12508971606E+03 0.  0.
         23    2    1    2    0    0 -0.72696600028E+02 -0.72615776437E+02  0.10068570119E+02  0.13794099523E+03  0.91479480862E+02 0.  0.
          5    1    3    3  502    0  0.36529666772E+02  0.32589044569E+02  0.75125962251E+01  0.49702855878E+02  0.41800000000E+01 0. -1.
         -5    1    3    3    0  502  0.36166933256E+02  0.40026731868E+02 -0.17523413279E+03  0.18339754638E+03  0.41800000000E+01 0. -1.
        -11    1    4    4    0    0  0.51230067883E+01  0.86882841779E+01  0.22553605363E+02  0.24706205605E+02  0.00000000000E+00 0.  1.
         11    1    4    4    0    0 -0.77819606816E+02 -0.81304060614E+02 -0.12485035244E+02  0.11323478963E+03  0.00000000000E+00 0. -1.
</event>
<event>
 8    1  0.3708258E-009  0.9284872E+02  0.7561462E-02  0.1296096E+00
         -1   -1    0    0    0  501 -0.00000000000E+00  0.00000000000E+00  0.32279468100E+03  0.32279468100E+03  0.00000000000E+00 0.  1.
          1   -1    0    0  501    0  0.00000000000E+00 -0.00000000000E+00 -0.62627805339E+02  0.62627805339E+02  0.00000000000E+00 0. -1.
         25    2    1    2    0    0 -0.59950116336E+02  0.58425257271E+02  0.19422948783E+03  0.24572357319E+03  0.12508978113E+03 0.  0.
         23    2    1    2    0    0  0.59950116336E+02 -0.58425257271E+02  0.65937387836E+02  0.13969891315E+03  0.90335597000E+02 0.  0.
          5    1    3    3  502    0 -0.63664543775E+02  0.40276453583E+02  0.31290976399E+02  0.81682093823E+02  0.41800000000E+01 0. -1.
         -5    1    3    3    0  502  0.37144274392E+01  0.18148803688E+02  0.16293851143E+03  0.16404147937E+03  0.41800000000E+01 0. -1.
        -11    1    4    4    0    0  0.27620356944E+02 -0.51129716097E+02  0.83854572826E+02  0.10202314134E+03  0.00000000000E+00 0.  1.
         11    1    4    4    0    0  0.32329759392E+02 -0.72955411744E+01 -0.17917184990E+02  0.37675771808E+02  0.00000000000E+00 0. -1.
</event>
<event>
 8    1  0.3708258E-009  0.8707842E+02  0.7561462E-02  0.1310085E+00
         -1   -1    0    0    0  501 -0.00000000000E+00  0.00000000000E+00  0.34300989920E+02  0.34300989920E+02  0.00000000000E+00 0.  1.
          1   -1    0    0  501    0  0.00000000000E+00 -0.00000000000E+00 -0.52803755712E+03  0.52803755712E+03  0.00000000000E+00 0. -1.
         25    2    1    2    0    0 -0.72202266250E+02  0.27432735317E+02 -0.22837474747E+03  0.27160215699E+03  0.12508790580E+03 0.  0.
         23    2    1    2    0    0  0.72202266250E+02 -0.27432735317E+02 -0.26536181972E+03  0.29073639005E+03  0.90249825007E+02 0.  0.
          5    1    3    3  502    0 -0.25992532176E+02  0.40840663130E+02 -0.21647441305E+03  0.22186080185E+03  0.41800000000E+01 0. -1.
         -5    1    3    3    0  502 -0.46209734074E+02 -0.13407927813E+02 -0.11900334428E+02  0.49741355137E+02  0.41800000000E+01 0. -1.
        -11    1    4    4    0    0  0.16185201860E+02 -0.51747665951E+01  0.15875713524E+01  0.17066322139E+02  0.00000000000E+00 0.  1.
         11    1    4    4    0    0  0.56017064390E+02 -0.22257968722E+02 -0.26694939108E+03  0.27367006791E+03  0.00000000000E+00 0. -1.
</event>
<event>
 8    1  0.3708258E-009  0.1126104E+03  0.7561462E-02  0.1255811E+00
         -1   -1    0    0    0  501 -0.00000000000E+00  0.00000000000E+00  0.13924397604E+03  0.13924397604E+03  0.00000000000E+00 0.  1.
          1   -1    0    0  501    0  0.00000000000E+00 -0.00000000000E+00 -0.10745334144E+03  0.10745334144E+03  0.00000000000E+00 0. -1.
         25    2    1    2    0    0 -0.18232848947E+02  0.54674818254E+02  0.15487391726E+02  0.13859911492E+03  0.12509229721E+03 0.  0.
         23    2    1    2    0    0  0.18232848947E+02 -0.54674818254E+02  0.16303242874E+02  0.10809820256E+03  0.89986960929E+02 0.  0.
          5    1    3    3  502    0 -0.71481690955E+02  0.21194940449E+02  0.95165573899E+01  0.75278781253E+02  0.41800000000E+01 0. -1.
         -5    1    3    3    0  502  0.53248842008E+02  0.33479877805E+02  0.59708343357E+01  0.63320333667E+02  0.41800000000E+01 0. -1.
        -11    1    4    4    0    0 -0.70572907225E+01  0.13258456767E+02 -0.21592062816E+02  0.26302266154E+02  0.00000000000E+00 0. -1.
         11    1    4    4    0    0  0.25290139669E+02 -0.67933275021E+02  0.37895305689E+02  0.81795936408E+02  0.00000000000E+00 0.  1.
</event>
<event>
 8    1  0.3708258E-009  0.2612034E+03  0.7561462E-02  0.1106422E+00
         -2   -1    0    0    0  501 -0.00000000000E+00  0.00000000000E+00  0.15130809467E+03  0.15130809467E+03  0.00000000000E+00 0.  1.
          2   -1    0    0  501    0  0.00000000000E+00 -0.00000000000E+00 -0.49004521193E+03  0.49004521193E+03  0.00000000000E+00 0. -1.
         25    2    1    2    0    0  0.10046597367E+03  0.22069666965E+03 -0.10483567743E+03  0.29229869423E+03  0.12509026950E+03 0.  0.
         23    2    1    2    0    0 -0.10046597367E+03 -0.22069666965E+03 -0.23390143983E+03  0.34905461237E+03  0.91262297825E+02 0.  0.
          5    1    3    3  502    0  0.15625251236E+02  0.16196440186E+03 -0.95231928508E+02  0.18858210030E+03  0.41800000000E+01 0. -1.
         -5    1    3    3    0  502  0.84840722430E+02  0.58732267788E+02 -0.96037489206E+01  0.10371659392E+03  0.41800000000E+01 0. -1.
        -11    1    4    4    0    0  0.45525275864E+01 -0.83328362158E+02 -0.53291250965E+02  0.99016659592E+02  0.00000000000E+00 0.  1.
         11    1    4    4    0    0 -0.10501850125E+03 -0.13736830749E+03 -0.18061018887E+03  0.25003795278E+03  0.00000000000E+00 0. -1.
</event>
<event>
 8    1  0.3708258E-009  0.8768955E+02  0.7561462E-02  0.1308545E+00
         -2   -1    0    0    0  501 -0.00000000000E+00  0.00000000000E+00  0.24515056430E+02  0.24515056430E+02  0.00000000000E+00 0.  1.
          2   -1    0    0  501    0  0.00000000000E+00 -0.00000000000E+00 -0.47610688842E+03  0.47610688842E+03  0.00000000000E+00 0. -1.
         25    2    1    2    0    0  0.10020721573E+02 -0.69638316163E+00 -0.25348982701E+03  0.28285268564E+03  0.12509056546E+03 0.  0.
         23    2    1    2    0    0 -0.10020721573E+02  0.69638316163E+00 -0.19810200498E+03  0.21776925921E+03  0.89878507261E+02 0.  0.
          5    1    3    3  502    0 -0.46777837585E+02  0.13093328982E+02 -0.45223880455E+02  0.66500173807E+02  0.41800000000E+01 0.  1.
         -5    1    3    3    0  502  0.56798559158E+02 -0.13789712143E+02 -0.20826594655E+03  0.21635251183E+03  0.41800000000E+01 0.  1.
        -11    1    4    4    0    0 -0.38894189333E+02 -0.25099524965E+01 -0.35910079824E+02  0.52996147581E+02  0.00000000000E+00 0.  1.
         11    1    4    4    0    0  0.28873467760E+02  0.32063356582E+01 -0.16219192516E+03  0.16477311162E+03  0.00000000000E+00 0. -1.
</event>
<event>
 8    1  0.3708258E-009  0.1062965E+03  0.7561462E-02  0.1267586E+00
          4   -1    0    0  501    0  0.00000000000E+00  0.00000000000E+00  0.39360337125E+02  0.39360337125E+02  0.00000000000E+00 0. -1.
         -4   -1    0    0    0  501 -0.00000000000E+00 -0.00000000000E+00 -0.44615882809E+03  0.44615882809E+03  0.00000000000E+00 0.  1.
         25    2    1    2    0    0  0.48431920209E+02 -0.44144520026E+01 -0.11774213563E+03  0.17853196280E+03  0.12508122543E+03 0.  0.
         23    2    1    2    0    0 -0.48431920209E+02  0.44144520026E+01 -0.28905635533E+03  0.30698720241E+03  0.91227340244E+02 0.  0.
          5    1    3    3  502    0  0.51270965834E+02 -0.46784807193E+02 -0.20743178022E+02  0.72562262617E+02  0.41800000000E+01 0. -1.
         -5    1    3    3    0  502 -0.28390456253E+01  0.42370355191E+02 -0.96998957610E+02  0.10596970018E+03  0.41800000000E+01 0. -1.
        -11    1    4    4    0    0 -0.62803362277E+02  0.31097705705E+02 -0.23236440663E+03  0.24270258977E+03  0.00000000000E+00 0.  1.
         11    1    4    4    0    0  0.14371442068E+02 -0.26683253702E+02 -0.56691948699E+02  0.64284612642E+02  0.00000000000E+00 0. -1.
</event>
<event>
 8    1  0.3708258E-009  0.1584988E+03  0.7561462E-02  0.1190402E+00
          2   -1    0    0  501    0  0.00000000000E+00  0.00000000000E+00  0.27130968043E+03  0.27130968043E+03  0.00000000000E+00 0. -1.
         -2   -1    0    0    0  501 -0.00000000000E+00 -0.00000000000E+00 -0.10623987812E+03  0.10623987812E+03  0.00000000000E+00 0.  1.
         25    2    1    2    0    0 -0.11124806468E+03  0.33704776859E+02  0.22184263496E+02  0.17219605677E+03  0.12508875466E+03 0.  0.
         23    2    1    2    0    0  0.11124806468E+03 -0.33704776859E+02  0.14288553882E+03  0.20535350178E+03  0.90783476520E+02 0.  0.
          5    1    3    3  502    0 -0.67860153250E+01 -0.41319695140E+02  0.55059481013E+01  0.42440017376E+02  0.41800000000E+01 0. -1.
         -5    1    3    3    0  502 -0.10446204936E+03  0.75024471999E+02  0.16678315395E+02  0.12975603939E+03  0.41800000000E+01 0. -1.
        -11    1    4    4    0    0  0.47455267046E+02 -0.60630608969E+02  0.88513918512E+02  0.11731490479E+03  0.00000000000E+00 0. -1.
         11    1    4    4    0    0  0.63792797637E+02  0.26925832110E+02  0.54371620306E+02  0.88038596990E+02  0.00000000000E+00 0.  1.
</event>
<event>
 8    1  0.3708258E-009  0.1262715E+03  0.7561462E-02  0.1233095E+00
          1   -1    0    0  501    0  0.00000000000E+00  0.00000000000E+00  0.12270856905E+04  0.12270856905E+04  0.00000000000E+00 0. -1.
         -1   -1    0    0    0  501 -0.00000000000E+00 -0.00000000000E+00 -0.16551495542E+02  0.16551495542E+02  0.00000000000E+00 0.  1.
         25    2    1    2    0    0  0.67603841267E+02  0.87586540898E+01  0.92846038461E+03  0.93932610802E+03  0.12509139871E+03 0.  0.
         23    2    1    2    0    0 -0.67603841267E+02 -0.87586540898E+01  0.28207381033E+03  0.30431107800E+03  0.91611158430E+02 0.  0.
          5    1    3    3  502    0 -0.26092158986E+02  0.34007942807E+02  0.36802357382E+03  0.37053497031E+03  0.41800000000E+01 0.  1.
         -5    1    3    3    0  502  0.93696000253E+02 -0.25249288717E+02  0.56043681079E+03  0.56879113771E+03  0.41800000000E+01 0.  1.
        -11    1    4    4    0    0  0.17689129107E+02  0.15662632045E+02  0.39562665329E+02  0.46080666435E+02  0.00000000000E+00 0.  1.
         11    1    4    4    0    0 -0.85292970374E+02 -0.24421286135E+02  0.24251114500E+03  0.25823041157E+03  0.00000000000E+00 0. -1.
</event>
<event>
 8    1  0.3708258E-009  0.2174762E+03  0.7561462E-02  0.1135779E+00
         -2   -1    0    0    0  501 -0.00000000000E+00  0.00000000000E+00  0.48522324999E+02  0.48522324999E+02  0.00000000000E+00 0. -1.
          2   -1    0    0  501    0  0.00000000000E+00 -0.00000000000E+00 -0.18923573523E+04  0.18923573523E+04  0.00000000000E+00 0.  1.
         25    2    1    2    0    0 -0.18526901734E+02 -0.19575295805E+03 -0.15908128388E+04  0.16077919944E+04  0.12508853849E+03 0.  0.
         23    2    1    2    0    0  0.18526901734E+02  0.19575295805E+03 -0.25302218849E+03  0.33308768290E+03  0.90910450198E+02 0.  0.
          5    1    3    3  502    0 -0.62674745723E+02 -0.16228136199E+03 -0.13127222484E+04  0.13242056253E+04  0.41800000000E+01 0.  1.
         -5    1    3    3    0  502  0.44147843989E+02 -0.33471596070E+02 -0.27809059041E+03  0.28358636911E+03  0.41800000000E+01 0.  1.
        -11    1    4    4    0    0 -0.19248951665E+02  0.32153725717E+02 -0.96585758616E+02  0.10360112444E+03  0.00000000000E+00 0.  1.
         11    1    4    4    0    0  0.37775853399E+02  0.16359923234E+03 -0.15643642988E+03  0.22948655846E+03  0.00000000000E+00 0. -1.
</event>
<event>
 8    1  0.3708258E-009  0.8421534E+02  0.7561462E-02  0.1317497E+00
          1   -1    0    0  501    0  0.00000000000E+00  0.00000000000E+00  0.27052989348E+02  0.27052989348E+02  0.00000000000E+00 0. -1.
         -1   -1    0    0    0  501 -0.00000000000E+00 -0.00000000000E+00 -0.52523014160E+03  0.52523014160E+03  0.00000000000E+00 0.  1.
         25    2    1    2    0    0 -0.82357461677E+01 -0.44410188755E+02 -0.32795537115E+03  0.35389562706E+03  0.12508915623E+03 0.  0.
         23    2    1    2    0    0  0.82357461677E+01  0.44410188755E+02 -0.17022178110E+03  0.19838750389E+03  0.91334848533E+02 0.  0.
          5    1    3    3  502    0  0.21329806632E+02 -0.32805491577E+02 -0.31788957267E+03  0.32031611534E+03  0.41800000000E+01 0. -1.
         -5    1    3    3    0  502 -0.29565552799E+02 -0.11604697178E+02 -0.10065798478E+02  0.33579511728E+02  0.41800000000E+01 0. -1.
        -11    1    4    4    0    0  0.11193197571E+01 -0.26125210342E+02 -0.22347238426E+02  0.34397362652E+02  0.00000000000E+00 0. -1.
         11    1    4    4    0    0  0.71164264106E+01  0.70535399096E+02 -0.14787454267E+03  0.16399014123E+03  0.00000000000E+00 0.  1.
</event>
<event>
 8    1  0.3708258E-009  0.2276507E+03  0.7561462E-02  0.1128304E+00
         -2   -1    0    0    0  501 -0.00000000000E+00  0.00000000000E+00  0.31453090906E+02  0.31453090906E+02  0.00000000000E+00 0.  1.
          2   -1    0    0  501    0  0.00000000000E+00 -0.00000000000E+00 -0.23221367429E+04  0.23221367429E+04  0.00000000000E+00 0. -1.
         25    2    1    2    0    0  0.11176376081E+02 -0.21808047748E+03 -0.16891329534E+04  0.17077768831E+04  0.12509093563E+03 0.  0.
         23    2    1    2    0    0 -0.11176376081E+02  0.21808047748E+03 -0.60155069863E+03  0.64581295073E+03  0.86758966524E+02 0.  0.
          5    1    3    3  502    0 -0.25288552072E+02 -0.79296324552E+02 -0.10210167016E+04  0.10244120242E+04  0.41800000000E+01 0. -1.
         -5    1    3    3    0  502  0.36464928153E+02 -0.13878415293E+03 -0.66811625184E+03  0.68336485896E+03  0.41800000000E+01 0. -1.
        -11    1    4    4    0    0 -0.39000518398E+02  0.14677056555E+03 -0.32272144533E+03  0.35666759122E+03  0.00000000000E+00 0.  1.
         11    1    4    4    0    0  0.27824142318E+02  0.71309911931E+02 -0.27882925330E+03  0.28914535952E+03  0.00000000000E+00 0. -1.
</event>
<event>
 8    1  0.3708258E-009  0.1274389E+03  0.7561462E-02  0.1231306E+00
          2   -1    0    0  501    0  0.00000000000E+00  0.00000000000E+00  0.33980361365E+03  0.33980361365E+03  0.00000000000E+00 0. -1.
         -2   -1    0    0    0  501 -0.00000000000E+00 -0.00000000000E+00 -0.69385216992E+02  0.69385216992E+02  0.00000000000E+00 0.  1.
         25    2    1    2    0    0  0.54135081996E+02 -0.81236868697E+02  0.20941482643E+03  0.26273372760E+03  0.12507760050E+03 0.  0.
         23    2    1    2    0    0 -0.54135081996E+02  0.81236868697E+02  0.61003570226E+02  0.14645510305E+03  0.90540740501E+02 0.  0.
          5    1    3    3  502    0  0.41310210621E+02  0.54207224471E+00  0.16201846719E+03  0.16725514478E+03  0.41800000000E+01 0.  1.
         -5    1    3    3    0  502  0.12824871375E+02 -0.81778940942E+02  0.47396359244E+02  0.95478582818E+02  0.41800000000E+01 0.  1.
        -11    1    4    4    0    0 -0.14479419711E+02  0.88907198358E+02  0.55208211507E+02  0.10565079334E+03  0.00000000000E+00 0. -1.
         11    1    4    4    0    0 -0.39655662285E+02 -0.76703296609E+01  0.57953587186E+01  0.40804309712E+02  0.00000000000E+00 0.  1.
</event>
<event>
 8    1  0.3708258E-009  0.8425016E+02  0.7561462E-02  0.1317405E+00
         -1   -1    0    0    0  501 -0.00000000000E+00  0.00000000000E+00  0.74705069718E+02  0.74705069718E+02  0.00000000000E+00 0.  1.
          1   -1    0    0  501    0  0.00000000000E+00 -0.00000000000E+00 -0.18506311224E+03  0.18506311224E+03  0.00000000000E+00 0. -1.
         25    2    1    2    0    0 -0.13756041223E+02  0.28856117073E+02 -0.92943904052E+02  0.15908909314E+03  0.12509542794E+03 0.  0.
         23    2    1    2    0    0  0.13756041223E+02 -0.28856117073E+02 -0.17414138471E+02  0.10067908882E+03  0.93867579838E+02 0.  0.
          5    1    3    3  502    0  0.28024869639E+02 -0.36558470598E+02 -0.14062320998E+02  0.48343938220E+02  0.41800000000E+01 0. -1.
         -5    1    3    3    0  502 -0.41780910862E+02  0.65414587671E+02 -0.78881583054E+02  0.11074515492E+03  0.41800000000E+01 0. -1.
        -11    1    4    4    0    0  0.22400868170E+02 -0.11625972007E+02 -0.53842774019E+02  0.59464329089E+02  0.00000000000E+00 0. -1.
         11    1    4    4    0    0 -0.86448269471E+01 -0.17230145067E+02  0.36428635548E+02  0.41214759733E+02  0.00000000000E+00 0.  1.
</event>
<event>
 8    1  0.3708258E-009  0.1302817E+03  0.7561462E-02  0.1227038E+00
         -2   -1    0    0    0  501 -0.00000000000E+00  0.00000000000E+00  0.75099245980E+03  0.75099245980E+03  0.00000000000E+00 0. -1.
          2   -1    0    0  501    0  0.00000000000E+00 -0.00000000000E+00 -0.24859359182E+02  0.24859359182E+02  0.00000000000E+00 0.  1.
         25    2    1    2    0    0  0.36394763351E+02 -0.64631570497E+02  0.50519355281E+03  0.52570916144E+03  0.12509107852E+03 0.  0.
         23    2    1    2    0    0 -0.36394763351E+02  0.64631570497E+02  0.22093954781E+03  0.25014265754E+03  0.90858387774E+02 0.  0.
          5    1    3    3  502    0  0.81003319667E+02 -0.53683423635E+02  0.29911993164E+03  0.31453720555E+03  0.41800000000E+01 0.  1.
         -5    1    3    3    0  502 -0.44608556316E+02 -0.10948146862E+02  0.20607362116E+03  0.21117195589E+03  0.41800000000E+01 0.  1.
        -11    1    4    4    0    0  0.21266658188E+02  0.54666966840E+02  0.11617715928E+03  0.13014561212E+03  0.00000000000E+00 0.  1.
         11    1    4    4    0    0 -0.57661421538E+02  0.99646036570E+01  0.10476238853E+03  0.11999704542E+03  0.00000000000E+00 0. -1.
</event>
<event>
 8    1  0.3708258E-009  0.9277283E+02  0.7561462E-02  0.1296272E+00
         -2   -1    0    0    0  501 -0.00000000000E+00  0.00000000000E+00  0.30098944591E+02  0.30098944591E+02  0.00000000000E+00 0.  1.
          2   -1    0    0  501    0  0.00000000000E+00 -0.00000000000E+00 -0.44903614032E+03  0.44903614032E+03  0.00000000000E+00 0. -1.
         25    2    1    2    0    0 -0.15606778752E+02  0.32157654599E+02 -0.19525830771E+03  0.23462885959E+03  0.12508880339E+03 0.  0.
         23    2    1    2    0    0  0.15606778752E+02 -0.32157654599E+02 -0.22367888802E+03  0.24450622532E+03  0.92050871701E+02 0.  0.
          5    1    3    3  502    0 -0.43485880941E+02 -0.23496794101E+02 -0.29961508842E+02  0.57950716875E+02  0.41800000000E+01 0.  1.
         -5    1    3    3    0  502  0.27879102189E+02  0.55654448700E+02 -0.16529679887E+03  0.17667814272E+03  0.41800000000E+01 0.  1.
        -11    1    4    4    0    0 -0.18668663695E+02  0.83844662371E+01 -0.73289224379E+01  0.21737786969E+02  0.00000000000E+00 0.  1.
         11    1    4    4    0    0  0.34275442446E+02 -0.40542120836E+02 -0.21634996558E+03  0.22276843835E+03  0.00000000000E+00 0. -1.
</event>
<event>
 8    1  0.3708258E-009  0.2583660E+03  0.7561462E-02  0.1108129E+00
          2   -1    0    0  501    0  0.00000000000E+00  0.00000000000E+00  0.43518665154E+03  0.43518665154E+03  0.00000000000E+00 0. -1.
         -2   -1    0    0    0  501 -0.00000000000E+00 -0.00000000000E+00 -0.17248525430E+03  0.17248525430E+03  0.00000000000E+00 0.  1.
         25    2    1    2    0    0  0.64638122906E+02 -0.22726990735E+03  0.37456476478E+02  0.26996742223E+03  0.12509885579E+03 0.  0.
         23    2    1    2    0    0 -0.64638122906E+02  0.22726990735E+03  0.22524492076E+03  0.33770448360E+03  0.86483213383E+02 0.  0.
          5    1    3    3  502    0  0.96035260905E+02 -0.11665484812E+03  0.89176459546E+01  0.15142034783E+03  0.41800000000E+01 0.  1.
         -5    1    3    3    0  502 -0.31397137999E+02 -0.11061505923E+03  0.28538830523E+02  0.11854707441E+03  0.41800000000E+01 0.  1.
        -11    1    4    4    0    0  0.13150226881E+02  0.10347836204E+03  0.78408030877E+02  0.13049336835E+03  0.00000000000E+00 0.  1.
         11    1    4    4    0    0 -0.77788349787E+02  0.12379154530E+03  0.14683688988E+03  0.20721111525E+03  0.00000000000E+00 0. -1.
</event>
<event>
 8    1  0.3708258E-009  0.1502748E+03  0.7561462E-02  0.1200136E+00
          4   -1    0    0  501    0  0.00000000000E+00  0.00000000000E+00  0.73142618920E+02  0.73142618920E+02  0.00000000000E+00 0. -1.
         -4   -1    0    0    0  501 -0.00000000000E+00 -0.00000000000E+00 -0.31525179339E+03  0.31525179339E+03  0.00000000000E+00 0.  1.
         25    2    1    2    0    0  0.77455936103E+02 -0.72321042928E+02 -0.14782871507E+03  0.22074711512E+03  0.12508478943E+03 0.  0.
         23    2    1    2    0    0 -0.77455936103E+02  0.72321042928E+02 -0.94280459393E+02  0.16764729718E+03  0.89370330322E+02 0.  0.
          5    1    3    3  502    0  0.87339056978E+02 -0.10082675404E+03 -0.12169494541E+03  0.18061361339E+03  0.41800000000E+01 0.  1.
         -5    1    3    3    0  502 -0.98831208756E+01  0.28505711113E+02 -0.26133769669E+02  0.40133501734E+02  0.41800000000E+01 0.  1.
        -11    1    4    4    0    0 -0.74369008110E+02  0.10936719792E+02 -0.65830990950E+02  0.99920371179E+02  0.00000000000E+00 0.  1.
         11    1    4    4    0    0 -0.30869279921E+01  0.61384323136E+02 -0.28449468443E+02  0.67726926004E+02  0.00000000000E+00 0. -1.
</event>
<event>
 8    1  0.3708258E-009  0.1267265E+03  0.7561462E-02  0.1232395E+00
          1   -1    0    0  501    0  0.00000000000E+00  0.00000000000E+00  0.36675816826E+03  0.36675816826E+03  0.00000000000E+00 0. -1.
         -1   -1    0    0    0  501 -0.00000000000E+00 -0.00000000000E+00 -0.49945350305E+02  0.49945350305E+02  0.00000000000E+00 0.  1.
         25    2    1    2    0    0  0.60499094379E+02 -0.50807623030E+02  0.18543699095E+03  0.23722640902E+03  0.12509171253E+03 0.  0.
         23    2    1    2    0    0 -0.60499094379E+02  0.50807623030E+02  0.13137582701E+03  0.17947710955E+03  0.93332041396E+02 0.  0.
          5    1    3    3  502    0 -0.15010029573E+02 -0.55150796481E+02  0.13378388954E+03  0.14554213425E+03  0.41800000000E+01 0.  1.
         -5    1    3    3    0  502  0.75509123951E+02  0.43431734514E+01  0.51653101412E+02  0.91684274775E+02  0.41800000000E+01 0. -1.
        -11    1    4    4    0    0 -0.35697354013E+01 -0.25188154310E+02  0.41837768736E+02  0.48965140878E+02  0.00000000000E+00 0. -1.
         11    1    4    4    0    0 -0.56929358977E+02  0.75995777340E+02  0.89538058269E+02  0.13051196867E+03  0.00000000000E+00 0.  1.
</event>
<event>
 8    1  0.3708258E-009  0.2705969E+03  0.7561462E-02  0.1100938E+00
          4   -1    0    0  501    0  0.00000000000E+00  0.00000000000E+00  0.16434803162E+03  0.16434803162E+03  0.00000000000E+00 0.  1.
         -4   -1    0    0    0  501 -0.00000000000E+00 -0.00000000000E+00 -0.96183541280E+03  0.96183541280E+03  0.00000000000E+00 0. -1.
         25    2    1    2    0    0  0.12243201010E+03 -0.23997477572E+03 -0.78658609356E+03  0.84079899618E+03  0.12509108407E+03 0.  0.
         23    2    1    2    0    0 -0.12243201010E+03  0.23997477572E+03 -0.10901287616E+02  0.28538444824E+03  0.93530503824E+02 0.  0.
          5    1    3    3  502    0  0.98462701484E+02 -0.17843153213E+03 -0.71420744640E+03  0.74272637232E+03  0.41800000000E+01 0. -1.
         -5    1    3    3    0  502  0.23969308619E+02 -0.61543243583E+02 -0.72378647165E+02  0.98072623866E+02  0.41800000000E+01 0. -1.
        -11    1    4    4    0    0 -0.68499537961E+02  0.16643783271E+03  0.34899414166E+02  0.18333496111E+03  0.00000000000E+00 0.  1.
         11    1    4    4    0    0 -0.53932472141E+02  0.73536943008E+02 -0.45800701782E+02  0.10204948712E+03  0.00000000000E+00 0. -1.
</event>
<event>
 8    1  0.3708258E-009  0.1433663E+03  0.7561462E-02  0.1208870E+00
         -2   -1    0    0    0  501 -0.00000000000E+00  0.00000000000E+00  0.49443916865E+02  0.49443916865E+02  0.00000000000E+00 0.  1.
          2   -1    0    0  501    0  0.00000000000E+00 -0.00000000000E+00 -0.59258938153E+03  0.59258938153E+03  0.00000000000E+00 0. -1.
         25    2    1    2    0    0  0.48034557159E+02  0.10239202389E+03 -0.16422419332E+03  0.23539218192E+03  0.12509375843E+03 0.  0.
         23    2    1    2    0    0 -0.48034557159E+02 -0.10239202389E+03 -0.37892127134E+03  0.40664111648E+03  0.94785138584E+02 0.  0.
          5    1    3    3  502    0  0.74235230796E+02  0.48603019596E+02 -0.14907193220E+03  0.17353108187E+03  0.41800000000E+01 0.  1.
         -5    1    3    3    0  502 -0.26200673638E+02  0.53789004295E+02 -0.15152261124E+02  0.61861100049E+02  0.41800000000E+01 0.  1.
        -11    1    4    4    0    0 -0.69054276870E+02 -0.90298892329E+02 -0.23928190177E+03  0.26491170534E+03  0.00000000000E+00 0.  1.
         11    1    4    4    0    0  0.21019719711E+02 -0.12093131562E+02 -0.13963936957E+03  0.14172941114E+03  0.00000000000E+00 0. -1.
</event>
<event>
 8    1  0.3708258E-009  0.8234175E+02  0.7561462E-02  0.1322534E+00
         -2   -1    0    0    0  501 -0.00000000000E+00  0.00000000000E+00  0.25358336556E+03  0.25358336556E+03  0.00000000000E+00 0.  1.
          2   -1    0    0  501    0  0.00000000000E+00 -0.00000000000E+00 -0.47204573060E+02  0.47204573060E+02  0.00000000000E+00 0. -1.
         25    2    1    2    0    0 -0.86858060235E+01  0.12446604024E+02  0.96696210595E+02  0.15883540549E+03  0.12509263653E+03 0.  0.
         23    2    1    2    0    0  0.86858060235E+01 -0.12446604024E+02  0.10968258191E+03  0.14195253314E+03  0.88825062408E+02 0.  0.
          5    1    3    3  502    0 -0.29498736204E+02 -0.44243309929E+02  0.11903197257E+02  0.54651664348E+02  0.41800000000E+01 0.  1.
         -5    1    3    3    0  502  0.20812930180E+02  0.56689913953E+02  0.84793013338E+02  0.10418374114E+03  0.41800000000E+01 0.  1.
        -11    1    4    4    0    0 -0.18051296399E+02  0.51863601029E+01  0.10827683417E+03  0.10989367794E+03  0.00000000000E+00 0.  1.
         11    1    4    4    0    0  0.26737102423E+02 -0.17632964127E+02  0.14057477369E+01  0.32058855197E+02  0.00000000000E+00 0. -1.
</event>
<event>
 8    1  0.3708258E-009  0.1072776E+03  0.7561462E-02  0.1265696E+00
         -1   -1    0    0    0  501 -0.00000000000E+00  0.00000000000E+00  0.33885058241E+03  0.33885058241E+03  0.00000000000E+00 0.  1.
          1   -1    0    0  501    0  0.00000000000E+00 -0.00000000000E+00 -0.43354818164E+02  0.43354818164E+02  0.00000000000E+00 0. -1.
         25    2    1    2    0    0 -0.17601034013E+02  0.51917067037E+02  0.18901566836E+03  0.23319235999E+03  0.12508627273E+03 0.  0.
         23    2    1    2    0    0  0.17601034013E+02 -0.51917067037E+02  0.10648009588E+03  0.14901304058E+03  0.88666212253E+02 0.  0.
          5    1    3    3  502    0  0.39851954808E+02  0.16670959206E+02  0.14788222433E+03  0.15411918717E+03  0.41800000000E+01 0. -1.
         -5    1    3    3    0  502 -0.57452988822E+02  0.35246107831E+02  0.41133444034E+02  0.79073172820E+02  0.41800000000E+01 0. -1.
        -11    1    4    4    0    0  0.39804020724E+02  0.72212931179E+01  0.33779033310E+02  0.52702279187E+02  0.00000000000E+00 0. -1.
         11    1    4    4    0    0 -0.22202986711E+02 -0.59138360155E+02  0.72701062574E+02  0.96310761393E+02  0.00000000000E+00 0.  1.
</event>
<event>
 8    1  0.3708258E-009  0.1472912E+03  0.7561462E-02  0.1203842E+00
          1   -1    0    0  501    0  0.00000000000E+00  0.00000000000E+00  0.23476806565E+03  0.23476806565E+03  0.00000000000E+00 0. -1.
         -1   -1    0    0    0  501 -0.00000000000E+00 -0.00000000000E+00 -0.10322339338E+03  0.10322339338E+03  0.00000000000E+00 0.  1.
         25    2    1    2    0    0  0.33924015239E+02 -0.10031158485E+03  0.37427050570E+02  0.16811725371E+03  0.12509745807E+03 0.  0.
         23    2    1    2    0    0 -0.33924015239E+02  0.10031158485E+03  0.94117621691E+02  0.16987420532E+03  0.93732950744E+02 0.  0.
          5    1    3    3  502    0  0.76483484922E+02 -0.59506778967E+02 -0.20851207029E+01  0.97018556664E+02  0.41800000000E+01 0. -1.
         -5    1    3    3    0  502 -0.42559469683E+02 -0.40804805883E+02  0.39512171273E+02  0.71098697046E+02  0.41800000000E+01 0. -1.
        -11    1    4    4    0    0  0.28453644365E+02  0.53117610212E+02  0.24115312467E+02  0.64904843330E+02  0.00000000000E+00 0.  1.
         11    1    4    4    0    0 -0.62377659604E+02  0.47193974637E+02  0.70002309224E+02  0.10496936199E+03  0.00000000000E+00 0. -1.
</event>
<event>
 8    1  0.3708258E-009  0.1277172E+03  0.7561462E-02  0.1230883E+00
          2   -1    0    0  501    0  0.00000000000E+00  0.00000000000E+00  0.52695850507E+03  0.52695850507E+03  0.00000000000E+00 0.  1.
         -2   -1    0    0    0  501 -0.00000000000E+00 -0.00000000000E+00 -0.35550935495E+02  0.35550935495E+02  0.00000000000E+00 0. -1.
         25    2    1    2    0    0  0.23280776749E+01 -0.77240027439E+02  0.29365864398E+03  0.32841148247E+03  0.12508901172E+03 0.  0.
         23    2    1    2    0    0 -0.23280776749E+01  0.77240027439E+02  0.19774892560E+03  0.23409795809E+03  0.98619342040E+02 0.  0.
          5    1    3    3  502    0 -0.19015055642E+02 -0.99195006181E+02  0.14616936169E+03  0.17771937511E+03  0.41800000000E+01 0. -1.
         -5    1    3    3    0  502  0.21343133317E+02  0.21954978742E+02  0.14748928229E+03  0.15069210737E+03  0.41800000000E+01 0. -1.
        -11    1    4    4    0    0  0.32132721292E+02 -0.65946157321E+01  0.71655445596E+02  0.78806748556E+02  0.00000000000E+00 0. -1.
         11    1    4    4    0    0 -0.34460798967E+02  0.83834643171E+02  0.12609348000E+03  0.15529120954E+03  0.00000000000E+00 0.  1.
</event>
<event>
 8    1  0.3708258E-009  0.2464321E+03  0.7561462E-02  0.1115581E+00
         -1   -1    0    0    0  501 -0.00000000000E+00  0.00000000000E+00  0.55325364363E+02  0.55325364363E+02  0.00000000000E+00 0.  1.
          1   -1    0    0  501    0  0.00000000000E+00 -0.00000000000E+00 -0.13521165287E+04  0.13521165287E+04  0.00000000000E+00 0. -1.
         25    2    1    2    0    0 -0.16794887624E+03 -0.15771357842E+03 -0.40973344336E+03  0.48642548406E+03  0.12509140293E+03 0.  0.
         23    2    1    2    0    0  0.16794887624E+03  0.15771357842E+03 -0.88705772095E+03  0.92101640897E+03  0.91210895442E+02 0.  0.
          5    1    3    3  502    0 -0.14011033119E+03 -0.54583282451E+02 -0.28408724950E+03  0.32145493830E+03  0.41800000000E+01 0.  1.
         -5    1    3    3    0  502 -0.27838545057E+02 -0.10313029597E+03 -0.12564619386E+03  0.16497054576E+03  0.41800000000E+01 0.  1.
        -11    1    4    4    0    0  0.15554127910E+03  0.15974742042E+03 -0.87704885024E+03  0.90494586221E+03  0.00000000000E+00 0. -1.
         11    1    4    4    0    0  0.12407597146E+02 -0.20338419915E+01 -0.10008870712E+02  0.16070546758E+02  0.00000000000E+00 0.  1.
</event>
<event>
 8    1  0.3708258E-009  0.1802226E+03  0.7561462E-02  0.1167588E+00
         -2   -1    0    0    0  501 -0.00000000000E+00  0.00000000000E+00  0.38870280659E+02  0.38870280659E+02  0.00000000000E+00 0.  1.
          2   -1    0    0  501    0  0.00000000000E+00 -0.00000000000E+00 -0.92802810193E+03  0.92802810193E+03  0.00000000000E+00 0. -1.
         25    2    1    2    0    0 -0.15195959980E+03 -0.32611429418E+02 -0.46575302369E+03  0.50668463190E+03  0.12509281282E+03 0.  0.
         23    2    1    2    0    0  0.15195959980E+03  0.32611429418E+02 -0.42340479758E+03  0.46021375069E+03  0.91486875632E+02 0.  0.
          5    1    3    3  502    0 -0.32111946107E+00  0.28969413375E+02 -0.12852133065E+03  0.13181249888E+03  0.41800000000E+01 0.  1.
         -5    1    3    3    0  502 -0.15163848034E+03 -0.61580842793E+02 -0.33723169304E+03  0.37487213301E+03  0.41800000000E+01 0.  1.
        -11    1    4    4    0    0  0.12342024187E+03  0.50958990022E+02 -0.24903247638E+03  0.28257131677E+03  0.00000000000E+00 0.  1.
         11    1    4    4    0    0  0.28539357937E+02 -0.18347560603E+02 -0.17437232119E+03  0.17764243392E+03  0.00000000000E+00 0. -1.
</event>
<event>
 8    1  0.3708258E-009  0.6923639E+02  0.7561462E-02  0.1362709E+00
         -2   -1    0    0    0  501 -0.00000000000E+00  0.00000000000E+00  0.58328128258E+02  0.58328128258E+02  0.00000000000E+00 0.  1.
          2   -1    0    0  501    0  0.00000000000E+00 -0.00000000000E+00 -0.23782507375E+03  0.23782507375E+03  0.00000000000E+00 0. -1.
         25    2    1    2    0    0 -0.29047389867E+02  0.29441464531E+02 -0.74285342431E+02  0.15125324787E+03  0.12509469293E+03 0.  0.
         23    2    1    2    0    0  0.29047389867E+02 -0.29441464531E+02 -0.10521160306E+03  0.14489995414E+03  0.90641958269E+02 0.  0.
          5    1    3    3  502    0 -0.20404240451E+02  0.25088764120E+02 -0.10962664581E+03  0.11437330539E+03  0.41800000000E+01 0.  1.
         -5    1    3    3    0  502 -0.86431494158E+01  0.43527004115E+01  0.35341303381E+02  0.36879942481E+02  0.41800000000E+01 0.  1.
        -11    1    4    4    0    0 -0.72447522706E+01 -0.52059068734E+02 -0.36583236020E+02  0.64038786923E+02  0.00000000000E+00 0.  1.
         11    1    4    4    0    0  0.36292142137E+02  0.22617604202E+02 -0.68628367041E+02  0.80861167216E+02  0.00000000000E+00 0. -1.
</event>
<event>
 8    1  0.3708258E-009  0.1350195E+03  0.7561462E-02  0.1220192E+00
         -1   -1    0    0    0  501 -0.00000000000E+00  0.00000000000E+00  0.16127436525E+03  0.16127436525E+03  0.00000000000E+00 0.  1.
          1   -1    0    0  501    0  0.00000000000E+00 -0.00000000000E+00 -0.14528371225E+03  0.14528371225E+03  0.00000000000E+00 0. -1.
         25    2    1    2    0    0 -0.23828761300E+02 -0.10266820601E+03  0.53330690655E+01  0.16365725907E+03  0.12508671564E+03 0.  0.
         23    2    1    2    0    0  0.23828761300E+02  0.10266820601E+03  0.10657583927E+02  0.14290081844E+03  0.95908755719E+02 0.  0.
          5    1    3    3  502    0 -0.38710935974E+02  0.17299122475E+02  0.19643029463E+01  0.42651226107E+02  0.41800000000E+01 0. -1.
         -5    1    3    3    0  502  0.14882174674E+02 -0.11996732849E+03  0.33687661192E+01  0.12100603296E+03  0.41800000000E+01 0. -1.
        -11    1    4    4    0    0  0.80307106719E+01  0.66796887186E+02  0.52670444447E+02  0.85442917611E+02  0.00000000000E+00 0.  1.
         11    1    4    4    0    0  0.15798050628E+02  0.35871318825E+02 -0.42012860521E+02  0.57457900824E+02  0.00000000000E+00 0. -1.
</event>
<event>
 8    1  0.3708258E-009  0.1237292E+03  0.7561462E-02  0.1237069E+00
          2   -1    0    0  501    0  0.00000000000E+00  0.00000000000E+00  0.18603155473E+03  0.18603155473E+03  0.00000000000E+00 0. -1.
         -2   -1    0    0    0  501 -0.00000000000E+00 -0.00000000000E+00 -0.10057904045E+03  0.10057904045E+03  0.00000000000E+00 0.  1.
         25    2    1    2    0    0 -0.48197796174E+02 -0.68500931740E+02  0.65445262695E+02  0.16415481457E+03  0.12509322736E+03 0.  0.
         23    2    1    2    0    0  0.48197796174E+02  0.68500931740E+02  0.20007251592E+02  0.12245578061E+03  0.87061603954E+02 0.  0.
          5    1    3    3  502    0 -0.76972789555E+02 -0.84702581753E+02  0.63161069120E+02  0.13079040768E+03  0.41800000000E+01 0. -1.
         -5    1    3    3    0  502  0.28774993382E+02  0.16201650012E+02  0.22841935749E+01  0.33364406896E+02  0.41800000000E+01 0. -1.
        -11    1    4    4    0    0  0.35636678229E+02  0.63026608689E+01 -0.25585518437E+02  0.44320594794E+02  0.00000000000E+00 0.  1.
         11    1    4    4    0    0  0.12561117944E+02  0.62198270871E+02  0.45592770029E+02  0.78135185815E+02  0.00000000000E+00 0. -1.
</event>
<event>
 8    1  0.3708258E-009  0.1081053E+03  0.7561462E-02  0.1264119E+00
         -1   -1    0    0    0  501 -0.00000000000E+00  0.00000000000E+00  0.78502780986E+02  0.78502780986E+02  0.00000000000E+00 0.  1.
          1   -1    0    0  501    0  0.00000000000E+00 -0.00000000000E+00 -0.19007795475E+03  0.19007795475E+03  0.00000000000E+00 0. -1.
         25    2    1    2    0    0 -0.51550854787E+02  0.18995846172E+02 -0.48456462629E+02  0.14496156913E+03  0.12508994746E+03 0.  0.
         23    2    1    2    0    0  0.51550854787E+02 -0.18995846172E+02 -0.63118711136E+02  0.12361916660E+03  0.90991174599E+02 0.  0.
          5    1    3    3  502    0 -0.20820288175E+02 -0.49453236447E+02  0.29707954042E+01  0.53901809062E+02  0.41800000000E+01 0. -1.
         -5    1    3    3    0  502 -0.30730566612E+02  0.68449082620E+02 -0.51427258033E+02  0.91059760073E+02  0.41800000000E+01 0. -1.
        -11    1    4    4    0    0  0.32347281570E+01  0.23000394033E+02 -0.54221887203E+02  0.58987241364E+02  0.00000000000E+00 0. -1.
         11    1    4    4    0    0  0.48316126630E+02 -0.41996240205E+02 -0.88968239333E+01  0.64631925238E+02  0.00000000000E+00 0.  1.
</event>
<event>
 8    1  0.3708258E-009  0.1246143E+03  0.7561462E-02  0.1235673E+00
         -2   -1    0    0    0  501 -0.00000000000E+00  0.00000000000E+00  0.30760231531E+03  0.30760231531E+03  0.00000000000E+00 0.  1.
          2   -1    0    0  501    0  0.00000000000E+00 -0.00000000000E+00 -0.64458227671E+02  0.64458227671E+02  0.00000000000E+00 0. -1.
         25    2    1    2    0    0  0.74240555241E+02  0.28896665271E+02  0.18730066620E+03  0.23890616518E+03  0.12509172194E+03 0.  0.
         23    2    1    2    0    0 -0.74240555241E+02 -0.28896665271E+02  0.55843421446E+02  0.13315437780E+03  0.90911623585E+02 0.  0.
          5    1    3    3  502    0  0.10592894480E+03  0.16930192875E+02  0.10662093916E+03  0.15130455989E+03  0.41800000000E+01 0. -1.
         -5    1    3    3    0  502 -0.31688389559E+02  0.11966472396E+02  0.80679727039E+02  0.87601605291E+02  0.41800000000E+01 0. -1.
        -11    1    4    4    0    0 -0.42698982506E+02 -0.52990778226E+02  0.44225308920E+01  0.68196660208E+02  0.00000000000E+00 0. -1.
         11    1    4    4    0    0 -0.31541572735E+02  0.24094112955E+02  0.51420890554E+02  0.64957717594E+02  0.00000000000E+00 0.  1.
</event>
<event>
 8    1  0.3708258E-009  0.1428013E+03  0.7561462E-02  0.1209609E+00
         -2   -1    0    0    0  501 -0.00000000000E+00  0.00000000000E+00  0.48141268642E+02  0.48141268642E+02  0.00000000000E+00 0.  1.
          2   -1    0    0  501    0  0.00000000000E+00 -0.00000000000E+00 -0.11065807568E+04  0.11065807568E+04  0.00000000000E+00 0. -1.
         25    2    1    2    0    0  0.11511887855E+03  0.97233008505E+01 -0.96842315684E+03  0.98327921744E+03  0.12509080688E+03 0.  0.
         23    2    1    2    0    0 -0.11511887855E+03 -0.97233008505E+01 -0.90016331283E+02  0.17144280797E+03  0.89122375008E+02 0.  0.
          5    1    3    3  502    0  0.79398599306E+02 -0.54545514590E+02 -0.57313315202E+03  0.58118708957E+03  0.41800000000E+01 0. -1.
         -5    1    3    3    0  502  0.35720279247E+02  0.64268815441E+02 -0.39529000482E+03  0.40209212788E+03  0.41800000000E+01 0. -1.
        -11    1    4    4    0    0 -0.40195243933E+02 -0.39930677357E+01 -0.87368043427E+02  0.96253712848E+02  0.00000000000E+00 0. -1.
         11    1    4    4    0    0 -0.74923634620E+02 -0.57302331147E+01 -0.26482878564E+01  0.75189095119E+02  0.00000000000E+00 0.  1.
</event>
<event>
 8    1  0.3708258E-009  0.2431239E+03  0.7561462E-02  0.1117729E+00
          1   -1    0    0  501    0  0.00000000000E+00  0.00000000000E+00  0.11680610823E+03  0.11680610823E+03  0.00000000000E+00 0. -1.
         -1   -1    0    0    0  501 -0.00000000000E+00 -0.00000000000E+00 -0.72297907545E+03  0.72297907545E+03  0.00000000000E+00 0.  1.
         25    2    1    2    0    0  0.23302380495E+03  0.21425676634E+02 -0.11737774371E+03  0.29014401798E+03  0.12508742205E+03 0.  0.
         23    2    1    2    0    0 -0.23302380495E+03 -0.21425676634E+02 -0.48879522351E+03  0.54964116570E+03  0.91790452760E+02 0.  0.
          5    1    3    3  502    0  0.12823333643E+03 -0.31473881196E+02 -0.12534482733E+02  0.13269882979E+03  0.41800000000E+01 0. -1.
         -5    1    3    3    0  502  0.10479046852E+03  0.52899557831E+02 -0.10484326097E+03  0.15744518818E+03  0.41800000000E+01 0. -1.
        -11    1    4    4    0    0 -0.11890317744E+03  0.68853132971E+01 -0.33834187135E+03  0.35869289797E+03  0.00000000000E+00 0.  1.
         11    1    4    4    0    0 -0.11412062752E+03 -0.28310989932E+02 -0.15045335215E+03  0.19094826773E+03  0.00000000000E+00 0. -1.
</event>
<event>
 8    1  0.3708258E-009  0.1346973E+03  0.7561462E-02  0.1220648E+00
          2   -1    0    0  501    0  0.00000000000E+00  0.00000000000E+00  0.29306831889E+03  0.29306831889E+03  0.00000000000E+00 0. -1.
         -2   -1    0    0    0  501 -0.00000000000E+00 -0.00000000000E+00 -0.79846878193E+02  0.79846878193E+02  0.00000000000E+00 0.  1.
         25    2    1    2    0    0 -0.75866055277E+02 -0.62995641422E+02  0.17133159320E+03  0.23393850282E+03  0.12509436075E+03 0.  0.
         23    2    1    2    0    0  0.75866055277E+02  0.62995641422E+02  0.41889847505E+02  0.13897669427E+03  0.88519224150E+02 0.  0.
          5    1    3    3  502    0  0.26609676336E+02 -0.32211956220E+02  0.15286100797E+02  0.44685817390E+02  0.41800000000E+01 0.  1.
         -5    1    3    3    0  502 -0.10247573161E+03 -0.30783685202E+02  0.15604549240E+03  0.18925268543E+03  0.41800000000E+01 0.  1.
        -11    1    4    4    0    0  0.49343215281E+02  0.76133431072E+02  0.38882799981E+01  0.90808429909E+02  0.00000000000E+00 0. -1.
         11    1    4    4    0    0  0.26522839996E+02 -0.13137789651E+02  0.38001567507E+02  0.48168264358E+02  0.00000000000E+00 0.  1.
</event>
<event>
 8    1  0.3708258E-009  0.8757664E+02  0.7561462E-02  0.1308829E+00
          1   -1    0    0  501    0  0.00000000000E+00  0.00000000000E+00  0.16523244522E+03  0.16523244522E+03  0.00000000000E+00 0. -1.
         -1   -1    0    0    0  501 -0.00000000000E+00 -0.00000000000E+00 -0.10210806922E+03  0.10210806922E+03  0.00000000000E+00 0.  1.
         25    2    1    2    0    0 -0.23047176363E+02  0.44810438502E+02  0.84657870892E+02  0.15922896475E+03  0.12509100836E+03 0.  0.
         23    2    1    2    0    0  0.23047176363E+02 -0.44810438502E+02 -0.21533494887E+02  0.10811154969E+03  0.93194785461E+02 0.  0.
          5    1    3    3  502    0 -0.36964413934E+02 -0.21662777656E+02  0.80221147025E+02  0.91041466724E+02  0.41800000000E+01 0.  1.
         -5    1    3    3    0  502  0.13917237571E+02  0.66473216158E+02  0.44367238671E+01  0.68187498023E+02  0.41800000000E+01 0.  1.
        -11    1    4    4    0    0 -0.11282485700E+02 -0.87840320904E+01 -0.49157478435E+02  0.51194837527E+02  0.00000000000E+00 0.  1.
         11    1    4    4    0    0  0.34329662063E+02 -0.36026406412E+02  0.27623983548E+02  0.56916712162E+02  0.00000000000E+00 0. -1.
</event>
<event>
 8    1  0.3708258E-009  0.4202786E+03  0.7561462E-02  0.1036976E+00
          2   -1    0    0  501    0  0.00000000000E+00  0.00000000000E+00  0.17931172509E+04  0.17931172509E+04  0.00000000000E+00 0. -1.
         -2   -1    0    0    0  501 -0.00000000000E+00 -0.00000000000E+00 -0.10670329507E+03  0.10670329507E+03  0.00000000000E+00 0.  1.
         25    2    1    2    0    0  0.15160344079E+03  0.38189071170E+03  0.10733963165E+04  0.11561362501E+04  0.12508899866E+03 0.  0.
         23    2    1    2    0    0 -0.15160344079E+03 -0.38189071170E+03  0.61301763936E+03  0.74368429590E+03  0.91932512562E+02 0.  0.
          5    1    3    3  502    0  0.54879044868E+01  0.11528068528E+03  0.41774476234E+03  0.43341425029E+03  0.41800000000E+01 0.  1.
         -5    1    3    3    0  502  0.14611553631E+03  0.26661002642E+03  0.65565155414E+03  0.72272199980E+03  0.41800000000E+01 0.  1.
        -11    1    4    4    0    0 -0.11615153987E+03 -0.16820958883E+03  0.30158660224E+03  0.36433518172E+03  0.00000000000E+00 0. -1.
         11    1    4    4    0    0 -0.35451900919E+02 -0.21368112287E+03  0.31143103712E+03  0.37934911418E+03  0.00000000000E+00 0.  1.
</event>
<event>
 8    1  0.3708258E-009  0.1117087E+03  0.7561462E-02  0.1257438E+00
          1   -1    0    0  501    0  0.00000000000E+00  0.00000000000E+00  0.46559906572E+03  0.46559906572E+03  0.00000000000E+00 0. -1.
         -1   -1    0    0    0  501 -0.00000000000E+00 -0.00000000000E+00 -0.42380329710E+02  0.42380329710E+02  0.00000000000E+00 0.  1.
         25    2    1    2    0    0 -0.80848069720E+02 -0.41719393310E+02  0.19974089485E+03  0.25263190555E+03  0.12509810740E+03 0.  0.
         23    2    1    2    0    0  0.80848069720E+02  0.41719393310E+02  0.22347784116E+03  0.25534748988E+03  0.83564806822E+02 0.  0.
          5    1    3    3  502    0  0.80919101877E+01  0.12069650924E+02  0.12157809759E+03  0.12251474073E+03  0.41800000000E+01 0.  1.
         -5    1    3    3    0  502 -0.88939979908E+02 -0.53789044234E+02  0.78162797259E+02  0.13011716482E+03  0.41800000000E+01 0.  1.
        -11    1    4    4    0    0  0.46075827984E+02  0.50548702113E+02  0.20261173036E+03  0.21384495900E+03  0.00000000000E+00 0.  1.
         11    1    4    4    0    0  0.34772241736E+02 -0.88293088024E+01  0.20866110807E+02  0.41502530881E+02  0.00000000000E+00 0. -1.
</event>
<event>
 8    1  0.3708258E-009  0.8761558E+02  0.7561462E-02  0.1308731E+00
         -1   -1    0    0    0  501 -0.00000000000E+00  0.00000000000E+00  0.49442289310E+02  0.49442289310E+02  0.00000000000E+00 0.  1.
          1   -1    0    0  501    0  0.00000000000E+00 -0.00000000000E+00 -0.30971195869E+03  0.30971195869E+03  0.00000000000E+00 0. -1.
         25    2    1    2    0    0  0.22959332065E+02 -0.28886728583E+02 -0.78287692413E+02  0.15211229561E+03  0.12509042200E+03 0.  0.
         23    2    1    2    0    0 -0.22959332065E+02  0.28886728583E+02 -0.18198197696E+03  0.20704195239E+03  0.91582509745E+02 0.  0.
          5    1    3    3  502    0  0.40212250130E+02  0.18566724380E+02 -0.89745861381E+02  0.10016756136E+03  0.41800000000E+01 0.  1.
         -5    1    3    3    0  502 -0.17252918065E+02 -0.47453452963E+02  0.11458168968E+02  0.51944734247E+02  0.41800000000E+01 0.  1.
        -11    1    4    4    0    0 -0.39385871368E+02  0.43078462808E+02 -0.62159713848E+02  0.85269167036E+02  0.00000000000E+00 0.  1.
         11    1    4    4    0    0  0.16426539303E+02 -0.14191734226E+02 -0.11982226312E+03  0.12177278535E+03  0.00000000000E+00 0. -1.
</event>
<event>
 8    1  0.3708258E-009  0.1989067E+03  0.7561462E-02  0.1150665E+00
         -2   -1    0    0    0  501 -0.00000000000E+00  0.00000000000E+00  0.29674293326E+03  0.29674293326E+03  0.00000000000E+00 0.  1.
          2   -1    0    0  501    0  0.00000000000E+00 -0.00000000000E+00 -0.15724732805E+03  0.15724732805E+03  0.00000000000E+00 0. -1.
         25    2    1    2    0    0 -0.15150181546E+03 -0.92272122788E+02  0.13100504784E+03  0.25353105881E+03  0.12509488593E+03 0.  0.
         23    2    1    2    0    0  0.15150181546E+03  0.92272122788E+02  0.84905573710E+01  0.20045920250E+03  0.92977726204E+02 0.  0.
          5    1    3    3  502    0 -0.82593095881E+02  0.14604468276E+02  0.24157911849E+02  0.87384135207E+02  0.41800000000E+01 0. -1.
         -5    1    3    3    0  502 -0.68908719583E+02 -0.10687659106E+03  0.10684713599E+03  0.16614692360E+03  0.41800000000E+01 0. -1.
        -11    1    4    4    0    0  0.73816906555E+02  0.11807738579E+02  0.39288289855E+02  0.84450743652E+02  0.00000000000E+00 0.  1.
         11    1    4    4    0    0  0.77684908910E+02  0.80464384209E+02 -0.30797732484E+02  0.11600845885E+03  0.00000000000E+00 0. -1.
</event>
<event>
 8    1  0.3708258E-009  0.8120103E+02  0.7561462E-02  0.1325677E+00
         -1   -1    0    0    0  501 -0.00000000000E+00  0.00000000000E+00  0.11395828829E+03  0.11395828829E+03  0.00000000000E+00 0.  1.
          1   -1    0    0  501    0  0.00000000000E+00 -0.00000000000E+00 -0.15280711605E+03  0.15280711605E+03  0.00000000000E+00 0. -1.
         25    2    1    2    0    0 -0.71473076443E+02  0.99030376966E+01 -0.39639027720E+02  0.14974523122E+03  0.12508361580E+03 0.  0.
         23    2    1    2    0    0  0.71473076443E+02 -0.99030376966E+01  0.79019995392E+00  0.11702017312E+03  0.92122883636E+02 0.  0.
          5    1    3    3  502    0  0.52192622512E+01  0.96925274451E+00 -0.67288183162E+02  0.67626563882E+02  0.41800000000E+01 0. -1.
         -5    1    3    3    0  502 -0.76692338695E+02  0.89337849520E+01  0.27649155441E+02  0.82118667333E+02  0.41800000000E+01 0. -1.
        -11    1    4    4    0    0  0.23921322203E+02 -0.18191582026E+02 -0.42587940894E+02  0.52123852718E+02  0.00000000000E+00 0. -1.
         11    1    4    4    0    0  0.47551754240E+02  0.82885443297E+01  0.43378140848E+02  0.64896320403E+02  0.00000000000E+00 0.  1.
</event>
<event>
 8    1  0.3708258E-009  0.1357632E+03  0.7561462E-02  0.1219146E+00
         -2   -1    0    0    0  501 -0.00000000000E+00  0.00000000000E+00  0.20806209688E+02  0.20806209688E+02  0.00000000000E+00 0.  1.
          2   -1    0    0  501    0  0.00000000000E+00 -0.00000000000E+00 -0.91568039044E+03  0.91568039044E+03  0.00000000000E+00 0. -1.
         25    2    1    2    0    0  0.84078114758E+02  0.16413740032E+02 -0.51403632121E+03  0.53592949119E+03  0.12509412357E+03 0.  0.
         23    2    1    2    0    0 -0.84078114758E+02 -0.16413740032E+02 -0.38083785953E+03  0.40055710894E+03  0.89833078675E+02 0.  0.
          5    1    3    3  502    0  0.66513982351E+02  0.67058477108E+02 -0.37823043517E+03  0.38986752069E+03  0.41800000000E+01 0. -1.
         -5    1    3    3    0  502  0.17564132406E+02 -0.50644737076E+02 -0.13580588604E+03  0.14606197049E+03  0.41800000000E+01 0. -1.
        -11    1    4    4    0    0 -0.95330259592E+02  0.86707702954E+01 -0.27404176307E+03  0.29027905291E+03  0.00000000000E+00 0.  1.
         11    1    4    4    0    0  0.11252144835E+02 -0.25084510327E+02 -0.10679609646E+03  0.11027805603E+03  0.00000000000E+00 0. -1.
</event>
<event>
 8    1  0.3708258E-009  0.9995336E+02  0.7561462E-02  0.1280394E+00
         -1   -1    0    0    0  501 -0.00000000000E+00  0.00000000000E+00  0.92524693964E+02  0.92524693964E+02  0.00000000000E+00 0.  1.
          1   -1    0    0  501    0  0.00000000000E+00 -0.00000000000E+00 -0.16911670790E+03  0.16911670790E+03  0.00000000000E+00 0. -1.
         25    2    1    2    0    0 -0.36364250917E+02  0.48172996256E+02 -0.59870747168E+02  0.15124609603E+03  0.12509148207E+03 0.  0.
         23    2    1    2    0    0  0.36364250917E+02 -0.48172996256E+02 -0.16721266769E+02  0.11039530583E+03  0.90909441064E+02 0.  0.
          5    1    3    3  502    0 -0.46082393382E+02 -0.23964949991E+02 -0.58473444010E+02  0.78323188535E+02  0.41800000000E+01 0. -1.
         -5    1    3    3    0  502  0.97181424650E+01  0.72137946246E+02 -0.13973031582E+01  0.72922907496E+02  0.41800000000E+01 0. -1.
        -11    1    4    4    0    0  0.18961597616E+02  0.44374571355E+01  0.31436460670E+02  0.36979511482E+02  0.00000000000E+00 0.  1.
         11    1    4    4    0    0  0.17402653301E+02 -0.52610453391E+02 -0.48157727440E+02  0.73415794350E+02  0.00000000000E+00 0. -1.
</event>
<event>
 8    1  0.3708258E-009  0.1052367E+03  0.7561462E-02  0.1269654E+00
         -1   -1    0    0    0  501 -0.00000000000E+00  0.00000000000E+00  0.40302929805E+03  0.40302929805E+03  0.00000000000E+00 0.  1.
          1   -1    0    0  501    0  0.00000000000E+00 -0.00000000000E+00 -0.48095412478E+02  0.48095412478E+02  0.00000000000E+00 0. -1.
         25    2    1    2    0    0  0.80914214418E+02  0.11016318442E+01  0.24136591222E+03  0.28364178816E+03  0.12508731640E+03 0.  0.
         23    2    1    2    0    0 -0.80914214418E+02 -0.11016318442E+01  0.11356797336E+03  0.16748292237E+03  0.92760557484E+02 0.  0.
          5    1    3    3  502    0 -0.16993198359E+02  0.16708692053E+02  0.17118055745E+01  0.24255965429E+02  0.41800000000E+01 0.  1.
         -5    1    3    3    0  502  0.97907412777E+02 -0.15607060209E+02  0.23965410664E+03  0.25938582273E+03  0.41800000000E+01 0.  1.
        -11    1    4    4    0    0 -0.42179063964E+02 -0.16596611433E+02 -0.12255768737E+01  0.45343389669E+02  0.00000000000E+00 0. -1.
         11    1    4    4    0    0 -0.38735150453E+02  0.15494979589E+02  0.11479355023E+03  0.12213953270E+03  0.00000000000E+00 0.  1.
</event>
<event>
 8    1  0.3708258E-009  0.1008493E+03  0.7561462E-02  0.1278520E+00
          2   -1    0    0  501    0  0.00000000000E+00  0.00000000000E+00  0.82765336762E+02  0.82765336762E+02  0.00000000000E+00 0. -1.
         -2   -1    0    0    0  501 -0.00000000000E+00 -0.00000000000E+00 -0.32126191285E+03  0.32126191285E+03  0.00000000000E+00 0.  1.
         25    2    1    2    0    0  0.33031863545E+02  0.33542980293E+01 -0.27952992193E+03  0.30804321638E+03  0.12510511812E+03 0.  0.
         23    2    1    2    0    0 -0.33031863545E+02 -0.33542980293E+01  0.41033345842E+02  0.95984033232E+02  0.80167598442E+02 0.  0.
          5    1    3    3  502    0 -0.29648313670E+02  0.33839239483E+02 -0.18549389275E+03  0.19091771337E+03  0.41800000000E+01 0.  1.
         -5    1    3    3    0  502  0.62680177214E+02 -0.30484941454E+02 -0.94036029187E+02  0.11712550301E+03  0.41800000000E+01 0.  1.
        -11    1    4    4    0    0 -0.33811072554E+02  0.34803743662E+02  0.20893719127E+02  0.52830263099E+02  0.00000000000E+00 0.  1.
         11    1    4    4    0    0  0.77920900978E+00 -0.38158041692E+02  0.20139626715E+02  0.43153770132E+02  0.00000000000E+00 0. -1.
</event>
<event>
 8    1  0.3708258E-009  0.1012063E+03  0.7561462E-02  0.1277780E+00
          2   -1    0    0  501    0  0.00000000000E+00  0.00000000000E+00  0.10701700626E+04  0.10701700626E+04  0.00000000000E+00 0. -1.
         -2   -1    0    0    0  501 -0.00000000000E+00 -0.00000000000E+00 -0.13573243574E+02  0.13573243574E+02  0.00000000000E+00 0.  1.
         25    2    1    2    0    0  0.48057595985E+02  0.20590181761E+02  0.61224077436E+03  0.62707192390E+03  0.12508774459E+03 0.  0.
         23    2    1    2    0    0 -0.48057595985E+02 -0.20590181761E+02  0.44435604466E+03  0.45667138226E+03  0.91449269179E+02 0.  0.
          5    1    3    3  502    0  0.49676796882E+02  0.54933265956E+02  0.55667555354E+03  0.56159646737E+03  0.41800000000E+01 0.  1.
         -5    1    3    3    0  502 -0.16192008964E+01 -0.34343084195E+02  0.55565220816E+02  0.65475456531E+02  0.41800000000E+01 0.  1.
        -11    1    4    4    0    0 -0.69658486305E+02 -0.14472610201E+02  0.40633750076E+03  0.41251900039E+03  0.00000000000E+00 0. -1.
         11    1    4    4    0    0  0.21600890320E+02 -0.61175715595E+01  0.38018543898E+02  0.44152381867E+02  0.00000000000E+00 0.  1.
</event>
<event>
 8    1  0.3708258E-009  0.2373149E+03  0.7561462E-02  0.1121595E+00
         -2   -1    0    0    0  501 -0.00000000000E+00  0.00000000000E+00  0.29117311801E+02  0.29117311801E+02  0.00000000000E+00 0.  1.
          2   -1    0    0  501    0  0.00000000000E+00 -0.00000000000E+00 -0.20566186200E+04  0.20566186200E+04  0.00000000000E+00 0. -1.
         25    2    1    2    0    0  0.18229984837E+03  0.11231924258E+03 -0.12373040371E+04  0.12619101917E+04  0.12508878700E+03 0.  0.
         23    2    1    2    0    0 -0.18229984837E+03 -0.11231924258E+03 -0.79019727110E+03  0.82382574014E+03  0.91805641933E+02 0.  0.
          5    1    3    3  502    0  0.27689210374E+02  0.84244105027E+02 -0.37223455038E+03  0.38267452816E+03  0.41800000000E+01 0. -1.
         -5    1    3    3    0  502  0.15461063800E+03  0.28075137553E+02 -0.86506948674E+03  0.87923566353E+03  0.41800000000E+01 0. -1.
        -11    1    4    4    0    0 -0.10526850666E+03 -0.17861164153E+02 -0.44869421869E+03  0.46122335323E+03  0.00000000000E+00 0. -1.
         11    1    4    4    0    0 -0.77031341711E+02 -0.94458078427E+02 -0.34150305241E+03  0.36260238691E+03  0.00000000000E+00 0.  1.
</event>
<event>
 8    1  0.3708258E-009  0.1168597E+03  0.7561462E-02  0.1248369E+00
          1   -1    0    0  501    0  0.00000000000E+00  0.00000000000E+00  0.16546673486E+04  0.16546673486E+04  0.00000000000E+00 0. -1.
         -1   -1    0    0    0  501 -0.00000000000E+00 -0.00000000000E+00 -0.10118291090E+02  0.10118291090E+02  0.00000000000E+00 0.  1.
         25    2    1    2    0    0 -0.23088947772E+02  0.42726953534E+02  0.12705977164E+04  0.12776639157E+04  0.12509129722E+03 0.  0.
         23    2    1    2    0    0  0.23088947772E+02 -0.42726953534E+02  0.37395134115E+03  0.38712172398E+03  0.87549594842E+02 0.  0.
          5    1    3    3  502    0 -0.74964329050E+02  0.25222446581E+02  0.77137782684E+03  0.77543345722E+03  0.41800000000E+01 0.  1.
         -5    1    3    3    0  502  0.51875381278E+02  0.17504506953E+02  0.49921988953E+03  0.50223045851E+03  0.41800000000E+01 0.  1.
        -11    1    4    4    0    0 -0.20767147144E+02  0.16067641304E+02  0.11671669252E+03  0.11963373190E+03  0.00000000000E+00 0.  1.
         11    1    4    4    0    0  0.43856094915E+02 -0.58794594838E+02  0.25723464864E+03  0.26748799207E+03  0.00000000000E+00 0. -1.
</event>
<event>
 8    1  0.3708258E-009  0.1187201E+03  0.7561462E-02  0.1245224E+00
         -1   -1    0    0    0  501 -0.00000000000E+00  0.00000000000E+00  0.56438526349E+02  0.56438526349E+02  0.00000000000E+00 0.  1.
          1   -1    0    0  501    0  0.00000000000E+00 -0.00000000000E+00 -0.27078601662E+03  0.27078601662E+03  0.00000000000E+00 0. -1.
         25    2    1    2    0    0  0.46033615650E+02 -0.18414262646E+02 -0.83632720435E+02  0.15843058061E+03  0.12509051965E+03 0.  0.
         23    2    1    2    0    0 -0.46033615650E+02  0.18414262646E+02 -0.13071476984E+03  0.16879396236E+03  0.94587905348E+02 0.  0.
          5    1    3    3  502    0 -0.42748303574E+02 -0.43614131272E+01 -0.16733198962E+02  0.46302394435E+02  0.41800000000E+01 0. -1.
         -5    1    3    3    0  502  0.88781919224E+02 -0.14052849519E+02 -0.66899521474E+02  0.11212818617E+03  0.41800000000E+01 0. -1.
        -11    1    4    4    0    0 -0.73048228862E+02  0.28466370915E+01 -0.10714661829E+03  0.12970946339E+03  0.00000000000E+00 0. -1.
         11    1    4    4    0    0  0.27014613212E+02  0.15567625555E+02 -0.23568151544E+02  0.39084498968E+02  0.00000000000E+00 0.  1.
</event>
<event>
 8    1  0.3708258E-009  0.1130354E+03  0.7561462E-02  0.1255050E+00
          1   -1    0    0  501    0  0.00000000000E+00  0.00000000000E+00  0.20361080418E+03  0.20361080418E+03  0.00000000000E+00 0. -1.
         -1   -1    0    0    0  501 -0.00000000000E+00 -0.00000000000E+00 -0.11172782959E+03  0.11172782959E+03  0.00000000000E+00 0.  1.
         25    2    1    2    0    0  0.85369212650E+02  0.31503431170E+02 -0.37926172320E+01  0.15473353267E+03  0.12509082118E+03 0.  0.
         23    2    1    2    0    0 -0.85369212650E+02 -0.31503431170E+02  0.95675591820E+02  0.16060510109E+03  0.91432001965E+02 0.  0.
          5    1    3    3  502    0  0.88684353652E+02  0.51715862812E+02  0.36747834424E+02  0.10912067075E+03  0.41800000000E+01 0.  1.
         -5    1    3    3    0  502 -0.33151410018E+01 -0.20212431642E+02 -0.40540451656E+02  0.45612861927E+02  0.41800000000E+01 0.  1.
        -11    1    4    4    0    0 -0.31322292419E+02  0.11484201707E+02  0.84241584160E+02  0.90606938989E+02  0.00000000000E+00 0. -1.
         11    1    4    4    0    0 -0.54046920231E+02 -0.42987632878E+02  0.11434007660E+02  0.69998162105E+02  0.00000000000E+00 0.  1.
</event>
<event>
 8    1  0.3708258E-009  0.9682251E+02  0.7561462E-02  0.1287123E+00
         -2   -1    0    0    0  501 -0.00000000000E+00  0.00000000000E+00  0.21390864572E+03  0.21390864572E+03  0.00000000000E+00 0.  1.
          2   -1    0    0  501    0  0.00000000000E+00 -0.00000000000E+00 -0.63933014457E+02  0.63933014457E+02  0.00000000000E+00 0. -1.
         25    2    1    2    0    0 -0.11719146608E+02 -0.45383084495E+02  0.93258699391E+02  0.16291696774E+03  0.12509112922E+03 0.  0.
         23    2    1    2    0    0  0.11719146608E+02  0.45383084495E+02  0.56716931876E+02  0.11492469244E+03  0.88283134376E+02 0.  0.
          5    1    3    3  502    0  0.30918617062E+02  0.17877225679E+02  0.76743283661E+02  0.84749985641E+02  0.41800000000E+01 0. -1.
         -5    1    3    3    0  502 -0.42637763670E+02 -0.63260310174E+02  0.16515415730E+02  0.78166982102E+02  0.41800000000E+01 0. -1.
        -11    1    4    4    0    0  0.83130807687E+01 -0.16938962108E+02  0.48412434301E+02  0.51959595303E+02  0.00000000000E+00 0.  1.
         11    1    4    4    0    0  0.34060658394E+01  0.62322046603E+02  0.83044975754E+01  0.62965097136E+02  0.00000000000E+00 0. -1.
</event>
<event>
 8    1  0.3708258E-009  0.9396580E+02  0.7561462E-02  0.1293523E+00
          2   -1    0    0  501    0  0.00000000000E+00  0.00000000000E+00  0.46666450112E+03  0.46666450112E+03  0.00000000000E+00 0. -1.
         -2   -1    0    0    0  501 -0.00000000000E+00 -0.00000000000E+00 -0.36799515392E+02  0.36799515392E+02  0.00000000000E+00 0.  1.
         25    2    1    2    0    0  0.57322057694E+02 -0.99916203357E+01  0.14464173383E+03  0.19988808198E+03  0.12509341859E+03 0.  0.
         23    2    1    2    0    0 -0.57322057694E+02  0.99916203357E+01  0.28522325189E+03  0.30357593453E+03  0.86141707860E+02 0.  0.
          5    1    3    3  502    0  0.32780798619E+02 -0.44681106965E+02  0.72866336817E+01  0.56049527278E+02  0.41800000000E+01 0.  1.
         -5    1    3    3    0  502  0.24541259075E+02  0.34689486629E+02  0.13735510015E+03  0.14383855470E+03  0.41800000000E+01 0.  1.
        -11    1    4    4    0    0 -0.29457026366E+01 -0.24885710169E+02  0.24786953581E+02  0.35247252410E+02  0.00000000000E+00 0.  1.
         11    1    4    4    0    0 -0.54376355057E+02  0.34877330504E+02  0.26043629831E+03  0.26832868212E+03  0.00000000000E+00 0. -1.
</event>
<event>
 8    1  0.3708258E-009  0.1290755E+03  0.7561462E-02  0.1228834E+00
          2   -1    0    0  501    0  0.00000000000E+00  0.00000000000E+00  0.48743899683E+03  0.48743899683E+03  0.00000000000E+00 0. -1.
         -2   -1    0    0    0  501 -0.00000000000E+00 -0.00000000000E+00 -0.56524630779E+02  0.56524630779E+02  0.00000000000E+00 0.  1.
         25    2    1    2    0    0  0.23443159601E+02 -0.81184852865E+02  0.38107887875E+03  0.40988959058E+03  0.12509117704E+03 0.  0.
         23    2    1    2    0    0 -0.23443159601E+02  0.81184852865E+02  0.49835487300E+02  0.13407403702E+03  0.91387688133E+02 0.  0.
          5    1    3    3  502    0 -0.47166704047E+02 -0.41209758853E+02  0.22924516668E+03  0.23768416237E+03  0.41800000000E+01 0.  1.
         -5    1    3    3    0  502  0.70609863648E+02 -0.39975094012E+02  0.15183371207E+03  0.17220542821E+03  0.41800000000E+01 0.  1.
        -11    1    4    4    0    0 -0.21705007015E+02  0.96401463042E+02  0.60082086943E+02  0.11564690475E+03  0.00000000000E+00 0. -1.
         11    1    4    4    0    0 -0.17381525858E+01 -0.15216610176E+02 -0.10246599643E+02  0.18427132276E+02  0.00000000000E+00 0.  1.
</event>
<event>
 8    1  0.3708258E-009  0.1179299E+03  0.7561462E-02  0.1246552E+00
         -1   -1    0    0    0  501 -0.00000000000E+00  0.00000000000E+00  0.31992246860E+02  0.31992246860E+02  0.00000000000E+00 0.  1.
          1   -1    0    0  501    0  0.00000000000E+00 -0.00000000000E+00 -0.53272050624E+03  0.53272050624E+03  0.00000000000E+00 0. -1.
         25    2    1    2    0    0 -0.54984940834E+02  0.34380814929E+02 -0.24519474250E+03  0.28279564135E+03  0.12509008300E+03 0.  0.
         23    2    1    2    0    0  0.54984940834E+02 -0.34380814929E+02 -0.25553351688E+03  0.28191711175E+03  0.99872396050E+02 0.  0.
          5    1    3    3  502    0 -0.27397484909E+01  0.65354421515E+02 -0.63848550220E+02  0.91503095022E+02  0.41800000000E+01 0.  1.
         -5    1    3    3    0  502 -0.52245192343E+02 -0.30973606587E+02 -0.18134619228E+03  0.19129254633E+03  0.41800000000E+01 0.  1.
        -11    1    4    4    0    0  0.76821189398E+02 -0.40382226970E+02 -0.14419274606E+03  0.16829666489E+03  0.00000000000E+00 0.  1.
         11    1    4    4    0    0 -0.21836248564E+02  0.60014120417E+01 -0.11134077082E+03  0.11362044686E+03  0.00000000000E+00 0. -1.
</event>
<event>
 8    1  0.3708258E-009  0.1023963E+03  0.7561462E-02  0.1275336E+00
          1   -1    0    0  501    0  0.00000000000E+00  0.00000000000E+00  0.28318362160E+03  0.28318362160E+03  0.00000000000E+00 0. -1.
         -1   -1    0    0    0  501 -0.00000000000E+00 -0.00000000000E+00 -0.52576991925E+02  0.52576991925E+02  0.00000000000E+00 0.  1.
         25    2    1    2    0    0  0.64816935654E+02  0.11446792550E+02  0.13719935417E+03  0.19698858588E+03  0.12509426836E+03 0.  0.
         23    2    1    2    0    0 -0.64816935654E+02 -0.11446792550E+02  0.93407275513E+02  0.13877202765E+03  0.78743204986E+02 0.  0.
          5    1    3    3  502    0 -0.23315690515E+02  0.92550956086E+01  0.96505257517E+02  0.99799876490E+02  0.41800000000E+01 0.  1.
         -5    1    3    3    0  502  0.88132626169E+02  0.21916969411E+01  0.40694096649E+02  0.97188709391E+02  0.41800000000E+01 0.  1.
        -11    1    4    4    0    0 -0.33511927625E+02 -0.37559319049E+02  0.18759998883E+02  0.53718612219E+02  0.00000000000E+00 0.  1.
         11    1    4    4    0    0 -0.31305008029E+02  0.26112526500E+02  0.74647276630E+02  0.85053415429E+02  0.00000000000E+00 0. -1.
</event>
<event>
 8    1  0.3708258E-009  0.6913915E+02  0.7561462E-02  0.1363045E+00
         -4   -1    0    0    0  501 -0.00000000000E+00  0.00000000000E+00  0.22949403637E+03  0.22949403637E+03  0.00000000000E+00 0.  1.
          4   -1    0    0  501    0  0.00000000000E+00 -0.00000000000E+00 -0.13224505532E+03  0.13224505532E+03  0.00000000000E+00 0. -1.
         25    2    1    2    0    0 -0.16583081543E+02  0.47056668831E+02 -0.79359745746E+02  0.15631581330E+03  0.12508931037E+03 0.  0.
         23    2    1    2    0    0  0.16583081543E+02 -0.47056668831E+02  0.17660872679E+03  0.20542327838E+03  0.92297086882E+02 0.  0.
          5    1    3    3  502    0 -0.11263217148E+02  0.40894996427E+02 -0.11335859177E+03  0.12110699204E+03  0.41800000000E+01 0. -1.
         -5    1    3    3    0  502 -0.53198643954E+01  0.61616724040E+01  0.33998846022E+02  0.35208821265E+02  0.41800000000E+01 0. -1.
        -11    1    4    4    0    0 -0.82739210479E+01  0.16391141288E+02  0.10492354268E+03  0.10651796605E+03  0.00000000000E+00 0.  1.
         11    1    4    4    0    0  0.24857002591E+02 -0.63447810119E+02  0.71685184109E+02  0.98905312331E+02  0.00000000000E+00 0. -1.
</event>
<event>
 8    1  0.3708258E-009  0.7130397E+02  0.7561462E-02  0.1355714E+00
          3   -1    0    0  501    0  0.00000000000E+00  0.00000000000E+00  0.10258440388E+03  0.10258440388E+03  0.00000000000E+00 0. -1.
         -3   -1    0    0    0  501 -0.00000000000E+00 -0.00000000000E+00 -0.12097855284E+03  0.12097855284E+03  0.00000000000E+00 0.  1.
         25    2    1    2    0    0  0.96941535737E+01  0.20253079654E+02  0.25613255555E+01  0.12711858154E+03  0.12509360309E+03 0.  0.
         23    2    1    2    0    0 -0.96941535737E+01 -0.20253079654E+02 -0.20955474511E+02  0.96444375182E+02  0.91423310721E+02 0.  0.
          5    1    3    3  502    0 -0.31349892868E+02 -0.15119304838E+02  0.45796933988E+02  0.57673570415E+02  0.41800000000E+01 0.  1.
         -5    1    3    3    0  502  0.41044046442E+02  0.35372384493E+02 -0.43235608432E+02  0.69445011121E+02  0.41800000000E+01 0.  1.
        -11    1    4    4    0    0  0.16175696546E+02  0.51257327309E+01  0.29673096491E+02  0.34182143732E+02  0.00000000000E+00 0. -1.
         11    1    4    4    0    0 -0.25869850120E+02 -0.25378812385E+02 -0.50628571002E+02  0.62262231449E+02  0.00000000000E+00 0.  1.
</event>
<event>
 8    1  0.3708258E-009  0.2373208E+03  0.7561462E-02  0.1121591E+00
          2   -1    0    0  501    0  0.00000000000E+00  0.00000000000E+00  0.80421911435E+03  0.80421911435E+03  0.00000000000E+00 0. -1.
         -2   -1    0    0    0  501 -0.00000000000E+00 -0.00000000000E+00 -0.80968321940E+02  0.80968321940E+02  0.00000000000E+00 0.  1.
         25    2    1    2    0    0 -0.12279846610E+03 -0.18931850470E+03  0.45541939899E+03  0.52342624811E+03  0.12508896327E+03 0.  0.
         23    2    1    2    0    0  0.12279846610E+03  0.18931850470E+03  0.26783139342E+03  0.36176118818E+03  0.90645145927E+02 0.  0.
          5    1    3    3  502    0 -0.54302745341E+02 -0.38777740441E+02  0.44130979743E+02  0.80109406928E+02  0.41800000000E+01 0. -1.
         -5    1    3    3    0  502 -0.68495720756E+02 -0.15054076425E+03  0.41128841925E+03  0.44331684118E+03  0.41800000000E+01 0. -1.
        -11    1    4    4    0    0  0.10992451114E+03  0.89659730974E+02  0.14179468748E+03  0.20056918733E+03  0.00000000000E+00 0.  1.
         11    1    4    4    0    0  0.12873954954E+02  0.99658773721E+02  0.12603670594E+03  0.16119200086E+03  0.00000000000E+00 0. -1.
</event>
<event>
 8    1  0.3708258E-009  0.1348854E+03  0.7561462E-02  0.1220382E+00
         -2   -1    0    0    0  501 -0.00000000000E+00  0.00000000000E+00  0.92496437069E+02  0.92496437069E+02  0.00000000000E+00 0.  1.
          2   -1    0    0  501    0  0.00000000000E+00 -0.00000000000E+00 -0.28363868597E+03  0.28363868597E+03  0.00000000000E+00 0. -1.
         25    2    1    2    0    0  0.68325487849E+02  0.64287811123E+02 -0.15602482038E+02  0.15712320076E+03  0.12507185064E+03 0.  0.
         23    2    1    2    0    0 -0.68325487849E+02 -0.64287811123E+02 -0.17553976686E+03  0.21901192227E+03  0.91382259766E+02 0.  0.
          5    1    3    3  502    0  0.52086479769E+02  0.94052136871E+02  0.18133616404E+02  0.10911052318E+03  0.41800000000E+01 0. -1.
         -5    1    3    3    0  502  0.16239008080E+02 -0.29764325748E+02 -0.33736098442E+02  0.48012677583E+02  0.41800000000E+01 0. -1.
        -11    1    4    4    0    0 -0.44163562517E+01  0.20988670243E+02 -0.14444225879E+02  0.25858540995E+02  0.00000000000E+00 0.  1.
         11    1    4    4    0    0 -0.63909131597E+02 -0.85276481366E+02 -0.16109554098E+03  0.19315338128E+03  0.00000000000E+00 0. -1.
</event>
<event>
 8    1  0.3708258E-009  0.1203947E+03  0.7561462E-02  0.1242447E+00
          1   -1    0    0  501    0  0.00000000000E+00  0.00000000000E+00  0.13038044902E+04  0.13038044902E+04  0.00000000000E+00 0. -1.
         -1   -1    0    0    0  501 -0.00000000000E+00 -0.00000000000E+00 -0.20117234663E+02  0.20117234663E+02  0.00000000000E+00 0.  1.
         25    2    1    2    0    0 -0.19856960171E+02  0.89080070711E+02  0.99918877551E+03  0.10111153771E+04  0.12508612599E+03 0.  0.
         23    2    1    2    0    0  0.19856960171E+02 -0.89080070711E+02  0.28449847998E+03  0.31280634768E+03  0.92622179695E+02 0.  0.
          5    1    3    3  502    0 -0.92888951162E+01 -0.18588966973E+02  0.49404226134E+03  0.49449677618E+03  0.41800000000E+01 0. -1.
         -5    1    3    3    0  502 -0.10568065055E+02  0.10766903768E+03  0.50514651417E+03  0.51661860095E+03  0.41800000000E+01 0. -1.
        -11    1    4    4    0    0  0.25123606531E+02 -0.97889258195E+02  0.28514285455E+03  0.30252264374E+03  0.00000000000E+00 0. -1.
         11    1    4    4    0    0 -0.52666463604E+01  0.88091874838E+01 -0.64437457302E+00  0.10283703934E+02  0.00000000000E+00 0.  1.
</event>
<event>
 8    1  0.3708258E-009  0.1434050E+03  0.7561462E-02  0.1208819E+00
         -2   -1    0    0    0  501 -0.00000000000E+00  0.00000000000E+00  0.59478148386E+02  0.59478148386E+02  0.00000000000E+00 0.  1.
          2   -1    0    0  501    0  0.00000000000E+00 -0.00000000000E+00 -0.35325849305E+03  0.35325849305E+03  0.00000000000E+00 0. -1.
         25    2    1    2    0    0 -0.81291434512E+02  0.49276837230E+02 -0.16036221869E+03  0.22449841049E+03  0.12508793354E+03 0.  0.
         23    2    1    2    0    0  0.81291434512E+02 -0.49276837230E+02 -0.13341812598E+03  0.18823823094E+03  0.92718559292E+02 0.  0.
          5    1    3    3  502    0 -0.36321450752E+02 -0.39949337049E+02 -0.77928834563E+02  0.94897697400E+02  0.41800000000E+01 0. -1.
         -5    1    3    3    0  502 -0.44969983760E+02  0.89226174278E+02 -0.82433384124E+02  0.12960071309E+03  0.41800000000E+01 0. -1.
        -11    1    4    4    0    0 -0.74038890012E+00  0.23185487659E+02 -0.26703848787E+02  0.35372454732E+02  0.00000000000E+00 0.  1.
         11    1    4    4    0    0  0.82031823413E+02 -0.72462324889E+02 -0.10671427719E+03  0.15286577621E+03  0.00000000000E+00 0. -1.
</event>
<event>
 8    1  0.3708258E-009  0.1752314E+03  0.7561462E-02  0.1172500E+00
          1   -1    0    0  501    0  0.00000000000E+00  0.00000000000E+00  0.47562551304E+03  0.47562551304E+03  0.00000000000E+00 0. -1.
         -1   -1    0    0    0  501 -0.00000000000E+00 -0.00000000000E+00 -0.71333063346E+02  0.71333063346E+02  0.00000000000E+00 0.  1.
         25    2    1    2    0    0  0.13458249622E+03 -0.61898353590E+02  0.22271210350E+03  0.29528455809E+03  0.12509370382E+03 0.  0.
         23    2    1    2    0    0 -0.13458249622E+03  0.61898353590E+02  0.18158034620E+03  0.25167401830E+03  0.91785265127E+02 0.  0.
          5    1    3    3  502    0  0.82057507668E+02 -0.90607956119E+02  0.19257788558E+03  0.22813800800E+03  0.41800000000E+01 0.  1.
         -5    1    3    3    0  502  0.52524988555E+02  0.28709602529E+02  0.30134217914E+02  0.67146550093E+02  0.41800000000E+01 0.  1.
        -11    1    4    4    0    0 -0.72481211183E+02  0.75403885238E+02  0.79289747647E+02  0.13124837510E+03  0.00000000000E+00 0.  1.
         11    1    4    4    0    0 -0.62101285041E+02 -0.13505531648E+02  0.10229059855E+03  0.12042564320E+03  0.00000000000E+00 0. -1.
</event>
<event>
 8    1  0.3708258E-009  0.2124834E+03  0.7561462E-02  0.1139614E+00
          2   -1    0    0  501    0  0.00000000000E+00  0.00000000000E+00  0.23328075626E+03  0.23328075626E+03  0.00000000000E+00 0. -1.
         -2   -1    0    0    0  501 -0.00000000000E+00 -0.00000000000E+00 -0.21967967120E+03  0.21967967120E+03  0.00000000000E+00 0.  1.
         25    2    1    2    0    0  0.25311833676E+02  0.19289846079E+03  0.44922217102E+02  0.23561811089E+03  0.12508950193E+03 0.  0.
         23    2    1    2    0    0 -0.25311833676E+02 -0.19289846079E+03 -0.31321132044E+02  0.21734231656E+03  0.91685135969E+02 0.  0.
          5    1    3    3  502    0 -0.36211683873E+02  0.14779098457E+03  0.12863917223E+02  0.15276260647E+03  0.41800000000E+01 0.  1.
         -5    1    3    3    0  502  0.61523517548E+02  0.45107476218E+02  0.32058299879E+02  0.82855504424E+02  0.41800000000E+01 0.  1.
        -11    1    4    4    0    0 -0.30600666132E+02 -0.17591441595E+03 -0.55809687093E+02  0.18707486117E+03  0.00000000000E+00 0.  1.
         11    1    4    4    0    0  0.52888324566E+01 -0.16984044838E+02  0.24488555049E+02  0.30267455397E+02  0.00000000000E+00 0. -1.
</event>
<event>
 8    1  0.3708258E-009  0.6337464E+02  0.7561462E-02  0.1384192E+00
          1   -1    0    0  501    0  0.00000000000E+00  0.00000000000E+00  0.43085815850E+02  0.43085815850E+02  0.00000000000E+00 0. -1.
         -1   -1    0    0    0  501 -0.00000000000E+00 -0.00000000000E+00 -0.31211925647E+03  0.31211925647E+03  0.00000000000E+00 0.  1.
         25    2    1    2    0    0  0.14446568767E+02  0.30853207070E+02 -0.19005718077E+03  0.23006626768E+03  0.12509249308E+03 0.  0.
         23    2    1    2    0    0 -0.14446568767E+02 -0.30853207070E+02 -0.78976259848E+02  0.12513880464E+03  0.90894703213E+02 0.  0.
          5    1    3    3  502    0  0.47538779452E+00  0.42965597289E+02 -0.43451530842E+01  0.43389184128E+02  0.41800000000E+01 0.  1.
         -5    1    3    3    0  502  0.13971180973E+02 -0.12112390219E+02 -0.18571202769E+03  0.18667708355E+03  0.41800000000E+01 0.  1.
        -11    1    4    4    0    0 -0.25596522418E+02 -0.41787807422E+02 -0.92370719106E+02  0.10456458558E+03  0.00000000000E+00 0.  1.
         11    1    4    4    0    0  0.11149953650E+02  0.10934600353E+02  0.13394459258E+02  0.20574219064E+02  0.00000000000E+00 0. -1.
</event>
<event>
 8    1  0.3708258E-009  0.9790148E+02  0.7561462E-02  0.1284772E+00
         -1   -1    0    0    0  501 -0.00000000000E+00  0.00000000000E+00  0.59230947192E+02  0.59230947192E+02  0.00000000000E+00 0.  1.
          1   -1    0    0  501    0  0.00000000000E+00 -0.00000000000E+00 -0.25187448380E+03  0.25187448380E+03  0.00000000000E+00 0. -1.
         25    2    1    2    0    0  0.34925292331E+02 -0.12011018823E+00 -0.17547569634E+03  0.21831111136E+03  0.12509288895E+03 0.  0.
         23    2    1    2    0    0 -0.34925292331E+02  0.12011018823E+00 -0.17167840272E+02  0.92794319634E+02  0.84239305232E+02 0.  0.
          5    1    3    3  502    0  0.52451882132E+02  0.41506021820E+02 -0.15435534976E+03  0.16827654675E+03  0.41800000000E+01 0.  1.
         -5    1    3    3    0  502 -0.17526589801E+02 -0.41626132009E+02 -0.21120346578E+02  0.50034564609E+02  0.41800000000E+01 0.  1.
        -11    1    4    4    0    0  0.11122537470E+01  0.33967711073E+02  0.11211862841E+02  0.35787544933E+02  0.00000000000E+00 0.  1.
         11    1    4    4    0    0 -0.36037546078E+02 -0.33847600885E+02 -0.28379703114E+02  0.57006774701E+02  0.00000000000E+00 0. -1.
</event>
<event>
 8    1  0.3708258E-009  0.7270700E+02  0.7561462E-02  0.1351122E+00
          2   -1    0    0  501    0  0.00000000000E+00  0.00000000000E+00  0.47483437802E+03  0.47483437802E+03  0.00000000000E+00 0. -1.
         -2   -1    0    0    0  501 -0.00000000000E+00 -0.00000000000E+00 -0.19343206333E+03  0.19343206333E+03  0.00000000000E+00 0.  1.
         25    2    1    2    0    0 -0.44085962729E+01  0.46177413967E+02  0.45052481805E+03  0.46986188199E+03  0.12508312111E+03 0.  0.
         23    2    1    2    0    0  0.44085962729E+01 -0.46177413967E+02 -0.16912250337E+03  0.19840455936E+03  0.92790941072E+02 0.  0.
          5    1    3    3  502    0 -0.19865535733E+02  0.16248263870E+02  0.42874321654E+03  0.42953098109E+03  0.41800000000E+01 0.  1.
         -5    1    3    3    0  502  0.15456939460E+02  0.29929150096E+02  0.21781601514E+02  0.40330900901E+02  0.41800000000E+01 0.  1.
        -11    1    4    4    0    0  0.25100471321E+02  0.89006857915E+01 -0.94863877441E+01  0.28270964266E+02  0.00000000000E+00 0. -1.
         11    1    4    4    0    0 -0.20691875048E+02 -0.55078099758E+02 -0.15963611563E+03  0.17013359509E+03  0.00000000000E+00 0.  1.
</event>
<event>
 8    1  0.3708258E-009  0.1332340E+03  0.7561462E-02  0.1222734E+00
         -1   -1    0    0    0  501 -0.00000000000E+00  0.00000000000E+00  0.12764849293E+03  0.12764849293E+03  0.00000000000E+00 0.  1.
          1   -1    0    0  501    0  0.00000000000E+00 -0.00000000000E+00 -0.20957392219E+03  0.20957392219E+03  0.00000000000E+00 0. -1.
         25    2    1    2    0    0  0.10483729016E+03  0.58389516213E+02 -0.77997647890E+02  0.19008175533E+03  0.12508895884E+03 0.  0.
         23    2    1    2    0    0 -0.10483729016E+03 -0.58389516213E+02 -0.39277813706E+01  0.14714065978E+03  0.85057352909E+02 0.  0.
          5    1    3    3  502    0  0.10421910866E+03  0.34536832562E+02 -0.15448202235E+01  0.10988300270E+03  0.41800000000E+01 0. -1.
         -5    1    3    3    0  502  0.61818149988E+00  0.23852683651E+02 -0.76452827666E+02  0.80198752633E+02  0.41800000000E+01 0. -1.
        -11    1    4    4    0    0  0.21815931489E+01 -0.17770283832E+02  0.23392237482E+02  0.29457411811E+02  0.00000000000E+00 0.  1.
         11    1    4    4    0    0 -0.10701888331E+03 -0.40619232381E+02 -0.27320018853E+02  0.11768324797E+03  0.00000000000E+00 0. -1.
</event>
<event>
 8    1  0.3708258E-009  0.1619998E+03  0.7561462E-02  0.1186457E+00
         -2   -1    0    0    0  501 -0.00000000000E+00  0.00000000000E+00  0.34710138456E+03  0.34710138456E+03  0.00000000000E+00 0.  1.
          2   -1    0    0  501    0  0.00000000000E+00 -0.00000000000E+00 -0.10141697343E+03  0.10141697343E+03  0.00000000000E+00 0. -1.
         25    2    1    2    0    0 -0.13504606044E+03 -0.36288929741E+02  0.20321359543E+03  0.27658084107E+03  0.12508745510E+03 0.  0.
         23    2    1    2    0    0  0.13504606044E+03  0.36288929741E+02  0.42470815697E+02  0.17193751692E+03  0.90578224074E+02 0.  0.
          5    1    3    3  502    0 -0.95435734944E+01 -0.55980150081E+02  0.89238488224E+02  0.10585762693E+03  0.41800000000E+01 0.  1.
         -5    1    3    3    0  502 -0.12550248694E+03  0.19691220340E+02  0.11397510720E+03  0.17072321415E+03  0.41800000000E+01 0.  1.
        -11    1    4    4    0    0  0.14630969328E+02  0.57820339414E+01  0.45022430771E+02  0.47691890847E+02  0.00000000000E+00 0.  1.
         11    1    4    4    0    0  0.12041509111E+03  0.30506895800E+02 -0.25516150744E+01  0.12424562607E+03  0.00000000000E+00 0. -1.
</event>
<event>
 8    1  0.3708258E-009  0.8321096E+02  0.7561462E-02  0.1320178E+00
          3   -1    0    0  501    0  0.00000000000E+00  0.00000000000E+00  0.68225139407E+03  0.68225139407E+03  0.00000000000E+00 0. -1.
         -3   -1    0    0    0  501 -0.00000000000E+00 -0.00000000000E+00 -0.21295220548E+02  0.21295220548E+02  0.00000000000E+00 0.  1.
         25    2    1    2    0    0 -0.24830737020E+02  0.23576229831E+02  0.49065774409E+03  0.50750835712E+03  0.12508919458E+03 0.  0.
         23    2    1    2    0    0  0.24830737020E+02 -0.23576229831E+02  0.17029842944E+03  0.19603825750E+03  0.90868251996E+02 0.  0.
          5    1    3    3  502    0 -0.27952996808E+02 -0.31385965157E+02  0.60282498500E+02  0.73606391467E+02  0.41800000000E+01 0.  1.
         -5    1    3    3    0  502  0.31222597877E+01  0.54962194988E+02  0.43037524559E+03  0.43390196565E+03  0.41800000000E+01 0.  1.
        -11    1    4    4    0    0  0.97315162428E+01 -0.43162212355E+02  0.16489017865E+03  0.17072331416E+03  0.00000000000E+00 0. -1.
         11    1    4    4    0    0  0.15099220777E+02  0.19585982525E+02  0.54082507870E+01  0.25314943336E+02  0.00000000000E+00 0.  1.
</event>
<event>
 8    1  0.3708258E-009  0.2384690E+03  0.7561462E-02  0.1120817E+00
         -1   -1    0    0    0  501 -0.00000000000E+00  0.00000000000E+00  0.37287185040E+02  0.37287185040E+02  0.00000000000E+00 0.  1.
          1   -1    0    0  501    0  0.00000000000E+00 -0.00000000000E+00 -0.16770889278E+04  0.16770889278E+04  0.00000000000E+00 0. -1.
         25    2    1    2    0    0 -0.21590937165E+03 -0.58187800988E+02 -0.75683259141E+03  0.79902767305E+03  0.12508786487E+03 0.  0.
         23    2    1    2    0    0  0.21590937165E+03  0.58187800988E+02 -0.88296915139E+03  0.91534843982E+03  0.90694911830E+02 0.  0.
          5    1    3    3  502    0 -0.96636165687E+02  0.20731743276E+02 -0.18754637560E+03  0.21203648058E+03  0.41800000000E+01 0.  1.
         -5    1    3    3    0  502 -0.11927320596E+03 -0.78919544263E+02 -0.56928621581E+03  0.58699119247E+03  0.41800000000E+01 0.  1.
        -11    1    4    4    0    0  0.13999510523E+03  0.72544514921E+02 -0.68322369028E+03  0.70118182171E+03  0.00000000000E+00 0. -1.
         11    1    4    4    0    0  0.75914266425E+02 -0.14356713933E+02 -0.19974546111E+03  0.21416661812E+03  0.00000000000E+00 0.  1.
</event>
<event>
 8    1  0.3708258E-009  0.1186638E+03  0.7561462E-02  0.1245318E+00
          2   -1    0    0  501    0  0.00000000000E+00  0.00000000000E+00  0.40216933748E+03  0.40216933748E+03  0.00000000000E+00 0. -1.
         -2   -1    0    0    0  501 -0.00000000000E+00 -0.00000000000E+00 -0.45756524297E+02  0.45756524297E+02  0.00000000000E+00 0.  1.
         25    2    1    2    0    0  0.64873829849E+02 -0.44770362549E+02  0.16173714863E+03  0.21913548169E+03  0.12509378453E+03 0.  0.
         23    2    1    2    0    0 -0.64873829849E+02  0.44770362549E+02  0.19467566456E+03  0.22879038009E+03  0.90738219552E+02 0.  0.
          5    1    3    3  502    0 -0.44728972383E+01 -0.51170651243E+02  0.13485842807E+03  0.14437004669E+03  0.41800000000E+01 0. -1.
         -5    1    3    3    0  502  0.69346727087E+02  0.64002886942E+01  0.26878720559E+02  0.74765435008E+02  0.41800000000E+01 0. -1.
        -11    1    4    4    0    0 -0.73247006768E+02  0.28771389055E+01  0.15012653143E+03  0.16706698467E+03  0.00000000000E+00 0. -1.
         11    1    4    4    0    0  0.83731769189E+01  0.41893223643E+02  0.44549133127E+02  0.61723395413E+02  0.00000000000E+00 0.  1.
</event>
<event>
 8    1  0.3708258E-009  0.1106279E+03  0.7561462E-02  0.1259412E+00
         -2   -1    0    0    0  501 -0.00000000000E+00  0.00000000000E+00  0.86391789588E+02  0.86391789588E+02  0.00000000000E+00 0. -1.
          2   -1    0    0  501    0  0.00000000000E+00 -0.00000000000E+00 -0.19018953123E+03  0.19018953123E+03  0.00000000000E+00 0.  1.
         25    2    1    2    0    0 -0.41771802599E+02  0.33394199795E+01  0.13893582546E+00  0.13191979819E+03  0.12508708420E+03 0.  0.
         23    2    1    2    0    0  0.41771802599E+02 -0.33394199795E+01 -0.10393667746E+03  0.14466152262E+03  0.91477253931E+02 0.  0.
          5    1    3    3  502    0 -0.87286958186E+01 -0.58801680392E+02  0.10953398481E+02  0.60591064406E+02  0.41800000000E+01 0. -1.
         -5    1    3    3    0  502 -0.33043106781E+02  0.62141100371E+02 -0.10814462655E+02  0.71328733787E+02  0.41800000000E+01 0. -1.
        -11    1    4    4    0    0  0.64015614475E+02 -0.15419512980E+02 -0.98959621389E+02  0.11886448983E+03  0.00000000000E+00 0.  1.
         11    1    4    4    0    0 -0.22243811875E+02  0.12080093001E+02 -0.49770560732E+01  0.25797032791E+02  0.00000000000E+00 0. -1.
</event>
<event>
 8    1  0.3708258E-009  0.2119098E+03  0.7561462E-02  0.1140062E+00
         -2   -1    0    0    0  501 -0.00000000000E+00  0.00000000000E+00  0.48484828298E+03  0.48484828298E+03  0.00000000000E+00 0. -1.
          2   -1    0    0  501    0  0.00000000000E+00 -0.00000000000E+00 -0.11554628389E+03  0.11554628389E+03  0.00000000000E+00 0.  1.
         25    2    1    2    0    0  0.18390780288E+03 -0.83641322766E+02  0.11212838620E+03  0.26275184097E+03  0.12509118318E+03 0.  0.
         23    2    1    2    0    0 -0.18390780288E+03  0.83641322766E+02  0.25717361288E+03  0.33764272590E+03  0.83942792146E+02 0.  0.
          5    1    3    3  502    0  0.16470497525E+03 -0.92119340722E+02  0.47465085724E+02  0.19463840467E+03  0.41800000000E+01 0.  1.
         -5    1    3    3    0  502  0.19202827628E+02  0.84780179560E+01  0.64663300476E+02  0.68113436309E+02  0.41800000000E+01 0.  1.
        -11    1    4    4    0    0 -0.17573613674E+03  0.94915349735E+02  0.21605724332E+03  0.29423263885E+03  0.00000000000E+00 0.  1.
         11    1    4    4    0    0 -0.81716661384E+01 -0.11274026969E+02  0.41116369561E+02  0.43410087048E+02  0.00000000000E+00 0. -1.
</event>
<event>
 8    1  0.3708258E-009  0.1369678E+03  0.7561462E-02  0.1217468E+00
         -2   -1    0    0    0  501 -0.00000000000E+00  0.00000000000E+00  0.10382744034E+03  0.10382744034E+03  0.00000000000E+00 0.  1.
          2   -1    0    0  501    0  0.00000000000E+00 -0.00000000000E+00 -0.20322339412E+03  0.20322339412E+03  0.00000000000E+00 0. -1.
         25    2    1    2    0    0 -0.68396089275E+02  0.56180322024E+02 -0.20614616381E+02  0.15461341139E+03  0.12508433540E+03 0.  0.
         23    2    1    2    0    0  0.68396089275E+02 -0.56180322024E+02 -0.78781337396E+02  0.15243742306E+03  0.95897941671E+02 0.  0.
          5    1    3    3  502    0 -0.48345381934E+02  0.92113231222E+02  0.78435075102E+01  0.10440841121E+03  0.41800000000E+01 0. -1.
         -5    1    3    3    0  502 -0.20050707340E+02 -0.35932909198E+02 -0.28458123892E+02  0.50205000186E+02  0.41800000000E+01 0. -1.
        -11    1    4    4    0    0  0.78396145726E+02 -0.74876773943E+01 -0.61106903526E+02  0.99679860734E+02  0.00000000000E+00 0.  1.
         11    1    4    4    0    0 -0.10000056451E+02 -0.48692644630E+02 -0.17674433870E+02  0.52757562327E+02  0.00000000000E+00 0. -1.
</event>
<event>
 8    1  0.3708258E-009  0.9702597E+02  0.7561462E-02  0.1286677E+00
         -2   -1    0    0    0  501 -0.00000000000E+00  0.00000000000E+00  0.43526932786E+03  0.43526932786E+03  0.00000000000E+00 0.  1.
          2   -1    0    0  501    0  0.00000000000E+00 -0.00000000000E+00 -0.31482165813E+02  0.31482165813E+02  0.00000000000E+00 0. -1.
         25    2    1    2    0    0  0.29778576858E+02 -0.14931808212E+01  0.16431977044E+03  0.20865816843E+03  0.12509296969E+03 0.  0.
         23    2    1    2    0    0 -0.29778576858E+02  0.14931808212E+01  0.23946739160E+03  0.25809332524E+03  0.91534363304E+02 0.  0.
          5    1    3    3  502    0  0.47102247925E+02 -0.54285620027E+02  0.10460528112E+03  0.12698538317E+03  0.41800000000E+01 0. -1.
         -5    1    3    3    0  502 -0.17323671067E+02  0.52792439206E+02  0.59714489325E+02  0.81672785259E+02  0.41800000000E+01 0. -1.
        -11    1    4    4    0    0  0.62943213538E+01 -0.22270396787E+02  0.11083068540E+02  0.25659763495E+02  0.00000000000E+00 0. -1.
         11    1    4    4    0    0 -0.36072898212E+02  0.23763577608E+02  0.22838432306E+03  0.23243356175E+03  0.00000000000E+00 0.  1.
</event>
<event>
 8    1  0.3708258E-009  0.3051240E+03  0.7561462E-02  0.1082707E+00
         -2   -1    0    0    0  501 -0.00000000000E+00  0.00000000000E+00  0.47026887135E+03  0.47026887135E+03  0.00000000000E+00 0. -1.
          2   -1    0    0  501    0  0.00000000000E+00 -0.00000000000E+00 -0.27430925159E+03  0.27430925159E+03  0.00000000000E+00 0.  1.
         25    2    1    2    0    0  0.67781266193E+02  0.29270548602E+03 -0.70369381665E+02  0.33297117580E+03  0.12508857839E+03 0.  0.
         23    2    1    2    0    0 -0.67781266193E+02 -0.29270548602E+03  0.26632900143E+03  0.41160694714E+03  0.90655062410E+02 0.  0.
          5    1    3    3  502    0  0.22892646154E+02  0.14904059453E+03 -0.97999270058E+02  0.17988468917E+03  0.41800000000E+01 0. -1.
         -5    1    3    3    0  502  0.44888620039E+02  0.14366489148E+03  0.27629888393E+02  0.15308648662E+03  0.41800000000E+01 0. -1.
        -11    1    4    4    0    0  0.87391562382E+01 -0.11521822538E+03  0.65254225499E+02  0.13270164376E+03  0.00000000000E+00 0.  1.
         11    1    4    4    0    0 -0.76520422431E+02 -0.17748726064E+03  0.20107477593E+03  0.27890530338E+03  0.00000000000E+00 0. -1.
</event>
<event>
 8    1  0.3708258E-009  0.1179819E+03  0.7561462E-02  0.1246464E+00
         -1   -1    0    0    0  501 -0.00000000000E+00  0.00000000000E+00  0.10436307803E+02  0.10436307803E+02  0.00000000000E+00 0.  1.
          1   -1    0    0  501    0  0.00000000000E+00 -0.00000000000E+00 -0.16073680080E+04  0.16073680080E+04  0.00000000000E+00 0. -1.
         25    2    1    2    0    0  0.37667060595E+02  0.34554317596E+02 -0.11891670955E+04  0.11968200750E+04  0.12508837842E+03 0.  0.
         23    2    1    2    0    0 -0.37667060595E+02 -0.34554317596E+02 -0.40776460467E+03  0.42098424084E+03  0.91339749843E+02 0.  0.
          5    1    3    3  502    0 -0.10593326729E+02  0.70820427534E+02 -0.76548800956E+03  0.76884141194E+03  0.41800000000E+01 0. -1.
         -5    1    3    3    0  502  0.48260387323E+02 -0.36266109938E+02 -0.42367908599E+03  0.42797866304E+03  0.41800000000E+01 0. -1.
        -11    1    4    4    0    0 -0.67602953364E+02 -0.27381988619E+02 -0.25936716880E+03  0.26942765422E+03  0.00000000000E+00 0.  1.
         11    1    4    4    0    0  0.29935892769E+02 -0.71723289770E+01 -0.14839743586E+03  0.15155658663E+03  0.00000000000E+00 0. -1.
</event>
<event>
 8    1  0.3708258E-009  0.2921020E+03  0.7561462E-02  0.1089257E+00
          2   -1    0    0  501    0  0.00000000000E+00  0.00000000000E+00  0.43451445939E+03  0.43451445939E+03  0.00000000000E+00 0.  1.
         -2   -1    0    0    0  501 -0.00000000000E+00 -0.00000000000E+00 -0.21061481867E+03  0.21061481867E+03  0.00000000000E+00 0. -1.
         25    2    1    2    0    0  0.97017837207E+02  0.26269190555E+03  0.78064522872E+02  0.31648241654E+03  0.12509017656E+03 0.  0.
         23    2    1    2    0    0 -0.97017837207E+02 -0.26269190555E+03  0.14583511785E+03  0.32864686151E+03  0.91221598329E+02 0.  0.
          5    1    3    3  502    0  0.51126276200E+02  0.23846790011E+02  0.42260810681E+02  0.70611713131E+02  0.41800000000E+01 0.  1.
         -5    1    3    3    0  502  0.45891561007E+02  0.23884511554E+03  0.35803712191E+02  0.24587070341E+03  0.41800000000E+01 0.  1.
        -11    1    4    4    0    0 -0.72506669135E+02 -0.12481681312E+03  0.11667579823E+03  0.18560629246E+03  0.00000000000E+00 0.  1.
         11    1    4    4    0    0 -0.24511168073E+02 -0.13787509243E+03  0.29159319614E+02  0.14304056905E+03  0.00000000000E+00 0. -1.
</event>
<event>
 8    1  0.3708258E-009  0.1204854E+03  0.7561462E-02  0.1242298E+00
          2   -1    0    0  501    0  0.00000000000E+00  0.00000000000E+00  0.20740416438E+03  0.20740416438E+03  0.00000000000E+00 0. -1.
         -2   -1    0    0    0  501 -0.00000000000E+00 -0.00000000000E+00 -0.11651781009E+03  0.11651781009E+03  0.00000000000E+00 0.  1.
         25    2    1    2    0    0 -0.73204536601E+02  0.50336035785E+02 -0.20677685252E+02  0.15481601479E+03  0.12509121108E+03 0.  0.
         23    2    1    2    0    0  0.73204536601E+02 -0.50336035785E+02  0.11156403955E+03  0.16910595968E+03  0.90871722793E+02 0.  0.
          5    1    3    3  502    0  0.20911199395E+02  0.49993826124E+02 -0.26418027361E+02  0.60432156012E+02  0.41800000000E+01 0.  1.
         -5    1    3    3    0  502 -0.94115735996E+02  0.34220966099E+00  0.57403421094E+01  0.94383858774E+02  0.41800000000E+01 0.  1.
        -11    1    4    4    0    0  0.58959819439E+02 -0.51270979018E+02  0.25981234288E+02  0.82340744063E+02  0.00000000000E+00 0.  1.
         11    1    4    4    0    0  0.14244717162E+02  0.93494323331E+00  0.85582805259E+02  0.86765215622E+02  0.00000000000E+00 0. -1.
</event>
<event>
 8    1  0.3708258E-009  0.1156660E+03  0.7561462E-02  0.1250423E+00
          2   -1    0    0  501    0  0.00000000000E+00  0.00000000000E+00  0.11040356926E+04  0.11040356926E+04  0.00000000000E+00 0.  1.
         -2   -1    0    0    0  501 -0.00000000000E+00 -0.00000000000E+00 -0.13564184261E+02  0.13564184261E+02  0.00000000000E+00 0. -1.
         25    2    1    2    0    0  0.30035000568E+01  0.44672541468E+02  0.77484218341E+03  0.78615169994E+03  0.12509767843E+03 0.  0.
         23    2    1    2    0    0 -0.30035000568E+01 -0.44672541468E+02  0.31562932491E+03  0.33144817691E+03  0.90726877261E+02 0.  0.
          5    1    3    3  502    0 -0.26985837825E+02 -0.36839904068E+02  0.25671200798E+03  0.26077565342E+03  0.41800000000E+01 0.  1.
         -5    1    3    3    0  502  0.29989337882E+02  0.81512445536E+02  0.51813017543E+03  0.52537604651E+03  0.41800000000E+01 0.  1.
        -11    1    4    4    0    0 -0.44851340133E+02 -0.30896038072E+02  0.21112410677E+03  0.21803576849E+03  0.00000000000E+00 0.  1.
         11    1    4    4    0    0  0.41847840077E+02 -0.13776503396E+02  0.10450521814E+03  0.11341240842E+03  0.00000000000E+00 0. -1.
</event>
<event>
 8    1  0.3708258E-009  0.7418726E+02  0.7561462E-02  0.1346406E+00
          2   -1    0    0  501    0  0.00000000000E+00  0.00000000000E+00  0.51705839413E+03  0.51705839413E+03  0.00000000000E+00 0. -1.
         -2   -1    0    0    0  501 -0.00000000000E+00 -0.00000000000E+00 -0.34142484352E+02  0.34142484352E+02  0.00000000000E+00 0.  1.
         25    2    1    2    0    0  0.26450112962E+02  0.58425545232E+02  0.32787183251E+03  0.35673664650E+03  0.12509174068E+03 0.  0.
         23    2    1    2    0    0 -0.26450112962E+02 -0.58425545232E+02  0.15504407727E+03  0.19446423199E+03  0.98308284573E+02 0.  0.
          5    1    3    3  502    0 -0.49133770267E+01  0.51216819862E+02  0.31892303102E+03  0.32307379347E+03  0.41800000000E+01 0.  1.
         -5    1    3    3    0  502  0.31363489989E+02  0.72087253703E+01  0.89488014891E+01  0.33662853026E+02  0.41800000000E+01 0.  1.
        -11    1    4    4    0    0 -0.69976108443E+01 -0.20788493627E+02 -0.99728990168E+01  0.24095367596E+02  0.00000000000E+00 0.  1.
         11    1    4    4    0    0 -0.19452502118E+02 -0.37637051606E+02  0.16501697629E+03  0.17036886439E+03  0.00000000000E+00 0. -1.
</event>
<event>
 8    1  0.3708258E-009  0.1123626E+03  0.7561462E-02  0.1256256E+00
         -1   -1    0    0    0  501 -0.00000000000E+00  0.00000000000E+00  0.33390822696E+02  0.33390822696E+02  0.00000000000E+00 0.  1.
          1   -1    0    0  501    0  0.00000000000E+00 -0.00000000000E+00 -0.44692638882E+03  0.44692638882E+03  0.00000000000E+00 0. -1.
         25    2    1    2    0    0  0.28485267338E+02  0.40764428107E+02 -0.17168135673E+03  0.21816137300E+03  0.12508695922E+03 0.  0.
         23    2    1    2    0    0 -0.28485267338E+02 -0.40764428107E+02 -0.24185420940E+03  0.26215583852E+03  0.88085617507E+02 0.  0.
          5    1    3    3  502    0 -0.32992313062E+02 -0.26202922026E+02 -0.69027919495E+02  0.80977848290E+02  0.41800000000E+01 0. -1.
         -5    1    3    3    0  502  0.61477580400E+02  0.66967350134E+02 -0.10265343723E+03  0.13718352471E+03  0.41800000000E+01 0. -1.
        -11    1    4    4    0    0  0.31098604237E+01 -0.56153543706E+02 -0.19867984876E+03  0.20648625622E+03  0.00000000000E+00 0. -1.
         11    1    4    4    0    0 -0.31595127762E+02  0.15389115599E+02 -0.43174360632E+02  0.55669582298E+02  0.00000000000E+00 0.  1.
</event>
<event>
 8    1  0.3708258E-009  0.9552670E+02  0.7561462E-02  0.1289994E+00
          2   -1    0    0  501    0  0.00000000000E+00  0.00000000000E+00  0.98471754311E+03  0.98471754311E+03  0.00000000000E+00 0. -1.
         -2   -1    0    0    0  501 -0.00000000000E+00 -0.00000000000E+00 -0.17782419091E+02  0.17782419091E+02  0.00000000000E+00 0.  1.
         25    2    1    2    0    0 -0.55320468561E+02  0.51942146951E+02  0.54147505388E+03  0.56089307928E+03  0.12508985383E+03 0.  0.
         23    2    1    2    0    0  0.55320468561E+02 -0.51942146951E+02  0.42546007013E+03  0.44160688292E+03  0.90785609511E+02 0.  0.
          5    1    3    3  502    0 -0.16220596066E+02  0.34167703249E+02  0.49863963839E+03  0.50008949304E+03  0.41800000000E+01 0.  1.
         -5    1    3    3    0  502 -0.39099872496E+02  0.17774443701E+02  0.42835415497E+02  0.60803586234E+02  0.41800000000E+01 0.  1.
        -11    1    4    4    0    0  0.47438995349E+01  0.20753440337E+02  0.32939102493E+02  0.39219820775E+02  0.00000000000E+00 0.  1.
         11    1    4    4    0    0  0.50576569027E+02 -0.72695587287E+02  0.39252096764E+03  0.40238706214E+03  0.00000000000E+00 0. -1.
</event>
<event>
 8    1  0.3708258E-009  0.1094126E+03  0.7561462E-02  0.1261662E+00
          2   -1    0    0  501    0  0.00000000000E+00  0.00000000000E+00  0.24212029892E+04  0.24212029892E+04  0.00000000000E+00 0. -1.
         -2   -1    0    0    0  501 -0.00000000000E+00 -0.00000000000E+00 -0.31879139790E+02  0.31879139790E+02  0.00000000000E+00 0.  1.
         25    2    1    2    0    0 -0.57485157011E+02 -0.64304147147E+02  0.22809161215E+04  0.22859713374E+04  0.12508811015E+03 0.  0.
         23    2    1    2    0    0  0.57485157011E+02  0.64304147147E+02  0.10840772789E+03  0.16711079161E+03  0.93457020007E+02 0.  0.
          5    1    3    3  502    0 -0.55916791929E+02 -0.17755890370E+02  0.20227136235E+04  0.20235685890E+04  0.41800000000E+01 0.  1.
         -5    1    3    3    0  502 -0.15683650819E+01 -0.46548256777E+02  0.25820249798E+03  0.26240274835E+03  0.41800000000E+01 0.  1.
        -11    1    4    4    0    0  0.35284925651E+02  0.79068871211E+02  0.43410025849E+02  0.96857331767E+02  0.00000000000E+00 0.  1.
         11    1    4    4    0    0  0.22200231360E+02 -0.14764724064E+02  0.64997702037E+02  0.70253459838E+02  0.00000000000E+00 0. -1.
</event>
<event>
 8    1  0.3708258E-009  0.1762046E+03  0.7561462E-02  0.1171528E+00
         -2   -1    0    0    0  501 -0.00000000000E+00  0.00000000000E+00  0.18349165150E+02  0.18349165150E+02  0.00000000000E+00 0. -1.
          2   -1    0    0  501    0  0.00000000000E+00 -0.00000000000E+00 -0.23498286953E+04  0.23498286953E+04  0.00000000000E+00 0.  1.
         25    2    1    2    0    0 -0.15333607291E+03  0.18989690043E+02 -0.16999801793E+04  0.17115645917E+04  0.12509269403E+03 0.  0.
         23    2    1    2    0    0  0.15333607291E+03 -0.18989690043E+02 -0.63149935089E+03  0.65661326875E+03  0.92070597599E+02 0.  0.
          5    1    3    3  502    0 -0.40727368958E+02 -0.29920050613E+02 -0.19180918938E+03  0.19839900590E+03  0.41800000000E+01 0. -1.
         -5    1    3    3    0  502 -0.11260870395E+03  0.48909740656E+02 -0.15081709899E+04  0.15131655858E+04  0.41800000000E+01 0. -1.
        -11    1    4    4    0    0  0.28060344229E+02 -0.42956830100E+02 -0.15130584805E+03  0.15976899519E+03  0.00000000000E+00 0.  1.
         11    1    4    4    0    0  0.12527572868E+03  0.23967140057E+02 -0.48019350284E+03  0.49684427356E+03  0.00000000000E+00 0. -1.
</event>
<event>
 8    1  0.3708258E-009  0.1085218E+03  0.7561462E-02  0.1263332E+00
         -1   -1    0    0    0  501 -0.00000000000E+00  0.00000000000E+00  0.36647414259E+02  0.36647414259E+02  0.00000000000E+00 0.  1.
          1   -1    0    0  501    0  0.00000000000E+00 -0.00000000000E+00 -0.49343525224E+03  0.49343525224E+03  0.00000000000E+00 0. -1.
         25    2    1    2    0    0  0.27636738336E+01 -0.73346691551E+02 -0.31204465804E+03  0.34409690961E+03  0.12507373638E+03 0.  0.
         23    2    1    2    0    0 -0.27636738336E+01  0.73346691551E+02 -0.14474317994E+03  0.18598575689E+03  0.90844584725E+02 0.  0.
          5    1    3    3  502    0  0.36326429944E+01  0.16136978742E+02 -0.19960322632E+03  0.20033102240E+03  0.41800000000E+01 0.  1.
         -5    1    3    3    0  502 -0.86896916079E+00 -0.89483670293E+02 -0.11244143172E+03  0.14376588720E+03  0.41800000000E+01 0.  1.
        -11    1    4    4    0    0 -0.42513527775E+02  0.33639021025E+02 -0.40874296628E+02  0.67894711902E+02  0.00000000000E+00 0.  1.
         11    1    4    4    0    0  0.39749853941E+02  0.39707670525E+02 -0.10386888331E+03  0.11809104499E+03  0.00000000000E+00 0. -1.
</event>
<event>
 8    1  0.3708258E-009  0.9986170E+02  0.7561462E-02  0.1280587E+00
         -2   -1    0    0    0  501 -0.00000000000E+00  0.00000000000E+00  0.42620129012E+02  0.42620129012E+02  0.00000000000E+00 0.  1.
          2   -1    0    0  501    0  0.00000000000E+00 -0.00000000000E+00 -0.32835536137E+03  0.32835536137E+03  0.00000000000E+00 0. -1.
         25    2    1    2    0    0 -0.49591675894E+02 -0.17151019456E+02 -0.13059724825E+03  0.18829903134E+03  0.12508953660E+03 0.  0.
         23    2    1    2    0    0  0.49591675894E+02  0.17151019456E+02 -0.15513798411E+03  0.18267645904E+03  0.80928380615E+02 0.  0.
          5    1    3    3  502    0 -0.50000936053E+02  0.42307547539E+02 -0.10411357895E+03  0.12307368486E+03  0.41800000000E+01 0. -1.
         -5    1    3    3    0  502  0.40926015819E+00 -0.59458566995E+02 -0.26483669301E+02  0.65225346473E+02  0.41800000000E+01 0. -1.
        -11    1    4    4    0    0  0.25131870570E+02 -0.18530532934E+02 -0.12519355975E+02  0.33641133204E+02  0.00000000000E+00 0.  1.
         11    1    4    4    0    0  0.24459805324E+02  0.35681552390E+02 -0.14261862813E+03  0.14903532584E+03  0.00000000000E+00 0. -1.
</event>
<event>
 8    1  0.3708258E-009  0.1514189E+03  0.7561462E-02  0.1198740E+00
         -1   -1    0    0    0  501 -0.00000000000E+00  0.00000000000E+00  0.23383555799E+03  0.23383555799E+03  0.00000000000E+00 0.  1.
          1   -1    0    0  501    0  0.00000000000E+00 -0.00000000000E+00 -0.11817285062E+03  0.11817285062E+03  0.00000000000E+00 0. -1.
         25    2    1    2    0    0  0.71374927487E+00 -0.11692159419E+03  0.13111792527E+02  0.17172920243E+03  0.12509129162E+03 0.  0.
         23    2    1    2    0    0 -0.71374927487E+00  0.11692159419E+03  0.10255091485E+03  0.18027920617E+03  0.91174192706E+02 0.  0.
          5    1    3    3  502    0  0.14774191541E+02 -0.13811053336E+03 -0.68520227738E+01  0.13913022237E+03  0.41800000000E+01 0. -1.
         -5    1    3    3    0  502 -0.14060442267E+02  0.21188939168E+02  0.19963815301E+02  0.32598980063E+02  0.41800000000E+01 0. -1.
        -11    1    4    4    0    0  0.21466558964E+02  0.11368056833E+03  0.55824253244E+02  0.12845400741E+03  0.00000000000E+00 0. -1.
         11    1    4    4    0    0 -0.22180308239E+02  0.32410258652E+01  0.46726661606E+02  0.51825198765E+02  0.00000000000E+00 0.  1.
</event>
<event>
 8    1  0.3708258E-009  0.1634341E+03  0.7561462E-02  0.1184873E+00
          1   -1    0    0  501    0  0.00000000000E+00  0.00000000000E+00  0.63767217988E+03  0.63767217988E+03  0.00000000000E+00 0. -1.
         -1   -1    0    0    0  501 -0.00000000000E+00 -0.00000000000E+00 -0.47447471202E+02  0.47447471202E+02  0.00000000000E+00 0.  1.
         25    2    1    2    0    0 -0.32994641546E+02  0.12160583495E+03  0.21358745102E+03  0.27774885644E+03  0.12509277580E+03 0.  0.
         23    2    1    2    0    0  0.32994641546E+02 -0.12160583495E+03  0.37663725766E+03  0.40737079464E+03  0.90657128813E+02 0.  0.
          5    1    3    3  502    0  0.44773913418E+02  0.43750390814E+02  0.10960695529E+03  0.12629313943E+03  0.41800000000E+01 0.  1.
         -5    1    3    3    0  502 -0.77768554964E+02  0.77855444139E+02  0.10398049573E+03  0.15145571701E+03  0.41800000000E+01 0.  1.
        -11    1    4    4    0    0  0.50793748541E+02 -0.26580344478E+02  0.16561447015E+03  0.17525601938E+03  0.00000000000E+00 0. -1.
         11    1    4    4    0    0 -0.17799106995E+02 -0.95025490475E+02  0.21102278751E+03  0.23211477526E+03  0.00000000000E+00 0.  1.
</event>
<event>
 8    1  0.3708258E-009  0.9777719E+02  0.7561462E-02  0.1285041E+00
         -1   -1    0    0    0  501 -0.00000000000E+00  0.00000000000E+00  0.10204092721E+02  0.10204092721E+02  0.00000000000E+00 0.  1.
          1   -1    0    0  501    0  0.00000000000E+00 -0.00000000000E+00 -0.16278138284E+04  0.16278138284E+04  0.00000000000E+00 0. -1.
         25    2    1    2    0    0  0.44724301124E+01 -0.32474231830E+01 -0.13191062962E+04  0.13250357179E+04  0.12509070578E+03 0.  0.
         23    2    1    2    0    0 -0.44724301124E+01  0.32474231830E+01 -0.29850343948E+03  0.31298220321E+03  0.93930866906E+02 0.  0.
          5    1    3    3  502    0  0.11793999225E+02  0.48438893006E+02 -0.26825242662E+03  0.27287774105E+03  0.41800000000E+01 0. -1.
         -5    1    3    3    0  502 -0.73215691127E+01 -0.51686316190E+02 -0.10508538695E+04  0.10521579768E+04  0.41800000000E+01 0. -1.
        -11    1    4    4    0    0 -0.84479851163E+01  0.47742260823E+02 -0.17725327140E+03  0.18376456172E+03  0.00000000000E+00 0.  1.
         11    1    4    4    0    0  0.39755550039E+01 -0.44494837640E+02 -0.12125016808E+03  0.12921764149E+03  0.00000000000E+00 0. -1.
</event>
<event>
 8    1  0.3708258E-009  0.1792615E+03  0.7561462E-02  0.1168520E+00
         -4   -1    0    0    0  501 -0.00000000000E+00  0.00000000000E+00  0.28434110246E+02  0.28434110246E+02  0.00000000000E+00 0.  1.
          4   -1    0    0  501    0  0.00000000000E+00 -0.00000000000E+00 -0.11930871635E+04  0.11930871635E+04  0.00000000000E+00 0. -1.
         25    2    1    2    0    0 -0.10133551507E+02 -0.14513796717E+03 -0.51936594029E+03  0.55367509902E+03  0.12508963569E+03 0.  0.
         23    2    1    2    0    0  0.10133551507E+02  0.14513796717E+03 -0.64528711293E+03  0.66784617470E+03  0.91952904052E+02 0.  0.
          5    1    3    3  502    0  0.57093806624E+02 -0.61920619378E+02 -0.24847971639E+03  0.26239951927E+03  0.41800000000E+01 0. -1.
         -5    1    3    3    0  502 -0.67227358131E+02 -0.83217347788E+02 -0.27088622391E+03  0.29127557975E+03  0.41800000000E+01 0. -1.
        -11    1    4    4    0    0 -0.35285486144E+02  0.45068124057E+02 -0.30271586978E+03  0.30807969611E+03  0.00000000000E+00 0. -1.
         11    1    4    4    0    0  0.45419037652E+02  0.10006984311E+03 -0.34257124315E+03  0.35976647859E+03  0.00000000000E+00 0.  1.
</event>
<event>
 8    1  0.3708258E-009  0.8973861E+02  0.7561462E-02  0.1303486E+00
          2   -1    0    0  501    0  0.00000000000E+00  0.00000000000E+00  0.62724349497E+02  0.62724349497E+02  0.00000000000E+00 0. -1.
         -2   -1    0    0    0  501 -0.00000000000E+00 -0.00000000000E+00 -0.23558967870E+03  0.23558967870E+03  0.00000000000E+00 0.  1.
         25    2    1    2    0    0 -0.50543663832E+02  0.11278495760E+02 -0.12102168520E+03  0.18159121133E+03  0.12508898161E+03 0.  0.
         23    2    1    2    0    0  0.50543663832E+02 -0.11278495760E+02 -0.51843643997E+02  0.11672281687E+03  0.90854752957E+02 0.  0.
          5    1    3    3  502    0 -0.78875483514E+02 -0.23264437634E+02 -0.46391172424E+02  0.94510259955E+02  0.41800000000E+01 0. -1.
         -5    1    3    3    0  502  0.28331819682E+02  0.34542933394E+02 -0.74630512780E+02  0.87080951371E+02  0.41800000000E+01 0. -1.
        -11    1    4    4    0    0  0.20068718145E+02 -0.96222293329E+00  0.25786365124E+02  0.32689691759E+02  0.00000000000E+00 0. -1.
         11    1    4    4    0    0  0.30474945687E+02 -0.10316272827E+02 -0.77630009122E+02  0.84033125111E+02  0.00000000000E+00 0.  1.
</event>
<event>
 8    1  0.3708258E-009  0.1279751E+03  0.7561462E-02  0.1230492E+00
         -2   -1    0    0    0  501 -0.00000000000E+00  0.00000000000E+00  0.33307014863E+03  0.33307014863E+03  0.00000000000E+00 0.  1.
          2   -1    0    0  501    0  0.00000000000E+00 -0.00000000000E+00 -0.63655618437E+02  0.63655618437E+02  0.00000000000E+00 0. -1.
         25    2    1    2    0    0 -0.56719708086E+02 -0.60657357954E+02  0.78855166716E+02  0.16959309882E+03  0.12508893432E+03 0.  0.
         23    2    1    2    0    0  0.56719708086E+02  0.60657357954E+02  0.19055936348E+03  0.22713266825E+03  0.91541999206E+02 0.  0.
          5    1    3    3  502    0  0.19044057472E+02 -0.52890946956E+02 -0.45693534575E+01  0.56555103977E+02  0.41800000000E+01 0.  1.
         -5    1    3    3    0  502 -0.75763765558E+02 -0.77664109982E+01  0.83424520174E+02  0.11303799484E+03  0.41800000000E+01 0.  1.
        -11    1    4    4    0    0  0.81798361699E+02  0.41357656708E+02  0.13460007181E+03  0.16284534711E+03  0.00000000000E+00 0.  1.
         11    1    4    4    0    0 -0.25078653613E+02  0.19299701246E+02  0.55959291670E+02  0.64287321141E+02  0.00000000000E+00 0. -1.
</event>
<event>
 8    1  0.3708258E-009  0.1057706E+03  0.7561462E-02  0.1268609E+00
         -2   -1    0    0    0  501 -0.00000000000E+00  0.00000000000E+00  0.14025150227E+02  0.14025150227E+02  0.00000000000E+00 0.  1.
          2   -1    0    0  501    0  0.00000000000E+00 -0.00000000000E+00 -0.10313465198E+04  0.10313465198E+04  0.00000000000E+00 0. -1.
         25    2    1    2    0    0  0.91760576543E+01 -0.36444623200E+02 -0.59469855527E+03  0.60887401844E+03  0.12509511619E+03 0.  0.
         23    2    1    2    0    0 -0.91760576543E+01  0.36444623200E+02 -0.42262281433E+03  0.43649765161E+03  0.10250729769E+03 0.  0.
          5    1    3    3  502    0 -0.86351493934E+01  0.36607334402E+02 -0.36916396266E+03  0.37109859399E+03  0.41800000000E+01 0. -1.
         -5    1    3    3    0  502  0.17811207048E+02 -0.73051957602E+02 -0.22553459262E+03  0.23777542445E+03  0.41800000000E+01 0. -1.
        -11    1    4    4    0    0  0.22901531003E+02 -0.21977073872E+02 -0.60789084086E+02  0.68576852088E+02  0.00000000000E+00 0.  1.
         11    1    4    4    0    0 -0.32077588657E+02  0.58421697072E+02 -0.36183373024E+03  0.36792079953E+03  0.00000000000E+00 0. -1.
</event>
<event>
 8    1  0.3708258E-009  0.1475866E+03  0.7561462E-02  0.1203470E+00
         -1   -1    0    0    0  501 -0.00000000000E+00  0.00000000000E+00  0.41465676796E+02  0.41465676796E+02  0.00000000000E+00 0.  1.
          1   -1    0    0  501    0  0.00000000000E+00 -0.00000000000E+00 -0.71489851132E+03  0.71489851132E+03  0.00000000000E+00 0. -1.
         25    2    1    2    0    0  0.69266696441E+02 -0.11230666167E+03 -0.39855654614E+03  0.43806922137E+03  0.12508661297E+03 0.  0.
         23    2    1    2    0    0 -0.69266696441E+02  0.11230666167E+03 -0.27487628839E+03  0.31829496676E+03  0.91345774143E+02 0.  0.
          5    1    3    3  502    0  0.76531193474E+02 -0.54861913675E+02 -0.34974206094E+03  0.36222069894E+03  0.41800000000E+01 0.  1.
         -5    1    3    3    0  502 -0.72644970331E+01 -0.57444747993E+02 -0.48814485199E+02  0.75848522427E+02  0.41800000000E+01 0.  1.
        -11    1    4    4    0    0 -0.15770260309E+02 -0.27220004995E+01 -0.50069663134E+00  0.16011280212E+02  0.00000000000E+00 0.  1.
         11    1    4    4    0    0 -0.53496436132E+02  0.11502866217E+03 -0.27437559176E+03  0.30228368654E+03  0.00000000000E+00 0. -1.
</event>
<event>
 8    1  0.3708258E-009  0.1715295E+03  0.7561462E-02  0.1176262E+00
         -1   -1    0    0    0  501 -0.00000000000E+00  0.00000000000E+00  0.12847194689E+03  0.12847194689E+03  0.00000000000E+00 0.  1.
          1   -1    0    0  501    0  0.00000000000E+00 -0.00000000000E+00 -0.25894445668E+03  0.25894445668E+03  0.00000000000E+00 0. -1.
         25    2    1    2    0    0  0.14310306656E+03  0.18854049295E+02 -0.10072280018E+03  0.21593462401E+03  0.12509483017E+03 0.  0.
         23    2    1    2    0    0 -0.14310306656E+03 -0.18854049295E+02 -0.29749709613E+02  0.17148177956E+03  0.87675496386E+02 0.  0.
          5    1    3    3  502    0 -0.11853705799E+02 -0.20764438428E+02  0.41593040265E+01  0.24626092958E+02  0.41800000000E+01 0.  1.
         -5    1    3    3    0  502  0.15495677236E+03  0.39618487723E+02 -0.10488210421E+03  0.19130853105E+03  0.41800000000E+01 0.  1.
        -11    1    4    4    0    0 -0.13273988888E+03  0.49464770650E+01 -0.46329879253E+02  0.14067979047E+03  0.00000000000E+00 0. -1.
         11    1    4    4    0    0 -0.10363177677E+02 -0.23800526360E+02  0.16580169641E+02  0.30801989090E+02  0.00000000000E+00 0.  1.
</event>
<event>
 8    1  0.3708258E-009  0.9487653E+02  0.7561462E-02  0.1291454E+00
         -2   -1    0    0    0  501 -0.00000000000E+00  0.00000000000E+00  0.53611753853E+02  0.53611753853E+02  0.00000000000E+00 0. -1.
          2   -1    0    0  501    0  0.00000000000E+00 -0.00000000000E+00 -0.40145945535E+03  0.40145945535E+03  0.00000000000E+00 0.  1.
         25    2    1    2    0    0 -0.12804713729E+02 -0.92364130693E+02 -0.24009293948E+03  0.28633743913E+03  0.12509762638E+03 0.  0.
         23    2    1    2    0    0  0.12804713729E+02  0.92364130693E+02 -0.10775476202E+03  0.16873377008E+03  0.90359853336E+02 0.  0.
          5    1    3    3  502    0 -0.26460276275E+01 -0.48955281637E+02 -0.78616140706E+01  0.49828690913E+02  0.41800000000E+01 0.  1.
         -5    1    3    3    0  502 -0.10158686102E+02 -0.43408849056E+02 -0.23223132541E+03  0.23650874821E+03  0.41800000000E+01 0.  1.
        -11    1    4    4    0    0  0.16521506349E+02  0.40032102777E+02 -0.10790327016E+03  0.11626970859E+03  0.00000000000E+00 0.  1.
         11    1    4    4    0    0 -0.37167926197E+01  0.52332027916E+02  0.14850814011E+00  0.52464061488E+02  0.00000000000E+00 0. -1.
</event>
<event>
 8    1  0.3708258E-009  0.1220462E+03  0.7561462E-02  0.1239759E+00
          3   -1    0    0  501    0  0.00000000000E+00  0.00000000000E+00  0.14113931009E+03  0.14113931009E+03  0.00000000000E+00 0.  1.
         -3   -1    0    0    0  501 -0.00000000000E+00 -0.00000000000E+00 -0.15038719210E+03  0.15038719210E+03  0.00000000000E+00 0. -1.
         25    2    1    2    0    0 -0.93162741277E+02  0.22120707515E+02 -0.25000662442E+02  0.15950003901E+03  0.12508639918E+03 0.  0.
         23    2    1    2    0    0  0.93162741277E+02 -0.22120707515E+02  0.15752780437E+02  0.13202646318E+03  0.89522147113E+02 0.  0.
          5    1    3    3  502    0 -0.95713756598E+02  0.57765053881E+01  0.31076518473E+02  0.10088465501E+03  0.41800000000E+01 0.  1.
         -5    1    3    3    0  502  0.25510153203E+01  0.16344202127E+02 -0.56077180915E+02  0.58615384003E+02  0.41800000000E+01 0.  1.
        -11    1    4    4    0    0  0.11372290814E+02  0.31339525641E+02  0.52805034222E+01  0.33754682373E+02  0.00000000000E+00 0. -1.
         11    1    4    4    0    0  0.81790450464E+02 -0.53460233156E+02  0.10472277015E+02  0.98271780802E+02  0.00000000000E+00 0.  1.
</event>
<event>
 8    1  0.3708258E-009  0.1082456E+03  0.7561462E-02  0.1263854E+00
         -2   -1    0    0    0  501 -0.00000000000E+00  0.00000000000E+00  0.16849301146E+03  0.16849301146E+03  0.00000000000E+00 0.  1.
          2   -1    0    0  501    0  0.00000000000E+00 -0.00000000000E+00 -0.12887340119E+03  0.12887340119E+03  0.00000000000E+00 0. -1.
         25    2    1    2    0    0  0.35557075284E+02 -0.64356046245E+02  0.91309666645E+02  0.17143818858E+03  0.12509033132E+03 0.  0.
         23    2    1    2    0    0 -0.35557075284E+02  0.64356046245E+02 -0.51690056375E+02  0.12592822408E+03  0.88204588321E+02 0.  0.
          5    1    3    3  502    0 -0.44468521880E+02 -0.18456690088E+02  0.52236648857E+02  0.71163464861E+02  0.41800000000E+01 0. -1.
         -5    1    3    3    0  502  0.80025597165E+02 -0.45899356157E+02  0.39073017788E+02  0.10027472372E+03  0.41800000000E+01 0. -1.
        -11    1    4    4    0    0 -0.17920324325E+02  0.14892095187E+02 -0.67237951219E+02  0.71160765926E+02  0.00000000000E+00 0. -1.
         11    1    4    4    0    0 -0.17636750959E+02  0.49463951058E+02  0.15547894844E+02  0.54767458154E+02  0.00000000000E+00 0.  1.
</event>
<event>
 8    1  0.3708258E-009  0.2028015E+03  0.7561462E-02  0.1147397E+00
         -1   -1    0    0    0  501 -0.00000000000E+00  0.00000000000E+00  0.49402060730E+02  0.49402060730E+02  0.00000000000E+00 0.  1.
          1   -1    0    0  501    0  0.00000000000E+00 -0.00000000000E+00 -0.85851845832E+03  0.85851845832E+03  0.00000000000E+00 0. -1.
         25    2    1    2    0    0 -0.58342296728E+02  0.16425559032E+03 -0.45137706315E+03  0.49977258875E+03  0.12509062632E+03 0.  0.
         23    2    1    2    0    0  0.58342296728E+02 -0.16425559032E+03 -0.35773933444E+03  0.40814793030E+03  0.90683951513E+02 0.  0.
          5    1    3    3  502    0 -0.62332897954E+02  0.18236541791E+03 -0.42958940221E+03  0.47085779457E+03  0.41800000000E+01 0.  1.
         -5    1    3    3    0  502  0.39906012256E+01 -0.18109827589E+02 -0.21787660934E+02  0.28914794180E+02  0.41800000000E+01 0.  1.
        -11    1    4    4    0    0 -0.90462021539E+01 -0.10098166569E+03 -0.15345338708E+03  0.18392137610E+03  0.00000000000E+00 0.  1.
         11    1    4    4    0    0  0.67388498882E+02 -0.63273924624E+02 -0.20428594736E+03  0.22422655420E+03  0.00000000000E+00 0. -1.
</event>
<event>
 8    1  0.3708258E-009  0.9587712E+02  0.7561462E-02  0.1289213E+00
          3   -1    0    0  501    0  0.00000000000E+00  0.00000000000E+00  0.19452126777E+03  0.19452126777E+03  0.00000000000E+00 0. -1.
         -3   -1    0    0    0  501 -0.00000000000E+00 -0.00000000000E+00 -0.11078890979E+03  0.11078890979E+03  0.00000000000E+00 0.  1.
         25    2    1    2    0    0 -0.47048299507E+02  0.58134096273E+02 -0.20198358894E+02  0.14713022203E+03  0.12508482280E+03 0.  0.
         23    2    1    2    0    0  0.47048299507E+02 -0.58134096273E+02  0.10393071688E+03  0.15817995553E+03  0.92877278090E+02 0.  0.
          5    1    3    3  502    0 -0.34395306790E+02  0.29551746819E+02  0.51533925669E+02  0.68771802100E+02  0.41800000000E+01 0.  1.
         -5    1    3    3    0  502 -0.12652992717E+02  0.28582349454E+02 -0.71732284562E+02  0.78358419927E+02  0.41800000000E+01 0.  1.
        -11    1    4    4    0    0  0.70220632002E+02 -0.25611143202E+02  0.45823561634E+02  0.87673636948E+02  0.00000000000E+00 0. -1.
         11    1    4    4    0    0 -0.23172332495E+02 -0.32522953071E+02  0.58107155245E+02  0.70506318585E+02  0.00000000000E+00 0.  1.
</event>
<event>
 8    1  0.3708258E-009  0.1055734E+03  0.7561462E-02  0.1268994E+00
         -2   -1    0    0    0  501 -0.00000000000E+00  0.00000000000E+00  0.24741279068E+03  0.24741279068E+03  0.00000000000E+00 0.  1.
          2   -1    0    0  501    0  0.00000000000E+00 -0.00000000000E+00 -0.82917173767E+02  0.82917173767E+02  0.00000000000E+00 0. -1.
         25    2    1    2    0    0 -0.89780263696E+02 -0.30501781721E+02  0.86067686812E+02  0.17901408455E+03  0.12509013277E+03 0.  0.
         23    2    1    2    0    0  0.89780263696E+02  0.30501781721E+02  0.78427930101E+02  0.15131587990E+03  0.88060779306E+02 0.  0.
          5    1    3    3  502    0 -0.55625066763E+02 -0.37703964722E+02 -0.17563453666E+02  0.69582212618E+02  0.41800000000E+01 0. -1.
         -5    1    3    3    0  502 -0.34155196934E+02  0.72021830009E+01  0.10363114048E+03  0.10943187193E+03  0.41800000000E+01 0. -1.
        -11    1    4    4    0    0  0.45963663460E+02 -0.12120267841E+02  0.76613204511E+02  0.90161756619E+02  0.00000000000E+00 0.  1.
         11    1    4    4    0    0  0.43816600236E+02  0.42622049562E+02  0.18147255903E+01  0.61154123279E+02  0.00000000000E+00 0. -1.
</event>
<event>
 8    1  0.3708258E-009  0.9735213E+02  0.7561462E-02  0.1285965E+00
          2   -1    0    0  501    0  0.00000000000E+00  0.00000000000E+00  0.10716172064E+02  0.10716172064E+02  0.00000000000E+00 0. -1.
         -2   -1    0    0    0  501 -0.00000000000E+00 -0.00000000000E+00 -0.14766944690E+04  0.14766944690E+04  0.00000000000E+00 0.  1.
         25    2    1    2    0    0  0.14898943676E+02 -0.21800849608E+02 -0.11599675494E+04  0.11669914747E+04  0.12508849250E+03 0.  0.
         23    2    1    2    0    0 -0.14898943676E+02  0.21800849608E+02 -0.30601074763E+03  0.32041916639E+03  0.91261212784E+02 0.  0.
          5    1    3    3  502    0 -0.42159029395E+02 -0.13212764048E+02 -0.87953190811E+03  0.88065078816E+03  0.41800000000E+01 0.  1.
         -5    1    3    3    0  502  0.57057973071E+02 -0.85880855602E+01 -0.28043564124E+03  0.28634068656E+03  0.41800000000E+01 0.  1.
        -11    1    4    4    0    0  0.23902415661E+02  0.42303312860E+02 -0.19706429865E+03  0.20296608967E+03  0.00000000000E+00 0.  1.
         11    1    4    4    0    0 -0.38801359336E+02 -0.20502463252E+02 -0.10894644898E+03  0.11745307672E+03  0.00000000000E+00 0. -1.
</event>
<event>
 8    1  0.3708258E-009  0.1260362E+03  0.7561462E-02  0.1233459E+00
         -2   -1    0    0    0  501 -0.00000000000E+00  0.00000000000E+00  0.31370681416E+03  0.31370681416E+03  0.00000000000E+00 0.  1.
          2   -1    0    0  501    0  0.00000000000E+00 -0.00000000000E+00 -0.62713094588E+02  0.62713094588E+02  0.00000000000E+00 0. -1.
         25    2    1    2    0    0  0.74199586612E+02  0.22684218397E+02  0.82563778780E+02  0.16877364639E+03  0.12509042223E+03 0.  0.
         23    2    1    2    0    0 -0.74199586612E+02 -0.22684218397E+02  0.16842994079E+03  0.20764626236E+03  0.93424691047E+02 0.  0.
          5    1    3    3  502    0 -0.26838267618E+02  0.70500984784E+00 -0.10951423292E+02  0.29294977722E+02  0.41800000000E+01 0.  1.
         -5    1    3    3    0  502  0.10103785423E+03  0.21979208549E+02  0.93515202071E+02  0.13947866867E+03  0.41800000000E+01 0.  1.
        -11    1    4    4    0    0 -0.86968243912E+02  0.88280907782E+01  0.11929662725E+03  0.14789555744E+03  0.00000000000E+00 0.  1.
         11    1    4    4    0    0  0.12768657300E+02 -0.31512309175E+02  0.49133313543E+02  0.59750704920E+02  0.00000000000E+00 0. -1.
</event>
<event>
 8    1  0.3708258E-009  0.8524099E+02  0.7561462E-02  0.1314804E+00
          3   -1    0    0  501    0  0.00000000000E+00  0.00000000000E+00  0.10316735934E+03  0.10316735934E+03  0.00000000000E+00 0. -1.
         -3   -1    0    0    0  501 -0.00000000000E+00 -0.00000000000E+00 -0.20845762361E+03  0.20845762361E+03  0.00000000000E+00 0.  1.
         25    2    1    2    0    0  0.17486355752E+02  0.10442462022E+02 -0.15673620434E+03  0.20156568924E+03  0.12509065385E+03 0.  0.
         23    2    1    2    0    0 -0.17486355752E+02 -0.10442462022E+02  0.51445940068E+02  0.11005929370E+03  0.95139611781E+02 0.  0.
          5    1    3    3  502    0 -0.48376024473E+01  0.54083396665E+02 -0.23091271778E+02  0.59153152280E+02  0.41800000000E+01 0. -1.
         -5    1    3    3    0  502  0.22323958199E+02 -0.43640934644E+02 -0.13364493256E+03  0.14241253696E+03  0.41800000000E+01 0. -1.
        -11    1    4    4    0    0  0.19251305179E+02  0.13014017614E+02 -0.17084392995E+02  0.28841877359E+02  0.00000000000E+00 0.  1.
         11    1    4    4    0    0 -0.36737660931E+02 -0.23456479636E+02  0.68530333063E+02  0.81217416342E+02  0.00000000000E+00 0. -1.
</event>
<event>
 8    1  0.3708258E-009  0.2569443E+03  0.7561462E-02  0.1108993E+00
          2   -1    0    0  501    0  0.00000000000E+00  0.00000000000E+00  0.12562055868E+04  0.12562055868E+04  0.00000000000E+00 0. -1.
         -2   -1    0    0    0  501 -0.00000000000E+00 -0.00000000000E+00 -0.57246225581E+02  0.57246225581E+02  0.00000000000E+00 0.  1.
         25    2    1    2    0    0 -0.22144553146E+02 -0.24026635206E+03  0.50870282909E+03  0.57675337148E+03  0.12509029550E+03 0.  0.
         23    2    1    2    0    0  0.22144553146E+02  0.24026635206E+03  0.69025653213E+03  0.73669844089E+03  0.89734115602E+02 0.  0.
          5    1    3    3  502    0  0.41264747988E+02 -0.31619043098E+02  0.12401982915E+03  0.13453971062E+03  0.41800000000E+01 0. -1.
         -5    1    3    3    0  502 -0.63409301134E+02 -0.20864730896E+03  0.38468299994E+03  0.44221366086E+03  0.41800000000E+01 0. -1.
        -11    1    4    4    0    0  0.10326310047E+02  0.21941066822E+03  0.67072951147E+03  0.70578024312E+03  0.00000000000E+00 0.  1.
         11    1    4    4    0    0  0.11818243099E+02  0.20855683836E+02  0.19527020653E+02  0.30918197777E+02  0.00000000000E+00 0. -1.
</event>
<event>
 8    1  0.3708258E-009  0.1086330E+03  0.7561462E-02  0.1263122E+00
          1   -1    0    0  501    0  0.00000000000E+00  0.00000000000E+00  0.71210962258E+02  0.71210962258E+02  0.00000000000E+00 0. -1.
         -1   -1    0    0    0  501 -0.00000000000E+00 -0.00000000000E+00 -0.19318077026E+03  0.19318077026E+03  0.00000000000E+00 0.  1.
         25    2    1    2    0    0 -0.20811894446E+02  0.10018777957E+01 -0.11379880003E+03  0.17038799675E+03  0.12509102221E+03 0.  0.
         23    2    1    2    0    0  0.20811894446E+02 -0.10018777957E+01 -0.81710079654E+01  0.94003735767E+02  0.91300592865E+02 0.  0.
          5    1    3    3  502    0 -0.53186265352E+02 -0.45124232482E+02 -0.55892417821E+02  0.89478544630E+02  0.41800000000E+01 0.  1.
         -5    1    3    3    0  502  0.32374370907E+02  0.46126110278E+02 -0.57906382213E+02  0.80909452118E+02  0.41800000000E+01 0.  1.
        -11    1    4    4    0    0 -0.32571652341E+02 -0.14753027266E+02 -0.14356794949E+02  0.38531570316E+02  0.00000000000E+00 0.  1.
         11    1    4    4    0    0  0.53383546787E+02  0.13751149471E+02  0.61857869840E+01  0.55472165452E+02  0.00000000000E+00 0. -1.
</event>
<event>
 8    1  0.3708258E-009  0.1842937E+03  0.7561462E-02  0.1163711E+00
         -1   -1    0    0    0  501 -0.00000000000E+00  0.00000000000E+00  0.25635626586E+03  0.25635626586E+03  0.00000000000E+00 0.  1.
          1   -1    0    0  501    0  0.00000000000E+00 -0.00000000000E+00 -0.14948475564E+03  0.14948475564E+03  0.00000000000E+00 0. -1.
         25    2    1    2    0    0  0.10272466173E+03 -0.11660018465E+03  0.91823814585E+01  0.19969633591E+03  0.12508537588E+03 0.  0.
         23    2    1    2    0    0 -0.10272466173E+03  0.11660018465E+03  0.97689128759E+02  0.20614468560E+03  0.93832330969E+02 0.  0.
          5    1    3    3  502    0 -0.21683919321E+02 -0.22325849238E+02 -0.24652761809E+02  0.39923263470E+02  0.41800000000E+01 0. -1.
         -5    1    3    3    0  502  0.12440858105E+03 -0.94274335409E+02  0.33835143267E+02  0.15977307244E+03  0.41800000000E+01 0. -1.
        -11    1    4    4    0    0 -0.12681312076E+01  0.68923897384E+02  0.29892738301E+02  0.75137790695E+02  0.00000000000E+00 0.  1.
         11    1    4    4    0    0 -0.10145653052E+03  0.47676287262E+02  0.67796390458E+02  0.13100689490E+03  0.00000000000E+00 0. -1.
</event>
<event>
 8    1  0.3708258E-009  0.2098426E+03  0.7561462E-02  0.1141691E+00
          2   -1    0    0  501    0  0.00000000000E+00  0.00000000000E+00  0.18127896257E+04  0.18127896257E+04  0.00000000000E+00 0. -1.
         -2   -1    0    0    0  501 -0.00000000000E+00 -0.00000000000E+00 -0.34958741144E+02  0.34958741144E+02  0.00000000000E+00 0.  1.
         25    2    1    2    0    0  0.50997367498E+02 -0.19302423863E+03  0.51824975351E+03  0.56929029146E+03  0.12509812447E+03 0.  0.
         23    2    1    2    0    0 -0.50997367498E+02  0.19302423863E+03  0.12595811311E+04  0.12784580754E+04  0.89729240707E+02 0.  0.
          5    1    3    3  502    0  0.21171812048E+02 -0.11804728224E+03  0.44268488460E+03  0.45866195169E+03  0.41800000000E+01 0.  1.
         -5    1    3    3    0  502  0.29825555450E+02 -0.74976956392E+02  0.75564868903E+02  0.11062833977E+03  0.41800000000E+01 0.  1.
        -11    1    4    4    0    0 -0.37820000680E+02  0.15505980455E+02  0.23763920953E+03  0.24112897334E+03  0.00000000000E+00 0. -1.
         11    1    4    4    0    0 -0.13177366817E+02  0.17751825817E+03  0.10219419215E+04  0.10373291021E+04  0.00000000000E+00 0.  1.
</event>
<event>
 8    1  0.3708258E-009  0.7445075E+02  0.7561462E-02  0.1345580E+00
         -1   -1    0    0    0  501 -0.00000000000E+00  0.00000000000E+00  0.61724643915E+02  0.61724643915E+02  0.00000000000E+00 0.  1.
          1   -1    0    0  501    0  0.00000000000E+00 -0.00000000000E+00 -0.22015906403E+03  0.22015906403E+03  0.00000000000E+00 0. -1.
         25    2    1    2    0    0  0.28619951779E+02  0.16826107302E+02 -0.54886395535E+02  0.14057766649E+03  0.12508934557E+03 0.  0.
         23    2    1    2    0    0 -0.28619951779E+02 -0.16826107302E+02 -0.10354802458E+03  0.14130604145E+03  0.90238486413E+02 0.  0.
          5    1    3    3  502    0  0.38720594100E+02 -0.20116099437E+02 -0.82333354140E+02  0.93274838343E+02  0.41800000000E+01 0.  1.
         -5    1    3    3    0  502 -0.10100642321E+02  0.36942206739E+02  0.27446958605E+02  0.47302828147E+02  0.41800000000E+01 0.  1.
        -11    1    4    4    0    0  0.36737017014E+01 -0.31041413162E+02  0.68233344278E+00  0.31265492067E+02  0.00000000000E+00 0.  1.
         11    1    4    4    0    0 -0.32293653480E+02  0.14215305859E+02 -0.10423035802E+03  0.11004054939E+03  0.00000000000E+00 0. -1.
</event>
<event>
 8    1  0.3708258E-009  0.9664195E+02  0.7561462E-02  0.1287520E+00
          1   -1    0    0  501    0  0.00000000000E+00  0.00000000000E+00  0.41121135276E+03  0.41121135276E+03  0.00000000000E+00 0. -1.
         -1   -1    0    0    0  501 -0.00000000000E+00 -0.00000000000E+00 -0.35739868192E+02  0.35739868192E+02  0.00000000000E+00 0.  1.
         25    2    1    2    0    0  0.24004360881E+02  0.38414652907E+01  0.29783933224E+03  0.32395400573E+03  0.12508782436E+03 0.  0.
         23    2    1    2    0    0 -0.24004360881E+02 -0.38414652907E+01  0.77632152336E+02  0.12299721523E+03  0.92252900662E+02 0.  0.
          5    1    3    3  502    0 -0.42707552309E+02  0.22014648601E+02  0.64420747629E+02  0.80474125669E+02  0.41800000000E+01 0.  1.
         -5    1    3    3    0  502  0.66711913190E+02 -0.18173183310E+02  0.23341858461E+03  0.24347988006E+03  0.41800000000E+01 0.  1.
        -11    1    4    4    0    0 -0.49379131454E+02 -0.81512829813E+01  0.10550534639E+02  0.51147393077E+02  0.00000000000E+00 0.  1.
         11    1    4    4    0    0  0.25374770573E+02  0.43098176906E+01  0.67081617697E+02  0.71849822150E+02  0.00000000000E+00 0. -1.
</event>
<event>
 8    1  0.3708258E-009  0.1162689E+03  0.7561462E-02  0.1249382E+00
         -2   -1    0    0    0  501 -0.00000000000E+00  0.00000000000E+00  0.13320067835E+02  0.13320067835E+02  0.00000000000E+00 0. -1.
          2   -1    0    0  501    0  0.00000000000E+00 -0.00000000000E+00 -0.13567499928E+04  0.13567499928E+04  0.00000000000E+00 0.  1.
         25    2    1    2    0    0 -0.58923756808E+02 -0.48589037566E+02 -0.79842394151E+03  0.81176533830E+03  0.12509704393E+03 0.  0.
         23    2    1    2    0    0  0.58923756808E+02  0.48589037566E+02 -0.54500598342E+03  0.55830472230E+03  0.94019877112E+02 0.  0.
          5    1    3    3  502    0 -0.26803051446E+02 -0.69651321671E+02 -0.22602844655E+03  0.23806730399E+03  0.41800000000E+01 0. -1.
         -5    1    3    3    0  502 -0.32120705362E+02  0.21062284106E+02 -0.57239549496E+03  0.57369803432E+03  0.41800000000E+01 0. -1.
        -11    1    4    4    0    0  0.64189781992E+02 -0.58537942947E+01 -0.34417273329E+03  0.35015634417E+03  0.00000000000E+00 0.  1.
         11    1    4    4    0    0 -0.52660251840E+01  0.54442831860E+02 -0.20083325013E+03  0.20814837813E+03  0.00000000000E+00 0. -1.
</event>
<event>
 8    1  0.3708258E-009  0.1028775E+03  0.7561462E-02  0.1274359E+00
          2   -1    0    0  501    0  0.00000000000E+00  0.00000000000E+00  0.22475961002E+03  0.22475961002E+03  0.00000000000E+00 0. -1.
         -2   -1    0    0    0  501 -0.00000000000E+00 -0.00000000000E+00 -0.10578942553E+03  0.10578942553E+03  0.00000000000E+00 0.  1.
         25    2    1    2    0    0 -0.53110515437E+01 -0.10050444464E+03  0.19862336199E+02  0.16177632456E+03  0.12509083151E+03 0.  0.
         23    2    1    2    0    0  0.53110515437E+01  0.10050444464E+03  0.99107848285E+02  0.16877271099E+03  0.92371595863E+02 0.  0.
          5    1    3    3  502    0 -0.13624759322E+02 -0.61056190783E+02 -0.50546360607E+02  0.80535082232E+02  0.41800000000E+01 0. -1.
         -5    1    3    3    0  502  0.83137077779E+01 -0.39448253855E+02  0.70408696807E+02  0.81241242330E+02  0.41800000000E+01 0. -1.
        -11    1    4    4    0    0  0.12771393586E+02  0.60674432934E+02  0.32887232106E+00  0.62004866446E+02  0.00000000000E+00 0.  1.
         11    1    4    4    0    0 -0.74603420427E+01  0.39830011703E+02  0.98778975964E+02  0.10676784454E+03  0.00000000000E+00 0. -1.
</event>
<event>
 8    1  0.3708258E-009  0.1264388E+03  0.7561462E-02  0.1232838E+00
         -2   -1    0    0    0  501 -0.00000000000E+00  0.00000000000E+00  0.12393167850E+02  0.12393167850E+02  0.00000000000E+00 0.  1.
          2   -1    0    0  501    0  0.00000000000E+00 -0.00000000000E+00 -0.17812248107E+04  0.17812248107E+04  0.00000000000E+00 0. -1.
         25    2    1    2    0    0 -0.75803584537E+02 -0.27961208651E+02 -0.13359458715E+04  0.13442185680E+04  0.12507667397E+03 0.  0.
         23    2    1    2    0    0  0.75803584537E+02  0.27961208651E+02 -0.43288577134E+03  0.44939941054E+03  0.89675674201E+02 0.  0.
          5    1    3    3  502    0 -0.66543336416E+01 -0.59189677922E+02 -0.87647300269E+03  0.87850446497E+03  0.41800000000E+01 0. -1.
         -5    1    3    3    0  502 -0.69149250896E+02  0.31228469270E+02 -0.45947286882E+03  0.46571410304E+03  0.41800000000E+01 0. -1.
        -11    1    4    4    0    0  0.16010513841E+02  0.50731326113E+02 -0.14397589217E+03  0.15348961374E+03  0.00000000000E+00 0.  1.
         11    1    4    4    0    0  0.59793070696E+02 -0.22770117461E+02 -0.28890987918E+03  0.29590979680E+03  0.00000000000E+00 0. -1.
</event>
<event>
 8    1  0.3708258E-009  0.1468262E+03  0.7561462E-02  0.1204428E+00
         -1   -1    0    0    0  501 -0.00000000000E+00  0.00000000000E+00  0.13683533064E+03  0.13683533064E+03  0.00000000000E+00 0.  1.
          1   -1    0    0  501    0  0.00000000000E+00 -0.00000000000E+00 -0.19178953299E+03  0.19178953299E+03  0.00000000000E+00 0. -1.
         25    2    1    2    0    0  0.50481392566E+02 -0.10708561547E+03 -0.11875972063E+02  0.17263676929E+03  0.12508683129E+03 0.  0.
         23    2    1    2    0    0 -0.50481392566E+02  0.10708561547E+03 -0.43078230285E+02  0.15598809434E+03  0.91982887623E+02 0.  0.
          5    1    3    3  502    0  0.12008479341E+02  0.28137576202E+02  0.38168006400E+01  0.31112170251E+02  0.41800000000E+01 0.  1.
         -5    1    3    3    0  502  0.38472913225E+02 -0.13522319168E+03 -0.15692772703E+02  0.14152459904E+03  0.41800000000E+01 0.  1.
        -11    1    4    4    0    0 -0.25900288850E+02  0.23410902258E+02 -0.57817449643E+02  0.67540749109E+02  0.00000000000E+00 0. -1.
         11    1    4    4    0    0 -0.24581103716E+02  0.83674713217E+02  0.14739219357E+02  0.88447345235E+02  0.00000000000E+00 0.  1.
</event>
<event>
 8    1  0.3708258E-009  0.1312072E+03  0.7561462E-02  0.1225675E+00
         -2   -1    0    0    0  501 -0.00000000000E+00  0.00000000000E+00  0.52604534834E+02  0.52604534834E+02  0.00000000000E+00 0.  1.
          2   -1    0    0  501    0  0.00000000000E+00 -0.00000000000E+00 -0.37199072314E+03  0.37199072314E+03  0.00000000000E+00 0. -1.
         25    2    1    2    0    0  0.60502495762E+02  0.49419091757E+02 -0.23767815018E+03  0.27971669086E+03  0.12509086876E+03 0.  0.
         23    2    1    2    0    0 -0.60502495762E+02 -0.49419091757E+02 -0.81708038126E+02  0.14487856712E+03  0.90613448736E+02 0.  0.
          5    1    3    3  502    0  0.14873807711E+02  0.86461675303E+02 -0.12840038418E+03  0.15556664974E+03  0.41800000000E+01 0. -1.
         -5    1    3    3    0  502  0.45628688051E+02 -0.37042583546E+02 -0.10927776600E+03  0.12415004113E+03  0.41800000000E+01 0. -1.
        -11    1    4    4    0    0 -0.44549915814E+02  0.16752405999E+02 -0.15847722834E+02  0.50164613273E+02  0.00000000000E+00 0.  1.
         11    1    4    4    0    0 -0.15952579948E+02 -0.66171497757E+02 -0.65860315292E+02  0.94713953844E+02  0.00000000000E+00 0. -1.
</event>
<event>
 8    1  0.3708258E-009  0.1105469E+03  0.7561462E-02  0.1259561E+00
         -4   -1    0    0    0  501 -0.00000000000E+00  0.00000000000E+00  0.23365035784E+03  0.23365035784E+03  0.00000000000E+00 0.  1.
          4   -1    0    0  501    0  0.00000000000E+00 -0.00000000000E+00 -0.66586949484E+02  0.66586949484E+02  0.00000000000E+00 0. -1.
         25    2    1    2    0    0  0.79572043433E+01 -0.59385563395E+02  0.10343616975E+03  0.17301993196E+03  0.12508754296E+03 0.  0.
         23    2    1    2    0    0 -0.79572043433E+01  0.59385563395E+02  0.63627238605E+02  0.12721737536E+03  0.92443890338E+02 0.  0.
          5    1    3    3  502    0 -0.46761007015E+02 -0.25534459017E+02  0.28200884318E+01  0.53516592503E+02  0.41800000000E+01 0. -1.
         -5    1    3    3    0  502  0.54718211358E+02 -0.33851104378E+02  0.10061608132E+03  0.11950333946E+03  0.41800000000E+01 0. -1.
        -11    1    4    4    0    0  0.50184566644E+01 -0.21079483641E+02 -0.30907908373E+01  0.21887953899E+02  0.00000000000E+00 0. -1.
         11    1    4    4    0    0 -0.12975661008E+02  0.80465047037E+02  0.66718029442E+02  0.10532942146E+03  0.00000000000E+00 0.  1.
</event>
<event>
 8    1  0.3708258E-009  0.8356953E+02  0.7561462E-02  0.1319216E+00
          4   -1    0    0  501    0  0.00000000000E+00  0.00000000000E+00  0.11774733983E+03  0.11774733983E+03  0.00000000000E+00 0. -1.
         -4   -1    0    0    0  501 -0.00000000000E+00 -0.00000000000E+00 -0.14492707445E+03  0.14492707445E+03  0.00000000000E+00 0.  1.
         25    2    1    2    0    0 -0.30884848100E+02  0.89186503720E+01 -0.83588467194E+02  0.15384620445E+03  0.12509279200E+03 0.  0.
         23    2    1    2    0    0  0.30884848100E+02 -0.89186503720E+01  0.56408732575E+02  0.10882820983E+03  0.87339670126E+02 0.  0.
          5    1    3    3  502    0 -0.60862797422E+02  0.33785899238E+02 -0.90309193739E+02  0.11410078865E+03  0.41800000000E+01 0.  1.
         -5    1    3    3    0  502  0.29977949322E+02 -0.24867248866E+02  0.67207265444E+01  0.39745415799E+02  0.41800000000E+01 0.  1.
        -11    1    4    4    0    0 -0.13038754120E+02  0.13880005193E+01 -0.17723250605E+02  0.22046525042E+02  0.00000000000E+00 0.  1.
         11    1    4    4    0    0  0.43923602220E+02 -0.10306650891E+02  0.74131983180E+02  0.86781684789E+02  0.00000000000E+00 0. -1.
</event>
<event>
 8    1  0.3708258E-009  0.1232575E+03  0.7561462E-02  0.1237818E+00
         -2   -1    0    0    0  501 -0.00000000000E+00  0.00000000000E+00  0.20254903720E+03  0.20254903720E+03  0.00000000000E+00 0.  1.
          2   -1    0    0  501    0  0.00000000000E+00 -0.00000000000E+00 -0.84294070498E+02  0.84294070498E+02  0.00000000000E+00 0. -1.
         25    2    1    2    0    0  0.13306082721E+02  0.66960421121E+02  0.41434525672E+02  0.14840912162E+03  0.12509075756E+03 0.  0.
         23    2    1    2    0    0 -0.13306082721E+02 -0.66960421121E+02  0.76820441025E+02  0.13843398607E+03  0.92746096991E+02 0.  0.
          5    1    3    3  502    0  0.43804519550E+02 -0.15786069228E+02  0.37676872292E+02  0.60042110392E+02  0.41800000000E+01 0.  1.
         -5    1    3    3    0  502 -0.30498436829E+02  0.82746490349E+02  0.37576533800E+01  0.88367011226E+02  0.41800000000E+01 0.  1.
        -11    1    4    4    0    0 -0.54803583383E+01 -0.88444132225E+02  0.45377467269E+02  0.99556583853E+02  0.00000000000E+00 0. -1.
         11    1    4    4    0    0 -0.78257243830E+01  0.21483711104E+02  0.31442973756E+02  0.38877402222E+02  0.00000000000E+00 0.  1.
</event>
<event>
 8    1  0.3708258E-009  0.9537075E+02  0.7561462E-02  0.1290343E+00
          2   -1    0    0  501    0  0.00000000000E+00  0.00000000000E+00  0.43352919167E+03  0.43352919167E+03  0.00000000000E+00 0. -1.
         -2   -1    0    0    0  501 -0.00000000000E+00 -0.00000000000E+00 -0.28807730253E+02  0.28807730253E+02  0.00000000000E+00 0.  1.
         25    2    1    2    0    0  0.15470484643E+02 -0.43169937357E+01  0.28839803514E+03  0.31476841063E+03  0.12509098019E+03 0.  0.
         23    2    1    2    0    0 -0.15470484643E+02  0.43169937357E+01  0.11632342627E+03  0.14756851129E+03  0.89371996147E+02 0.  0.
          5    1    3    3  502    0 -0.35257590877E+02 -0.40396866741E+02  0.19624849179E+03  0.20348451412E+03  0.41800000000E+01 0.  1.
         -5    1    3    3    0  502  0.50728075520E+02  0.36079873005E+02  0.92149543346E+02  0.11128389650E+03  0.41800000000E+01 0.  1.
        -11    1    4    4    0    0  0.18496436376E+02  0.27717306151E+02  0.12050978719E+02  0.35434352074E+02  0.00000000000E+00 0.  1.
         11    1    4    4    0    0 -0.33966921019E+02 -0.23400312415E+02  0.10427244755E+03  0.11213415922E+03  0.00000000000E+00 0. -1.
</event>
<event>
 8    1  0.3708258E-009  0.2381002E+03  0.7561462E-02  0.1121065E+00
          4   -1    0    0  501    0  0.00000000000E+00  0.00000000000E+00  0.29589353137E+03  0.29589353137E+03  0.00000000000E+00 0. -1.
         -4   -1    0    0    0  501 -0.00000000000E+00 -0.00000000000E+00 -0.26525828311E+03  0.26525828311E+03  0.00000000000E+00 0.  1.
         25    2    1    2    0    0  0.18506765505E+03 -0.13428108544E+03  0.13597954457E+03  0.29397086943E+03  0.12508792380E+03 0.  0.
         23    2    1    2    0    0 -0.18506765505E+03  0.13428108544E+03 -0.10534429631E+03  0.26718094504E+03  0.89480667057E+02 0.  0.
          5    1    3    3  502    0  0.86428609126E+02 -0.10485926329E+03  0.13406427502E+03  0.19093473180E+03  0.41800000000E+01 0.  1.
         -5    1    3    3    0  502  0.98639045928E+02 -0.29421822146E+02  0.19152695492E+01  0.10303613763E+03  0.41800000000E+01 0.  1.
        -11    1    4    4    0    0 -0.87730830040E+02  0.25721585426E+02 -0.78033468061E+01  0.91756148119E+02  0.00000000000E+00 0.  1.
         11    1    4    4    0    0 -0.97336825014E+02  0.10855950001E+03 -0.97540949504E+02  0.17542479693E+03  0.00000000000E+00 0. -1.
</event>
<event>
 8    1  0.3708258E-009  0.1627924E+03  0.7561462E-02  0.1185580E+00
         -1   -1    0    0    0  501 -0.00000000000E+00  0.00000000000E+00  0.37314466953E+02  0.37314466953E+02  0.00000000000E+00 0.  1.
          1   -1    0    0  501    0  0.00000000000E+00 -0.00000000000E+00 -0.10075969420E+04  0.10075969420E+04  0.00000000000E+00 0. -1.
         25    2    1    2    0    0 -0.97968359675E+02  0.10477777206E+03 -0.31479560624E+03  0.36786490733E+03  0.12510849421E+03 0.  0.
         23    2    1    2    0    0  0.97968359675E+02 -0.10477777206E+03 -0.65548686882E+03  0.67704650163E+03  0.90292575326E+02 0.  0.
          5    1    3    3  502    0 -0.41147471708E+02 -0.16874506517E+02 -0.14282044319E+03  0.14964295771E+03  0.41800000000E+01 0. -1.
         -5    1    3    3    0  502 -0.56820887967E+02  0.12165227858E+03 -0.17197516305E+03  0.21822194963E+03  0.41800000000E+01 0. -1.
        -11    1    4    4    0    0  0.36174864922E+02 -0.18988946115E+02 -0.62235590442E+02  0.74447764536E+02  0.00000000000E+00 0.  1.
         11    1    4    4    0    0  0.61793494752E+02 -0.85788825949E+02 -0.59325127837E+03  0.60259873709E+03  0.00000000000E+00 0. -1.
</event>
<event>
 8    1  0.3708258E-009  0.1833588E+03  0.7561462E-02  0.1164591E+00
         -4   -1    0    0    0  501 -0.00000000000E+00  0.00000000000E+00  0.25009235223E+03  0.25009235223E+03  0.00000000000E+00 0.  1.
          4   -1    0    0  501    0  0.00000000000E+00 -0.00000000000E+00 -0.17795500752E+03  0.17795500752E+03  0.00000000000E+00 0. -1.
         25    2    1    2    0    0  0.11750244540E+03  0.12285405136E+03  0.93176196836E+02  0.23071347245E+03  0.12508780957E+03 0.  0.
         23    2    1    2    0    0 -0.11750244540E+03 -0.12285405136E+03 -0.21038852126E+02  0.19733388730E+03  0.97969827840E+02 0.  0.
          5    1    3    3  502    0  0.73738092164E+02  0.67698262499E+02 -0.15271642170E+02  0.10134622063E+03  0.41800000000E+01 0.  1.
         -5    1    3    3    0  502  0.43764353234E+02  0.55155788863E+02  0.10844783901E+03  0.12936725182E+03  0.41800000000E+01 0.  1.
        -11    1    4    4    0    0 -0.61317415766E+02 -0.45747346457E+00 -0.23196949013E+01  0.61362983489E+02  0.00000000000E+00 0. -1.
         11    1    4    4    0    0 -0.56185029633E+02 -0.12239657790E+03 -0.18719157224E+02  0.13597090381E+03  0.00000000000E+00 0.  1.
</event>
<event>
 8    1  0.3708258E-009  0.2395121E+03  0.7561462E-02  0.1120118E+00
          3   -1    0    0  501    0  0.00000000000E+00  0.00000000000E+00  0.16959683783E+04  0.16959683783E+04  0.00000000000E+00 0. -1.
         -3   -1    0    0    0  501 -0.00000000000E+00 -0.00000000000E+00 -0.93712115532E+02  0.93712115532E+02  0.00000000000E+00 0.  1.
         25    2    1    2    0    0  0.19548266849E+03 -0.13643624126E+03  0.14877519978E+04  0.15119139513E+04  0.12509783204E+03 0.  0.
         23    2    1    2    0    0 -0.19548266849E+03  0.13643624126E+03  0.11450426491E+03  0.27776654247E+03  0.84939412673E+02 0.  0.
          5    1    3    3  502    0  0.40648326724E+02 -0.27925273858E+02  0.10262872840E+03  0.11393961417E+03  0.41800000000E+01 0. -1.
         -5    1    3    3    0  502  0.15483434176E+03 -0.10851096740E+03  0.13851232694E+04  0.13979743371E+04  0.41800000000E+01 0. -1.
        -11    1    4    4    0    0 -0.35298127191E+02  0.11042187214E+02 -0.11188367987E+02  0.38640228517E+02  0.00000000000E+00 0.  1.
         11    1    4    4    0    0 -0.16018454130E+03  0.12539405404E+03  0.12569263290E+03  0.23912631395E+03  0.00000000000E+00 0. -1.
</event>
<event>
 8    1  0.3708258E-009  0.9685422E+02  0.7561462E-02  0.1287054E+00
         -1   -1    0    0    0  501 -0.00000000000E+00  0.00000000000E+00  0.20175681535E+02  0.20175681535E+02  0.00000000000E+00 0.  1.
          1   -1    0    0  501    0  0.00000000000E+00 -0.00000000000E+00 -0.68101018763E+03  0.68101018763E+03  0.00000000000E+00 0. -1.
         25    2    1    2    0    0  0.14177518267E+02  0.20658112907E+02 -0.27316077265E+03  0.30148592147E+03  0.12509673647E+03 0.  0.
         23    2    1    2    0    0 -0.14177518267E+02 -0.20658112907E+02 -0.38767373344E+03  0.39969994769E+03  0.94028532543E+02 0.  0.
          5    1    3    3  502    0 -0.56320793420E-01  0.57019066287E+02 -0.24877450568E+03  0.25525948399E+03  0.41800000000E+01 0. -1.
         -5    1    3    3    0  502  0.14233839061E+02 -0.36360953380E+02 -0.24386266974E+02  0.46226437479E+02  0.41800000000E+01 0. -1.
        -11    1    4    4    0    0 -0.53726478015E+02 -0.21081082539E+02 -0.22410710330E+03  0.23141940331E+03  0.00000000000E+00 0.  1.
         11    1    4    4    0    0  0.39548959748E+02  0.42296963176E+00 -0.16356663014E+03  0.16828054438E+03  0.00000000000E+00 0. -1.
</event>
<event>
 8    1  0.3708258E-009  0.3271352E+03  0.7561462E-02  0.1072412E+00
          2   -1    0    0  501    0  0.00000000000E+00  0.00000000000E+00  0.35256455525E+03  0.35256455525E+03  0.00000000000E+00 0.  1.
         -2   -1    0    0    0  501 -0.00000000000E+00 -0.00000000000E+00 -0.32090277786E+03  0.32090277786E+03  0.00000000000E+00 0. -1.
         25    2    1    2    0    0 -0.22163375996E+03  0.21716934641E+03  0.91049198802E+02  0.34672903395E+03  0.12508804021E+03 0.  0.
         23    2    1    2    0    0  0.22163375996E+03 -0.21716934641E+03 -0.59387421414E+02  0.32673829916E+03  0.83348675694E+02 0.  0.
          5    1    3    3  502    0 -0.19877808485E+03  0.11486769949E+03  0.64826360641E+02  0.23859431015E+03  0.41800000000E+01 0. -1.
         -5    1    3    3    0  502 -0.22855675108E+02  0.10230164693E+03  0.26222838161E+02  0.10813472380E+03  0.41800000000E+01 0. -1.
        -11    1    4    4    0    0  0.24009480964E+02 -0.68083120601E+02 -0.13024948258E+00  0.72192682814E+02  0.00000000000E+00 0.  1.
         11    1    4    4    0    0  0.19762427900E+03 -0.14908622581E+03 -0.59257171932E+02  0.25454561635E+03  0.00000000000E+00 0. -1.
</event>
<event>
 8    1  0.3708258E-009  0.1209726E+03  0.7561462E-02  0.1241501E+00
          1   -1    0    0  501    0  0.00000000000E+00  0.00000000000E+00  0.15199717698E+03  0.15199717698E+03  0.00000000000E+00 0. -1.
         -1   -1    0    0    0  501 -0.00000000000E+00 -0.00000000000E+00 -0.13743936140E+03  0.13743936140E+03  0.00000000000E+00 0.  1.
         25    2    1    2    0    0 -0.88504898636E+02 -0.17925478006E+02 -0.23630283299E+02  0.15607975102E+03  0.12509220018E+03 0.  0.
         23    2    1    2    0    0  0.88504898636E+02  0.17925478006E+02  0.38188098878E+02  0.13335678735E+03  0.90395033011E+02 0.  0.
          5    1    3    3  502    0 -0.71388344066E+02  0.41439840529E+02 -0.40298160468E+02  0.91950911843E+02  0.41800000000E+01 0.  1.
         -5    1    3    3    0  502 -0.17116554570E+02 -0.59365318535E+02  0.16667877168E+02  0.64128839179E+02  0.41800000000E+01 0.  1.
        -11    1    4    4    0    0  0.29961233376E+02  0.24169477535E+02 -0.25848627049E+02  0.46367991870E+02  0.00000000000E+00 0.  1.
         11    1    4    4    0    0  0.58543665260E+02 -0.62439995292E+01  0.64036725928E+02  0.86988795484E+02  0.00000000000E+00 0. -1.
</event>
<event>
 8    1  0.3708258E-009  0.9259563E+02  0.7561462E-02  0.1296685E+00
          1   -1    0    0  501    0  0.00000000000E+00  0.00000000000E+00  0.12649857160E+04  0.12649857160E+04  0.00000000000E+00 0. -1.
         -1   -1    0    0    0  501 -0.00000000000E+00 -0.00000000000E+00 -0.11817386677E+02  0.11817386677E+02  0.00000000000E+00 0.  1.
         25    2    1    2    0    0  0.19958717058E+02 -0.43182160028E+02  0.87564171322E+03  0.88580969122E+03  0.12508936723E+03 0.  0.
         23    2    1    2    0    0 -0.19958717058E+02  0.43182160028E+02  0.37752661610E+03  0.39099341146E+03  0.89924705208E+02 0.  0.
          5    1    3    3  502    0 -0.39177475310E+02 -0.81430622526E+01  0.11087610090E+03  0.11794984605E+03  0.41800000000E+01 0.  1.
         -5    1    3    3    0  502  0.59136192368E+02 -0.35039097775E+02  0.76476561232E+03  0.76785984516E+03  0.41800000000E+01 0.  1.
        -11    1    4    4    0    0 -0.23059170195E+02  0.57233980135E+02  0.36929702455E+03  0.37441654097E+03  0.00000000000E+00 0. -1.
         11    1    4    4    0    0  0.31004531365E+01 -0.14051820107E+02  0.82295915507E+01  0.16576870484E+02  0.00000000000E+00 0.  1.
</event>
<event>
 8    1  0.3708258E-009  0.1137193E+03  0.7561462E-02  0.1253833E+00
         -1   -1    0    0    0  501 -0.00000000000E+00  0.00000000000E+00  0.48146807586E+02  0.48146807586E+02  0.00000000000E+00 0.  1.
          1   -1    0    0  501    0  0.00000000000E+00 -0.00000000000E+00 -0.59923793024E+03  0.59923793024E+03  0.00000000000E+00 0. -1.
         25    2    1    2    0    0  0.66856488931E+02  0.10825559019E+02 -0.50590080764E+03  0.52551901617E+03  0.12509047262E+03 0.  0.
         23    2    1    2    0    0 -0.66856488931E+02 -0.10825559019E+02 -0.45190315013E+02  0.12186572166E+03  0.90675833079E+02 0.  0.
          5    1    3    3  502    0  0.71519780859E+01  0.46887101406E+02 -0.73946088812E+02  0.87949118923E+02  0.41800000000E+01 0.  1.
         -5    1    3    3    0  502  0.59704510845E+02 -0.36061542387E+02 -0.43195471883E+03  0.43756989725E+03  0.41800000000E+01 0.  1.
        -11    1    4    4    0    0 -0.56486981839E+02 -0.46270970304E+02 -0.15901611690E+02  0.74730469452E+02  0.00000000000E+00 0.  1.
         11    1    4    4    0    0 -0.10369507092E+02  0.35445411284E+02 -0.29288703323E+02  0.47135252209E+02  0.00000000000E+00 0. -1.
</event>
<event>
 8    1  0.3708258E-009  0.1142717E+03  0.7561462E-02  0.1252858E+00
         -2   -1    0    0    0  501 -0.00000000000E+00  0.00000000000E+00  0.51371279903E+02  0.51371279903E+02  0.00000000000E+00 0.  1.
          2   -1    0    0  501    0  0.00000000000E+00 -0.00000000000E+00 -0.38100648125E+03  0.38100648125E+03  0.00000000000E+00 0. -1.
         25    2    1    2    0    0 -0.80533472576E+02 -0.67831210401E+01 -0.23324687279E+03  0.27673757366E+03  0.12509168665E+03 0.  0.
         23    2    1    2    0    0  0.80533472576E+02  0.67831210401E+01 -0.96388328555E+02  0.15564018750E+03  0.91659735689E+02 0.  0.
          5    1    3    3  502    0 -0.45689638105E+02  0.57262501763E+02 -0.14224662303E+03  0.16005658781E+03  0.41800000000E+01 0. -1.
         -5    1    3    3    0  502 -0.34843834470E+02 -0.64045622803E+02 -0.91000249765E+02  0.11668098585E+03  0.41800000000E+01 0. -1.
        -11    1    4    4    0    0  0.62962354418E+02  0.11362544480E+02 -0.69254370242E+01  0.64353144204E+02  0.00000000000E+00 0.  1.
         11    1    4    4    0    0  0.17571118158E+02 -0.45794234402E+01 -0.89462891531E+02  0.91287043295E+02  0.00000000000E+00 0. -1.
</event>
<event>
 8    1  0.3708258E-009  0.8610073E+02  0.7561462E-02  0.1312579E+00
         -2   -1    0    0    0  501 -0.00000000000E+00  0.00000000000E+00  0.65768219134E+02  0.65768219134E+02  0.00000000000E+00 0.  1.
          2   -1    0    0  501    0  0.00000000000E+00 -0.00000000000E+00 -0.20021911811E+03  0.20021911811E+03  0.00000000000E+00 0. -1.
         25    2    1    2    0    0 -0.12320947119E+02 -0.26774611126E+02 -0.51853646302E+02  0.13858295995E+03  0.12509096936E+03 0.  0.
         23    2    1    2    0    0  0.12320947119E+02  0.26774611126E+02 -0.82597252671E+02  0.12740437729E+03  0.92416901401E+02 0.  0.
          5    1    3    3  502    0  0.48327255933E+00  0.42856909906E+02  0.10302650237E+02  0.44278270980E+02  0.41800000000E+01 0. -1.
         -5    1    3    3    0  502 -0.12804219678E+02 -0.69631521032E+02 -0.62156296539E+02  0.94304688973E+02  0.41800000000E+01 0. -1.
        -11    1    4    4    0    0  0.16201423467E+02 -0.11422041106E+02 -0.86565892730E+02  0.88806547785E+02  0.00000000000E+00 0. -1.
         11    1    4    4    0    0 -0.38804763483E+01  0.38196652232E+02  0.39686400590E+01  0.38597829503E+02  0.00000000000E+00 0.  1.
</event>
<event>
 8    1  0.3708258E-009  0.2112081E+03  0.7561462E-02  0.1140613E+00
          1   -1    0    0  501    0  0.00000000000E+00  0.00000000000E+00  0.45571517900E+02  0.45571517900E+02  0.00000000000E+00 0. -1.
         -1   -1    0    0    0  501 -0.00000000000E+00 -0.00000000000E+00 -0.10027370786E+04  0.10027370786E+04  0.00000000000E+00 0.  1.
         25    2    1    2    0    0  0.85569880527E+02 -0.16376039052E+03 -0.56435621020E+03  0.60686473144E+03  0.12508876977E+03 0.  0.
         23    2    1    2    0    0 -0.85569880527E+02  0.16376039052E+03 -0.39280935052E+03  0.44144386508E+03  0.80211160073E+02 0.  0.
          5    1    3    3  502    0  0.80922768650E+01 -0.14215248218E+03 -0.37084127322E+03  0.39725751781E+03  0.41800000000E+01 0. -1.
         -5    1    3    3    0  502  0.77477603662E+02 -0.21607908336E+02 -0.19351493698E+03  0.20960721363E+03  0.41800000000E+01 0. -1.
        -11    1    4    4    0    0 -0.33411693831E+02  0.13659273067E+03 -0.30373061008E+03  0.33470315036E+03  0.00000000000E+00 0.  1.
         11    1    4    4    0    0 -0.52158186695E+02  0.27167659850E+02 -0.89078740437E+02  0.10674071472E+03  0.00000000000E+00 0. -1.
</event>
<event>
 8    1  0.3708258E-009  0.1775370E+03  0.7561462E-02  0.1170208E+00
          2   -1    0    0  501    0  0.00000000000E+00  0.00000000000E+00  0.15861245738E+04  0.15861245738E+04  0.00000000000E+00 0.  1.
         -2   -1    0    0    0  501 -0.00000000000E+00 -0.00000000000E+00 -0.29313788678E+02  0.29313788678E+02  0.00000000000E+00 0. -1.
         25    2    1    2    0    0 -0.73625706078E+02 -0.13566860889E+03  0.11923099201E+04  0.12087510504E+04  0.12509772365E+03 0.  0.
         23    2    1    2    0    0  0.73625706078E+02  0.13566860889E+03  0.36450086512E+03  0.40668731208E+03  0.93311162787E+02 0.  0.
          5    1    3    3  502    0 -0.27991735846E+02  0.17641103470E+02  0.33336589031E+03  0.33502990169E+03  0.41800000000E+01 0. -1.
         -5    1    3    3    0  502 -0.45633970232E+02 -0.15330971236E+03  0.85894402974E+03  0.87372114875E+03  0.41800000000E+01 0. -1.
        -11    1    4    4    0    0  0.47694610871E+02  0.12478584512E+03  0.35085931714E+03  0.37543114345E+03  0.00000000000E+00 0.  1.
         11    1    4    4    0    0  0.25931095208E+02  0.10882763769E+02  0.13641547972E+02  0.31256168623E+02  0.00000000000E+00 0. -1.
</event>
<event>
 8    1  0.3708258E-009  0.1111150E+03  0.7561462E-02  0.1258519E+00
         -1   -1    0    0    0  501 -0.00000000000E+00  0.00000000000E+00  0.12528312290E+03  0.12528312290E+03  0.00000000000E+00 0.  1.
          1   -1    0    0  501    0  0.00000000000E+00 -0.00000000000E+00 -0.19467078313E+03  0.19467078313E+03  0.00000000000E+00 0. -1.
         25    2    1    2    0    0  0.23229067668E+02  0.95663866498E+02  0.17745895628E+02  0.16015806888E+03  0.12507807673E+03 0.  0.
         23    2    1    2    0    0 -0.23229067668E+02 -0.95663866498E+02 -0.87133555859E+02  0.15979583714E+03  0.90836600957E+02 0.  0.
          5    1    3    3  502    0  0.32691811849E+02  0.71694287968E+02  0.67585672617E+02  0.10389475941E+03  0.41800000000E+01 0.  1.
         -5    1    3    3    0  502 -0.94627441809E+01  0.23969578530E+02 -0.49839776990E+02  0.56263309472E+02  0.41800000000E+01 0.  1.
        -11    1    4    4    0    0 -0.19262286387E+02 -0.10516817144E+03 -0.97848812036E+02  0.14493367441E+03  0.00000000000E+00 0.  1.
         11    1    4    4    0    0 -0.39667812808E+01  0.95043049425E+01  0.10715256177E+02  0.14862162733E+02  0.00000000000E+00 0. -1.
</event>
<event>
 8    1  0.3708258E-009  0.1247304E+03  0.7561462E-02  0.1235491E+00
          1   -1    0    0  501    0  0.00000000000E+00  0.00000000000E+00  0.26595066715E+03  0.26595066715E+03  0.00000000000E+00 0. -1.
         -1   -1    0    0    0  501 -0.00000000000E+00 -0.00000000000E+00 -0.76145674547E+02  0.76145674547E+02  0.00000000000E+00 0.  1.
         25    2    1    2    0    0 -0.69610032996E+02  0.62567248983E+02  0.89952511675E+02  0.18027152552E+03  0.12508457626E+03 0.  0.
         23    2    1    2    0    0  0.69610032996E+02 -0.62567248983E+02  0.99852480931E+02  0.16182481618E+03  0.86351235340E+02 0.  0.
          5    1    3    3  502    0 -0.71519660355E+02  0.94851580610E+02  0.50666323597E+02  0.12921467760E+03  0.41800000000E+01 0.  1.
         -5    1    3    3    0  502  0.19096273599E+01 -0.32284331627E+02  0.39286188078E+02  0.51056847914E+02  0.41800000000E+01 0.  1.
        -11    1    4    4    0    0  0.22304984029E+01 -0.15819073812E+02  0.74196367472E+02  0.75896766502E+02  0.00000000000E+00 0. -1.
         11    1    4    4    0    0  0.67379534593E+02 -0.46748175171E+02  0.25656113459E+02  0.85928049679E+02  0.00000000000E+00 0.  1.
</event>
<event>
 8    1  0.3708258E-009  0.8717292E+02  0.7561462E-02  0.1309846E+00
         -1   -1    0    0    0  501 -0.00000000000E+00  0.00000000000E+00  0.13143334929E+02  0.13143334929E+02  0.00000000000E+00 0.  1.
          1   -1    0    0  501    0  0.00000000000E+00 -0.00000000000E+00 -0.23961122945E+04  0.23961122945E+04  0.00000000000E+00 0. -1.
         25    2    1    2    0    0 -0.18215104723E+02 -0.64343938584E+02 -0.20829585312E+04  0.20877824742E+04  0.12508990445E+03 0.  0.
         23    2    1    2    0    0  0.18215104723E+02  0.64343938584E+02 -0.30001042838E+03  0.32147315528E+03  0.94163687062E+02 0.  0.
          5    1    3    3  502    0 -0.15766473547E+02 -0.42524622719E+02 -0.21880809055E+03  0.22349804947E+03  0.41800000000E+01 0. -1.
         -5    1    3    3    0  502 -0.24486311762E+01 -0.21819315866E+02 -0.18641504407E+04  0.18642844247E+04  0.41800000000E+01 0. -1.
        -11    1    4    4    0    0  0.35234455124E+02 -0.45114179168E+01 -0.48270561106E+02  0.59932184918E+02  0.00000000000E+00 0.  1.
         11    1    4    4    0    0 -0.17019350401E+02  0.68855356501E+02 -0.25173986727E+03  0.26154097037E+03  0.00000000000E+00 0. -1.
</event>
<event>
 8    1  0.3708258E-009  0.8999830E+02  0.7561462E-02  0.1302856E+00
         -1   -1    0    0    0  501 -0.00000000000E+00  0.00000000000E+00  0.32679212143E+02  0.32679212143E+02  0.00000000000E+00 0.  1.
          1   -1    0    0  501    0  0.00000000000E+00 -0.00000000000E+00 -0.53140954793E+03  0.53140954793E+03  0.00000000000E+00 0. -1.
         25    2    1    2    0    0  0.65547413045E+02 -0.24494796747E+02 -0.22091376257E+03  0.26333681115E+03  0.12508767800E+03 0.  0.
         23    2    1    2    0    0 -0.65547413045E+02  0.24494796747E+02 -0.27781657321E+03  0.30075194892E+03  0.91505344129E+02 0.  0.
          5    1    3    3  502    0  0.15806083692E+02  0.11352998998E+02  0.11464095226E+02  0.22969996676E+02  0.41800000000E+01 0.  1.
         -5    1    3    3    0  502  0.49741329353E+02 -0.35847795745E+02 -0.23237785780E+03  0.24036681448E+03  0.41800000000E+01 0.  1.
        -11    1    4    4    0    0  0.86963805206E+00  0.31806588466E+02 -0.28767119029E+02  0.42894783802E+02  0.00000000000E+00 0.  1.
         11    1    4    4    0    0 -0.66417051097E+02 -0.73117917195E+01 -0.24904945418E+03  0.25785716512E+03  0.00000000000E+00 0. -1.
</event>
<event>
 8    1  0.3708258E-009  0.7125182E+02  0.7561462E-02  0.1355887E+00
         -1   -1    0    0    0  501 -0.00000000000E+00  0.00000000000E+00  0.86398691768E+02  0.86398691768E+02  0.00000000000E+00 0.  1.
          1   -1    0    0  501    0  0.00000000000E+00 -0.00000000000E+00 -0.15185389809E+03  0.15185389809E+03  0.00000000000E+00 0. -1.
         25    2    1    2    0    0 -0.17831469347E+02 -0.21605948165E+02 -0.15729210139E+02  0.12915163339E+03  0.12509179853E+03 0.  0.
         23    2    1    2    0    0  0.17831469347E+02  0.21605948165E+02 -0.49725996179E+02  0.10910095646E+03  0.92981534242E+02 0.  0.
          5    1    3    3  502    0  0.26732039552E+02  0.22890999400E+02 -0.46879844523E+02  0.58768971530E+02  0.41800000000E+01 0. -1.
         -5    1    3    3    0  502 -0.44563508899E+02 -0.44496947565E+02  0.31150634384E+02  0.70382661860E+02  0.41800000000E+01 0. -1.
        -11    1    4    4    0    0 -0.89513800897E+01  0.13064279416E+02  0.24813481906E+02  0.29436567165E+02  0.00000000000E+00 0.  1.
         11    1    4    4    0    0  0.26782849436E+02  0.85416687488E+01 -0.74539478085E+02  0.79664389298E+02  0.00000000000E+00 0. -1.
</event>
<event>
 8    1  0.3708258E-009  0.1014683E+03  0.7561462E-02  0.1277238E+00
          1   -1    0    0  501    0  0.00000000000E+00  0.00000000000E+00  0.94649942037E+02  0.94649942037E+02  0.00000000000E+00 0. -1.
         -1   -1    0    0    0  501 -0.00000000000E+00 -0.00000000000E+00 -0.33652954071E+03  0.33652954071E+03  0.00000000000E+00 0.  1.
         25    2    1    2    0    0  0.11468458981E+02  0.94052923110E+02 -0.25341027449E+03  0.29805984444E+03  0.12508167633E+03 0.  0.
         23    2    1    2    0    0 -0.11468458981E+02 -0.94052923110E+02  0.11530675810E+02  0.13311963832E+03  0.92792261120E+02 0.  0.
          5    1    3    3  502    0  0.26123196911E+02  0.22654079930E+02 -0.51076758201E+00  0.34833346636E+02  0.41800000000E+01 0.  1.
         -5    1    3    3    0  502 -0.14654737930E+02  0.71398843179E+02 -0.25289950691E+03  0.26322649780E+03  0.41800000000E+01 0.  1.
        -11    1    4    4    0    0  0.11296678201E+01 -0.15706893874E+02  0.44489821485E+02  0.47194564097E+02  0.00000000000E+00 0. -1.
         11    1    4    4    0    0 -0.12598126801E+02 -0.78346029236E+02 -0.32959145674E+02  0.85925074218E+02  0.00000000000E+00 0.  1.
</event>
<event>
 8    1  0.3708258E-009  0.1157590E+03  0.7561462E-02  0.1250262E+00
          2   -1    0    0  501    0  0.00000000000E+00  0.00000000000E+00  0.48946972822E+03  0.48946972822E+03  0.00000000000E+00 0. -1.
         -2   -1    0    0    0  501 -0.00000000000E+00 -0.00000000000E+00 -0.30358412185E+02  0.30358412185E+02  0.00000000000E+00 0.  1.
         25    2    1    2    0    0  0.28026459338E+02  0.40038501467E+02  0.28595674445E+03  0.31592396127E+03  0.12509246815E+03 0.  0.
         23    2    1    2    0    0 -0.28026459338E+02 -0.40038501467E+02  0.17315457158E+03  0.20390417913E+03  0.95947092629E+02 0.  0.
          5    1    3    3  502    0 -0.25990395800E+02 -0.26975584081E+02  0.38444083299E+02  0.53838673378E+02  0.41800000000E+01 0. -1.
         -5    1    3    3    0  502  0.54016855138E+02  0.67014085548E+02  0.24751266115E+03  0.26208528790E+03  0.41800000000E+01 0. -1.
        -11    1    4    4    0    0  0.12547904070E+02 -0.60794523560E+02  0.97616386197E+02  0.11568224948E+03  0.00000000000E+00 0.  1.
         11    1    4    4    0    0 -0.40574363408E+02  0.20756022094E+02  0.75538185385E+02  0.88221929646E+02  0.00000000000E+00 0. -1.
</event>
<event>
 8    1  0.3708258E-009  0.1120651E+03  0.7561462E-02  0.1256793E+00
          2   -1    0    0  501    0  0.00000000000E+00  0.00000000000E+00  0.22817158242E+03  0.22817158242E+03  0.00000000000E+00 0.  1.
         -2   -1    0    0    0  501 -0.00000000000E+00 -0.00000000000E+00 -0.10420675311E+03  0.10420675311E+03  0.00000000000E+00 0. -1.
         25    2    1    2    0    0 -0.99554919996E+02  0.34684388758E+02  0.37749968380E+02  0.16789113246E+03  0.12509269894E+03 0.  0.
         23    2    1    2    0    0  0.99554919996E+02 -0.34684388758E+02  0.86214860932E+02  0.16448720307E+03  0.92243421493E+02 0.  0.
          5    1    3    3  502    0 -0.61202898421E+02 -0.37085484138E+01  0.78646351104E+02  0.99811166953E+02  0.41800000000E+01 0.  1.
         -5    1    3    3    0  502 -0.38352021575E+02  0.38392937172E+02 -0.40896382724E+02  0.68079965508E+02  0.41800000000E+01 0.  1.
        -11    1    4    4    0    0  0.38981145064E+02 -0.26465323618E+02  0.91716885168E+02  0.10311125084E+03  0.00000000000E+00 0.  1.
         11    1    4    4    0    0  0.60573774932E+02 -0.82190651398E+01 -0.55020242362E+01  0.61375952228E+02  0.00000000000E+00 0. -1.
</event>
<event>
 8    1  0.3708258E-009  0.1332012E+03  0.7561462E-02  0.1222782E+00
         -1   -1    0    0    0  501 -0.00000000000E+00  0.00000000000E+00  0.64528576995E+02  0.64528576995E+02  0.00000000000E+00 0.  1.
          1   -1    0    0  501    0  0.00000000000E+00 -0.00000000000E+00 -0.38254453281E+03  0.38254453281E+03  0.00000000000E+00 0. -1.
         25    2    1    2    0    0 -0.96882114681E+02  0.58238653724E+02 -0.17334833256E+03  0.24181666957E+03  0.12509105623E+03 0.  0.
         23    2    1    2    0    0  0.96882114681E+02 -0.58238653724E+02 -0.14466762326E+03  0.20525644024E+03  0.91780172733E+02 0.  0.
          5    1    3    3  502    0 -0.96292073776E+02  0.82657528268E+02 -0.17586179816E+03  0.21690844820E+03  0.41800000000E+01 0. -1.
         -5    1    3    3    0  502 -0.59004090438E+00 -0.24418874544E+02  0.25134655992E+01  0.24908221365E+02  0.41800000000E+01 0. -1.
        -11    1    4    4    0    0  0.61755576477E+02 -0.47524493553E+02 -0.27769207721E+02  0.82725193326E+02  0.00000000000E+00 0.  1.
         11    1    4    4    0    0  0.35126538204E+02 -0.10714160171E+02 -0.11689841554E+03  0.12253124691E+03  0.00000000000E+00 0. -1.
</event>
<event>
 8    1  0.3708258E-009  0.2038793E+03  0.7561462E-02  0.1146507E+00
          2   -1    0    0  501    0  0.00000000000E+00  0.00000000000E+00  0.92095759764E+02  0.92095759764E+02  0.00000000000E+00 0. -1.
         -2   -1    0    0    0  501 -0.00000000000E+00 -0.00000000000E+00 -0.50707781869E+03  0.50707781869E+03  0.00000000000E+00 0.  1.
         25    2    1    2    0    0 -0.87052620571E+02 -0.15619896172E+03 -0.28852841842E+03  0.36176302298E+03  0.12509021614E+03 0.  0.
         23    2    1    2    0    0  0.87052620571E+02  0.15619896172E+03 -0.12645364051E+03  0.23741055547E+03  0.91635005656E+02 0.  0.
          5    1    3    3  502    0 -0.66128897860E+02 -0.17643297371E+03 -0.24214872761E+03  0.30684703685E+03  0.41800000000E+01 0.  1.
         -5    1    3    3    0  502 -0.20923722710E+02  0.20234011990E+02 -0.46379690806E+02  0.54915986129E+02  0.41800000000E+01 0.  1.
        -11    1    4    4    0    0  0.90279334191E+02  0.10453366649E+03 -0.12395089565E+03  0.18558413226E+03  0.00000000000E+00 0.  1.
         11    1    4    4    0    0 -0.32267136205E+01  0.51665295225E+02 -0.25027448574E+01  0.51826423216E+02  0.00000000000E+00 0. -1.
</event>
<event>
 8    1  0.3708258E-009  0.1073949E+03  0.7561462E-02  0.1265472E+00
         -2   -1    0    0    0  501 -0.00000000000E+00  0.00000000000E+00  0.78921904872E+03  0.78921904872E+03  0.00000000000E+00 0. -1.
          2   -1    0    0  501    0  0.00000000000E+00 -0.00000000000E+00 -0.16114014990E+02  0.16114014990E+02  0.00000000000E+00 0.  1.
         25    2    1    2    0    0  0.49779598916E+01  0.27312388700E+02  0.38810544142E+03  0.40871203264E+03  0.12509574454E+03 0.  0.
         23    2    1    2    0    0 -0.49779598916E+01 -0.27312388700E+02  0.38499959231E+03  0.39662103107E+03  0.91174610223E+02 0.  0.
          5    1    3    3  502    0  0.10415164830E+02 -0.45474517916E+02  0.86447289315E+02  0.98320972676E+02  0.41800000000E+01 0.  1.
         -5    1    3    3    0  502 -0.54372049380E+01  0.72786906616E+02  0.30165815211E+03  0.31039105996E+03  0.41800000000E+01 0.  1.
        -11    1    4    4    0    0 -0.47167892027E+02 -0.59194258967E+01  0.17338336411E+03  0.17978220321E+03  0.00000000000E+00 0.  1.
         11    1    4    4    0    0  0.42189932135E+02 -0.21392962804E+02  0.21161622820E+03  0.21683882786E+03  0.00000000000E+00 0. -1.
</event>
<event>
 8    1  0.3708258E-009  0.1816758E+03  0.7561462E-02  0.1166191E+00
         -1   -1    0    0    0  501 -0.00000000000E+00  0.00000000000E+00  0.70556651779E+02  0.70556651779E+02  0.00000000000E+00 0.  1.
          1   -1    0    0  501    0  0.00000000000E+00 -0.00000000000E+00 -0.59587760553E+03  0.59587760553E+03  0.00000000000E+00 0. -1.
         25    2    1    2    0    0 -0.13342897511E+03 -0.93098283162E+02 -0.17419048520E+03  0.26918534308E+03  0.12509133491E+03 0.  0.
         23    2    1    2    0    0  0.13342897511E+03  0.93098283162E+02 -0.35113046855E+03  0.39724891423E+03  0.89685629767E+02 0.  0.
          5    1    3    3  502    0 -0.33557913000E+02  0.86877500572E+01 -0.10495745538E+03  0.11061261395E+03  0.41800000000E+01 0. -1.
         -5    1    3    3    0  502 -0.99871062105E+02 -0.10178603322E+03 -0.69233029824E+02  0.15857272913E+03  0.41800000000E+01 0. -1.
        -11    1    4    4    0    0  0.77285167795E+02  0.10299392370E+03 -0.24213885647E+03  0.27424801055E+03  0.00000000000E+00 0. -1.
         11    1    4    4    0    0  0.56143807310E+02 -0.98956405391E+01 -0.10899161209E+03  0.12300090368E+03  0.00000000000E+00 0.  1.
</event>
<event>
 8    1  0.3708258E-009  0.1203000E+03  0.7561462E-02  0.1242603E+00
          1   -1    0    0  501    0  0.00000000000E+00  0.00000000000E+00  0.34764824980E+02  0.34764824980E+02  0.00000000000E+00 0. -1.
         -1   -1    0    0    0  501 -0.00000000000E+00 -0.00000000000E+00 -0.68703016243E+03  0.68703016243E+03  0.00000000000E+00 0.  1.
         25    2    1    2    0    0 -0.80225993521E+02  0.72382138693E+02 -0.32516316673E+03  0.36476597355E+03  0.12509095260E+03 0.  0.
         23    2    1    2    0    0  0.80225993521E+02 -0.72382138693E+02 -0.32710217072E+03  0.35702901386E+03  0.93800333747E+02 0.  0.
          5    1    3    3  502    0 -0.40875660337E+02  0.67619416090E+02 -0.67400282551E+02  0.10393976875E+03  0.41800000000E+01 0.  1.
         -5    1    3    3    0  502 -0.39350333183E+02  0.47627226030E+01 -0.25776288418E+03  0.26082620480E+03  0.41800000000E+01 0.  1.
        -11    1    4    4    0    0  0.14530362325E+02  0.89515903939E+01 -0.41346075453E+01  0.17560107615E+02  0.00000000000E+00 0. -1.
         11    1    4    4    0    0  0.65695631196E+02 -0.81333729087E+02 -0.32296756318E+03  0.33946890625E+03  0.00000000000E+00 0.  1.
</event>
<event>
 8    1  0.3708258E-009  0.9984716E+02  0.7561462E-02  0.1280618E+00
         -3   -1    0    0    0  501 -0.00000000000E+00  0.00000000000E+00  0.27204093944E+03  0.27204093944E+03  0.00000000000E+00 0.  1.
          3   -1    0    0  501    0  0.00000000000E+00 -0.00000000000E+00 -0.80203977079E+02  0.80203977079E+02  0.00000000000E+00 0. -1.
         25    2    1    2    0    0  0.28485464720E+02 -0.27005231846E+02 -0.18001615422E+01  0.13111729810E+03  0.12509117088E+03 0.  0.
         23    2    1    2    0    0 -0.28485464720E+02  0.27005231846E+02  0.19363712390E+03  0.22112761842E+03  0.99304499530E+02 0.  0.
          5    1    3    3  502    0  0.12758842787E+02  0.30886152265E+02 -0.45624225471E+02  0.56707890288E+02  0.41800000000E+01 0. -1.
         -5    1    3    3    0  502  0.15726621932E+02 -0.57891384111E+02  0.43824063929E+02  0.74409407812E+02  0.41800000000E+01 0. -1.
        -11    1    4    4    0    0 -0.65892276174E+01  0.63219528966E+02  0.12995020228E+03  0.14466230275E+03  0.00000000000E+00 0.  1.
         11    1    4    4    0    0 -0.21896237102E+02 -0.36214297120E+02  0.63686921615E+02  0.76465315666E+02  0.00000000000E+00 0. -1.
</event>
<event>
 8    1  0.3708258E-009  0.7013594E+02  0.7561462E-02  0.1359631E+00
         -3   -1    0    0    0  501 -0.00000000000E+00  0.00000000000E+00  0.20411721147E+03  0.20411721147E+03  0.00000000000E+00 0.  1.
          3   -1    0    0  501    0  0.00000000000E+00 -0.00000000000E+00 -0.60495580790E+02  0.60495580790E+02  0.00000000000E+00 0. -1.
         25    2    1    2    0    0 -0.14551116862E+02  0.18496412839E+02  0.68541049594E+02  0.14456644672E+03  0.12509088595E+03 0.  0.
         23    2    1    2    0    0  0.14551116862E+02 -0.18496412839E+02  0.75080581089E+02  0.12004634554E+03  0.90665203531E+02 0.  0.
          5    1    3    3  502    0  0.93539779266E+01  0.20715678429E+02 -0.32918664982E+02  0.40221227481E+02  0.41800000000E+01 0. -1.
         -5    1    3    3    0  502 -0.23905094788E+02 -0.22192655898E+01  0.10145971458E+03  0.10434521924E+03  0.41800000000E+01 0. -1.
        -11    1    4    4    0    0  0.94215109892E+01 -0.55065119766E+02  0.37030606925E+02  0.67023862417E+02  0.00000000000E+00 0. -1.
         11    1    4    4    0    0  0.51296058726E+01  0.36568706927E+02  0.38049974165E+02  0.53022483124E+02  0.00000000000E+00 0.  1.
</event>
<event>
 8    1  0.3708258E-009  0.9698583E+02  0.7561462E-02  0.1286765E+00
         -2   -1    0    0    0  501 -0.00000000000E+00  0.00000000000E+00  0.27353209062E+02  0.27353209062E+02  0.00000000000E+00 0. -1.
          2   -1    0    0  501    0  0.00000000000E+00 -0.00000000000E+00 -0.52815686467E+03  0.52815686467E+03  0.00000000000E+00 0.  1.
         25    2    1    2    0    0 -0.19553749003E+01 -0.52223401777E+02 -0.26141713751E+03  0.29447914429E+03  0.12509172415E+03 0.  0.
         23    2    1    2    0    0  0.19553749003E+01  0.52223401777E+02 -0.23938651809E+03  0.26103092944E+03  0.90000743862E+02 0.  0.
          5    1    3    3  502    0  0.41587555503E+02 -0.14926861438E+02 -0.24516270100E+02  0.50703608005E+02  0.41800000000E+01 0.  1.
         -5    1    3    3    0  502 -0.43542930403E+02 -0.37296540339E+02 -0.23690086741E+03  0.24377553629E+03  0.41800000000E+01 0.  1.
        -11    1    4    4    0    0  0.38747139717E+02  0.22498856179E+02 -0.56405219225E+02  0.72035325511E+02  0.00000000000E+00 0.  1.
         11    1    4    4    0    0 -0.36791764817E+02  0.29724545598E+02 -0.18298129886E+03  0.18899560393E+03  0.00000000000E+00 0. -1.
</event>
<event>
 8    1  0.3708258E-009  0.1206362E+03  0.7561462E-02  0.1242051E+00
          1   -1    0    0  501    0  0.00000000000E+00  0.00000000000E+00  0.60891371805E+03  0.60891371805E+03  0.00000000000E+00 0. -1.
         -1   -1    0    0    0  501 -0.00000000000E+00 -0.00000000000E+00 -0.31142777673E+02  0.31142777673E+02  0.00000000000E+00 0.  1.
         25    2    1    2    0    0  0.10319215817E+02 -0.61517083387E+02  0.17991544221E+03  0.22783292683E+03  0.12508972156E+03 0.  0.
         23    2    1    2    0    0 -0.10319215817E+02  0.61517083387E+02  0.39785549817E+03  0.41222356889E+03  0.88025198448E+02 0.  0.
          5    1    3    3  502    0  0.31247002058E+02  0.27630957203E+02  0.28025779283E+02  0.50425803295E+02  0.41800000000E+01 0.  1.
         -5    1    3    3    0  502 -0.20927786241E+02 -0.89148040590E+02  0.15188966292E+03  0.17740712354E+03  0.41800000000E+01 0.  1.
        -11    1    4    4    0    0  0.32427175843E+02 -0.41912191852E+00  0.13163386958E+03  0.13556980865E+03  0.00000000000E+00 0. -1.
         11    1    4    4    0    0 -0.42746391660E+02  0.61936205305E+02  0.26622162859E+03  0.27665376025E+03  0.00000000000E+00 0.  1.
</event>
<event>
 8    1  0.3708258E-009  0.8200656E+02  0.7561462E-02  0.1323452E+00
          1   -1    0    0  501    0  0.00000000000E+00  0.00000000000E+00  0.37342274719E+03  0.37342274719E+03  0.00000000000E+00 0. -1.
         -1   -1    0    0    0  501 -0.00000000000E+00 -0.00000000000E+00 -0.33050109179E+02  0.33050109179E+02  0.00000000000E+00 0.  1.
         25    2    1    2    0    0  0.14141450458E+02 -0.21475301698E+02  0.18766905490E+03  0.22700005995E+03  0.12509270102E+03 0.  0.
         23    2    1    2    0    0 -0.14141450458E+02  0.21475301698E+02  0.15270358311E+03  0.17947279642E+03  0.90724479354E+02 0.  0.
          5    1    3    3  502    0  0.20757288018E+02 -0.43114850998E+02  0.11574615153E+02  0.49408496216E+02  0.41800000000E+01 0. -1.
         -5    1    3    3    0  502 -0.66158375608E+01  0.21639549300E+02  0.17609443974E+03  0.17759156373E+03  0.41800000000E+01 0. -1.
        -11    1    4    4    0    0 -0.50516875279E+02  0.25107173293E+02  0.77522953977E+02  0.95875613333E+02  0.00000000000E+00 0.  1.
         11    1    4    4    0    0  0.36375424821E+02 -0.36318715951E+01  0.75180629135E+02  0.83597183082E+02  0.00000000000E+00 0. -1.
</event>
<event>
 8    1  0.3708258E-009  0.2691640E+03  0.7561462E-02  0.1101759E+00
          1   -1    0    0  501    0  0.00000000000E+00  0.00000000000E+00  0.96955561951E+03  0.96955561951E+03  0.00000000000E+00 0. -1.
         -1   -1    0    0    0  501 -0.00000000000E+00 -0.00000000000E+00 -0.80398780881E+02  0.80398780881E+02  0.00000000000E+00 0.  1.
         25    2    1    2    0    0  0.19699078536E+03  0.16102810771E+03  0.51800549144E+03  0.59051876506E+03  0.12508917514E+03 0.  0.
         23    2    1    2    0    0 -0.19699078536E+03 -0.16102810771E+03  0.37115134719E+03  0.45943563533E+03  0.92694981003E+02 0.  0.
          5    1    3    3  502    0  0.18378399713E+03  0.18178877699E+03  0.47454046060E+03  0.54039785176E+03  0.41800000000E+01 0. -1.
         -5    1    3    3    0  502  0.13206788234E+02 -0.20760669280E+02  0.43465030833E+02  0.50120913297E+02  0.41800000000E+01 0. -1.
        -11    1    4    4    0    0 -0.35965219012E+02 -0.36810375274E+02  0.23290596623E+02  0.56488517394E+02  0.00000000000E+00 0.  1.
         11    1    4    4    0    0 -0.16102556635E+03 -0.12421773243E+03  0.34786075057E+03  0.40294711794E+03  0.00000000000E+00 0. -1.
</event>
<event>
 8    1  0.3708258E-009  0.1363991E+03  0.7561462E-02  0.1218258E+00
          1   -1    0    0  501    0  0.00000000000E+00  0.00000000000E+00  0.36684548659E+03  0.36684548659E+03  0.00000000000E+00 0. -1.
         -1   -1    0    0    0  501 -0.00000000000E+00 -0.00000000000E+00 -0.88130378245E+02  0.88130378245E+02  0.00000000000E+00 0.  1.
         25    2    1    2    0    0  0.75780515368E+02  0.40827311506E+02  0.28613700609E+03  0.32393046726E+03  0.12508799098E+03 0.  0.
         23    2    1    2    0    0 -0.75780515368E+02 -0.40827311506E+02 -0.74218977434E+01  0.13104539758E+03  0.98530481514E+02 0.  0.
          5    1    3    3  502    0 -0.29904264726E+02  0.34323258317E+01  0.11765806098E+03  0.12151928910E+03  0.41800000000E+01 0. -1.
         -5    1    3    3    0  502  0.10568478009E+03  0.37394985675E+02  0.16847894511E+03  0.20241117815E+03  0.41800000000E+01 0. -1.
        -11    1    4    4    0    0 -0.56899774136E+02  0.24701867909E+02  0.27743307712E+01  0.62092378648E+02  0.00000000000E+00 0. -1.
         11    1    4    4    0    0 -0.18880741232E+02 -0.65529179416E+02 -0.10196228515E+02  0.68953018935E+02  0.00000000000E+00 0.  1.
</event>
<event>
 8    1  0.3708258E-009  0.1118036E+03  0.7561462E-02  0.1257266E+00
         -1   -1    0    0    0  501 -0.00000000000E+00  0.00000000000E+00  0.23374719389E+03  0.23374719389E+03  0.00000000000E+00 0. -1.
          1   -1    0    0  501    0  0.00000000000E+00 -0.00000000000E+00 -0.98386021197E+02  0.98386021197E+02  0.00000000000E+00 0.  1.
         25    2    1    2    0    0 -0.25096754859E+02  0.97347577922E+02  0.10836359403E+03  0.19364044201E+03  0.12509018443E+03 0.  0.
         23    2    1    2    0    0  0.25096754859E+02 -0.97347577922E+02  0.26997578666E+02  0.13849277308E+03  0.91350867042E+02 0.  0.
          5    1    3    3  502    0 -0.18109520756E+02  0.10480170508E+03  0.24717785330E+02  0.10926936186E+03  0.41800000000E+01 0. -1.
         -5    1    3    3    0  502 -0.69872341032E+01 -0.74541271615E+01  0.83645808702E+02  0.84371080149E+02  0.41800000000E+01 0. -1.
        -11    1    4    4    0    0 -0.85710788226E+01 -0.18000104495E+02 -0.29374245840E+02  0.35500893970E+02  0.00000000000E+00 0.  1.
         11    1    4    4    0    0  0.33667833682E+02 -0.79347473427E+02  0.56371824506E+02  0.10299187911E+03  0.00000000000E+00 0. -1.
</event>
<event>
 8    1  0.3708258E-009  0.1217512E+03  0.7561462E-02  0.1240236E+00
         -2   -1    0    0    0  501 -0.00000000000E+00  0.00000000000E+00  0.67830753479E+02  0.67830753479E+02  0.00000000000E+00 0.  1.
          2   -1    0    0  501    0  0.00000000000E+00 -0.00000000000E+00 -0.26084384695E+03  0.26084384695E+03  0.00000000000E+00 0. -1.
         25    2    1    2    0    0 -0.60558654400E+02 -0.10159208707E+02 -0.14497026997E+03  0.20108664175E+03  0.12509555615E+03 0.  0.
         23    2    1    2    0    0  0.60558654400E+02  0.10159208707E+02 -0.48042823506E+02  0.12758795869E+03  0.10099511952E+03 0.  0.
          5    1    3    3  502    0  0.31048165329E+02 -0.14329579768E+02 -0.84259410883E+02  0.91029918977E+02  0.41800000000E+01 0.  1.
         -5    1    3    3    0  502 -0.91606819729E+02  0.41703710605E+01 -0.60710859086E+02  0.11005672277E+03  0.41800000000E+01 0.  1.
        -11    1    4    4    0    0  0.67029452145E+02 -0.32229890688E+02 -0.22625710679E+02  0.77740826419E+02  0.00000000000E+00 0. -1.
         11    1    4    4    0    0 -0.64707977449E+01  0.42389099395E+02 -0.25417112827E+02  0.49847132269E+02  0.00000000000E+00 0.  1.
</event>
<event>
 8    1  0.3708258E-009  0.9912280E+02  0.7561462E-02  0.1282151E+00
          2   -1    0    0  501    0  0.00000000000E+00  0.00000000000E+00  0.18505891608E+03  0.18505891608E+03  0.00000000000E+00 0. -1.
         -2   -1    0    0    0  501 -0.00000000000E+00 -0.00000000000E+00 -0.91893834977E+02  0.91893834977E+02  0.00000000000E+00 0.  1.
         25    2    1    2    0    0 -0.55863157881E+02  0.11719936311E+02  0.34847450372E+01  0.13754452833E+03  0.12509318331E+03 0.  0.
         23    2    1    2    0    0  0.55863157881E+02 -0.11719936311E+02  0.89680336067E+02  0.13940822272E+03  0.90188916005E+02 0.  0.
          5    1    3    3  502    0 -0.70569271196E+02  0.39721653418E+02  0.38850670684E+02  0.89914841934E+02  0.41800000000E+01 0.  1.
         -5    1    3    3    0  502  0.14706113314E+02 -0.28001717107E+02 -0.35365925647E+02  0.47629686400E+02  0.41800000000E+01 0.  1.
        -11    1    4    4    0    0 -0.13842400997E+02 -0.66698810314E+01  0.62597741185E+02  0.64456004995E+02  0.00000000000E+00 0. -1.
         11    1    4    4    0    0  0.69705558879E+02 -0.50500552796E+01  0.27082594882E+02  0.74952217729E+02  0.00000000000E+00 0.  1.
</event>
<event>
 8    1  0.3708258E-009  0.1234340E+03  0.7561462E-02  0.1237537E+00
         -2   -1    0    0    0  501 -0.00000000000E+00  0.00000000000E+00  0.35444803599E+02  0.35444803599E+02  0.00000000000E+00 0.  1.
          2   -1    0    0  501    0  0.00000000000E+00 -0.00000000000E+00 -0.45478735563E+03  0.45478735563E+03  0.00000000000E+00 0. -1.
         25    2    1    2    0    0 -0.66061122429E+02  0.76146568826E+00 -0.25586614685E+03  0.29236764717E+03  0.12508678701E+03 0.  0.
         23    2    1    2    0    0  0.66061122429E+02 -0.76146568826E+00 -0.16347640519E+03  0.19786451206E+03  0.89784065142E+02 0.  0.
          5    1    3    3  502    0 -0.52674985402E+02 -0.57359907662E+02 -0.17682926398E+03  0.19326374231E+03  0.41800000000E+01 0. -1.
         -5    1    3    3    0  502 -0.13386137027E+02  0.58121373350E+02 -0.79036882869E+02  0.99103904859E+02  0.41800000000E+01 0. -1.
        -11    1    4    4    0    0  0.85756382939E+02 -0.11716128758E+02 -0.14432795194E+03  0.16829136222E+03  0.00000000000E+00 0. -1.
         11    1    4    4    0    0 -0.19695260510E+02  0.10954663070E+02 -0.19148453248E+02  0.29573149838E+02  0.00000000000E+00 0.  1.
</event>
<event>
 8    1  0.3708258E-009  0.9286619E+02  0.7561462E-02  0.1296056E+00
          2   -1    0    0  501    0  0.00000000000E+00  0.00000000000E+00  0.15110160073E+03  0.15110160073E+03  0.00000000000E+00 0. -1.
         -2   -1    0    0    0  501 -0.00000000000E+00 -0.00000000000E+00 -0.86690939182E+02  0.86690939182E+02  0.00000000000E+00 0.  1.
         25    2    1    2    0    0  0.20400887063E+02 -0.11204453347E+02  0.96311921173E+01  0.12759636600E+03  0.12508531803E+03 0.  0.
         23    2    1    2    0    0 -0.20400887063E+02  0.11204453347E+02  0.54779469433E+02  0.11019617391E+03  0.92739800008E+02 0.  0.
          5    1    3    3  502    0 -0.38088880638E+01  0.39870667675E+02  0.45314404345E+02  0.60622152801E+02  0.41800000000E+01 0. -1.
         -5    1    3    3    0  502  0.24209775127E+02 -0.51075121022E+02 -0.35683212227E+02  0.66974213202E+02  0.41800000000E+01 0. -1.
        -11    1    4    4    0    0  0.32114147855E+02  0.16318644584E+02  0.43071135599E+02  0.56149259793E+02  0.00000000000E+00 0. -1.
         11    1    4    4    0    0 -0.52515034918E+02 -0.51141912366E+01  0.11708333833E+02  0.54046914118E+02  0.00000000000E+00 0.  1.
</event>
<event>
 8    1  0.3708258E-009  0.2781073E+03  0.7561462E-02  0.1096727E+00
         -2   -1    0    0    0  501 -0.00000000000E+00  0.00000000000E+00  0.48127393886E+03  0.48127393886E+03  0.00000000000E+00 0.  1.
          2   -1    0    0  501    0  0.00000000000E+00 -0.00000000000E+00 -0.17095120110E+03  0.17095120110E+03  0.00000000000E+00 0. -1.
         25    2    1    2    0    0 -0.17145858454E+03  0.20179256984E+03  0.15058776665E+03  0.32930663899E+03  0.12509156472E+03 0.  0.
         23    2    1    2    0    0  0.17145858454E+03 -0.20179256984E+03  0.15973497111E+03  0.32291850097E+03  0.92966713473E+02 0.  0.
          5    1    3    3  502    0 -0.68105133401E+02  0.12943859348E+02  0.72147102930E+02  0.10014254616E+03  0.41800000000E+01 0.  1.
         -5    1    3    3    0  502 -0.10335345114E+03  0.18884871050E+03  0.78440663720E+02  0.22916409283E+03  0.41800000000E+01 0.  1.
        -11    1    4    4    0    0  0.57367352096E+02 -0.28735443360E+02  0.52016480686E+01  0.64372322734E+02  0.00000000000E+00 0. -1.
         11    1    4    4    0    0  0.11409123244E+03 -0.17305712649E+03  0.15453332305E+03  0.25854617823E+03  0.00000000000E+00 0.  1.
</event>
<event>
 8    1  0.3708258E-009  0.8883898E+02  0.7561462E-02  0.1305688E+00
          1   -1    0    0  501    0  0.00000000000E+00  0.00000000000E+00  0.16350648297E+03  0.16350648297E+03  0.00000000000E+00 0. -1.
         -1   -1    0    0    0  501 -0.00000000000E+00 -0.00000000000E+00 -0.79091041407E+02  0.79091041407E+02  0.00000000000E+00 0.  1.
         25    2    1    2    0    0  0.29396233611E+02  0.12178079908E+01  0.67474075487E+02  0.14514061197E+03  0.12508966693E+03 0.  0.
         23    2    1    2    0    0 -0.29396233611E+02 -0.12178079908E+01  0.16941366075E+02  0.97456912407E+02  0.91352166283E+02 0.  0.
          5    1    3    3  502    0  0.44747011583E+02 -0.54218998930E+02  0.42802407086E+02  0.82410638530E+02  0.41800000000E+01 0.  1.
         -5    1    3    3    0  502 -0.15350777973E+02  0.55436806920E+02  0.24671668401E+02  0.62729973438E+02  0.41800000000E+01 0.  1.
        -11    1    4    4    0    0 -0.38656132261E+02 -0.60633933626E+01 -0.30038111483E+02  0.49328991901E+02  0.00000000000E+00 0.  1.
         11    1    4    4    0    0  0.92598986503E+01  0.48455853718E+01  0.46979477558E+02  0.48127920506E+02  0.00000000000E+00 0. -1.
</event>
<event>
 8    1  0.3708258E-009  0.1131943E+03  0.7561462E-02  0.1254766E+00
         -2   -1    0    0    0  501 -0.00000000000E+00  0.00000000000E+00  0.36180966656E+03  0.36180966656E+03  0.00000000000E+00 0.  1.
          2   -1    0    0  501    0  0.00000000000E+00 -0.00000000000E+00 -0.10279417851E+03  0.10279417851E+03  0.00000000000E+00 0. -1.
         25    2    1    2    0    0 -0.78649187619E+02 -0.22628775719E+02 -0.28206584881E+02  0.15212030126E+03  0.12508884212E+03 0.  0.
         23    2    1    2    0    0  0.78649187619E+02  0.22628775719E+02  0.28722207294E+03  0.31248354381E+03  0.91933072189E+02 0.  0.
          5    1    3    3  502    0 -0.48669064031E+02 -0.50472218540E+02  0.33614078182E+02  0.77868487143E+02  0.41800000000E+01 0.  1.
         -5    1    3    3    0  502 -0.29980123588E+02  0.27843442821E+02 -0.61820663063E+02  0.74251814120E+02  0.41800000000E+01 0.  1.
        -11    1    4    4    0    0  0.14889335345E+02  0.45039705569E+02  0.17651131300E+03  0.18277448127E+03  0.00000000000E+00 0.  1.
         11    1    4    4    0    0  0.63759852273E+02 -0.22410929850E+02  0.11071075994E+03  0.12970906254E+03  0.00000000000E+00 0. -1.
</event>
<event>
 8    1  0.3708258E-009  0.2562098E+03  0.7561462E-02  0.1109442E+00
          1   -1    0    0  501    0  0.00000000000E+00  0.00000000000E+00  0.41433055489E+03  0.41433055489E+03  0.00000000000E+00 0. -1.
         -1   -1    0    0    0  501 -0.00000000000E+00 -0.00000000000E+00 -0.98564253289E+03  0.98564253289E+03  0.00000000000E+00 0.  1.
         25    2    1    2    0    0 -0.23639672337E+03 -0.36468433656E+02  0.35111358121E+03  0.44287810128E+03  0.12508760215E+03 0.  0.
         23    2    1    2    0    0  0.23639672337E+03  0.36468433656E+02 -0.92242555921E+03  0.95709498650E+03  0.89154604048E+02 0.  0.
          5    1    3    3  502    0 -0.11113876865E+03  0.34669030557E+02  0.10083000304E+03  0.15407118319E+03  0.41800000000E+01 0.  1.
         -5    1    3    3    0  502 -0.12525795473E+03 -0.71137464213E+02  0.25028357817E+03  0.28880691809E+03  0.41800000000E+01 0.  1.
        -11    1    4    4    0    0  0.95378675429E+02 -0.24042050858E+02 -0.43962981823E+03  0.45049915539E+03  0.00000000000E+00 0.  1.
         11    1    4    4    0    0  0.14101804794E+03  0.60510484514E+02 -0.48279574098E+03  0.50659583111E+03  0.00000000000E+00 0. -1.
</event>
<event>
 8    1  0.3708258E-009  0.6981092E+02  0.7561462E-02  0.1360737E+00
          2   -1    0    0  501    0  0.00000000000E+00  0.00000000000E+00  0.89964744027E+03  0.89964744027E+03  0.00000000000E+00 0. -1.
         -2   -1    0    0    0  501 -0.00000000000E+00 -0.00000000000E+00 -0.15499689988E+02  0.15499689988E+02  0.00000000000E+00 0.  1.
         25    2    1    2    0    0  0.30189445878E+02  0.24548292367E+02  0.58447918378E+03  0.59898085699E+03  0.12509248366E+03 0.  0.
         23    2    1    2    0    0 -0.30189445878E+02 -0.24548292367E+02  0.29966856650E+03  0.31616627327E+03  0.92983016203E+02 0.  0.
          5    1    3    3  502    0  0.38154673254E+02  0.24218297973E+02  0.58767804203E+03  0.58942790784E+03  0.41800000000E+01 0.  1.
         -5    1    3    3    0  502 -0.79652273762E+01  0.32999439408E+00 -0.31988582517E+01  0.95529491556E+01  0.41800000000E+01 0.  1.
        -11    1    4    4    0    0  0.25357334109E+02 -0.25269903523E+01  0.27401492309E+02  0.37419538401E+02  0.00000000000E+00 0. -1.
         11    1    4    4    0    0 -0.55546779987E+02 -0.22021302015E+02  0.27226707420E+03  0.27874673487E+03  0.00000000000E+00 0.  1.
</event>
<event>
 8    1  0.3708258E-009  0.1109669E+03  0.7561462E-02  0.1258790E+00
          2   -1    0    0  501    0  0.00000000000E+00  0.00000000000E+00  0.89825133891E+02  0.89825133891E+02  0.00000000000E+00 0. -1.
         -2   -1    0    0    0  501 -0.00000000000E+00 -0.00000000000E+00 -0.20232048727E+03  0.20232048727E+03  0.00000000000E+00 0.  1.
         25    2    1    2    0    0 -0.81814268254E+01  0.70440883029E+02 -0.38990373152E+02  0.14898163254E+03  0.12508566621E+03 0.  0.
         23    2    1    2    0    0  0.81814268254E+01 -0.70440883029E+02 -0.73504980229E+02  0.14316398862E+03  0.10031994703E+03 0.  0.
          5    1    3    3  502    0 -0.62722170625E+02  0.62153134430E+02 -0.26141329081E+02  0.92184186786E+02  0.41800000000E+01 0.  1.
         -5    1    3    3    0  502  0.54540743799E+02  0.82877485994E+01 -0.12849044072E+02  0.56797445758E+02  0.41800000000E+01 0.  1.
        -11    1    4    4    0    0  0.20925615135E+02 -0.48746672676E+02 -0.95825888651E+02  0.10952954123E+03  0.00000000000E+00 0.  1.
         11    1    4    4    0    0 -0.12744188310E+02 -0.21694210353E+02  0.22320908422E+02  0.33634447391E+02  0.00000000000E+00 0. -1.
</event>
<event>
 8    1  0.3708258E-009  0.1164695E+03  0.7561462E-02  0.1249038E+00
         -3   -1    0    0    0  501 -0.00000000000E+00  0.00000000000E+00  0.20883267636E+03  0.20883267636E+03  0.00000000000E+00 0.  1.
          3   -1    0    0  501    0  0.00000000000E+00 -0.00000000000E+00 -0.78721254278E+02  0.78721254278E+02  0.00000000000E+00 0. -1.
         25    2    1    2    0    0 -0.49180538453E+02  0.28757907481E+02  0.31077050249E+02  0.14092527330E+03  0.12509359295E+03 0.  0.
         23    2    1    2    0    0  0.49180538453E+02 -0.28757907481E+02  0.99034371835E+02  0.14662865734E+03  0.91904372821E+02 0.  0.
          5    1    3    3  502    0  0.12925673010E+02  0.63329567077E+02  0.25130052471E+02  0.69474448728E+02  0.41800000000E+01 0.  1.
         -5    1    3    3    0  502 -0.62106211462E+02 -0.34571659595E+02  0.59469977778E+01  0.71450824572E+02  0.41800000000E+01 0.  1.
        -11    1    4    4    0    0  0.60433251244E+02  0.57149919479E+01  0.27948924433E+02  0.66827998368E+02  0.00000000000E+00 0.  1.
         11    1    4    4    0    0 -0.11252712791E+02 -0.34472899429E+02  0.71085447402E+02  0.79800658973E+02  0.00000000000E+00 0. -1.
</event>
<event>
 8    1  0.3708258E-009  0.9885130E+02  0.7561462E-02  0.1282730E+00
          1   -1    0    0  501    0  0.00000000000E+00  0.00000000000E+00  0.13002263179E+04  0.13002263179E+04  0.00000000000E+00 0. -1.
         -1   -1    0    0    0  501 -0.00000000000E+00 -0.00000000000E+00 -0.15936289381E+02  0.15936289381E+02  0.00000000000E+00 0.  1.
         25    2    1    2    0    0 -0.32015110914E+02 -0.35909743374E+02  0.10689899827E+04  0.10773595386E+04  0.12509802288E+03 0.  0.
         23    2    1    2    0    0  0.32015110914E+02  0.35909743374E+02  0.21530004583E+03  0.23880306868E+03  0.91423841967E+02 0.  0.
          5    1    3    3  502    0 -0.56993663820E+02  0.28988195416E+02  0.47708074650E+03  0.48136483489E+03  0.41800000000E+01 0.  1.
         -5    1    3    3    0  502  0.24978552905E+02 -0.64897938790E+02  0.59190923617E+03  0.59599470369E+03  0.41800000000E+01 0.  1.
        -11    1    4    4    0    0 -0.10399779215E+02  0.54561686422E+01 -0.47310207980E+01  0.12661269358E+02  0.00000000000E+00 0.  1.
         11    1    4    4    0    0  0.42414890129E+02  0.30453574732E+02  0.22003106663E+03  0.22614179932E+03  0.00000000000E+00 0. -1.
</event>
<event>
 8    1  0.3708258E-009  0.1205993E+03  0.7561462E-02  0.1242112E+00
          2   -1    0    0  501    0  0.00000000000E+00  0.00000000000E+00  0.16574872830E+03  0.16574872830E+03  0.00000000000E+00 0. -1.
         -2   -1    0    0    0  501 -0.00000000000E+00 -0.00000000000E+00 -0.27526979750E+03  0.27526979750E+03  0.00000000000E+00 0.  1.
         25    2    1    2    0    0 -0.69935330303E+01  0.58377064463E+02  0.12282185786E+03  0.18489948917E+03  0.12508325695E+03 0.  0.
         23    2    1    2    0    0  0.69935330303E+01 -0.58377064463E+02 -0.23234292705E+03  0.25611903662E+03  0.90315746180E+02 0.  0.
          5    1    3    3  502    0 -0.60624581982E+02  0.57908563928E+01  0.39837396307E+02  0.72892828884E+02  0.41800000000E+01 0.  1.
         -5    1    3    3    0  502  0.53631048951E+02  0.52586208070E+02  0.82984461549E+02  0.11200666029E+03  0.41800000000E+01 0.  1.
        -11    1    4    4    0    0 -0.17535685785E+02  0.17747313071E+02 -0.83519160834E+02  0.87166034805E+02  0.00000000000E+00 0.  1.
         11    1    4    4    0    0  0.24529218816E+02 -0.76124377534E+02 -0.14882376622E+03  0.16895300182E+03  0.00000000000E+00 0. -1.
</event>
<event>
 8    1  0.3708258E-009  0.1072862E+03  0.7561462E-02  0.1265680E+00
          2   -1    0    0  501    0  0.00000000000E+00  0.00000000000E+00  0.79406770939E+02  0.79406770939E+02  0.00000000000E+00 0. -1.
         -2   -1    0    0    0  501 -0.00000000000E+00 -0.00000000000E+00 -0.17988941929E+03  0.17988941929E+03  0.00000000000E+00 0.  1.
         25    2    1    2    0    0 -0.18105116636E+02 -0.42184064883E+02 -0.78510963720E+02  0.15465675055E+03  0.12508976172E+03 0.  0.
         23    2    1    2    0    0  0.18105116636E+02  0.42184064883E+02 -0.21971684636E+02  0.10463943968E+03  0.91429573076E+02 0.  0.
          5    1    3    3  502    0 -0.61290230113E+02 -0.41691773921E+02 -0.82614379322E+02  0.11107341892E+03  0.41800000000E+01 0. -1.
         -5    1    3    3    0  502  0.43185113477E+02 -0.49229096250E+00  0.41034156022E+01  0.43583331630E+02  0.41800000000E+01 0. -1.
        -11    1    4    4    0    0  0.23850467733E+02  0.67181426451E+02 -0.30598078085E+02  0.77578548927E+02  0.00000000000E+00 0.  1.
         11    1    4    4    0    0 -0.57453510972E+01 -0.24997361567E+02  0.86263934494E+01  0.27060890756E+02  0.00000000000E+00 0. -1.
</event>
<event>
 8    1  0.3708258E-009  0.9068462E+02  0.7561462E-02  0.1301202E+00
          2   -1    0    0  501    0  0.00000000000E+00  0.00000000000E+00  0.13192719149E+03  0.13192719149E+03  0.00000000000E+00 0. -1.
         -2   -1    0    0    0  501 -0.00000000000E+00 -0.00000000000E+00 -0.14263494699E+03  0.14263494699E+03  0.00000000000E+00 0.  1.
         25    2    1    2    0    0  0.28774661835E+02 -0.36600502548E+02  0.64166151239E+02  0.14810053989E+03  0.12509555149E+03 0.  0.
         23    2    1    2    0    0 -0.28774661835E+02  0.36600502548E+02 -0.74873906741E+02  0.12646159858E+03  0.90657906738E+02 0.  0.
          5    1    3    3  502    0  0.59856560987E+02  0.15054070979E+02  0.62071778590E+02  0.87634531114E+02  0.41800000000E+01 0.  1.
         -5    1    3    3    0  502 -0.31081899152E+02 -0.51654573526E+02  0.20943726486E+01  0.60466008781E+02  0.41800000000E+01 0.  1.
        -11    1    4    4    0    0  0.87918513694E+01  0.63456773674E+01  0.18455321525E+02  0.21404746305E+02  0.00000000000E+00 0. -1.
         11    1    4    4    0    0 -0.37566513204E+02  0.30254825180E+02 -0.93329228266E+02  0.10505685227E+03  0.00000000000E+00 0.  1.
</event>
<event>
 8    1  0.3708258E-009  0.9625049E+02  0.7561462E-02  0.1288384E+00
          2   -1    0    0  501    0  0.00000000000E+00  0.00000000000E+00  0.12336130585E+03  0.12336130585E+03  0.00000000000E+00 0. -1.
         -2   -1    0    0    0  501 -0.00000000000E+00 -0.00000000000E+00 -0.12774053159E+03  0.12774053159E+03  0.00000000000E+00 0.  1.
         25    2    1    2    0    0  0.37538586084E+02  0.47532562596E+01  0.41973435010E+02  0.13726055075E+03  0.12508777180E+03 0.  0.
         23    2    1    2    0    0 -0.37538586084E+02 -0.47532562596E+01 -0.46352660755E+02  0.11384128669E+03  0.96847976261E+02 0.  0.
          5    1    3    3  502    0  0.61254956459E+02 -0.43866080389E+02  0.16125724688E+02  0.77161610249E+02  0.41800000000E+01 0.  1.
         -5    1    3    3    0  502 -0.23716370375E+02  0.48619336648E+02  0.25847710322E+02  0.60098940496E+02  0.41800000000E+01 0.  1.
        -11    1    4    4    0    0 -0.30664660477E+02 -0.26157591248E+02  0.19124241414E+02  0.44612527296E+02  0.00000000000E+00 0. -1.
         11    1    4    4    0    0 -0.68739256077E+01  0.21404334989E+02 -0.65476902169E+02  0.69228759394E+02  0.00000000000E+00 0.  1.
</event>
<event>
 8    1  0.3708258E-009  0.7282947E+02  0.7561462E-02  0.1350727E+00
         -1   -1    0    0    0  501 -0.00000000000E+00  0.00000000000E+00  0.43110164039E+03  0.43110164039E+03  0.00000000000E+00 0.  1.
          1   -1    0    0  501    0  0.00000000000E+00 -0.00000000000E+00 -0.54683367502E+02  0.54683367502E+02  0.00000000000E+00 0. -1.
         25    2    1    2    0    0 -0.18762457918E+02 -0.45822356244E+00  0.34239687961E+02  0.13104543606E+03  0.12509320638E+03 0.  0.
         23    2    1    2    0    0  0.18762457918E+02  0.45822356244E+00  0.34217858493E+03  0.35473957184E+03  0.91661006148E+02 0.  0.
          5    1    3    3  502    0 -0.22983478797E+02 -0.24024619659E+02 -0.40434880215E+02  0.52515469963E+02  0.41800000000E+01 0.  1.
         -5    1    3    3    0  502  0.42210208783E+01  0.23566396097E+02  0.74674568176E+02  0.78529966093E+02  0.41800000000E+01 0.  1.
        -11    1    4    4    0    0  0.18021688727E+02 -0.41832091662E+02  0.23768630711E+03  0.24201133392E+03  0.00000000000E+00 0.  1.
         11    1    4    4    0    0  0.74076919174E+00  0.42290315225E+02  0.10449227782E+03  0.11272823793E+03  0.00000000000E+00 0. -1.
</event>
<event>
 8    1  0.3708258E-009  0.1035308E+03  0.7561462E-02  0.1273042E+00
         -4   -1    0    0    0  501 -0.00000000000E+00  0.00000000000E+00  0.38489082115E+03  0.38489082115E+03  0.00000000000E+00 0.  1.
          4   -1    0    0  501    0  0.00000000000E+00 -0.00000000000E+00 -0.51134403268E+02  0.51134403268E+02  0.00000000000E+00 0. -1.
         25    2    1    2    0    0  0.67358092651E+02  0.52645872908E+02  0.21276601584E+03  0.26120063194E+03  0.12509073526E+03 0.  0.
         23    2    1    2    0    0 -0.67358092651E+02 -0.52645872908E+02  0.12099040204E+03  0.17482459248E+03  0.92823812517E+02 0.  0.
          5    1    3    3  502    0  0.34656548341E+02  0.64057044343E+02  0.21420266763E+03  0.22628441504E+03  0.41800000000E+01 0. -1.
         -5    1    3    3    0  502  0.32701544311E+02 -0.11411171435E+02 -0.14366517872E+01  0.34916216894E+02  0.41800000000E+01 0. -1.
        -11    1    4    4    0    0 -0.28575660939E+02  0.57252841023E+01  0.96153548360E+02  0.10047314138E+03  0.00000000000E+00 0.  1.
         11    1    4    4    0    0 -0.38782431712E+02 -0.58371157011E+02  0.24836853680E+02  0.74351451102E+02  0.00000000000E+00 0. -1.
</event>
<event>
 8    1  0.3708258E-009  0.9634389E+02  0.7561462E-02  0.1288178E+00
          1   -1    0    0  501    0  0.00000000000E+00  0.00000000000E+00  0.19573571667E+03  0.19573571667E+03  0.00000000000E+00 0. -1.
         -1   -1    0    0    0  501 -0.00000000000E+00 -0.00000000000E+00 -0.11683257741E+03  0.11683257741E+03  0.00000000000E+00 0.  1.
         25    2    1    2    0    0  0.36364722358E+02  0.40949804963E+02  0.13503498937E+03  0.19204907011E+03  0.12509643248E+03 0.  0.
         23    2    1    2    0    0 -0.36364722358E+02 -0.40949804963E+02 -0.56131850114E+02  0.12051922397E+03  0.91514038216E+02 0.  0.
          5    1    3    3  502    0  0.14337277108E+02  0.62293055330E+02  0.14581922915E+03  0.15926927591E+03  0.41800000000E+01 0. -1.
         -5    1    3    3    0  502  0.22027445249E+02 -0.21343250367E+02 -0.10784239783E+02  0.32779794206E+02  0.41800000000E+01 0. -1.
        -11    1    4    4    0    0 -0.52011504798E+02 -0.55673942329E+02 -0.62020840801E+02  0.98241382215E+02  0.00000000000E+00 0.  1.
         11    1    4    4    0    0  0.15646782441E+02  0.14724137367E+02  0.58889906873E+01  0.22277841755E+02  0.00000000000E+00 0. -1.
</event>
<event>
 8    1  0.3708258E-009  0.1869152E+03  0.7561462E-02  0.1161273E+00
         -2   -1    0    0    0  501 -0.00000000000E+00  0.00000000000E+00  0.12845014155E+03  0.12845014155E+03  0.00000000000E+00 0.  1.
          2   -1    0    0  501    0  0.00000000000E+00 -0.00000000000E+00 -0.41930506219E+03  0.41930506219E+03  0.00000000000E+00 0. -1.
         25    2    1    2    0    0 -0.86227284545E+02  0.15438722466E+03 -0.28091722145E+02  0.21842043498E+03  0.12509109412E+03 0.  0.
         23    2    1    2    0    0  0.86227284545E+02 -0.15438722466E+03 -0.26276319849E+03  0.32933476876E+03  0.90257031272E+02 0.  0.
          5    1    3    3  502    0 -0.13288864254E+02 -0.99430951676E+01  0.25549455746E+02  0.30752335580E+02  0.41800000000E+01 0.  1.
         -5    1    3    3    0  502 -0.72938420290E+02  0.16433031982E+03 -0.53641177891E+02  0.18766809940E+03  0.41800000000E+01 0.  1.
        -11    1    4    4    0    0  0.41636620294E+02 -0.78481975933E+02 -0.57067207327E+02  0.10559211546E+03  0.00000000000E+00 0.  1.
         11    1    4    4    0    0  0.44590664250E+02 -0.75905248722E+02 -0.20569599116E+03  0.22374265329E+03  0.00000000000E+00 0. -1.
</event>
<event>
 8    1  0.3708258E-009  0.1929995E+03  0.7561462E-02  0.1155784E+00
         -2   -1    0    0    0  501 -0.00000000000E+00  0.00000000000E+00  0.45394344175E+02  0.45394344175E+02  0.00000000000E+00 0.  1.
          2   -1    0    0  501    0  0.00000000000E+00 -0.00000000000E+00 -0.11340064428E+04  0.11340064428E+04  0.00000000000E+00 0. -1.
         25    2    1    2    0    0  0.11478519429E+03 -0.13776848783E+03 -0.78325781660E+03  0.81320113115E+03  0.12508986918E+03 0.  0.
         23    2    1    2    0    0 -0.11478519429E+03  0.13776848783E+03 -0.30535428199E+03  0.36619965579E+03  0.93301411043E+02 0.  0.
          5    1    3    3  502    0  0.80694708558E+02 -0.19772875206E+02 -0.19102550649E+03  0.20835263165E+03  0.41800000000E+01 0.  1.
         -5    1    3    3    0  502  0.34090485731E+02 -0.11799561263E+03 -0.59223231011E+03  0.60484849950E+03  0.41800000000E+01 0.  1.
        -11    1    4    4    0    0 -0.32833213647E+02  0.50205944347E+02 -0.32672370980E+02  0.68309154522E+02  0.00000000000E+00 0.  1.
         11    1    4    4    0    0 -0.81951980643E+02  0.87562543487E+02 -0.27268191101E+03  0.29789050126E+03  0.00000000000E+00 0. -1.
</event>
<event>
 8    1  0.3708258E-009  0.1779653E+03  0.7561462E-02  0.1169787E+00
         -2   -1    0    0    0  501 -0.00000000000E+00  0.00000000000E+00  0.49819454233E+03  0.49819454233E+03  0.00000000000E+00 0.  1.
          2   -1    0    0  501    0  0.00000000000E+00 -0.00000000000E+00 -0.83690440260E+02  0.83690440260E+02  0.00000000000E+00 0. -1.
         25    2    1    2    0    0 -0.14274144277E+03 -0.48329873621E+02  0.32755316935E+03  0.38164013556E+03  0.12508884104E+03 0.  0.
         23    2    1    2    0    0  0.14274144277E+03  0.48329873621E+02  0.86950932714E+02  0.20024484702E+03  0.99129399736E+02 0.  0.
          5    1    3    3  502    0 -0.16151002628E+03 -0.22076456594E+02  0.26567361337E+03  0.31172551992E+03  0.41800000000E+01 0. -1.
         -5    1    3    3    0  502  0.18768583515E+02 -0.26253417027E+02  0.61879555978E+02  0.69914615645E+02  0.41800000000E+01 0. -1.
        -11    1    4    4    0    0  0.80528313487E+02 -0.16120096226E+01 -0.22456407679E+01  0.80575745423E+02  0.00000000000E+00 0.  1.
         11    1    4    4    0    0  0.62213129280E+02  0.49941883244E+02  0.89196573482E+02  0.11966910160E+03  0.00000000000E+00 0. -1.
</event>
<event>
 8    1  0.3708258E-009  0.1116621E+03  0.7561462E-02  0.1257523E+00
          1   -1    0    0  501    0  0.00000000000E+00  0.00000000000E+00  0.87033213167E+02  0.87033213167E+02  0.00000000000E+00 0. -1.
         -1   -1    0    0    0  501 -0.00000000000E+00 -0.00000000000E+00 -0.29483921653E+03  0.29483921653E+03  0.00000000000E+00 0.  1.
         25    2    1    2    0    0 -0.92328923745E+02 -0.54420493936E+02 -0.16664013197E+03  0.23431158042E+03  0.12508702098E+03 0.  0.
         23    2    1    2    0    0  0.92328923745E+02  0.54420493936E+02 -0.41165871392E+02  0.14756084927E+03  0.92700350328E+02 0.  0.
          5    1    3    3  502    0 -0.30483936047E+02 -0.42422062012E+01  0.16058085843E+02  0.34965714512E+02  0.41800000000E+01 0.  1.
         -5    1    3    3    0  502 -0.61844987697E+02 -0.50178287735E+02 -0.18269821781E+03  0.19934586591E+03  0.41800000000E+01 0.  1.
        -11    1    4    4    0    0  0.47397704005E+02  0.82893931587E+01 -0.63259652057E+02  0.79479808519E+02  0.00000000000E+00 0.  1.
         11    1    4    4    0    0  0.44931219739E+02  0.46131100778E+02  0.22093780665E+02  0.68081040755E+02  0.00000000000E+00 0. -1.
</event>
<event>
 8    1  0.3708258E-009  0.1032998E+03  0.7561462E-02  0.1273506E+00
         -2   -1    0    0    0  501 -0.00000000000E+00  0.00000000000E+00  0.39094680135E+02  0.39094680135E+02  0.00000000000E+00 0.  1.
          2   -1    0    0  501    0  0.00000000000E+00 -0.00000000000E+00 -0.54546107317E+03  0.54546107317E+03  0.00000000000E+00 0. -1.
         25    2    1    2    0    0 -0.28343947699E+02  0.75594169316E+02 -0.16901967526E+03  0.22523818645E+03  0.12508689860E+03 0.  0.
         23    2    1    2    0    0  0.28343947699E+02 -0.75594169316E+02 -0.33734671777E+03  0.35931756686E+03  0.93746722901E+02 0.  0.
          5    1    3    3  502    0 -0.30158750134E+02  0.40777808783E+02  0.17255784791E+01  0.50919838176E+02  0.41800000000E+01 0. -1.
         -5    1    3    3    0  502  0.18148024347E+01  0.34816360533E+02 -0.17074525374E+03  0.17431834827E+03  0.41800000000E+01 0. -1.
        -11    1    4    4    0    0 -0.12886435777E+02  0.15766317883E+02 -0.31897021675E+02  0.37842528963E+02  0.00000000000E+00 0. -1.
         11    1    4    4    0    0  0.41230383476E+02 -0.91360487199E+02 -0.30544969610E+03  0.32147503789E+03  0.00000000000E+00 0.  1.
</event>
<event>
 8    1  0.3708258E-009  0.1691507E+03  0.7561462E-02  0.1178736E+00
         -2   -1    0    0    0  501 -0.00000000000E+00  0.00000000000E+00  0.61275018990E+02  0.61275018990E+02  0.00000000000E+00 0.  1.
          2   -1    0    0  501    0  0.00000000000E+00 -0.00000000000E+00 -0.51937574647E+03  0.51937574647E+03  0.00000000000E+00 0. -1.
         25    2    1    2    0    0  0.13634577199E+03 -0.33832435806E+02 -0.25087981814E+03  0.31356577544E+03  0.12509200263E+03 0.  0.
         23    2    1    2    0    0 -0.13634577199E+03  0.33832435806E+02 -0.20722090933E+03  0.26708499002E+03  0.93054195896E+02 0.  0.
          5    1    3    3  502    0  0.35324274385E+02  0.33580830751E+02 -0.20378205418E+02  0.52992642988E+02  0.41800000000E+01 0.  1.
         -5    1    3    3    0  502  0.10102149761E+03 -0.67413266558E+02 -0.23050161272E+03  0.26057313245E+03  0.41800000000E+01 0.  1.
        -11    1    4    4    0    0 -0.10339822723E+03  0.65308504241E+02 -0.16098128212E+03  0.20216668200E+03  0.00000000000E+00 0. -1.
         11    1    4    4    0    0 -0.32947544769E+02 -0.31476068434E+02 -0.46239627214E+02  0.64918308013E+02  0.00000000000E+00 0.  1.
</event>
<event>
 8    1  0.3708258E-009  0.1050364E+03  0.7561462E-02  0.1270048E+00
         -2   -1    0    0    0  501 -0.00000000000E+00  0.00000000000E+00  0.33350373802E+02  0.33350373802E+02  0.00000000000E+00 0.  1.
          2   -1    0    0  501    0  0.00000000000E+00 -0.00000000000E+00 -0.57903156074E+03  0.57903156074E+03  0.00000000000E+00 0. -1.
         25    2    1    2    0    0 -0.74227751847E+02  0.23106851585E+02 -0.40420118522E+03  0.43019441000E+03  0.12507976067E+03 0.  0.
         23    2    1    2    0    0  0.74227751847E+02 -0.23106851585E+02 -0.14148000172E+03  0.18218752454E+03  0.84451272803E+02 0.  0.
          5    1    3    3  502    0 -0.66355664767E+02  0.47383573699E+02 -0.39403880987E+03  0.40240816764E+03  0.41800000000E+01 0. -1.
         -5    1    3    3    0  502 -0.78720870794E+01 -0.24276722114E+02 -0.10162375352E+02  0.27786242359E+02  0.41800000000E+01 0. -1.
        -11    1    4    4    0    0  0.68166928954E+02  0.10012445406E+02 -0.51217648322E+02  0.85850024844E+02  0.00000000000E+00 0.  1.
         11    1    4    4    0    0  0.60608228925E+01 -0.33119296991E+02 -0.90262353397E+02  0.96337499699E+02  0.00000000000E+00 0. -1.
</event>
<event>
 8    1  0.3708258E-009  0.1250522E+03  0.7561462E-02  0.1234988E+00
          1   -1    0    0  501    0  0.00000000000E+00  0.00000000000E+00  0.55301116881E+03  0.55301116881E+03  0.00000000000E+00 0. -1.
         -1   -1    0    0    0  501 -0.00000000000E+00 -0.00000000000E+00 -0.49205586546E+02  0.49205586546E+02  0.00000000000E+00 0.  1.
         25    2    1    2    0    0  0.75330148150E+02  0.28039160855E+02  0.43342389145E+03  0.45821876672E+03  0.12508933903E+03 0.  0.
         23    2    1    2    0    0 -0.75330148150E+02 -0.28039160855E+02  0.70381690818E+02  0.14399798863E+03  0.96545391223E+02 0.  0.
          5    1    3    3  502    0 -0.13362946646E+02  0.36263486246E+02  0.26317788993E+03  0.26603323650E+03  0.41800000000E+01 0. -1.
         -5    1    3    3    0  502  0.88693094796E+02 -0.82243253907E+01  0.17024600152E+03  0.19218553022E+03  0.41800000000E+01 0. -1.
        -11    1    4    4    0    0  0.11193142233E+02 -0.33543659788E+02  0.56733181769E+01  0.35814104542E+02  0.00000000000E+00 0.  1.
         11    1    4    4    0    0 -0.86523290383E+02  0.55044989334E+01  0.64708372641E+02  0.10818388409E+03  0.00000000000E+00 0. -1.
</event>
<event>
 8    1  0.3708258E-009  0.1387830E+03  0.7561462E-02  0.1214976E+00
         -2   -1    0    0    0  501 -0.00000000000E+00  0.00000000000E+00  0.80835311718E+02  0.80835311718E+02  0.00000000000E+00 0. -1.
          2   -1    0    0  501    0  0.00000000000E+00 -0.00000000000E+00 -0.30782273624E+03  0.30782273624E+03  0.00000000000E+00 0.  1.
         25    2    1    2    0    0  0.91087274898E+02  0.62213180496E+02 -0.16001404418E+03  0.23112536582E+03  0.12508824450E+03 0.  0.
         23    2    1    2    0    0 -0.91087274898E+02 -0.62213180496E+02 -0.66973380341E+02  0.15753268214E+03  0.90353421585E+02 0.  0.
          5    1    3    3  502    0 -0.26538609555E+02 -0.94478223353E+01 -0.20975219346E+02  0.35369356378E+02  0.41800000000E+01 0. -1.
         -5    1    3    3    0  502  0.11762588445E+03  0.71661002832E+02 -0.13903882483E+03  0.19575600944E+03  0.41800000000E+01 0. -1.
        -11    1    4    4    0    0 -0.69407489878E+02 -0.39374817359E+02 -0.88671421274E+02  0.11929122702E+03  0.00000000000E+00 0.  1.
         11    1    4    4    0    0 -0.21679785020E+02 -0.22838363137E+02  0.21698040934E+02  0.38241455120E+02  0.00000000000E+00 0. -1.
</event>
<event>
 8    1  0.3708258E-009  0.1639062E+03  0.7561462E-02  0.1184356E+00
          2   -1    0    0  501    0  0.00000000000E+00  0.00000000000E+00  0.21615112839E+03  0.21615112839E+03  0.00000000000E+00 0. -1.
         -2   -1    0    0    0  501 -0.00000000000E+00 -0.00000000000E+00 -0.13343750299E+03  0.13343750299E+03  0.00000000000E+00 0.  1.
         25    2    1    2    0    0 -0.24891809004E+02  0.12223905079E+03  0.84107930054E+02  0.19566201270E+03  0.12508993414E+03 0.  0.
         23    2    1    2    0    0  0.24891809004E+02 -0.12223905079E+03 -0.13943046592E+01  0.15392661867E+03  0.90163585541E+02 0.  0.
          5    1    3    3  502    0 -0.74839509001E+02  0.57224313621E+02  0.39595464169E+02  0.10227828391E+03  0.41800000000E+01 0.  1.
         -5    1    3    3    0  502  0.49947699997E+02  0.65014737167E+02  0.44512465885E+02  0.93383728792E+02  0.41800000000E+01 0.  1.
        -11    1    4    4    0    0  0.54225621794E+02 -0.10280566624E+03 -0.12810638642E+02  0.11693389385E+03  0.00000000000E+00 0.  1.
         11    1    4    4    0    0 -0.29333812790E+02 -0.19433384550E+02  0.11416333983E+02  0.36992724819E+02  0.00000000000E+00 0. -1.
</event>
<event>
 8    1  0.3708258E-009  0.7706376E+02  0.7561462E-02  0.1337597E+00
          1   -1    0    0  501    0  0.00000000000E+00  0.00000000000E+00  0.19712339911E+03  0.19712339911E+03  0.00000000000E+00 0. -1.
         -1   -1    0    0    0  501 -0.00000000000E+00 -0.00000000000E+00 -0.73123351305E+02  0.73123351305E+02  0.00000000000E+00 0.  1.
         25    2    1    2    0    0 -0.14310148198E+02  0.15995221856E+01  0.12555674081E+03  0.17781650966E+03  0.12508747791E+03 0.  0.
         23    2    1    2    0    0  0.14310148198E+02 -0.15995221856E+01 -0.15566930108E+01  0.92430240757E+02  0.91288483943E+02 0.  0.
          5    1    3    3  502    0  0.32060564553E+02  0.17971374153E+02 -0.58471084965E+01  0.37450115704E+02  0.41800000000E+01 0. -1.
         -5    1    3    3    0  502 -0.46370712751E+02 -0.16371851968E+02  0.13140384931E+03  0.14036639395E+03  0.41800000000E+01 0. -1.
        -11    1    4    4    0    0 -0.25224159919E+02  0.91187871859E+01  0.30353574646E+02  0.40506172581E+02  0.00000000000E+00 0. -1.
         11    1    4    4    0    0  0.39534308116E+02 -0.10718309372E+02 -0.31910267657E+02  0.51924068176E+02  0.00000000000E+00 0.  1.
</event>
<event>
 8    1  0.3708258E-009  0.1498831E+03  0.7561462E-02  0.1200617E+00
         -1   -1    0    0    0  501 -0.00000000000E+00  0.00000000000E+00  0.16912980875E+02  0.16912980875E+02  0.00000000000E+00 0.  1.
          1   -1    0    0  501    0  0.00000000000E+00 -0.00000000000E+00 -0.18780799832E+04  0.18780799832E+04  0.00000000000E+00 0. -1.
         25    2    1    2    0    0 -0.64099344860E+02 -0.11798568538E+03 -0.12542455605E+04  0.12675988388E+04  0.12508214164E+03 0.  0.
         23    2    1    2    0    0  0.64099344860E+02  0.11798568538E+03 -0.60692144188E+03  0.62739412531E+03  0.85090562938E+02 0.  0.
          5    1    3    3  502    0  0.10118143927E+02 -0.23424446764E+02 -0.41450577707E+02  0.48853908083E+02  0.41800000000E+01 0.  1.
         -5    1    3    3    0  502 -0.74217488787E+02 -0.94561238618E+02 -0.12127949827E+04  0.12187449307E+04  0.41800000000E+01 0.  1.
        -11    1    4    4    0    0 -0.81370178436E+01  0.61215735862E+02 -0.32702645003E+03  0.33280606424E+03  0.00000000000E+00 0. -1.
         11    1    4    4    0    0  0.72236362704E+02  0.56769949520E+02 -0.27989499184E+03  0.29458806107E+03  0.00000000000E+00 0.  1.
</event>
<event>
 8    1  0.3708258E-009  0.1668576E+03  0.7561462E-02  0.1181165E+00
         -1   -1    0    0    0  501 -0.00000000000E+00  0.00000000000E+00  0.50781017171E+02  0.50781017171E+02  0.00000000000E+00 0.  1.
          1   -1    0    0  501    0  0.00000000000E+00 -0.00000000000E+00 -0.59608175761E+03  0.59608175761E+03  0.00000000000E+00 0. -1.
         25    2    1    2    0    0  0.71247356430E+02 -0.10858522404E+03 -0.21329894463E+03  0.27930328557E+03  0.12508776469E+03 0.  0.
         23    2    1    2    0    0 -0.71247356430E+02  0.10858522404E+03 -0.33200179582E+03  0.36755948921E+03  0.89486585620E+02 0.  0.
          5    1    3    3  502    0  0.13242959701E+02 -0.11770343154E+03 -0.11769419567E+03  0.16702954790E+03  0.41800000000E+01 0. -1.
         -5    1    3    3    0  502  0.58004396729E+02  0.91182074990E+01 -0.95604748955E+02  0.11227373767E+03  0.41800000000E+01 0. -1.
        -11    1    4    4    0    0 -0.80748882399E+02  0.45806605839E+02 -0.22051069233E+03  0.23925633237E+03  0.00000000000E+00 0. -1.
         11    1    4    4    0    0  0.95015259691E+01  0.62778618201E+02 -0.11149110349E+03  0.12830315684E+03  0.00000000000E+00 0.  1.
</event>
<event>
 8    1  0.3708258E-009  0.1668612E+03  0.7561462E-02  0.1181161E+00
          3   -1    0    0  501    0  0.00000000000E+00  0.00000000000E+00  0.10831552144E+03  0.10831552144E+03  0.00000000000E+00 0. -1.
         -3   -1    0    0    0  501 -0.00000000000E+00 -0.00000000000E+00 -0.26735923663E+03  0.26735923663E+03  0.00000000000E+00 0.  1.
         25    2    1    2    0    0 -0.11337144715E+03  0.63172932407E+02 -0.10425054846E+03  0.20823103430E+03  0.12509229543E+03 0.  0.
         23    2    1    2    0    0  0.11337144715E+03 -0.63172932407E+02 -0.54793166736E+02  0.16744372377E+03  0.90505276595E+02 0.  0.
          5    1    3    3  502    0 -0.10976492574E+03  0.95024889557E+02 -0.98247799049E+02  0.17535156394E+03  0.41800000000E+01 0.  1.
         -5    1    3    3    0  502 -0.36065214099E+01 -0.31851957150E+02 -0.60027494077E+01  0.32879470364E+02  0.41800000000E+01 0.  1.
        -11    1    4    4    0    0  0.12448495661E+02  0.21214862533E+02 -0.19072025815E+02  0.31125192452E+02  0.00000000000E+00 0.  1.
         11    1    4    4    0    0  0.10092295149E+03 -0.84387794940E+02 -0.35721140921E+02  0.13631853132E+03  0.00000000000E+00 0. -1.
</event>
<event>
 8    1  0.3708258E-009  0.1143701E+03  0.7561462E-02  0.1252685E+00
          4   -1    0    0  501    0  0.00000000000E+00  0.00000000000E+00  0.30850093141E+03  0.30850093141E+03  0.00000000000E+00 0.  1.
         -4   -1    0    0    0  501 -0.00000000000E+00 -0.00000000000E+00 -0.52607157134E+02  0.52607157134E+02  0.00000000000E+00 0. -1.
         25    2    1    2    0    0  0.63827642757E+02  0.19521268234E+02  0.13580284656E+03  0.19632732353E+03  0.12508779691E+03 0.  0.
         23    2    1    2    0    0 -0.63827642757E+02 -0.19521268234E+02  0.12009092771E+03  0.16478076501E+03  0.90971543388E+02 0.  0.
          5    1    3    3  502    0  0.42104239592E+02  0.72695613901E+02  0.83767237798E+02  0.11870906368E+03  0.41800000000E+01 0. -1.
         -5    1    3    3    0  502  0.21723403165E+02 -0.53174345667E+02  0.52035608764E+02  0.77618259847E+02  0.41800000000E+01 0. -1.
        -11    1    4    4    0    0 -0.35622528421E+02  0.18146347123E+02  0.10946767975E+03  0.11653938113E+03  0.00000000000E+00 0.  1.
         11    1    4    4    0    0 -0.28205114336E+02 -0.37667615357E+02  0.10623247961E+02  0.48241383880E+02  0.00000000000E+00 0. -1.
</event>
<event>
 8    1  0.3708258E-009  0.1863467E+03  0.7561462E-02  0.1161798E+00
         -1   -1    0    0    0  501 -0.00000000000E+00  0.00000000000E+00  0.17465859376E+02  0.17465859376E+02  0.00000000000E+00 0.  1.
          1   -1    0    0  501    0  0.00000000000E+00 -0.00000000000E+00 -0.22035401669E+04  0.22035401669E+04  0.00000000000E+00 0. -1.
         25    2    1    2    0    0 -0.67720925340E+02 -0.14650031079E+03 -0.13237485875E+04  0.13394052141E+04  0.12509012668E+03 0.  0.
         23    2    1    2    0    0  0.67720925340E+02  0.14650031079E+03 -0.86232572002E+03  0.88160081220E+03  0.86982066363E+02 0.  0.
          5    1    3    3  502    0 -0.66798897076E+02 -0.17369037890E+02 -0.32070648982E+03  0.32807605999E+03  0.41800000000E+01 0.  1.
         -5    1    3    3    0  502 -0.92202826315E+00 -0.12913127290E+03 -0.10030420977E+04  0.10113291541E+04  0.41800000000E+01 0.  1.
        -11    1    4    4    0    0 -0.13313878484E+02  0.24501898290E+02 -0.61970325279E+02  0.67955305865E+02  0.00000000000E+00 0.  1.
         11    1    4    4    0    0  0.81034803823E+02  0.12199841250E+03 -0.80035539474E+03  0.81364550633E+03  0.00000000000E+00 0. -1.
</event>
<event>
 8    1  0.3708258E-009  0.9675487E+02  0.7561462E-02  0.1287272E+00
         -1   -1    0    0    0  501 -0.00000000000E+00  0.00000000000E+00  0.24661889023E+03  0.24661889023E+03  0.00000000000E+00 0.  1.
          1   -1    0    0  501    0  0.00000000000E+00 -0.00000000000E+00 -0.59193274770E+02  0.59193274770E+02  0.00000000000E+00 0. -1.
         25    2    1    2    0    0 -0.51295931944E+02  0.92487929582E+01  0.87902758660E+02  0.16153041307E+03  0.12509343133E+03 0.  0.
         23    2    1    2    0    0  0.51295931944E+02 -0.92487929582E+01  0.99522856800E+02  0.14428175193E+03  0.90529620063E+02 0.  0.
          5    1    3    3  502    0 -0.69963379567E+02 -0.12427209252E+02  0.10580920844E+03  0.12752400167E+03  0.41800000000E+01 0. -1.
         -5    1    3    3    0  502  0.18667447623E+02  0.21676002210E+02 -0.17906449784E+02  0.34006411402E+02  0.41800000000E+01 0. -1.
        -11    1    4    4    0    0  0.69538030454E+02  0.57868260023E+01  0.40451503385E+02  0.80655744747E+02  0.00000000000E+00 0. -1.
         11    1    4    4    0    0 -0.18242098510E+02 -0.15035618961E+02  0.59071353415E+02  0.63626007181E+02  0.00000000000E+00 0.  1.
</event>
<event>
 8    1  0.3708258E-009  0.8433081E+02  0.7561462E-02  0.1317192E+00
         -1   -1    0    0    0  501 -0.00000000000E+00  0.00000000000E+00  0.12078560949E+03  0.12078560949E+03  0.00000000000E+00 0. -1.
          1   -1    0    0  501    0  0.00000000000E+00 -0.00000000000E+00 -0.10304854771E+03  0.10304854771E+03  0.00000000000E+00 0.  1.
         25    2    1    2    0    0 -0.18704590256E+02  0.16299983538E+02  0.17683303483E+02  0.12873667606E+03  0.12507950024E+03 0.  0.
         23    2    1    2    0    0  0.18704590256E+02 -0.16299983538E+02  0.53758288611E-01  0.95097481144E+02  0.91804013365E+02 0.  0.
          5    1    3    3  502    0 -0.27481207130E+01  0.58224713974E+02  0.46992159562E+02  0.74989365547E+02  0.41800000000E+01 0.  1.
         -5    1    3    3    0  502 -0.15956469543E+02 -0.41924730436E+02 -0.29308856079E+02  0.53747310510E+02  0.41800000000E+01 0.  1.
        -11    1    4    4    0    0  0.36446740755E+01  0.22893727855E+02  0.33967679569E+02  0.41124319806E+02  0.00000000000E+00 0. -1.
         11    1    4    4    0    0  0.15059916180E+02 -0.39193711393E+02 -0.33913921281E+02  0.53973161337E+02  0.00000000000E+00 0.  1.
</event>
<event>
 8    1  0.3708258E-009  0.8466796E+02  0.7561462E-02  0.1316303E+00
          1   -1    0    0  501    0  0.00000000000E+00  0.00000000000E+00  0.15908274710E+03  0.15908274710E+03  0.00000000000E+00 0. -1.
         -1   -1    0    0    0  501 -0.00000000000E+00 -0.00000000000E+00 -0.95390701010E+02  0.95390701010E+02  0.00000000000E+00 0.  1.
         25    2    1    2    0    0  0.46838639145E+02 -0.31510160764E+02  0.23973142048E+02  0.13931530805E+03  0.12508914888E+03 0.  0.
         23    2    1    2    0    0 -0.46838639145E+02  0.31510160764E+02  0.39718904042E+02  0.11515814006E+03  0.92179485442E+02 0.  0.
          5    1    3    3  502    0 -0.10126792975E+02 -0.16510544567E+02 -0.44608555524E+02  0.48811327003E+02  0.41800000000E+01 0.  1.
         -5    1    3    3    0  502  0.56965432120E+02 -0.14999616197E+02  0.68581697572E+02  0.90503981042E+02  0.41800000000E+01 0.  1.
        -11    1    4    4    0    0 -0.25586987569E+01  0.44301642349E+02 -0.11913219956E+02  0.45946787307E+02  0.00000000000E+00 0.  1.
         11    1    4    4    0    0 -0.44279940388E+02 -0.12791481584E+02  0.51632123998E+02  0.69211352757E+02  0.00000000000E+00 0. -1.
</event>
<event>
 8    1  0.3708258E-009  0.1015151E+03  0.7561462E-02  0.1277142E+00
          1   -1    0    0  501    0  0.00000000000E+00  0.00000000000E+00  0.35809128530E+02  0.35809128530E+02  0.00000000000E+00 0. -1.
         -1   -1    0    0    0  501 -0.00000000000E+00 -0.00000000000E+00 -0.34371113028E+03  0.34371113028E+03  0.00000000000E+00 0.  1.
         25    2    1    2    0    0 -0.85800439099E+01  0.13342768919E+02 -0.16475703581E+03  0.20746992232E+03  0.12508893309E+03 0.  0.
         23    2    1    2    0    0  0.85800439099E+01 -0.13342768919E+02 -0.14314496594E+03  0.17205033649E+03  0.94123272239E+02 0.  0.
          5    1    3    3  502    0  0.25771562106E+02  0.58301487939E+02 -0.11703445876E+03  0.13333331859E+03  0.41800000000E+01 0. -1.
         -5    1    3    3    0  502 -0.34351606016E+02 -0.44958719020E+02 -0.47722577047E+02  0.74136603724E+02  0.41800000000E+01 0. -1.
        -11    1    4    4    0    0  0.38432490465E+02  0.14995569467E+02 -0.28236553318E+02  0.49992263104E+02  0.00000000000E+00 0. -1.
         11    1    4    4    0    0 -0.29852446555E+02 -0.28338338386E+02 -0.11490841262E+03  0.12205807339E+03  0.00000000000E+00 0.  1.
</event>
<event>
 8    1  0.3708258E-009  0.1226047E+03  0.7561462E-02  0.1238861E+00
          1   -1    0    0  501    0  0.00000000000E+00  0.00000000000E+00  0.29993829954E+02  0.29993829954E+02  0.00000000000E+00 0. -1.
         -1   -1    0    0    0  501 -0.00000000000E+00 -0.00000000000E+00 -0.71720479722E+03  0.71720479722E+03  0.00000000000E+00 0.  1.
         25    2    1    2    0    0 -0.57565383740E+02  0.77141362510E+02 -0.43021447166E+03  0.45825380473E+03  0.12508994647E+03 0.  0.
         23    2    1    2    0    0  0.57565383740E+02 -0.77141362510E+02 -0.25699649561E+03  0.28894482245E+03  0.90428692625E+02 0.  0.
          5    1    3    3  502    0 -0.18798587609E+02 -0.11528852748E+02 -0.61571855388E+01  0.23274120295E+02  0.41800000000E+01 0.  1.
         -5    1    3    3    0  502 -0.38766796131E+02  0.88670215258E+02 -0.42405728612E+03  0.43497968444E+03  0.41800000000E+01 0.  1.
        -11    1    4    4    0    0  0.14287996896E+02  0.17048095896E+02 -0.87344520948E+02  0.90132401325E+02  0.00000000000E+00 0.  1.
         11    1    4    4    0    0  0.43277386844E+02 -0.94189458406E+02 -0.16965197466E+03  0.19881242112E+03  0.00000000000E+00 0. -1.
</event>
<event>
 8    1  0.3708258E-009  0.1622167E+03  0.7561462E-02  0.1186217E+00
          2   -1    0    0  501    0  0.00000000000E+00  0.00000000000E+00  0.81227801179E+03  0.81227801179E+03  0.00000000000E+00 0. -1.
         -2   -1    0    0    0  501 -0.00000000000E+00 -0.00000000000E+00 -0.35530295169E+02  0.35530295169E+02  0.00000000000E+00 0.  1.
         25    2    1    2    0    0 -0.11062483547E+03 -0.62939409116E+02  0.48166077371E+03  0.51365549163E+03  0.12508253158E+03 0.  0.
         23    2    1    2    0    0  0.11062483547E+03  0.62939409116E+02  0.29508694290E+03  0.33415281532E+03  0.91556412529E+02 0.  0.
          5    1    3    3  502    0 -0.49440458122E+02 -0.92467063531E+02  0.35069002114E+03  0.36605393055E+03  0.41800000000E+01 0.  1.
         -5    1    3    3    0  502 -0.61184377345E+02  0.29527654415E+02  0.13097075257E+03  0.14760156109E+03  0.41800000000E+01 0.  1.
        -11    1    4    4    0    0  0.55842018050E+02 -0.13439012320E+02  0.72213935866E+02  0.92270204103E+02  0.00000000000E+00 0.  1.
         11    1    4    4    0    0  0.54782817416E+02  0.76378421436E+02  0.22287300704E+03  0.24188261122E+03  0.00000000000E+00 0. -1.
</event>
<event>
 8    1  0.3708258E-009  0.1090050E+03  0.7561462E-02  0.1262424E+00
          2   -1    0    0  501    0  0.00000000000E+00  0.00000000000E+00  0.31779302555E+03  0.31779302555E+03  0.00000000000E+00 0.  1.
         -2   -1    0    0    0  501 -0.00000000000E+00 -0.00000000000E+00 -0.85153144631E+02  0.85153144631E+02  0.00000000000E+00 0. -1.
         25    2    1    2    0    0 -0.60127854486E+01 -0.46207137573E+02 -0.15822470960E+02  0.13442151479E+03  0.12509012710E+03 0.  0.
         23    2    1    2    0    0  0.60127854486E+01  0.46207137573E+02  0.24846235188E+03  0.26852465539E+03  0.90557700402E+02 0.  0.
          5    1    3    3  502    0 -0.81824843321E+01  0.41959270753E+02  0.62664842643E+01  0.43408232826E+02  0.41800000000E+01 0.  1.
         -5    1    3    3    0  502  0.21696988834E+01 -0.88166408327E+02 -0.22088955224E+02  0.91013281961E+02  0.41800000000E+01 0.  1.
        -11    1    4    4    0    0 -0.10524977803E+02  0.62600028684E+02  0.23059830782E+03  0.23917591500E+03  0.00000000000E+00 0.  1.
         11    1    4    4    0    0  0.16537763252E+02 -0.16392891111E+02  0.17864044060E+02  0.29348740391E+02  0.00000000000E+00 0. -1.
</event>
<event>
 8    1  0.3708258E-009  0.1255032E+03  0.7561462E-02  0.1234285E+00
          2   -1    0    0  501    0  0.00000000000E+00  0.00000000000E+00  0.57160531635E+03  0.57160531635E+03  0.00000000000E+00 0.  1.
         -2   -1    0    0    0  501 -0.00000000000E+00 -0.00000000000E+00 -0.43549078640E+02  0.43549078640E+02  0.00000000000E+00 0. -1.
         25    2    1    2    0    0  0.82271521144E+02 -0.41760053412E+02  0.15212217749E+03  0.21748907251E+03  0.12509130474E+03 0.  0.
         23    2    1    2    0    0 -0.82271521144E+02  0.41760053412E+02  0.37593406021E+03  0.39766532248E+03  0.91097671891E+02 0.  0.
          5    1    3    3  502    0 -0.31844116276E+02 -0.12847761290E+02  0.54247999753E+02  0.64338406794E+02  0.41800000000E+01 0. -1.
         -5    1    3    3    0  502  0.11411563742E+03 -0.28912292122E+02  0.97874177741E+02  0.15315066571E+03  0.41800000000E+01 0. -1.
        -11    1    4    4    0    0 -0.26486608817E+02 -0.35867539087E+01  0.17167470984E+02  0.31766764239E+02  0.00000000000E+00 0. -1.
         11    1    4    4    0    0 -0.55784912328E+02  0.45346807321E+02  0.35876658923E+03  0.36589855824E+03  0.00000000000E+00 0.  1.
</event>
<event>
 8    1  0.3708258E-009  0.1178670E+03  0.7561462E-02  0.1246658E+00
          1   -1    0    0  501    0  0.00000000000E+00  0.00000000000E+00  0.99686230872E+03  0.99686230872E+03  0.00000000000E+00 0. -1.
         -1   -1    0    0    0  501 -0.00000000000E+00 -0.00000000000E+00 -0.17991393066E+02  0.17991393066E+02  0.00000000000E+00 0.  1.
         25    2    1    2    0    0 -0.23038770907E+02  0.74948385292E+02  0.53398338864E+03  0.55401535329E+03  0.12508679752E+03 0.  0.
         23    2    1    2    0    0  0.23038770907E+02 -0.74948385292E+02  0.44488752702E+03  0.46083834850E+03  0.91098991921E+02 0.  0.
          5    1    3    3  502    0  0.41582316695E+02  0.26432589797E+02  0.89730926131E+02  0.10245429405E+03  0.41800000000E+01 0.  1.
         -5    1    3    3    0  502 -0.64621087602E+02  0.48515795495E+02  0.44425246251E+03  0.45156105924E+03  0.41800000000E+01 0.  1.
        -11    1    4    4    0    0  0.30436736865E+02 -0.86474251843E+02  0.43331967618E+03  0.44291097633E+03  0.00000000000E+00 0. -1.
         11    1    4    4    0    0 -0.73979659582E+01  0.11525866552E+02  0.11567850833E+02  0.17927372171E+02  0.00000000000E+00 0.  1.
</event>
<event>
 8    1  0.3708258E-009  0.1126718E+03  0.7561462E-02  0.1255701E+00
         -1   -1    0    0    0  501 -0.00000000000E+00  0.00000000000E+00  0.22901207020E+03  0.22901207020E+03  0.00000000000E+00 0.  1.
          1   -1    0    0  501    0  0.00000000000E+00 -0.00000000000E+00 -0.95929585989E+02  0.95929585989E+02  0.00000000000E+00 0. -1.
         25    2    1    2    0    0  0.18194153271E+02 -0.90788869794E+02  0.28953381444E+02  0.15829941814E+03  0.12508701529E+03 0.  0.
         23    2    1    2    0    0 -0.18194153271E+02  0.90788869794E+02  0.10412910277E+03  0.16664223805E+03  0.91395401236E+02 0.  0.
          5    1    3    3  502    0  0.36930331069E+02 -0.61421533643E+02 -0.39089961456E+02  0.81743205434E+02  0.41800000000E+01 0. -1.
         -5    1    3    3    0  502 -0.18736177798E+02 -0.29367336151E+02  0.68043342900E+02  0.76556212707E+02  0.41800000000E+01 0. -1.
        -11    1    4    4    0    0  0.21845487839E+02  0.70047055862E+02  0.95987812554E+02  0.12082001296E+03  0.00000000000E+00 0.  1.
         11    1    4    4    0    0 -0.40039641110E+02  0.20741813932E+02  0.81412902163E+01  0.45822225086E+02  0.00000000000E+00 0. -1.
</event>
<event>
 8    1  0.3708258E-009  0.1383942E+03  0.7561462E-02  0.1215506E+00
          2   -1    0    0  501    0  0.00000000000E+00  0.00000000000E+00  0.37946497790E+02  0.37946497790E+02  0.00000000000E+00 0.  1.
         -2   -1    0    0    0  501 -0.00000000000E+00 -0.00000000000E+00 -0.52529907686E+03  0.52529907686E+03  0.00000000000E+00 0. -1.
         25    2    1    2    0    0  0.85580418211E+02  0.21150114508E+02 -0.29525557224E+03  0.33255755441E+03  0.12508932303E+03 0.  0.
         23    2    1    2    0    0 -0.85580418211E+02 -0.21150114508E+02 -0.19209700684E+03  0.23068802024E+03  0.92435746994E+02 0.  0.
          5    1    3    3  502    0  0.11835647519E+03  0.17039767774E+02 -0.22629521239E+03  0.25597969539E+03  0.41800000000E+01 0.  1.
         -5    1    3    3    0  502 -0.32776056978E+02  0.41103467340E+01 -0.68960359850E+02  0.76577859019E+02  0.41800000000E+01 0.  1.
        -11    1    4    4    0    0  0.14002735382E+02  0.12456589686E+02 -0.12273073017E+02  0.22402489729E+02  0.00000000000E+00 0.  1.
         11    1    4    4    0    0 -0.99583153593E+02 -0.33606704194E+02 -0.17982393382E+03  0.20828553051E+03  0.00000000000E+00 0. -1.
</event>
<event>
 8    1  0.3708258E-009  0.1830484E+03  0.7561462E-02  0.1164885E+00
         -2   -1    0    0    0  501 -0.00000000000E+00  0.00000000000E+00  0.57675824953E+02  0.57675824953E+02  0.00000000000E+00 0.  1.
          2   -1    0    0  501    0  0.00000000000E+00 -0.00000000000E+00 -0.70847234995E+03  0.70847234995E+03  0.00000000000E+00 0. -1.
         25    2    1    2    0    0 -0.17102475601E+02 -0.16473005329E+03 -0.41228826543E+03  0.46158674848E+03  0.12510886230E+03 0.  0.
         23    2    1    2    0    0  0.17102475601E+02  0.16473005329E+03 -0.23850825957E+03  0.30456142643E+03  0.91885730432E+02 0.  0.
          5    1    3    3  502    0  0.92619410961E+00  0.77845451606E+01 -0.12956780903E+03  0.12987203900E+03  0.41800000000E+01 0. -1.
         -5    1    3    3    0  502 -0.18028669711E+02 -0.17251459845E+03 -0.28272045640E+03  0.33171470947E+03  0.41800000000E+01 0. -1.
        -11    1    4    4    0    0  0.45538631292E+02  0.60831147411E+02 -0.63353420615E+02  0.98933570334E+02  0.00000000000E+00 0.  1.
         11    1    4    4    0    0 -0.28436155691E+02  0.10389890588E+03 -0.17515483895E+03  0.20562785610E+03  0.00000000000E+00 0. -1.
</event>
<event>
 8    1  0.3708258E-009  0.9042871E+02  0.7561462E-02  0.1301817E+00
          2   -1    0    0  501    0  0.00000000000E+00  0.00000000000E+00  0.43256452272E+03  0.43256452272E+03  0.00000000000E+00 0.  1.
         -2   -1    0    0    0  501 -0.00000000000E+00 -0.00000000000E+00 -0.54704961901E+02  0.54704961901E+02  0.00000000000E+00 0. -1.
         25    2    1    2    0    0  0.36840906985E+02  0.57994632696E+02  0.70306860147E+02  0.15909407385E+03  0.12508892797E+03 0.  0.
         23    2    1    2    0    0 -0.36840906985E+02 -0.57994632696E+02  0.30755270068E+03  0.32817541078E+03  0.91595887986E+02 0.  0.
          5    1    3    3  502    0  0.53668415616E+02  0.52474167520E+02 -0.10821501274E+02  0.75950078219E+02  0.41800000000E+01 0.  1.
         -5    1    3    3    0  502 -0.16827508631E+02  0.55204651758E+01  0.81128361421E+02  0.83143995630E+02  0.41800000000E+01 0.  1.
        -11    1    4    4    0    0  0.91520181716E+01 -0.34784141963E+02  0.32940735704E+02  0.48772820684E+02  0.00000000000E+00 0. -1.
         11    1    4    4    0    0 -0.45992925157E+02 -0.23210490733E+02  0.27461196497E+03  0.27940259009E+03  0.00000000000E+00 0.  1.
</event>
<event>
 8    1  0.3708258E-009  0.1025503E+03  0.7561462E-02  0.1275023E+00
          2   -1    0    0  501    0  0.00000000000E+00  0.00000000000E+00  0.27928539786E+03  0.27928539786E+03  0.00000000000E+00 0. -1.
         -2   -1    0    0    0  501 -0.00000000000E+00 -0.00000000000E+00 -0.59479449394E+02  0.59479449394E+02  0.00000000000E+00 0.  1.
         25    2    1    2    0    0 -0.74555765339E+01 -0.16331679842E+02  0.20852038555E+03  0.24382551031E+03  0.12509124230E+03 0.  0.
         23    2    1    2    0    0  0.74555765339E+01  0.16331679842E+02  0.11285562912E+02  0.94939336942E+02  0.92540825482E+02 0.  0.
          5    1    3    3  502    0  0.11853641745E+02 -0.63801565392E+02  0.16169791151E+03  0.17428377881E+03  0.41800000000E+01 0.  1.
         -5    1    3    3    0  502 -0.19309218279E+02  0.47469885551E+02  0.46822474037E+02  0.69541731498E+02  0.41800000000E+01 0.  1.
        -11    1    4    4    0    0  0.23747912327E+02 -0.30739748680E+02 -0.10997204209E+02  0.40371202474E+02  0.00000000000E+00 0.  1.
         11    1    4    4    0    0 -0.16292335793E+02  0.47071428522E+02  0.22282767121E+02  0.54568134468E+02  0.00000000000E+00 0. -1.
</event>
<event>
 8    1  0.3708258E-009  0.1028794E+03  0.7561462E-02  0.1274355E+00
         -1   -1    0    0    0  501 -0.00000000000E+00  0.00000000000E+00  0.72533218607E+02  0.72533218607E+02  0.00000000000E+00 0.  1.
          1   -1    0    0  501    0  0.00000000000E+00 -0.00000000000E+00 -0.16836769861E+03  0.16836769861E+03  0.00000000000E+00 0. -1.
         25    2    1    2    0    0 -0.29874375836E+01  0.23689125720E+02 -0.49599970929E+02  0.13666715111E+03  0.12509058165E+03 0.  0.
         23    2    1    2    0    0  0.29874375836E+01 -0.23689125720E+02 -0.46234509071E+02  0.10423376610E+03  0.90315827549E+02 0.  0.
          5    1    3    3  502    0 -0.52311386440E+02  0.48580763822E+02 -0.33488640774E+02  0.78965392583E+02  0.41800000000E+01 0. -1.
         -5    1    3    3    0  502  0.49323948857E+02 -0.24891638103E+02 -0.16111330155E+02  0.57701758532E+02  0.41800000000E+01 0. -1.
        -11    1    4    4    0    0  0.59775557326E+01 -0.51008122784E+02 -0.10739295729E+01  0.51368405535E+02  0.00000000000E+00 0.  1.
         11    1    4    4    0    0 -0.29901181491E+01  0.27318997064E+02 -0.45160579498E+02  0.52865360566E+02  0.00000000000E+00 0. -1.
</event>
<event>
 8    1  0.3708258E-009  0.7589814E+02  0.7561462E-02  0.1341112E+00
         -2   -1    0    0    0  501 -0.00000000000E+00  0.00000000000E+00  0.85466021845E+02  0.85466021845E+02  0.00000000000E+00 0.  1.
          2   -1    0    0  501    0  0.00000000000E+00 -0.00000000000E+00 -0.15958130628E+03  0.15958130628E+03  0.00000000000E+00 0. -1.
         25    2    1    2    0    0  0.39927975487E+02 -0.14689086138E+02 -0.21006538879E+02  0.13378840041E+03  0.12509216174E+03 0.  0.
         23    2    1    2    0    0 -0.39927975487E+02  0.14689086138E+02 -0.53108745551E+02  0.11125892772E+03  0.88022711071E+02 0.  0.
          5    1    3    3  502    0  0.16951169690E+02 -0.26093378890E+02  0.49515426068E+02  0.58629825128E+02  0.41800000000E+01 0. -1.
         -5    1    3    3    0  502  0.22976805796E+02  0.11404292753E+02 -0.70521964947E+02  0.75158575278E+02  0.41800000000E+01 0. -1.
        -11    1    4    4    0    0  0.82549276044E+01  0.39403898085E+02 -0.86108503518E+01  0.41169864681E+02  0.00000000000E+00 0.  1.
         11    1    4    4    0    0 -0.48182903091E+02 -0.24714811947E+02 -0.44497895199E+02  0.70089063034E+02  0.00000000000E+00 0. -1.
</event>
<event>
 8    1  0.3708258E-009  0.2837292E+03  0.7561462E-02  0.1093669E+00
         -1   -1    0    0    0  501 -0.00000000000E+00  0.00000000000E+00  0.96576442658E+02  0.96576442658E+02  0.00000000000E+00 0.  1.
          1   -1    0    0  501    0  0.00000000000E+00 -0.00000000000E+00 -0.93974338423E+03  0.93974338423E+03  0.00000000000E+00 0. -1.
         25    2    1    2    0    0  0.23628706673E+03 -0.15216696823E+03 -0.44136888511E+03  0.53799419606E+03  0.12507956717E+03 0.  0.
         23    2    1    2    0    0 -0.23628706673E+03  0.15216696823E+03 -0.40179805646E+03  0.49832563083E+03  0.88884149570E+02 0.  0.
          5    1    3    3  502    0  0.13784101487E+03 -0.67806711310E+02 -0.13218390803E+03  0.20270163645E+03  0.41800000000E+01 0. -1.
         -5    1    3    3    0  502  0.98446051863E+02 -0.84360256917E+02 -0.30918497708E+03  0.33529255961E+03  0.41800000000E+01 0. -1.
        -11    1    4    4    0    0 -0.58774063360E+02  0.17709880163E+02 -0.15061490912E+03  0.16264341742E+03  0.00000000000E+00 0. -1.
         11    1    4    4    0    0 -0.17751300337E+03  0.13445708806E+03 -0.25118314734E+03  0.33568221342E+03  0.00000000000E+00 0.  1.
</event>
<event>
 8    1  0.3708258E-009  0.8000236E+02  0.7561462E-02  0.1329045E+00
          2   -1    0    0  501    0  0.00000000000E+00  0.00000000000E+00  0.18802104544E+03  0.18802104544E+03  0.00000000000E+00 0. -1.
         -2   -1    0    0    0  501 -0.00000000000E+00 -0.00000000000E+00 -0.10904643280E+03  0.10904643280E+03  0.00000000000E+00 0.  1.
         25    2    1    2    0    0  0.49845949451E+02  0.10476140495E+02  0.12488205326E+03  0.18394815763E+03  0.12508808605E+03 0.  0.
         23    2    1    2    0    0 -0.49845949451E+02 -0.10476140495E+02 -0.45907440611E+02  0.11311932062E+03  0.89967324051E+02 0.  0.
          5    1    3    3  502    0  0.26857406003E+02  0.24788039266E+02 -0.16224866333E+02  0.40205544834E+02  0.41800000000E+01 0. -1.
         -5    1    3    3    0  502  0.22988543448E+02 -0.14311898771E+02  0.14110691959E+03  0.14374261279E+03  0.41800000000E+01 0. -1.
        -11    1    4    4    0    0  0.22694854024E+02 -0.19698751825E+01  0.59496341886E+01  0.23544318941E+02  0.00000000000E+00 0. -1.
         11    1    4    4    0    0 -0.72540803475E+02 -0.85062653129E+01 -0.51857074800E+02  0.89575001675E+02  0.00000000000E+00 0.  1.
</event>
<event>
 8    1  0.3708258E-009  0.1356626E+03  0.7561462E-02  0.1219287E+00
         -2   -1    0    0    0  501 -0.00000000000E+00  0.00000000000E+00  0.21552009976E+02  0.21552009976E+02  0.00000000000E+00 0.  1.
          2   -1    0    0  501    0  0.00000000000E+00 -0.00000000000E+00 -0.17518006438E+04  0.17518006438E+04  0.00000000000E+00 0. -1.
         25    2    1    2    0    0  0.56598423121E+02  0.63198738112E+02 -0.15282657683E+04  0.15357228719E+04  0.12510403155E+03 0.  0.
         23    2    1    2    0    0 -0.56598423121E+02 -0.63198738112E+02 -0.20198286556E+03  0.23762978192E+03  0.92050927616E+02 0.  0.
          5    1    3    3  502    0 -0.20721180759E+02  0.65418984341E+02 -0.91596093545E+03  0.91853738003E+03  0.41800000000E+01 0. -1.
         -5    1    3    3    0  502  0.77319603881E+02 -0.22202462291E+01 -0.61230483282E+03  0.61718549184E+03  0.41800000000E+01 0. -1.
        -11    1    4    4    0    0 -0.61313021151E+02  0.42383478351E+00 -0.94969671254E+02  0.11304293280E+03  0.00000000000E+00 0.  1.
         11    1    4    4    0    0  0.47145980293E+01 -0.63622572895E+02 -0.10701319431E+03  0.12458684912E+03  0.00000000000E+00 0. -1.
</event>
<event>
 8    1  0.3708258E-009  0.8434319E+02  0.7561462E-02  0.1317159E+00
          2   -1    0    0  501    0  0.00000000000E+00  0.00000000000E+00  0.20941315215E+02  0.20941315215E+02  0.00000000000E+00 0. -1.
         -2   -1    0    0    0  501 -0.00000000000E+00 -0.00000000000E+00 -0.60987090149E+03  0.60987090149E+03  0.00000000000E+00 0.  1.
         25    2    1    2    0    0 -0.15481394321E+01 -0.24742634822E+02 -0.39346929520E+03  0.41362114472E+03  0.12509904229E+03 0.  0.
         23    2    1    2    0    0  0.15481394321E+01  0.24742634822E+02 -0.19546029107E+03  0.21719107198E+03  0.91392787728E+02 0.  0.
          5    1    3    3  502    0 -0.54169119886E+01 -0.59018341194E+02 -0.87981070915E+02  0.10616331180E+03  0.41800000000E+01 0. -1.
         -5    1    3    3    0  502  0.38687725564E+01  0.34275706373E+02 -0.30548822429E+03  0.30745783292E+03  0.41800000000E+01 0. -1.
        -11    1    4    4    0    0 -0.31338141886E+02 -0.30276885425E+01 -0.15483642682E+03  0.15800495278E+03  0.00000000000E+00 0.  1.
         11    1    4    4    0    0  0.32886281318E+02  0.27770323364E+02 -0.40623864256E+02  0.59186119198E+02  0.00000000000E+00 0. -1.
</event>
<event>
 8    1  0.3708258E-009  0.1308083E+03  0.7561462E-02  0.1226261E+00
         -1   -1    0    0    0  501 -0.00000000000E+00  0.00000000000E+00  0.21376217920E+02  0.21376217920E+02  0.00000000000E+00 0.  1.
          1   -1    0    0  501    0  0.00000000000E+00 -0.00000000000E+00 -0.89101954252E+03  0.89101954252E+03  0.00000000000E+00 0. -1.
         25    2    1    2    0    0  0.81458358139E+02 -0.27024720098E+02 -0.47400460831E+03  0.49768860594E+03  0.12509108752E+03 0.  0.
         23    2    1    2    0    0 -0.81458358139E+02  0.27024720098E+02 -0.39563871629E+03  0.41470715450E+03  0.89923470557E+02 0.  0.
          5    1    3    3  502    0 -0.20329488810E+02  0.19423076370E+02 -0.37513938902E+02  0.47067101280E+02  0.41800000000E+01 0.  1.
         -5    1    3    3    0  502  0.10178784695E+03 -0.46447796468E+02 -0.43649066941E+03  0.45062150466E+03  0.41800000000E+01 0.  1.
        -11    1    4    4    0    0 -0.35879968364E+01 -0.26496655218E+02 -0.54223712918E+02  0.60457898588E+02  0.00000000000E+00 0.  1.
         11    1    4    4    0    0 -0.77870361303E+02  0.53521375316E+02 -0.34141500338E+03  0.35424925591E+03  0.00000000000E+00 0. -1.
</event>
<event>
 8    1  0.3708258E-009  0.1764781E+03  0.7561462E-02  0.1171256E+00
          2   -1    0    0  501    0  0.00000000000E+00  0.00000000000E+00  0.36765873398E+03  0.36765873398E+03  0.00000000000E+00 0. -1.
         -2   -1    0    0    0  501 -0.00000000000E+00 -0.00000000000E+00 -0.89945025265E+02  0.89945025265E+02  0.00000000000E+00 0.  1.
         25    2    1    2    0    0  0.77033593405E+02  0.11869882138E+03  0.18510319860E+03  0.26445119855E+03  0.12509059745E+03 0.  0.
         23    2    1    2    0    0 -0.77033593405E+02 -0.11869882138E+03  0.92610510118E+02  0.19315256070E+03  0.93314631278E+02 0.  0.
          5    1    3    3  502    0 -0.13103420671E+02 -0.16500141483E+02  0.44979557379E+02  0.49845634556E+02  0.41800000000E+01 0. -1.
         -5    1    3    3    0  502  0.90137014077E+02  0.13519896287E+03  0.14012364122E+03  0.21460556399E+03  0.41800000000E+01 0. -1.
        -11    1    4    4    0    0 -0.46733557867E+02 -0.31938518014E+00  0.18658734563E+02  0.50321723075E+02  0.00000000000E+00 0.  1.
         11    1    4    4    0    0 -0.30300035539E+02 -0.11837943620E+03  0.73951775555E+02  0.14283083763E+03  0.00000000000E+00 0. -1.
</event>
<event>
 8    1  0.3708258E-009  0.8488404E+02  0.7561462E-02  0.1315736E+00
         -3   -1    0    0    0  501 -0.00000000000E+00  0.00000000000E+00  0.25295982843E+02  0.25295982843E+02  0.00000000000E+00 0.  1.
          3   -1    0    0  501    0  0.00000000000E+00 -0.00000000000E+00 -0.51096176613E+03  0.51096176613E+03  0.00000000000E+00 0. -1.
         25    2    1    2    0    0 -0.84299980808E+00  0.36832510481E+02 -0.28566345764E+03  0.31401910465E+03  0.12508813922E+03 0.  0.
         23    2    1    2    0    0  0.84299980808E+00 -0.36832510481E+02 -0.20000232565E+03  0.22223864433E+03  0.89619977078E+02 0.  0.
          5    1    3    3  502    0  0.18419634026E+02  0.60056670688E+02 -0.27442006903E+03  0.28154916675E+03  0.41800000000E+01 0.  1.
         -5    1    3    3    0  502 -0.19262633834E+02 -0.23224160207E+02 -0.11243388613E+02  0.32469937897E+02  0.41800000000E+01 0.  1.
        -11    1    4    4    0    0  0.19080021358E+02  0.13131314009E+02 -0.10531443888E+02  0.25443858453E+02  0.00000000000E+00 0.  1.
         11    1    4    4    0    0 -0.18237021550E+02 -0.49963824490E+02 -0.18947088176E+03  0.19679478587E+03  0.00000000000E+00 0. -1.
</event>
<event>
 8    1  0.3708258E-009  0.8859409E+02  0.7561462E-02  0.1306292E+00
         -3   -1    0    0    0  501 -0.00000000000E+00  0.00000000000E+00  0.20046242574E+03  0.20046242574E+03  0.00000000000E+00 0. -1.
          3   -1    0    0  501    0  0.00000000000E+00 -0.00000000000E+00 -0.69000443419E+02  0.69000443419E+02  0.00000000000E+00 0.  1.
         25    2    1    2    0    0  0.83919233286E+01  0.18510611091E+02  0.11894983806E+03  0.17380888021E+03  0.12508955098E+03 0.  0.
         23    2    1    2    0    0 -0.83919233286E+01 -0.18510611091E+02  0.12512144265E+02  0.95653988953E+02  0.92628638921E+02 0.  0.
          5    1    3    3  502    0 -0.36931784371E+02  0.66884653578E+01  0.12098154200E+03  0.12673870037E+03  0.41800000000E+01 0. -1.
         -5    1    3    3    0  502  0.45323707700E+02  0.11822145734E+02 -0.20317039418E+01  0.47070179842E+02  0.41800000000E+01 0. -1.
        -11    1    4    4    0    0 -0.30441085481E+02  0.27724257450E+02  0.16317654373E+02  0.44289501923E+02  0.00000000000E+00 0.  1.
         11    1    4    4    0    0  0.22049162152E+02 -0.46234868542E+02 -0.38055101071E+01  0.51364487030E+02  0.00000000000E+00 0. -1.
</event>
<event>
 8    1  0.3708258E-009  0.1020279E+03  0.7561462E-02  0.1276088E+00
         -1   -1    0    0    0  501 -0.00000000000E+00  0.00000000000E+00  0.92472107532E+03  0.92472107532E+03  0.00000000000E+00 0.  1.
          1   -1    0    0  501    0  0.00000000000E+00 -0.00000000000E+00 -0.20835883347E+02  0.20835883347E+02  0.00000000000E+00 0. -1.
         25    2    1    2    0    0  0.47278763992E+02 -0.81392650211E+01  0.74132068947E+03  0.75332792314E+03  0.12508023824E+03 0.  0.
         23    2    1    2    0    0 -0.47278763992E+02  0.81392650211E+01  0.16256450251E+03  0.19222903552E+03  0.90682167283E+02 0.  0.
          5    1    3    3  502    0  0.78894997007E+02 -0.27118804282E+02  0.63993180987E+03  0.64536039836E+03  0.41800000000E+01 0.  1.
         -5    1    3    3    0  502 -0.31616233015E+02  0.18979539261E+02  0.10138887960E+03  0.10796752478E+03  0.41800000000E+01 0.  1.
        -11    1    4    4    0    0 -0.60646841329E+02 -0.93892661096E+01  0.54935533808E+02  0.82365712260E+02  0.00000000000E+00 0. -1.
         11    1    4    4    0    0  0.13368077337E+02  0.17528531131E+02  0.10762896870E+03  0.10986332326E+03  0.00000000000E+00 0.  1.
</event>
<event>
 8    1  0.3708258E-009  0.9279802E+02  0.7561462E-02  0.1296214E+00
          1   -1    0    0  501    0  0.00000000000E+00  0.00000000000E+00  0.56442653981E+02  0.56442653981E+02  0.00000000000E+00 0. -1.
         -1   -1    0    0    0  501 -0.00000000000E+00 -0.00000000000E+00 -0.23560977259E+03  0.23560977259E+03  0.00000000000E+00 0.  1.
         25    2    1    2    0    0  0.10502213970E+02 -0.80318535630E+01 -0.15144553106E+03  0.19687806961E+03  0.12510163166E+03 0.  0.
         23    2    1    2    0    0 -0.10502213970E+02  0.80318535630E+01 -0.27721587542E+02  0.95174356960E+02  0.90082543464E+02 0.  0.
          5    1    3    3  502    0  0.58753219653E+02 -0.14898931671E+02 -0.12994124655E+03  0.14344378320E+03  0.41800000000E+01 0. -1.
         -5    1    3    3    0  502 -0.48251005683E+02  0.68670781084E+01 -0.21504284511E+02  0.53434286404E+02  0.41800000000E+01 0. -1.
        -11    1    4    4    0    0 -0.39183563227E+02 -0.11952531424E+02  0.11584448388E+02  0.42572456813E+02  0.00000000000E+00 0. -1.
         11    1    4    4    0    0  0.28681349257E+02  0.19984384987E+02 -0.39306035930E+02  0.52601900147E+02  0.00000000000E+00 0.  1.
</event>
<event>
 8    1  0.3708258E-009  0.1016245E+03  0.7561462E-02  0.1276916E+00
          2   -1    0    0  501    0  0.00000000000E+00  0.00000000000E+00  0.91839956315E+03  0.91839956315E+03  0.00000000000E+00 0. -1.
         -2   -1    0    0    0  501 -0.00000000000E+00 -0.00000000000E+00 -0.16683631830E+02  0.16683631830E+02  0.00000000000E+00 0.  1.
         25    2    1    2    0    0  0.12543069592E+02  0.57996773756E+02  0.54160097258E+03  0.55901789735E+03  0.12509373166E+03 0.  0.
         23    2    1    2    0    0 -0.12543069592E+02 -0.57996773756E+02  0.36011495874E+03  0.37606529762E+03  0.90671771850E+02 0.  0.
          5    1    3    3  502    0  0.43914190700E+02  0.43891884018E+02  0.50423060706E+03  0.50805603148E+03  0.41800000000E+01 0. -1.
         -5    1    3    3    0  502 -0.31371121109E+02  0.14104889738E+02  0.37370365522E+02  0.50961865874E+02  0.41800000000E+01 0. -1.
        -11    1    4    4    0    0  0.33597627946E+02 -0.48919757181E+02  0.16450782507E+03  0.17488501295E+03  0.00000000000E+00 0. -1.
         11    1    4    4    0    0 -0.46140697538E+02 -0.90770165750E+01  0.19560713367E+03  0.20118028467E+03  0.00000000000E+00 0.  1.
</event>
<event>
 8    1  0.3708258E-009  0.1206649E+03  0.7561462E-02  0.1242004E+00
         -1   -1    0    0    0  501 -0.00000000000E+00  0.00000000000E+00  0.40112846571E+02  0.40112846571E+02  0.00000000000E+00 0.  1.
          1   -1    0    0  501    0  0.00000000000E+00 -0.00000000000E+00 -0.57915240577E+03  0.57915240577E+03  0.00000000000E+00 0. -1.
         25    2    1    2    0    0  0.91981393001E+02  0.36449649057E+02 -0.37960680876E+03  0.41175000016E+03  0.12509028659E+03 0.  0.
         23    2    1    2    0    0 -0.91981393001E+02 -0.36449649057E+02 -0.15943275044E+03  0.20751525219E+03  0.88626318895E+02 0.  0.
          5    1    3    3  502    0  0.92141308511E+02  0.46517859513E+02 -0.15141170969E+03  0.18329459954E+03  0.41800000000E+01 0.  1.
         -5    1    3    3    0  502 -0.15991551025E+00 -0.10068210456E+02 -0.22819509907E+03  0.22845540062E+03  0.41800000000E+01 0.  1.
        -11    1    4    4    0    0 -0.56449474079E+02  0.20452063039E+02 -0.45630647063E+02  0.75412107501E+02  0.00000000000E+00 0.  1.
         11    1    4    4    0    0 -0.35531918922E+02 -0.56901712096E+02 -0.11380210338E+03  0.13210314468E+03  0.00000000000E+00 0. -1.
</event>
<event>
 8    1  0.3708258E-009  0.9538955E+02  0.7561462E-02  0.1290301E+00
          1   -1    0    0  501    0  0.00000000000E+00  0.00000000000E+00  0.18501194960E+02  0.18501194960E+02  0.00000000000E+00 0. -1.
         -1   -1    0    0    0  501 -0.00000000000E+00 -0.00000000000E+00 -0.79786794636E+03  0.79786794636E+03  0.00000000000E+00 0.  1.
         25    2    1    2    0    0  0.26925889587E+02 -0.28850420481E+02 -0.56305823878E+03  0.57813477571E+03  0.12509151983E+03 0.  0.
         23    2    1    2    0    0 -0.26925889587E+02  0.28850420481E+02 -0.21630851263E+03  0.23823436562E+03  0.91700000185E+02 0.  0.
          5    1    3    3  502    0 -0.23319723463E+02 -0.35975635875E+02 -0.68206097003E+02  0.80669696587E+02  0.41800000000E+01 0.  1.
         -5    1    3    3    0  502  0.50245613050E+02  0.71252153936E+01 -0.49485214178E+03  0.49746507912E+03  0.41800000000E+01 0.  1.
        -11    1    4    4    0    0  0.12000340181E+02  0.50729444533E+02 -0.14513348017E+03  0.15421158119E+03  0.00000000000E+00 0.  1.
         11    1    4    4    0    0 -0.38926229768E+02 -0.21879024052E+02 -0.71175032455E+02  0.84022784424E+02  0.00000000000E+00 0. -1.
</event>
<event>
 8    1  0.3708258E-009  0.1047941E+03  0.7561462E-02  0.1270526E+00
          2   -1    0    0  501    0  0.00000000000E+00  0.00000000000E+00  0.35545479636E+03  0.35545479636E+03  0.00000000000E+00 0. -1.
         -2   -1    0    0    0  501 -0.00000000000E+00 -0.00000000000E+00 -0.53413284962E+02  0.53413284962E+02  0.00000000000E+00 0.  1.
         25    2    1    2    0    0  0.84016900881E+02  0.67839898660E+01  0.16853305229E+03  0.22617595668E+03  0.12508921423E+03 0.  0.
         23    2    1    2    0    0 -0.84016900881E+02 -0.67839898660E+01  0.13350845911E+03  0.18269212463E+03  0.91907788560E+02 0.  0.
          5    1    3    3  502    0  0.60744097597E+02 -0.24643792898E+02  0.14587801083E+02  0.67286241251E+02  0.41800000000E+01 0. -1.
         -5    1    3    3    0  502  0.23272803283E+02  0.31427782764E+02  0.15394525120E+03  0.15888971543E+03  0.41800000000E+01 0. -1.
        -11    1    4    4    0    0  0.86389097878E+01 -0.81934584189E+01  0.68426249856E+02  0.69454410894E+02  0.00000000000E+00 0. -1.
         11    1    4    4    0    0 -0.92655810668E+02  0.14094685529E+01  0.65082209252E+02  0.11323771374E+03  0.00000000000E+00 0.  1.
</event>
<event>
 8    1  0.3708258E-009  0.1375237E+03  0.7561462E-02  0.1216700E+00
          2   -1    0    0  501    0  0.00000000000E+00  0.00000000000E+00  0.43418115167E+03  0.43418115167E+03  0.00000000000E+00 0. -1.
         -2   -1    0    0    0  501 -0.00000000000E+00 -0.00000000000E+00 -0.68929576499E+02  0.68929576499E+02  0.00000000000E+00 0.  1.
         25    2    1    2    0    0  0.75804493761E+02 -0.61030864888E+02  0.58808939385E+02  0.16905456735E+03  0.12509943104E+03 0.  0.
         23    2    1    2    0    0 -0.75804493761E+02  0.61030864888E+02  0.30644263579E+03  0.33405616082E+03  0.90638522771E+02 0.  0.
          5    1    3    3  502    0  0.47915789734E+02  0.32619344230E+02  0.74658415562E+01  0.58593137090E+02  0.41800000000E+01 0. -1.
         -5    1    3    3    0  502  0.27888704026E+02 -0.93650209119E+02  0.51343097828E+02  0.11046143026E+03  0.41800000000E+01 0. -1.
        -11    1    4    4    0    0 -0.26831302974E+02 -0.13430584751E+02  0.15871986700E+03  0.16153109796E+03  0.00000000000E+00 0. -1.
         11    1    4    4    0    0 -0.48973190786E+02  0.74461449640E+02  0.14772276879E+03  0.17252506286E+03  0.00000000000E+00 0.  1.
</event>
<event>
 8    1  0.3708258E-009  0.1079103E+03  0.7561462E-02  0.1264489E+00
         -2   -1    0    0    0  501 -0.00000000000E+00  0.00000000000E+00  0.17492226892E+02  0.17492226892E+02  0.00000000000E+00 0.  1.
          2   -1    0    0  501    0  0.00000000000E+00 -0.00000000000E+00 -0.84861268098E+03  0.84861268098E+03  0.00000000000E+00 0. -1.
         25    2    1    2    0    0 -0.14436961571E+02  0.23134240532E+02 -0.64181298133E+03  0.65445763049E+03  0.12508904092E+03 0.  0.
         23    2    1    2    0    0  0.14436961571E+02 -0.23134240532E+02 -0.18930747275E+03  0.21164727738E+03  0.90629089351E+02 0.  0.
          5    1    3    3  502    0 -0.14553735525E+02  0.71646748418E+02 -0.47747035219E+03  0.48305328629E+03  0.41800000000E+01 0.  1.
         -5    1    3    3    0  502  0.11677395378E+00 -0.48512507887E+02 -0.16434262914E+03  0.17140434420E+03  0.41800000000E+01 0.  1.
        -11    1    4    4    0    0 -0.37689069216E+02 -0.17225418865E+02 -0.96871062662E+02  0.10536215533E+03  0.00000000000E+00 0. -1.
         11    1    4    4    0    0  0.52126030787E+02 -0.59088216663E+01 -0.92436410090E+02  0.10628512205E+03  0.00000000000E+00 0.  1.
</event>
<event>
 8    1  0.3708258E-009  0.1175582E+03  0.7561462E-02  0.1247180E+00
          1   -1    0    0  501    0  0.00000000000E+00  0.00000000000E+00  0.67695998140E+02  0.67695998140E+02  0.00000000000E+00 0. -1.
         -1   -1    0    0    0  501 -0.00000000000E+00 -0.00000000000E+00 -0.26762056093E+03  0.26762056093E+03  0.00000000000E+00 0.  1.
         25    2    1    2    0    0 -0.28516407439E+02 -0.52407374642E+02 -0.44484463015E+02  0.14555439487E+03  0.12508995166E+03 0.  0.
         23    2    1    2    0    0  0.28516407439E+02  0.52407374642E+02 -0.15544009977E+03  0.18976216419E+03  0.91040298394E+02 0.  0.
          5    1    3    3  502    0 -0.56577353204E+02  0.18179089698E+02 -0.34461112506E+02  0.68822357363E+02  0.41800000000E+01 0. -1.
         -5    1    3    3    0  502  0.28060945765E+02 -0.70586464340E+02 -0.10023350509E+02  0.76732037512E+02  0.41800000000E+01 0. -1.
        -11    1    4    4    0    0  0.48478736994E+02  0.58726424241E+01 -0.38017453633E+02  0.61887015199E+02  0.00000000000E+00 0. -1.
         11    1    4    4    0    0 -0.19962329554E+02  0.46534732218E+02 -0.11742264614E+03  0.12787514899E+03  0.00000000000E+00 0.  1.
</event>
<event>
 8    1  0.3708258E-009  0.1023457E+03  0.7561462E-02  0.1275439E+00
         -1   -1    0    0    0  501 -0.00000000000E+00  0.00000000000E+00  0.30871759819E+02  0.30871759819E+02  0.00000000000E+00 0.  1.
          1   -1    0    0  501    0  0.00000000000E+00 -0.00000000000E+00 -0.45678809787E+03  0.45678809787E+03  0.00000000000E+00 0. -1.
         25    2    1    2    0    0 -0.40681905181E+02  0.14980580951E+02 -0.28461520333E+03  0.31389976867E+03  0.12509122908E+03 0.  0.
         23    2    1    2    0    0  0.40681905181E+02 -0.14980580951E+02 -0.14130113472E+03  0.17376008902E+03  0.91362588876E+02 0.  0.
          5    1    3    3  502    0  0.25216341261E+02  0.26222739506E+02 -0.21188264046E+03  0.21502377000E+03  0.41800000000E+01 0. -1.
         -5    1    3    3    0  502 -0.65898246442E+02 -0.11242158555E+02 -0.72732562863E+02  0.98875998674E+02  0.41800000000E+01 0. -1.
        -11    1    4    4    0    0  0.66344021056E+02 -0.28359393391E+02 -0.98759532129E+02  0.12230792905E+03  0.00000000000E+00 0.  1.
         11    1    4    4    0    0 -0.25662115874E+02  0.13378812440E+02 -0.42541602596E+02  0.51452159963E+02  0.00000000000E+00 0. -1.
</event>
<event>
 8    1  0.3708258E-009  0.6082796E+02  0.7561462E-02  0.1394390E+00
         -2   -1    0    0    0  501 -0.00000000000E+00  0.00000000000E+00  0.14928719016E+03  0.14928719016E+03  0.00000000000E+00 0.  1.
          2   -1    0    0  501    0  0.00000000000E+00 -0.00000000000E+00 -0.10130061602E+03  0.10130061602E+03  0.00000000000E+00 0. -1.
         25    2    1    2    0    0 -0.18374376372E+02  0.27636580330E+02 -0.19349864993E+02  0.13085604916E+03  0.12508992784E+03 0.  0.
         23    2    1    2    0    0  0.18374376372E+02 -0.27636580330E+02  0.67336439135E+02  0.11973175702E+03  0.93274322967E+02 0.  0.
          5    1    3    3  502    0 -0.31069777061E+02  0.30401170728E+02 -0.67729859768E+02  0.80587645036E+02  0.41800000000E+01 0.  1.
         -5    1    3    3    0  502  0.12695400689E+02 -0.27645903976E+01  0.48379994776E+02  0.50268404125E+02  0.41800000000E+01 0.  1.
        -11    1    4    4    0    0  0.22862009613E+02  0.11049410369E+02  0.75745969975E+02  0.79888753404E+02  0.00000000000E+00 0.  1.
         11    1    4    4    0    0 -0.44876332417E+01 -0.38685990699E+02 -0.84095308393E+01  0.39843003619E+02  0.00000000000E+00 0. -1.
</event>
<event>
 8    1  0.3708258E-009  0.7395513E+02  0.7561462E-02  0.1347138E+00
          1   -1    0    0  501    0  0.00000000000E+00  0.00000000000E+00  0.10647366133E+03  0.10647366133E+03  0.00000000000E+00 0. -1.
         -1   -1    0    0    0  501 -0.00000000000E+00 -0.00000000000E+00 -0.12211684388E+03  0.12211684388E+03  0.00000000000E+00 0.  1.
         25    2    1    2    0    0  0.92197589248E+01  0.54778058570E+01 -0.40038936973E+02  0.13177530056E+03  0.12508638236E+03 0.  0.
         23    2    1    2    0    0 -0.92197589248E+01 -0.54778058570E+01  0.24395754424E+02  0.96815204652E+02  0.93075349616E+02 0.  0.
          5    1    3    3  502    0 -0.50077019688E+02  0.60893190265E+01 -0.50400957286E+02  0.71431901853E+02  0.41800000000E+01 0.  1.
         -5    1    3    3    0  502  0.59296778613E+02 -0.61151316951E+00  0.10362020312E+02  0.60343398704E+02  0.41800000000E+01 0.  1.
        -11    1    4    4    0    0 -0.15886050170E+01  0.15469250868E+02 -0.32324736512E+02  0.35870739871E+02  0.00000000000E+00 0.  1.
         11    1    4    4    0    0 -0.76311539078E+01 -0.20947056725E+02  0.56720490936E+02  0.60944464781E+02  0.00000000000E+00 0. -1.
</event>
<event>
 8    1  0.3708258E-009  0.1060364E+03  0.7561462E-02  0.1268091E+00
         -1   -1    0    0    0  501 -0.00000000000E+00  0.00000000000E+00  0.34206103732E+02  0.34206103732E+02  0.00000000000E+00 0.  1.
          1   -1    0    0  501    0  0.00000000000E+00 -0.00000000000E+00 -0.49034103765E+03  0.49034103765E+03  0.00000000000E+00 0. -1.
         25    2    1    2    0    0  0.74118036410E+00 -0.70949820371E+02 -0.24965251913E+03  0.28811262721E+03  0.12509228311E+03 0.  0.
         23    2    1    2    0    0 -0.74118036410E+00  0.70949820371E+02 -0.20648241479E+03  0.23643451417E+03  0.90729628643E+02 0.  0.
          5    1    3    3  502    0 -0.25264250941E+02  0.80972154463E+01 -0.21285594058E+01  0.26941611658E+02  0.41800000000E+01 0.  1.
         -5    1    3    3    0  502  0.26005431305E+02 -0.79047035818E+02 -0.24752395972E+03  0.26117101555E+03  0.41800000000E+01 0.  1.
        -11    1    4    4    0    0 -0.30507521717E+02  0.64626071646E+02 -0.84281424041E+02  0.11050156766E+03  0.00000000000E+00 0.  1.
         11    1    4    4    0    0  0.29766341353E+02  0.63237487249E+01 -0.12220099075E+03  0.12593294650E+03  0.00000000000E+00 0. -1.
</event>
<event>
 8    1  0.3708258E-009  0.1167430E+03  0.7561462E-02  0.1248569E+00
          1   -1    0    0  501    0  0.00000000000E+00  0.00000000000E+00  0.61504613490E+03  0.61504613490E+03  0.00000000000E+00 0. -1.
         -1   -1    0    0    0  501 -0.00000000000E+00 -0.00000000000E+00 -0.23990346599E+02  0.23990346599E+02  0.00000000000E+00 0.  1.
         25    2    1    2    0    0  0.10461622882E+01  0.52884905595E+02  0.33185393349E+03  0.35856793702E+03  0.12508407010E+03 0.  0.
         23    2    1    2    0    0 -0.10461622882E+01 -0.52884905595E+02  0.25920185481E+03  0.28046854448E+03  0.93161661687E+02 0.  0.
          5    1    3    3  502    0  0.58916119080E+02  0.12641542573E+02  0.20098167892E+03  0.20986191972E+03  0.41800000000E+01 0. -1.
         -5    1    3    3    0  502 -0.57869956791E+02  0.40243363022E+02  0.13087225456E+03  0.14870601730E+03  0.41800000000E+01 0. -1.
        -11    1    4    4    0    0  0.33392290456E+02 -0.58713268020E+02  0.12838395219E+03  0.14506802571E+03  0.00000000000E+00 0.  1.
         11    1    4    4    0    0 -0.34438452745E+02  0.58283624252E+01  0.13081790263E+03  0.13540051877E+03  0.00000000000E+00 0. -1.
</event>
<event>
 8    1  0.3708258E-009  0.1623668E+03  0.7561462E-02  0.1186050E+00
          2   -1    0    0  501    0  0.00000000000E+00  0.00000000000E+00  0.10466763334E+04  0.10466763334E+04  0.00000000000E+00 0. -1.
         -2   -1    0    0    0  501 -0.00000000000E+00 -0.00000000000E+00 -0.36991326699E+02  0.36991326699E+02  0.00000000000E+00 0.  1.
         25    2    1    2    0    0  0.13248124447E+03 -0.71587369226E+02  0.35433113528E+03  0.40481325776E+03  0.12508872314E+03 0.  0.
         23    2    1    2    0    0 -0.13248124447E+03  0.71587369226E+02  0.65535387141E+03  0.67885440233E+03  0.93158849416E+02 0.  0.
          5    1    3    3  502    0  0.57955792971E+01  0.15022402412E+02 -0.20610657560E+01  0.16762508931E+02  0.41800000000E+01 0. -1.
         -5    1    3    3    0  502  0.12668566518E+03 -0.86609771638E+02  0.35639220104E+03  0.38805074883E+03  0.41800000000E+01 0. -1.
        -11    1    4    4    0    0 -0.25748059613E+02  0.31219788904E+02  0.58144611071E+02  0.70840903366E+02  0.00000000000E+00 0.  1.
         11    1    4    4    0    0 -0.10673318486E+03  0.40367580322E+02  0.59720926034E+03  0.60801349897E+03  0.00000000000E+00 0. -1.
</event>
<event>
 8    1  0.3708258E-009  0.1048014E+03  0.7561462E-02  0.1270511E+00
         -2   -1    0    0    0  501 -0.00000000000E+00  0.00000000000E+00  0.96160905412E+02  0.96160905412E+02  0.00000000000E+00 0.  1.
          2   -1    0    0  501    0  0.00000000000E+00 -0.00000000000E+00 -0.12880343766E+03  0.12880343766E+03  0.00000000000E+00 0. -1.
         25    2    1    2    0    0  0.13211533744E+02  0.14257816314E+02 -0.21704427702E+01  0.12661141452E+03  0.12509160450E+03 0.  0.
         23    2    1    2    0    0 -0.13211533744E+02 -0.14257816314E+02 -0.30472089480E+02  0.98352928551E+02  0.91470871688E+02 0.  0.
          5    1    3    3  502    0  0.59368012153E+02  0.38849945535E+02  0.12430634742E+02  0.72151730507E+02  0.41800000000E+01 0. -1.
         -5    1    3    3    0  502 -0.46156478408E+02 -0.24592129221E+02 -0.14601077512E+02  0.54459684017E+02  0.41800000000E+01 0. -1.
        -11    1    4    4    0    0 -0.44528902848E+02  0.10957517891E+02  0.31153450551E+01  0.45962982518E+02  0.00000000000E+00 0.  1.
         11    1    4    4    0    0  0.31317369104E+02 -0.25215334205E+02 -0.33587434536E+02  0.52389946033E+02  0.00000000000E+00 0. -1.
</event>
<event>
 8    1  0.3708258E-009  0.1134149E+03  0.7561462E-02  0.1254374E+00
          3   -1    0    0  501    0  0.00000000000E+00  0.00000000000E+00  0.71907760306E+02  0.71907760306E+02  0.00000000000E+00 0. -1.
         -3   -1    0    0    0  501 -0.00000000000E+00 -0.00000000000E+00 -0.21869192929E+03  0.21869192929E+03  0.00000000000E+00 0.  1.
         25    2    1    2    0    0  0.14058358952E+02 -0.62198491533E+02 -0.86289382658E+02  0.16480627458E+03  0.12509580639E+03 0.  0.
         23    2    1    2    0    0 -0.14058358952E+02  0.62198491533E+02 -0.60494786322E+02  0.12579341501E+03  0.89989300936E+02 0.  0.
          5    1    3    3  502    0  0.55022943415E+01 -0.92802482866E+02 -0.26157408456E+02  0.96665704809E+02  0.41800000000E+01 0.  1.
         -5    1    3    3    0  502  0.85560646105E+01  0.30603991333E+02 -0.60131974203E+02  0.68140569770E+02  0.41800000000E+01 0.  1.
        -11    1    4    4    0    0 -0.43559625983E+02  0.57039761093E+02 -0.18328524063E+02  0.74073680586E+02  0.00000000000E+00 0.  1.
         11    1    4    4    0    0  0.29501267031E+02  0.51587304409E+01 -0.42166262259E+02  0.51719734426E+02  0.00000000000E+00 0. -1.
</event>
<event>
 8    1  0.3708258E-009  0.9094262E+02  0.7561462E-02  0.1300585E+00
          2   -1    0    0  501    0  0.00000000000E+00  0.00000000000E+00  0.14909891716E+03  0.14909891716E+03  0.00000000000E+00 0.  1.
         -2   -1    0    0    0  501 -0.00000000000E+00 -0.00000000000E+00 -0.87031233971E+02  0.87031233971E+02  0.00000000000E+00 0. -1.
         25    2    1    2    0    0  0.11218109129E+01 -0.34149955909E+02  0.29842950519E+02  0.13306281488E+03  0.12509049948E+03 0.  0.
         23    2    1    2    0    0 -0.11218109129E+01  0.34149955909E+02  0.32224732674E+02  0.10306733626E+03  0.91744015928E+02 0.  0.
          5    1    3    3  502    0  0.10819310592E+02 -0.59527187974E+02 -0.29665237077E+02  0.67513274848E+02  0.41800000000E+01 0.  1.
         -5    1    3    3    0  502 -0.96974996790E+01  0.25377232065E+02  0.59508187596E+02  0.65549540031E+02  0.41800000000E+01 0.  1.
        -11    1    4    4    0    0 -0.27400646333E+02  0.54176774578E+02  0.34710530974E+02  0.69933820743E+02  0.00000000000E+00 0.  1.
         11    1    4    4    0    0  0.26278835420E+02 -0.20026818669E+02 -0.24857983000E+01  0.33133515513E+02  0.00000000000E+00 0. -1.
</event>
<event>
 8    1  0.3708258E-009  0.5255365E+02  0.7561462E-02  0.1432035E+00
          2   -1    0    0  501    0  0.00000000000E+00  0.00000000000E+00  0.47673466473E+02  0.47673466473E+02  0.00000000000E+00 0.  1.
         -2   -1    0    0    0  501 -0.00000000000E+00 -0.00000000000E+00 -0.28724641976E+03  0.28724641976E+03  0.00000000000E+00 0. -1.
         25    2    1    2    0    0  0.22166150784E+02  0.89298076326E+01 -0.84881840944E+02  0.15304612347E+03  0.12508840587E+03 0.  0.
         23    2    1    2    0    0 -0.22166150784E+02 -0.89298076326E+01 -0.15469111234E+03  0.18187376276E+03  0.92615579889E+02 0.  0.
          5    1    3    3  502    0  0.22244004068E+02 -0.20517667652E+02 -0.10997064097E+03  0.11413494065E+03  0.41800000000E+01 0. -1.
         -5    1    3    3    0  502 -0.77853283500E-01  0.29447475284E+02  0.25088800023E+02  0.38911182819E+02  0.41800000000E+01 0. -1.
        -11    1    4    4    0    0 -0.30547957659E+02 -0.15415758656E+02 -0.16414390977E+03  0.16767243795E+03  0.00000000000E+00 0. -1.
         11    1    4    4    0    0  0.83818068745E+01  0.64859510230E+01  0.94527974309E+01  0.14201324812E+02  0.00000000000E+00 0.  1.
</event>
<event>
 8    1  0.3708258E-009  0.1478533E+03  0.7561462E-02  0.1203136E+00
         -2   -1    0    0    0  501 -0.00000000000E+00  0.00000000000E+00  0.28614070408E+02  0.28614070408E+02  0.00000000000E+00 0.  1.
          2   -1    0    0  501    0  0.00000000000E+00 -0.00000000000E+00 -0.10249639267E+04  0.10249639267E+04  0.00000000000E+00 0. -1.
         25    2    1    2    0    0  0.44765540473E+02 -0.11585986094E+03 -0.38728340670E+03  0.42551510113E+03  0.12508878123E+03 0.  0.
         23    2    1    2    0    0 -0.44765540473E+02  0.11585986094E+03 -0.60906644961E+03  0.62806289600E+03  0.89853215303E+02 0.  0.
          5    1    3    3  502    0 -0.21155947097E+02 -0.97292239676E+02 -0.16376415877E+03  0.19170165908E+03  0.41800000000E+01 0. -1.
         -5    1    3    3    0  502  0.65921487570E+02 -0.18567621268E+02 -0.22351924794E+03  0.23381344205E+03  0.41800000000E+01 0. -1.
        -11    1    4    4    0    0 -0.32092747902E+02  0.10766803245E+03 -0.60006549908E+03  0.61049238559E+03  0.00000000000E+00 0. -1.
         11    1    4    4    0    0 -0.12672792571E+02  0.81918284950E+01 -0.90009505331E+01  0.17570510412E+02  0.00000000000E+00 0.  1.
</event>
<event>
 8    1  0.3708258E-009  0.1148055E+03  0.7561462E-02  0.1251921E+00
          1   -1    0    0  501    0  0.00000000000E+00  0.00000000000E+00  0.55975086120E+03  0.55975086120E+03  0.00000000000E+00 0. -1.
         -1   -1    0    0    0  501 -0.00000000000E+00 -0.00000000000E+00 -0.43083464291E+02  0.43083464291E+02  0.00000000000E+00 0.  1.
         25    2    1    2    0    0  0.36028261793E+02 -0.48065320173E+02  0.97790898527E+02  0.16976002890E+03  0.12508835647E+03 0.  0.
         23    2    1    2    0    0 -0.36028261793E+02  0.48065320173E+02  0.41887649838E+03  0.43307429659E+03  0.92127709312E+02 0.  0.
          5    1    3    3  502    0  0.59936162309E+02  0.63958749765E+01  0.65644185463E+01  0.60776761676E+02  0.41800000000E+01 0.  1.
         -5    1    3    3    0  502 -0.23907900515E+02 -0.54461195149E+02  0.91226479981E+02  0.10898326722E+03  0.41800000000E+01 0.  1.
        -11    1    4    4    0    0 -0.61648911596E+02  0.55433407475E+02  0.33230821006E+03  0.34249408380E+03  0.00000000000E+00 0.  1.
         11    1    4    4    0    0  0.25620649802E+02 -0.73680873023E+01  0.86568288321E+02  0.90580212793E+02  0.00000000000E+00 0. -1.
</event>
<event>
 8    1  0.3708258E-009  0.9751751E+02  0.7561462E-02  0.1285605E+00
         -2   -1    0    0    0  501 -0.00000000000E+00  0.00000000000E+00  0.59908255291E+02  0.59908255291E+02  0.00000000000E+00 0. -1.
          2   -1    0    0  501    0  0.00000000000E+00 -0.00000000000E+00 -0.21553159686E+03  0.21553159686E+03  0.00000000000E+00 0.  1.
         25    2    1    2    0    0  0.28073710321E+01  0.31936673608E+02 -0.59384851419E+02  0.14214440833E+03  0.12510251712E+03 0.  0.
         23    2    1    2    0    0 -0.28073710321E+01 -0.31936673608E+02 -0.96238490148E+02  0.13329544382E+03  0.86475406347E+02 0.  0.
          5    1    3    3  502    0  0.28879905436E+02 -0.36232095812E+02 -0.50238233672E+02  0.68470184952E+02  0.41800000000E+01 0. -1.
         -5    1    3    3    0  502 -0.26072534404E+02  0.68168769420E+02 -0.91466177465E+01  0.73674223380E+02  0.41800000000E+01 0. -1.
        -11    1    4    4    0    0  0.56103740787E+01  0.21036132810E+02  0.14824730166E+01  0.21821844724E+02  0.00000000000E+00 0. -1.
         11    1    4    4    0    0 -0.84177451108E+01 -0.52972806419E+02 -0.97720963165E+02  0.11147359909E+03  0.00000000000E+00 0.  1.
</event>
<event>
 8    1  0.3708258E-009  0.1013759E+03  0.7561462E-02  0.1277429E+00
          1   -1    0    0  501    0  0.00000000000E+00  0.00000000000E+00  0.10072492157E+04  0.10072492157E+04  0.00000000000E+00 0.  1.
         -1   -1    0    0    0  501 -0.00000000000E+00 -0.00000000000E+00 -0.12468492480E+02  0.12468492480E+02  0.00000000000E+00 0. -1.
         25    2    1    2    0    0  0.16080487788E+01  0.29834832879E+01  0.71048343816E+03  0.72141888780E+03  0.12508800413E+03 0.  0.
         23    2    1    2    0    0 -0.16080487788E+01 -0.29834832879E+01  0.28429728509E+03  0.29829882041E+03  0.90253825162E+02 0.  0.
          5    1    3    3  502    0  0.57675656907E+02 -0.23345271716E+02  0.31820701235E+03  0.32426017057E+03  0.41800000000E+01 0. -1.
         -5    1    3    3    0  502 -0.56067608128E+02  0.26328755004E+02  0.39227642581E+03  0.39715871722E+03  0.41800000000E+01 0. -1.
        -11    1    4    4    0    0 -0.22196385789E+02  0.31267539871E+02  0.21424474078E+03  0.21764913862E+03  0.00000000000E+00 0.  1.
         11    1    4    4    0    0  0.20588337010E+02 -0.34251023159E+02  0.70052544306E+02  0.80649681785E+02  0.00000000000E+00 0. -1.
</event>
<event>
 8    1  0.3708258E-009  0.8708926E+02  0.7561462E-02  0.1310058E+00
         -1   -1    0    0    0  501 -0.00000000000E+00  0.00000000000E+00  0.15301021129E+02  0.15301021129E+02  0.00000000000E+00 0.  1.
          1   -1    0    0  501    0  0.00000000000E+00 -0.00000000000E+00 -0.10927100605E+04  0.10927100605E+04  0.00000000000E+00 0. -1.
         25    2    1    2    0    0  0.47116711283E+02 -0.11496859532E+02 -0.81202049104E+03  0.82302835874E+03  0.12508492779E+03 0.  0.
         23    2    1    2    0    0 -0.47116711283E+02  0.11496859532E+02 -0.26538854837E+03  0.28498272293E+03  0.91825424042E+02 0.  0.
          5    1    3    3  502    0  0.56171714475E+02  0.42689278490E+01 -0.14307327278E+03  0.15382106174E+03  0.41800000000E+01 0. -1.
         -5    1    3    3    0  502 -0.90550031922E+01 -0.15765787381E+02 -0.66894721826E+03  0.66920729700E+03  0.41800000000E+01 0. -1.
        -11    1    4    4    0    0  0.16402270669E+02  0.28850947204E+02 -0.52199228148E+02  0.61856051094E+02  0.00000000000E+00 0.  1.
         11    1    4    4    0    0 -0.63518981952E+02 -0.17354087672E+02 -0.21318932022E+03  0.22312667184E+03  0.00000000000E+00 0. -1.
</event>
<event>
 8    1  0.3708258E-009  0.1148772E+03  0.7561462E-02  0.1251796E+00
          2   -1    0    0  501    0  0.00000000000E+00  0.00000000000E+00  0.48190121115E+03  0.48190121115E+03  0.00000000000E+00 0. -1.
         -2   -1    0    0    0  501 -0.00000000000E+00 -0.00000000000E+00 -0.28864960082E+02  0.28864960082E+02  0.00000000000E+00 0.  1.
         25    2    1    2    0    0  0.14056057406E+02  0.43444154009E+02  0.27823089910E+03  0.30845547998E+03  0.12508949854E+03 0.  0.
         23    2    1    2    0    0 -0.14056057406E+02 -0.43444154009E+02  0.17480535196E+03  0.20231069125E+03  0.91037011442E+02 0.  0.
          5    1    3    3  502    0  0.58723754129E+02  0.59422827081E+02  0.20115070145E+03  0.21785001440E+03  0.41800000000E+01 0. -1.
         -5    1    3    3    0  502 -0.44667696723E+02 -0.15978673072E+02  0.77080197649E+02  0.90605465581E+02  0.41800000000E+01 0. -1.
        -11    1    4    4    0    0 -0.50129812283E+02 -0.14363426368E+02  0.11796554099E+03  0.12897742034E+03  0.00000000000E+00 0. -1.
         11    1    4    4    0    0  0.36073754878E+02 -0.29080727641E+02  0.56839810977E+02  0.73333270914E+02  0.00000000000E+00 0.  1.
</event>
<event>
 8    1  0.3708258E-009  0.1162351E+03  0.7561462E-02  0.1249440E+00
         -2   -1    0    0    0  501 -0.00000000000E+00  0.00000000000E+00  0.60049331819E+03  0.60049331819E+03  0.00000000000E+00 0.  1.
          2   -1    0    0  501    0  0.00000000000E+00 -0.00000000000E+00 -0.34208616373E+02  0.34208616373E+02  0.00000000000E+00 0. -1.
         25    2    1    2    0    0 -0.48704219539E+02  0.70546507303E+02  0.39540084860E+03  0.42347927809E+03  0.12507580584E+03 0.  0.
         23    2    1    2    0    0  0.48704219539E+02 -0.70546507303E+02  0.17088385322E+03  0.21122265647E+03  0.89804279534E+02 0.  0.
          5    1    3    3  502    0  0.15262170196E+02 -0.67567775973E+01  0.22522822019E+03  0.22588450910E+03  0.41800000000E+01 0. -1.
         -5    1    3    3    0  502 -0.63966389735E+02  0.77303284900E+02  0.17017262841E+03  0.19759476899E+03  0.41800000000E+01 0. -1.
        -11    1    4    4    0    0  0.59618403190E+02 -0.19630282567E+02  0.13223083545E+03  0.14637177268E+03  0.00000000000E+00 0.  1.
         11    1    4    4    0    0 -0.10914183651E+02 -0.50916224737E+02  0.38653017762E+02  0.64850883790E+02  0.00000000000E+00 0. -1.
</event>
<event>
 8    1  0.3708258E-009  0.1064816E+03  0.7561462E-02  0.1267228E+00
          1   -1    0    0  501    0  0.00000000000E+00  0.00000000000E+00  0.15860653132E+03  0.15860653132E+03  0.00000000000E+00 0. -1.
         -1   -1    0    0    0  501 -0.00000000000E+00 -0.00000000000E+00 -0.12882237213E+03  0.12882237213E+03  0.00000000000E+00 0.  1.
         25    2    1    2    0    0 -0.34778331341E+02  0.12628300064E+02 -0.70110897031E+02  0.14809709023E+03  0.12509278140E+03 0.  0.
         23    2    1    2    0    0  0.34778331341E+02 -0.12628300064E+02  0.99895056226E+02  0.13933181323E+03  0.89807157986E+02 0.  0.
          5    1    3    3  502    0 -0.40172479064E+01  0.59898188741E+02 -0.68970619347E+02  0.91533327419E+02  0.41800000000E+01 0.  1.
         -5    1    3    3    0  502 -0.30761083435E+02 -0.47269888677E+02 -0.11402776836E+01  0.56563762806E+02  0.41800000000E+01 0.  1.
        -11    1    4    4    0    0  0.53209395990E+02  0.21545118586E+02  0.50137622902E+02  0.76218194592E+02  0.00000000000E+00 0.  1.
         11    1    4    4    0    0 -0.18431064650E+02 -0.34173418650E+02  0.49757433324E+02  0.63113618636E+02  0.00000000000E+00 0. -1.
</event>
<event>
 8    1  0.3708258E-009  0.1034535E+03  0.7561462E-02  0.1273197E+00
         -1   -1    0    0    0  501 -0.00000000000E+00  0.00000000000E+00  0.39304919129E+02  0.39304919129E+02  0.00000000000E+00 0.  1.
          1   -1    0    0  501    0  0.00000000000E+00 -0.00000000000E+00 -0.42581265939E+03  0.42581265939E+03  0.00000000000E+00 0. -1.
         25    2    1    2    0    0  0.64074670415E+02  0.23711128200E+02 -0.17980243122E+03  0.22944227265E+03  0.12508821374E+03 0.  0.
         23    2    1    2    0    0 -0.64074670415E+02 -0.23711128200E+02 -0.20670530903E+03  0.23567530586E+03  0.90266184266E+02 0.  0.
          5    1    3    3  502    0 -0.23300670180E+02  0.32448702897E+02 -0.11026954672E+03  0.11735708281E+03  0.41800000000E+01 0. -1.
         -5    1    3    3    0  502  0.87375340594E+02 -0.87375746974E+01 -0.69532884500E+02  0.11208518984E+03  0.41800000000E+01 0. -1.
        -11    1    4    4    0    0 -0.23161167477E+02 -0.29503742445E+02 -0.16403236078E+02  0.40938693811E+02  0.00000000000E+00 0.  1.
         11    1    4    4    0    0 -0.40913502938E+02  0.57926142445E+01 -0.19030207295E+03  0.19473661205E+03  0.00000000000E+00 0. -1.
</event>
<event>
 8    1  0.3708258E-009  0.1122098E+03  0.7561462E-02  0.1256532E+00
          2   -1    0    0  501    0  0.00000000000E+00  0.00000000000E+00  0.53040215192E+03  0.53040215192E+03  0.00000000000E+00 0. -1.
         -2   -1    0    0    0  501 -0.00000000000E+00 -0.00000000000E+00 -0.30017741419E+02  0.30017741419E+02  0.00000000000E+00 0.  1.
         25    2    1    2    0    0 -0.28766355686E+02  0.24422616363E+02  0.40225320328E+03  0.42293999432E+03  0.12508649742E+03 0.  0.
         23    2    1    2    0    0  0.28766355686E+02 -0.24422616363E+02  0.98131207222E+02  0.13747989902E+03  0.88583414894E+02 0.  0.
          5    1    3    3  502    0  0.84578812842E+01  0.70573141065E+02  0.21608130872E+03  0.22750979842E+03  0.41800000000E+01 0. -1.
         -5    1    3    3    0  502 -0.37224236970E+02 -0.46150524702E+02  0.18617189456E+03  0.19543019590E+03  0.41800000000E+01 0. -1.
        -11    1    4    4    0    0  0.41260872237E+02  0.21262279046E+02  0.33015541484E+02  0.56961127688E+02  0.00000000000E+00 0.  1.
         11    1    4    4    0    0 -0.12494516551E+02 -0.45684895409E+02  0.65115665738E+02  0.80518771333E+02  0.00000000000E+00 0. -1.
</event>
<event>
 8    1  0.3708258E-009  0.1301302E+03  0.7561462E-02  0.1227263E+00
         -1   -1    0    0    0  501 -0.00000000000E+00  0.00000000000E+00  0.30721272282E+03  0.30721272282E+03  0.00000000000E+00 0.  1.
          1   -1    0    0  501    0  0.00000000000E+00 -0.00000000000E+00 -0.72869678216E+02  0.72869678216E+02  0.00000000000E+00 0. -1.
         25    2    1    2    0    0  0.93860555574E+02  0.73160876998E+00  0.17917218043E+03  0.23782044754E+03  0.12508219651E+03 0.  0.
         23    2    1    2    0    0 -0.93860555574E+02 -0.73160876998E+00  0.55170864179E+02  0.14226195350E+03  0.91565823403E+02 0.  0.
          5    1    3    3  502    0  0.12352486655E+03  0.16503211702E+01  0.12430364829E+03  0.17529970220E+03  0.41800000000E+01 0. -1.
         -5    1    3    3    0  502 -0.29664310972E+02 -0.91871240023E+00  0.54868532139E+02  0.62520745333E+02  0.41800000000E+01 0. -1.
        -11    1    4    4    0    0 -0.28179701192E+02 -0.23986586490E+02  0.62049835741E+02  0.72247034585E+02  0.00000000000E+00 0.  1.
         11    1    4    4    0    0 -0.65680854381E+02  0.23254977720E+02 -0.68789715621E+01  0.70014918916E+02  0.00000000000E+00 0. -1.
</event>
<event>
 8    1  0.3708258E-009  0.1629046E+03  0.7561462E-02  0.1185456E+00
         -1   -1    0    0    0  501 -0.00000000000E+00  0.00000000000E+00  0.48815096886E+03  0.48815096886E+03  0.00000000000E+00 0.  1.
          1   -1    0    0  501    0  0.00000000000E+00 -0.00000000000E+00 -0.14912942013E+03  0.14912942013E+03  0.00000000000E+00 0. -1.
         25    2    1    2    0    0  0.30656039075E+02  0.13363939285E+03 -0.68301854153E+02  0.19776658035E+03  0.12508875637E+03 0.  0.
         23    2    1    2    0    0 -0.30656039075E+02 -0.13363939285E+03  0.40732340289E+03  0.43951380864E+03  0.91982353734E+02 0.  0.
          5    1    3    3  502    0  0.64496020260E+02  0.96027348212E+02 -0.85783707194E+02  0.14407395689E+03  0.41800000000E+01 0. -1.
         -5    1    3    3    0  502 -0.33839981186E+02  0.37612044633E+02  0.17481853041E+02  0.53692623459E+02  0.41800000000E+01 0. -1.
        -11    1    4    4    0    0  0.21835851525E+02 -0.84889772842E+02  0.28026006651E+03  0.29364737837E+03  0.00000000000E+00 0.  1.
         11    1    4    4    0    0 -0.52491890600E+02 -0.48749620003E+02  0.12706333638E+03  0.14586643027E+03  0.00000000000E+00 0. -1.
</event>
<event>
 8    1  0.3708258E-009  0.1167881E+03  0.7561462E-02  0.1248492E+00
          1   -1    0    0  501    0  0.00000000000E+00  0.00000000000E+00  0.73205511779E+02  0.73205511779E+02  0.00000000000E+00 0. -1.
         -1   -1    0    0    0  501 -0.00000000000E+00 -0.00000000000E+00 -0.28437409245E+03  0.28437409245E+03  0.00000000000E+00 0.  1.
         25    2    1    2    0    0  0.35558765794E+02  0.84947685721E+02 -0.86645133685E+02  0.17786345855E+03  0.12508994988E+03 0.  0.
         23    2    1    2    0    0 -0.35558765794E+02 -0.84947685721E+02 -0.12452344698E+03  0.17971614568E+03  0.91166161674E+02 0.  0.
          5    1    3    3  502    0 -0.11549736094E+02  0.76588665820E+02 -0.10135884305E+03  0.12763348934E+03  0.41800000000E+01 0.  1.
         -5    1    3    3    0  502  0.47108501888E+02  0.83590199009E+01  0.14713709364E+02  0.50229969213E+02  0.41800000000E+01 0.  1.
        -11    1    4    4    0    0 -0.18441758838E+02  0.27358152989E+01  0.76746007719E+01  0.20161414915E+02  0.00000000000E+00 0. -1.
         11    1    4    4    0    0 -0.17117006956E+02 -0.87683501020E+02 -0.13219804775E+03  0.15955473076E+03  0.00000000000E+00 0.  1.
</event>
<event>
 8    1  0.3708258E-009  0.8486748E+02  0.7561462E-02  0.1315779E+00
          3   -1    0    0  501    0  0.00000000000E+00  0.00000000000E+00  0.19613967818E+03  0.19613967818E+03  0.00000000000E+00 0. -1.
         -3   -1    0    0    0  501 -0.00000000000E+00 -0.00000000000E+00 -0.14592374700E+03  0.14592374700E+03  0.00000000000E+00 0.  1.
         25    2    1    2    0    0  0.17350295757E+02  0.71345631066E+02  0.13426212257E+03  0.19764642303E+03  0.12508620685E+03 0.  0.
         23    2    1    2    0    0 -0.17350295757E+02 -0.71345631066E+02 -0.84046191387E+02  0.14441700215E+03  0.91658476903E+02 0.  0.
          5    1    3    3  502    0  0.27393470167E+02  0.15677230996E+02  0.13720335494E+03  0.14084889345E+03  0.41800000000E+01 0. -1.
         -5    1    3    3    0  502 -0.10043174409E+02  0.55668400071E+02 -0.29412323661E+01  0.56797529581E+02  0.41800000000E+01 0. -1.
        -11    1    4    4    0    0  0.10478901049E+02 -0.14574704434E+02 -0.78974504273E+02  0.80988898632E+02  0.00000000000E+00 0.  1.
         11    1    4    4    0    0 -0.27829196807E+02 -0.56770926633E+02 -0.50716871136E+01  0.63428103518E+02  0.00000000000E+00 0. -1.
</event>
<event>
 8    1  0.3708258E-009  0.1803923E+03  0.7561462E-02  0.1167424E+00
          3   -1    0    0  501    0  0.00000000000E+00  0.00000000000E+00  0.21956431792E+03  0.21956431792E+03  0.00000000000E+00 0. -1.
         -3   -1    0    0    0  501 -0.00000000000E+00 -0.00000000000E+00 -0.20498884962E+03  0.20498884962E+03  0.00000000000E+00 0.  1.
         25    2    1    2    0    0 -0.15739618323E+03  0.25012207383E+02  0.93416667033E+02  0.22309890627E+03  0.12508908539E+03 0.  0.
         23    2    1    2    0    0  0.15739618323E+03 -0.25012207383E+02 -0.78841198731E+02  0.20145426127E+03  0.94703303815E+02 0.  0.
          5    1    3    3  502    0 -0.13263246089E+03 -0.34197915226E+02  0.51826075094E+02  0.14650693344E+03  0.41800000000E+01 0.  1.
         -5    1    3    3    0  502 -0.24763722345E+02  0.59210122608E+02  0.41590591938E+02  0.76591972826E+02  0.41800000000E+01 0.  1.
        -11    1    4    4    0    0  0.28248469296E+02 -0.62425307755E+01  0.22151084692E+02  0.36436461973E+02  0.00000000000E+00 0. -1.
         11    1    4    4    0    0  0.12914771393E+03 -0.18769676607E+02 -0.10099228342E+03  0.16501779930E+03  0.00000000000E+00 0.  1.
</event>
<event>
 8    1  0.3708258E-009  0.1976422E+03  0.7561462E-02  0.1151744E+00
         -2   -1    0    0    0  501 -0.00000000000E+00  0.00000000000E+00  0.47114667073E+02  0.47114667073E+02  0.00000000000E+00 0.  1.
          2   -1    0    0  501    0  0.00000000000E+00 -0.00000000000E+00 -0.97947021561E+03  0.97947021561E+03  0.00000000000E+00 0. -1.
         25    2    1    2    0    0  0.71008801641E+02 -0.16342816825E+03 -0.36457288004E+03  0.42463069358E+03  0.12508726945E+03 0.  0.
         23    2    1    2    0    0 -0.71008801641E+02  0.16342816825E+03 -0.56778266850E+03  0.60195418911E+03  0.90667916337E+02 0.  0.
          5    1    3    3  502    0  0.24441395065E+01 -0.13770956349E+03 -0.28405306768E+03  0.31571112644E+03  0.41800000000E+01 0. -1.
         -5    1    3    3    0  502  0.68564662134E+02 -0.25718604753E+02 -0.80519812360E+02  0.10891956714E+03  0.41800000000E+01 0. -1.
        -11    1    4    4    0    0 -0.69359924295E+02  0.10591900449E+03 -0.26422157318E+03  0.29298920517E+03  0.00000000000E+00 0.  1.
         11    1    4    4    0    0 -0.16488773455E+01  0.57509163757E+02 -0.30356109532E+03  0.30896498394E+03  0.00000000000E+00 0. -1.
</event>
<event>
 8    1  0.3708258E-009  0.1061504E+03  0.7561462E-02  0.1267870E+00
         -2   -1    0    0    0  501 -0.00000000000E+00  0.00000000000E+00  0.40340514288E+02  0.40340514288E+02  0.00000000000E+00 0.  1.
          2   -1    0    0  501    0  0.00000000000E+00 -0.00000000000E+00 -0.31845087258E+03  0.31845087258E+03  0.00000000000E+00 0. -1.
         25    2    1    2    0    0 -0.28452240093E+02  0.10116196866E+02 -0.12677806239E+03  0.18064535507E+03  0.12509276477E+03 0.  0.
         23    2    1    2    0    0  0.28452240093E+02 -0.10116196866E+02 -0.15133229590E+03  0.17814603180E+03  0.89009423428E+02 0.  0.
          5    1    3    3  502    0  0.37078157573E+02  0.38932979837E+02 -0.35473043369E+02  0.64547470081E+02  0.41800000000E+01 0.  1.
         -5    1    3    3    0  502 -0.65530397667E+02 -0.28816782971E+02 -0.91305019023E+02  0.11609788499E+03  0.41800000000E+01 0.  1.
        -11    1    4    4    0    0 -0.63553001200E+01  0.31658743392E+02 -0.92784102599E+02  0.98242330835E+02  0.00000000000E+00 0.  1.
         11    1    4    4    0    0  0.34807540213E+02 -0.41774940258E+02 -0.58548193298E+02  0.79903700964E+02  0.00000000000E+00 0. -1.
</event>
<event>
 8    1  0.3708258E-009  0.2303319E+03  0.7561462E-02  0.1126406E+00
          2   -1    0    0  501    0  0.00000000000E+00  0.00000000000E+00  0.74291846104E+03  0.74291846104E+03  0.00000000000E+00 0. -1.
         -2   -1    0    0    0  501 -0.00000000000E+00 -0.00000000000E+00 -0.81198757261E+02  0.81198757261E+02  0.00000000000E+00 0.  1.
         25    2    1    2    0    0  0.68151460014E+02 -0.20847121998E+03  0.36257517595E+03  0.44182952010E+03  0.12509074927E+03 0.  0.
         23    2    1    2    0    0 -0.68151460014E+02  0.20847121998E+03  0.29914452783E+03  0.38228769820E+03  0.92474670086E+02 0.  0.
          5    1    3    3  502    0 -0.18093686947E+00 -0.62019676633E+02  0.23988944393E+02  0.66628934262E+02  0.41800000000E+01 0.  1.
         -5    1    3    3    0  502  0.68332396883E+02 -0.14645154334E+03  0.33858623156E+03  0.37520058584E+03  0.41800000000E+01 0.  1.
        -11    1    4    4    0    0  0.16337282824E+02  0.89155304746E+02  0.13336069968E+03  0.16124717484E+03  0.00000000000E+00 0. -1.
         11    1    4    4    0    0 -0.84488742838E+02  0.11931591523E+03  0.16578382815E+03  0.22104052336E+03  0.00000000000E+00 0.  1.
</event>
<event>
 8    1  0.3708258E-009  0.1609962E+03  0.7561462E-02  0.1187577E+00
         -1   -1    0    0    0  501 -0.00000000000E+00  0.00000000000E+00  0.12999887599E+03  0.12999887599E+03  0.00000000000E+00 0. -1.
          1   -1    0    0  501    0  0.00000000000E+00 -0.00000000000E+00 -0.58030156219E+03  0.58030156219E+03  0.00000000000E+00 0.  1.
         25    2    1    2    0    0 -0.13652524830E+03 -0.90592022047E+01 -0.50369894009E+03  0.53673175675E+03  0.12508854421E+03 0.  0.
         23    2    1    2    0    0  0.13652524830E+03  0.90592022047E+01  0.53396253884E+02  0.17356868142E+03  0.92486294526E+02 0.  0.
          5    1    3    3  502    0  0.87891958096E+01  0.32531272066E+02 -0.82535736443E+02  0.89247710421E+02  0.41800000000E+01 0.  1.
         -5    1    3    3    0  502 -0.14531444411E+03 -0.41590474271E+02 -0.42116320365E+03  0.44748404633E+03  0.41800000000E+01 0.  1.
        -11    1    4    4    0    0  0.80292479719E+02  0.58437149637E+01 -0.18136541660E+02  0.82522514790E+02  0.00000000000E+00 0.  1.
         11    1    4    4    0    0  0.56232768579E+02  0.32154872409E+01  0.71532795544E+02  0.91046166633E+02  0.00000000000E+00 0. -1.
</event>
<event>
 8    1  0.3708258E-009  0.1004546E+03  0.7561462E-02  0.1279343E+00
          4   -1    0    0  501    0  0.00000000000E+00  0.00000000000E+00  0.16866894769E+03  0.16866894769E+03  0.00000000000E+00 0. -1.
         -4   -1    0    0    0  501 -0.00000000000E+00 -0.00000000000E+00 -0.11909862835E+03  0.11909862835E+03  0.00000000000E+00 0.  1.
         25    2    1    2    0    0 -0.44715074381E+01  0.89356162972E+02  0.13052701165E+02  0.15435604045E+03  0.12510354103E+03 0.  0.
         23    2    1    2    0    0  0.44715074381E+01 -0.89356162972E+02  0.36517618176E+02  0.13341153558E+03  0.91981428282E+02 0.  0.
          5    1    3    3  502    0  0.15044624569E+02  0.43003428539E+02 -0.53781175770E+02  0.70608235085E+02  0.41800000000E+01 0. -1.
         -5    1    3    3    0  502 -0.19516132008E+02  0.46352734433E+02  0.66833876935E+02  0.83747805369E+02  0.41800000000E+01 0. -1.
        -11    1    4    4    0    0 -0.12830735589E+02 -0.86143236234E+02  0.58750581978E+02  0.10505672662E+03  0.00000000000E+00 0. -1.
         11    1    4    4    0    0  0.17302243027E+02 -0.32129267381E+01 -0.22232963801E+02  0.28354808964E+02  0.00000000000E+00 0.  1.
</event>
<event>
 8    1  0.3708258E-009  0.1113908E+03  0.7561462E-02  0.1258016E+00
         -2   -1    0    0    0  501 -0.00000000000E+00  0.00000000000E+00  0.23021579773E+03  0.23021579773E+03  0.00000000000E+00 0.  1.
          2   -1    0    0  501    0  0.00000000000E+00 -0.00000000000E+00 -0.68398988234E+02  0.68398988234E+02  0.00000000000E+00 0. -1.
         25    2    1    2    0    0  0.25406946381E+02  0.51320836921E+02  0.52921955464E+02  0.14740157792E+03  0.12508857093E+03 0.  0.
         23    2    1    2    0    0 -0.25406946381E+02 -0.51320836921E+02  0.10889485403E+03  0.15121320804E+03  0.87909065659E+02 0.  0.
          5    1    3    3  502    0  0.27518482675E+02  0.83615507100E+02  0.35224343207E+01  0.88196937928E+02  0.41800000000E+01 0. -1.
         -5    1    3    3    0  502 -0.21115362938E+01 -0.32294670180E+02  0.49399521144E+02  0.59204639993E+02  0.41800000000E+01 0. -1.
        -11    1    4    4    0    0 -0.79004884806E+01 -0.73411895997E+02  0.61607248711E+02  0.96162244597E+02  0.00000000000E+00 0.  1.
         11    1    4    4    0    0 -0.17506457900E+02  0.22091059077E+02  0.47287605316E+02  0.55050963442E+02  0.00000000000E+00 0. -1.
</event>
<event>
 8    1  0.3708258E-009  0.9230854E+02  0.7561462E-02  0.1297356E+00
          2   -1    0    0  501    0  0.00000000000E+00  0.00000000000E+00  0.99300596666E+03  0.99300596666E+03  0.00000000000E+00 0. -1.
         -2   -1    0    0    0  501 -0.00000000000E+00 -0.00000000000E+00 -0.14476255310E+02  0.14476255310E+02  0.00000000000E+00 0.  1.
         25    2    1    2    0    0 -0.25299027142E+02 -0.24291260189E+02  0.72041914711E+03  0.73203913244E+03  0.12508971899E+03 0.  0.
         23    2    1    2    0    0  0.25299027142E+02  0.24291260189E+02  0.25811056424E+03  0.27544308953E+03  0.89541756210E+02 0.  0.
          5    1    3    3  502    0 -0.33708026632E+02  0.25199469759E+02  0.88195850756E+02  0.97812191602E+02  0.41800000000E+01 0. -1.
         -5    1    3    3    0  502  0.84089994896E+01 -0.49490729948E+02  0.63222329636E+03  0.63422694083E+03  0.41800000000E+01 0. -1.
        -11    1    4    4    0    0  0.53534534664E+02  0.32397095777E+02  0.20950457898E+03  0.21864968975E+03  0.00000000000E+00 0. -1.
         11    1    4    4    0    0 -0.28235507522E+02 -0.81058355881E+01  0.48605985258E+02  0.56793399780E+02  0.00000000000E+00 0.  1.
</event>
<event>
 8    1  0.3708258E-009  0.1009195E+03  0.7561462E-02  0.1278374E+00
          1   -1    0    0  501    0  0.00000000000E+00  0.00000000000E+00  0.53996696928E+03  0.53996696928E+03  0.00000000000E+00 0. -1.
         -1   -1    0    0    0  501 -0.00000000000E+00 -0.00000000000E+00 -0.27699570408E+02  0.27699570408E+02  0.00000000000E+00 0.  1.
         25    2    1    2    0    0  0.42574869033E+02 -0.39043824996E+02  0.29318577533E+03  0.32394875019E+03  0.12509138322E+03 0.  0.
         23    2    1    2    0    0 -0.42574869033E+02  0.39043824996E+02  0.21908162355E+03  0.24371778950E+03  0.89802914188E+02 0.  0.
          5    1    3    3  502    0  0.61845924244E+02 -0.12410379733E+02  0.28196026347E+03  0.28896020218E+03  0.41800000000E+01 0.  1.
         -5    1    3    3    0  502 -0.19271055211E+02 -0.26633445263E+02  0.11225511859E+02  0.34988548012E+02  0.41800000000E+01 0.  1.
        -11    1    4    4    0    0  0.21886043321E+02  0.34507403373E+02  0.10391272540E+03  0.11165847160E+03  0.00000000000E+00 0.  1.
         11    1    4    4    0    0 -0.64460912353E+02  0.45364216222E+01  0.11516889815E+03  0.13205931790E+03  0.00000000000E+00 0. -1.
</event>
<event>
 8    1  0.3708258E-009  0.1431495E+03  0.7561462E-02  0.1209153E+00
          1   -1    0    0  501    0  0.00000000000E+00  0.00000000000E+00  0.46629471906E+03  0.46629471906E+03  0.00000000000E+00 0. -1.
         -1   -1    0    0    0  501 -0.00000000000E+00 -0.00000000000E+00 -0.59966939052E+02  0.59966939052E+02  0.00000000000E+00 0.  1.
         25    2    1    2    0    0  0.77009151134E+02  0.84230547116E+02  0.12732356611E+03  0.21185755536E+03  0.12508852405E+03 0.  0.
         23    2    1    2    0    0 -0.77009151134E+02 -0.84230547116E+02  0.27900421390E+03  0.31440410275E+03  0.89338648023E+02 0.  0.
          5    1    3    3  502    0  0.10996342043E+03  0.76297613677E+02  0.11135150476E+03  0.17415484403E+03  0.41800000000E+01 0. -1.
         -5    1    3    3    0  502 -0.32954269297E+02  0.79329334391E+01  0.15972061350E+02  0.37702711330E+02  0.41800000000E+01 0. -1.
        -11    1    4    4    0    0 -0.35191854677E+02 -0.17040275544E+02  0.19543639369E+03  0.19930936156E+03  0.00000000000E+00 0. -1.
         11    1    4    4    0    0 -0.41817296457E+02 -0.67190271572E+02  0.83567820207E+02  0.11509474120E+03  0.00000000000E+00 0.  1.
</event>
<event>
 8    1  0.3708258E-009  0.1237115E+03  0.7561462E-02  0.1237097E+00
         -2   -1    0    0    0  501 -0.00000000000E+00  0.00000000000E+00  0.86372765791E+02  0.86372765791E+02  0.00000000000E+00 0.  1.
          2   -1    0    0  501    0  0.00000000000E+00 -0.00000000000E+00 -0.54334579324E+03  0.54334579324E+03  0.00000000000E+00 0. -1.
         25    2    1    2    0    0  0.35535267780E+02  0.67164729598E+02 -0.48552007976E+03  0.50710252745E+03  0.12509743937E+03 0.  0.
         23    2    1    2    0    0 -0.35535267780E+02 -0.67164729598E+02  0.28547052309E+02  0.12261603159E+03  0.91901582402E+02 0.  0.
          5    1    3    3  502    0  0.61882900379E+02  0.64789244352E+01 -0.35790132021E+03  0.36329367904E+03  0.41800000000E+01 0. -1.
         -5    1    3    3    0  502 -0.26347632599E+02  0.60685805163E+02 -0.12761875955E+03  0.14380884841E+03  0.41800000000E+01 0. -1.
        -11    1    4    4    0    0 -0.49007388161E+02 -0.83974501355E+02  0.27524004056E+02  0.10104955107E+03  0.00000000000E+00 0.  1.
         11    1    4    4    0    0  0.13472120381E+02  0.16809771757E+02  0.10230482539E+01  0.21566480515E+02  0.00000000000E+00 0. -1.
</event>
<event>
 8    1  0.3708258E-009  0.1026104E+03  0.7561462E-02  0.1274901E+00
         -2   -1    0    0    0  501 -0.00000000000E+00  0.00000000000E+00  0.10037420534E+02  0.10037420534E+02  0.00000000000E+00 0.  1.
          2   -1    0    0  501    0  0.00000000000E+00 -0.00000000000E+00 -0.12038439390E+04  0.12038439390E+04  0.00000000000E+00 0. -1.
         25    2    1    2    0    0  0.10232661825E+02  0.58942790619E+01 -0.85261927597E+03  0.86182771209E+03  0.12509166913E+03 0.  0.
         23    2    1    2    0    0 -0.10232661825E+02 -0.58942790619E+01 -0.34118724251E+03  0.35205364746E+03  0.85985965943E+02 0.  0.
          5    1    3    3  502    0 -0.34255391095E+02 -0.41057974533E+02 -0.24737003186E+03  0.25311774761E+03  0.41800000000E+01 0.  1.
         -5    1    3    3    0  502  0.44488052921E+02  0.46952253595E+02 -0.60524924411E+03  0.60870996449E+03  0.41800000000E+01 0.  1.
        -11    1    4    4    0    0 -0.48083407722E+02  0.19163033200E+01 -0.19326084163E+03  0.19916184179E+03  0.00000000000E+00 0. -1.
         11    1    4    4    0    0  0.37850745897E+02 -0.78105823820E+01 -0.14792640088E+03  0.15289180566E+03  0.00000000000E+00 0.  1.
</event>
<event>
 8    1  0.3708258E-009  0.1530663E+03  0.7561462E-02  0.1196755E+00
         -2   -1    0    0    0  501 -0.00000000000E+00  0.00000000000E+00  0.27131468756E+02  0.27131468756E+02  0.00000000000E+00 0.  1.
          2   -1    0    0  501    0  0.00000000000E+00 -0.00000000000E+00 -0.96633603735E+03  0.96633603735E+03  0.00000000000E+00 0. -1.
         25    2    1    2    0    0 -0.31278218457E+02 -0.11577971924E+03 -0.52242864707E+03  0.55042026172E+03  0.12508997919E+03 0.  0.
         23    2    1    2    0    0  0.31278218457E+02  0.11577971924E+03 -0.41677592153E+03  0.44304724439E+03  0.90583782538E+02 0.  0.
          5    1    3    3  502    0  0.39752411093E+02 -0.37513994152E+02 -0.91188018805E+02  0.10639680972E+03  0.41800000000E+01 0. -1.
         -5    1    3    3    0  502 -0.71030629551E+02 -0.78265725092E+02 -0.43124062826E+03  0.44402345200E+03  0.41800000000E+01 0. -1.
        -11    1    4    4    0    0  0.54322820169E+02  0.10855594993E+03 -0.38110095834E+03  0.39996662799E+03  0.00000000000E+00 0. -1.
         11    1    4    4    0    0 -0.23044601712E+02  0.72237693144E+01 -0.35674963184E+02  0.43080616400E+02  0.00000000000E+00 0.  1.
</event>
<event>
 8    1  0.3708258E-009  0.1239624E+03  0.7561462E-02  0.1236700E+00
         -1   -1    0    0    0  501 -0.00000000000E+00  0.00000000000E+00  0.70814913941E+02  0.70814913941E+02  0.00000000000E+00 0.  1.
          1   -1    0    0  501    0  0.00000000000E+00 -0.00000000000E+00 -0.50926681881E+03  0.50926681881E+03  0.00000000000E+00 0. -1.
         25    2    1    2    0    0  0.80953995558E+02 -0.71825677435E+02 -0.40175894762E+03  0.43447770125E+03  0.12509253997E+03 0.  0.
         23    2    1    2    0    0 -0.80953995558E+02  0.71825677435E+02 -0.36692957248E+02  0.14560403150E+03  0.90231278065E+02 0.  0.
          5    1    3    3  502    0  0.42053487043E+02 -0.48511368846E+02 -0.37736848589E+03  0.38281365601E+03  0.41800000000E+01 0. -1.
         -5    1    3    3    0  502  0.38900508515E+02 -0.23314308589E+02 -0.24390461724E+02  0.51664045243E+02  0.41800000000E+01 0. -1.
        -11    1    4    4    0    0 -0.26949225402E+02  0.79086726698E+02 -0.77690768572E+01  0.83912631021E+02  0.00000000000E+00 0. -1.
         11    1    4    4    0    0 -0.54004770157E+02 -0.72610492631E+01 -0.28923880391E+02  0.61691400478E+02  0.00000000000E+00 0.  1.
</event>
<event>
 8    1  0.3708258E-009  0.9191305E+02  0.7561462E-02  0.1298284E+00
          1   -1    0    0  501    0  0.00000000000E+00  0.00000000000E+00  0.64538277528E+02  0.64538277528E+02  0.00000000000E+00 0. -1.
         -1   -1    0    0    0  501 -0.00000000000E+00 -0.00000000000E+00 -0.27203869556E+03  0.27203869556E+03  0.00000000000E+00 0.  1.
         25    2    1    2    0    0  0.29017489285E+01 -0.57021387628E+02 -0.51014927483E+02  0.14666298209E+03  0.12509056197E+03 0.  0.
         23    2    1    2    0    0 -0.29017489285E+01  0.57021387628E+02 -0.15648549055E+03  0.18991399100E+03  0.91212698854E+02 0.  0.
          5    1    3    3  502    0 -0.14977830388E+02 -0.56385258367E+02 -0.87826826799E+02  0.10552088262E+03  0.41800000000E+01 0. -1.
         -5    1    3    3    0  502  0.17879579316E+02 -0.63612926127E+00  0.36811899315E+02  0.41142099462E+02  0.41800000000E+01 0. -1.
        -11    1    4    4    0    0 -0.45854490717E+02  0.19126755129E+02 -0.83111786956E+02  0.96829934482E+02  0.00000000000E+00 0.  1.
         11    1    4    4    0    0  0.42952741788E+02  0.37894632499E+02 -0.73373703591E+02  0.93084056519E+02  0.00000000000E+00 0. -1.
</event>
<event>
 8    1  0.3708258E-009  0.1883889E+03  0.7561462E-02  0.1159923E+00
          2   -1    0    0  501    0  0.00000000000E+00  0.00000000000E+00  0.14222454192E+03  0.14222454192E+03  0.00000000000E+00 0.  1.
         -2   -1    0    0    0  501 -0.00000000000E+00 -0.00000000000E+00 -0.32309504191E+03  0.32309504191E+03  0.00000000000E+00 0. -1.
         25    2    1    2    0    0 -0.82003005040E+02 -0.16489717055E+03 -0.11211839982E+03  0.24926788022E+03  0.12509344844E+03 0.  0.
         23    2    1    2    0    0  0.82003005040E+02  0.16489717055E+03 -0.68752100166E+02  0.21605170361E+03  0.89643280079E+02 0.  0.
          5    1    3    3  502    0 -0.83619507605E+02 -0.12852920733E+03 -0.13643544509E+03  0.20529023909E+03  0.41800000000E+01 0. -1.
         -5    1    3    3    0  502  0.16165025650E+01 -0.36367963219E+02  0.24317045267E+02  0.43977641134E+02  0.41800000000E+01 0. -1.
        -11    1    4    4    0    0  0.46046346789E+02  0.58594104885E+02  0.15009745954E+02  0.76018600707E+02  0.00000000000E+00 0. -1.
         11    1    4    4    0    0  0.35956658251E+02  0.10630306567E+03 -0.83761846120E+02  0.14003310290E+03  0.00000000000E+00 0.  1.
</event>
<event>
 8    1  0.3708258E-009  0.8160602E+02  0.7561462E-02  0.1324555E+00
          1   -1    0    0  501    0  0.00000000000E+00  0.00000000000E+00  0.17160346301E+03  0.17160346301E+03  0.00000000000E+00 0. -1.
         -1   -1    0    0    0  501 -0.00000000000E+00 -0.00000000000E+00 -0.71225757876E+02  0.71225757876E+02  0.00000000000E+00 0.  1.
         25    2    1    2    0    0  0.80854551581E+01  0.92951319287E+01  0.37430532254E+02  0.13114686732E+03  0.12508669794E+03 0.  0.
         23    2    1    2    0    0 -0.80854551581E+01 -0.92951319287E+01  0.62947172877E+02  0.11168235356E+03  0.91426623371E+02 0.  0.
          5    1    3    3  502    0 -0.37829642346E+02  0.50733868287E+02  0.23288704158E+02  0.67563624627E+02  0.41800000000E+01 0.  1.
         -5    1    3    3    0  502  0.45915097504E+02 -0.41438736358E+02  0.14141828096E+02  0.63583242696E+02  0.41800000000E+01 0.  1.
        -11    1    4    4    0    0  0.14006691291E+02 -0.48725069058E+00 -0.20544300454E+02  0.24869521413E+02  0.00000000000E+00 0.  1.
         11    1    4    4    0    0 -0.22092146449E+02 -0.88078812382E+01  0.83491473331E+02  0.86812832149E+02  0.00000000000E+00 0. -1.
</event>
<event>
 8    1  0.3708258E-009  0.2212883E+03  0.7561462E-02  0.1132926E+00
         -1   -1    0    0    0  501 -0.00000000000E+00  0.00000000000E+00  0.38013191335E+03  0.38013191335E+03  0.00000000000E+00 0.  1.
          1   -1    0    0  501    0  0.00000000000E+00 -0.00000000000E+00 -0.14892648178E+03  0.14892648178E+03  0.00000000000E+00 0. -1.
         25    2    1    2    0    0  0.18962977962E+03 -0.91490909373E+02  0.10948440716E+03  0.26826657332E+03  0.12510027630E+03 0.  0.
         23    2    1    2    0    0 -0.18962977962E+03  0.91490909373E+02  0.12172102441E+03  0.26079182180E+03  0.94161174157E+02 0.  0.
          5    1    3    3  502    0  0.80396223328E+02 -0.18049873060E+02  0.10883519506E+03  0.13657204226E+03  0.41800000000E+01 0.  1.
         -5    1    3    3    0  502  0.10923355629E+03 -0.73441036313E+02  0.64921210224E+00  0.13169453106E+03  0.41800000000E+01 0.  1.
        -11    1    4    4    0    0 -0.83620651075E+02  0.89312847200E+02  0.83300509629E+02  0.14801409685E+03  0.00000000000E+00 0.  1.
         11    1    4    4    0    0 -0.10600912855E+03  0.21780621724E+01  0.38420514781E+02  0.11277772495E+03  0.00000000000E+00 0. -1.
</event>
<event>
 8    1  0.3708258E-009  0.1405704E+03  0.7561462E-02  0.1212564E+00
          2   -1    0    0  501    0  0.00000000000E+00  0.00000000000E+00  0.10379935492E+04  0.10379935492E+04  0.00000000000E+00 0. -1.
         -2   -1    0    0    0  501 -0.00000000000E+00 -0.00000000000E+00 -0.24403658320E+02  0.24403658320E+02  0.00000000000E+00 0.  1.
         25    2    1    2    0    0 -0.27643420930E+02 -0.11246522275E+03  0.50785655943E+03  0.53570354421E+03  0.12508963696E+03 0.  0.
         23    2    1    2    0    0  0.27643420930E+02  0.11246522275E+03  0.50573333144E+03  0.52669366330E+03  0.90705167345E+02 0.  0.
          5    1    3    3  502    0 -0.53318719074E+02 -0.37852858747E+02  0.37844707045E+03  0.38407731286E+03  0.41800000000E+01 0.  1.
         -5    1    3    3    0  502  0.25675298144E+02 -0.74612363999E+02  0.12940948898E+03  0.15162623136E+03  0.41800000000E+01 0.  1.
        -11    1    4    4    0    0 -0.14754491499E+02  0.84574810432E+02  0.40380306114E+03  0.41282866393E+03  0.00000000000E+00 0. -1.
         11    1    4    4    0    0  0.42397912429E+02  0.27890412314E+02  0.10193027030E+03  0.11386499937E+03  0.00000000000E+00 0.  1.
</event>
<event>
 8    1  0.3708258E-009  0.9964647E+02  0.7561462E-02  0.1281041E+00
         -4   -1    0    0    0  501 -0.00000000000E+00  0.00000000000E+00  0.54193108714E+02  0.54193108714E+02  0.00000000000E+00 0.  1.
          4   -1    0    0  501    0  0.00000000000E+00 -0.00000000000E+00 -0.24213246960E+03  0.24213246960E+03  0.00000000000E+00 0. -1.
         25    2    1    2    0    0  0.39896543924E+01 -0.41678311590E+02 -0.91505670313E+02  0.16054256078E+03  0.12509047575E+03 0.  0.
         23    2    1    2    0    0 -0.39896543924E+01  0.41678311590E+02 -0.96433690572E+02  0.13578301754E+03  0.85933533469E+02 0.  0.
          5    1    3    3  502    0 -0.70260328107E+01 -0.71584495039E+02 -0.10360704489E+03  0.12619666088E+03  0.41800000000E+01 0.  1.
         -5    1    3    3    0  502  0.11015687203E+02  0.29906183449E+02  0.12101374576E+02  0.34345899897E+02  0.41800000000E+01 0.  1.
        -11    1    4    4    0    0  0.26532888692E+02 -0.15178871934E+02 -0.37596436773E+02  0.48454972847E+02  0.00000000000E+00 0.  1.
         11    1    4    4    0    0 -0.30522543084E+02  0.56857183523E+02 -0.58837253799E+02  0.87328044689E+02  0.00000000000E+00 0. -1.
</event>
<event>
 8    1  0.3708258E-009  0.9347492E+02  0.7561462E-02  0.1294648E+00
          1   -1    0    0  501    0  0.00000000000E+00  0.00000000000E+00  0.38682230530E+03  0.38682230530E+03  0.00000000000E+00 0. -1.
         -1   -1    0    0    0  501 -0.00000000000E+00 -0.00000000000E+00 -0.35416791953E+02  0.35416791953E+02  0.00000000000E+00 0.  1.
         25    2    1    2    0    0 -0.10009120081E+02  0.23444416820E+02  0.26803671584E+03  0.29688690001E+03  0.12509327398E+03 0.  0.
         23    2    1    2    0    0  0.10009120081E+02 -0.23444416820E+02  0.83368797507E+02  0.12535219724E+03  0.90072158798E+02 0.  0.
          5    1    3    3  502    0 -0.47205036932E+02 -0.13885808725E+02  0.42236021321E+02  0.64980651680E+02  0.41800000000E+01 0.  1.
         -5    1    3    3    0  502  0.37195916851E+02  0.37330225546E+02  0.22580069452E+03  0.23190624833E+03  0.41800000000E+01 0.  1.
        -11    1    4    4    0    0  0.33715545999E+02  0.17049485306E+02  0.11446966151E+02  0.39477284928E+02  0.00000000000E+00 0. -1.
         11    1    4    4    0    0 -0.23706425918E+02 -0.40493902127E+02  0.71921831356E+02  0.85874912313E+02  0.00000000000E+00 0.  1.
</event>
<event>
 8    1  0.3708258E-009  0.1686164E+03  0.7561462E-02  0.1179298E+00
          2   -1    0    0  501    0  0.00000000000E+00  0.00000000000E+00  0.16710988504E+04  0.16710988504E+04  0.00000000000E+00 0.  1.
         -2   -1    0    0    0  501 -0.00000000000E+00 -0.00000000000E+00 -0.36284089029E+02  0.36284089029E+02  0.00000000000E+00 0. -1.
         25    2    1    2    0    0  0.94695761016E+02 -0.13007135799E+03  0.13671071646E+04  0.13822139877E+04  0.12509061909E+03 0.  0.
         23    2    1    2    0    0 -0.94695761016E+02  0.13007135799E+03  0.26770759678E+03  0.32516895173E+03  0.90452443160E+02 0.  0.
          5    1    3    3  502    0  0.10516877458E+03 -0.10486594077E+03  0.13138491192E+04  0.13222232479E+04  0.41800000000E+01 0. -1.
         -5    1    3    3    0  502 -0.10473013566E+02 -0.25205417212E+02  0.53258045332E+02  0.59990739807E+02  0.41800000000E+01 0. -1.
        -11    1    4    4    0    0 -0.51968591130E+02  0.77275617097E+02  0.22849447802E+03  0.24674274447E+03  0.00000000000E+00 0.  1.
         11    1    4    4    0    0 -0.42727169886E+02  0.52795740889E+02  0.39213118753E+02  0.78426207258E+02  0.00000000000E+00 0. -1.
</event>
<event>
 8    1  0.3708258E-009  0.1073062E+03  0.7561462E-02  0.1265641E+00
          1   -1    0    0  501    0  0.00000000000E+00  0.00000000000E+00  0.35992922186E+02  0.35992922186E+02  0.00000000000E+00 0. -1.
         -1   -1    0    0    0  501 -0.00000000000E+00 -0.00000000000E+00 -0.56958231438E+03  0.56958231438E+03  0.00000000000E+00 0.  1.
         25    2    1    2    0    0  0.37906003462E+02  0.38151610261E+02 -0.45105600794E+03  0.47115965537E+03  0.12508992000E+03 0.  0.
         23    2    1    2    0    0 -0.37906003462E+02 -0.38151610261E+02 -0.82533384257E+02  0.13441558120E+03  0.91451508943E+02 0.  0.
          5    1    3    3  502    0 -0.24258033999E+02 -0.23047128681E+02 -0.47441700034E+02  0.58204893747E+02  0.41800000000E+01 0.  1.
         -5    1    3    3    0  502  0.62164037461E+02  0.61198738942E+02 -0.40361430790E+03  0.41295476162E+03  0.41800000000E+01 0.  1.
        -11    1    4    4    0    0  0.17052077554E+02 -0.34493750842E+02 -0.42719355263E+01  0.38714876071E+02  0.00000000000E+00 0. -1.
         11    1    4    4    0    0 -0.54958081016E+02 -0.36578594193E+01 -0.78261448730E+02  0.95700705127E+02  0.00000000000E+00 0.  1.
</event>
<event>
 8    1  0.3708258E-009  0.2471520E+03  0.7561462E-02  0.1115118E+00
         -2   -1    0    0    0  501 -0.00000000000E+00  0.00000000000E+00  0.37538919231E+02  0.37538919231E+02  0.00000000000E+00 0.  1.
          2   -1    0    0  501    0  0.00000000000E+00 -0.00000000000E+00 -0.19200310393E+04  0.19200310393E+04  0.00000000000E+00 0. -1.
         25    2    1    2    0    0  0.22215915085E+03 -0.10045964930E+03 -0.85671855191E+03  0.89947782984E+03  0.12508740840E+03 0.  0.
         23    2    1    2    0    0 -0.22215915085E+03  0.10045964930E+03 -0.10257735682E+04  0.10580921287E+04  0.88885939436E+02 0.  0.
          5    1    3    3  502    0  0.15059927552E+03 -0.96002499193E+02 -0.74901453706E+03  0.77002394169E+03  0.41800000000E+01 0. -1.
         -5    1    3    3    0  502  0.71559875323E+02 -0.44571501077E+01 -0.10770401485E+03  0.12945388816E+03  0.41800000000E+01 0. -1.
        -11    1    4    4    0    0 -0.17981876280E+03  0.79913257053E+02 -0.93881079704E+03  0.95921146196E+03  0.00000000000E+00 0. -1.
         11    1    4    4    0    0 -0.42340388045E+02  0.20546392248E+02 -0.86962771129E+02  0.98880666748E+02  0.00000000000E+00 0.  1.
</event>
<event>
 8    1  0.3708258E-009  0.8582999E+02  0.7561462E-02  0.1313276E+00
          1   -1    0    0  501    0  0.00000000000E+00  0.00000000000E+00  0.10600270794E+03  0.10600270794E+03  0.00000000000E+00 0. -1.
         -1   -1    0    0    0  501 -0.00000000000E+00 -0.00000000000E+00 -0.14754676065E+03  0.14754676065E+03  0.00000000000E+00 0.  1.
         25    2    1    2    0    0  0.39985150926E+01 -0.16973488008E+02  0.37794026500E+02  0.13183947378E+03  0.12509664659E+03 0.  0.
         23    2    1    2    0    0 -0.39985150926E+01  0.16973488008E+02 -0.79338079212E+02  0.12170999482E+03  0.90635007629E+02 0.  0.
          5    1    3    3  502    0  0.62809320637E+02  0.53468894884E+01  0.16448551623E+02  0.65281139976E+02  0.41800000000E+01 0.  1.
         -5    1    3    3    0  502 -0.58810805545E+02 -0.22320377496E+02  0.21345474877E+02  0.66558333799E+02  0.41800000000E+01 0.  1.
        -11    1    4    4    0    0  0.14589495355E+02 -0.60996307639E+01 -0.89116816408E+02  0.90508926835E+02  0.00000000000E+00 0.  1.
         11    1    4    4    0    0 -0.18588010448E+02  0.23073118772E+02  0.97787371960E+01  0.31201067985E+02  0.00000000000E+00 0. -1.
</event>
<event>
 8    1  0.3708258E-009  0.1311353E+03  0.7561462E-02  0.1225781E+00
         -2   -1    0    0    0  501 -0.00000000000E+00  0.00000000000E+00  0.36284061550E+02  0.36284061550E+02  0.00000000000E+00 0.  1.
          2   -1    0    0  501    0  0.00000000000E+00 -0.00000000000E+00 -0.70777126561E+03  0.70777126561E+03  0.00000000000E+00 0. -1.
         25    2    1    2    0    0  0.70731438182E+02 -0.41806803644E+02 -0.54782932759E+03  0.56790362554E+03  0.12508721182E+03 0.  0.
         23    2    1    2    0    0 -0.70731438182E+02  0.41806803644E+02 -0.12365787647E+03  0.17615170161E+03  0.94801932418E+02 0.  0.
          5    1    3    3  502    0  0.65682749756E+02 -0.78324522526E+02 -0.29211607425E+03  0.30951288774E+03  0.41800000000E+01 0.  1.
         -5    1    3    3    0  502  0.50486884264E+01  0.36517718881E+02 -0.25571325334E+03  0.25839073780E+03  0.41800000000E+01 0.  1.
        -11    1    4    4    0    0 -0.76710058215E+02 -0.38600649620E+01 -0.93926822375E+02  0.12133252282E+03  0.00000000000E+00 0.  1.
         11    1    4    4    0    0  0.59786200328E+01  0.45666868606E+02 -0.29731054091E+02  0.54819178790E+02  0.00000000000E+00 0. -1.
</event>
<event>
 8    1  0.3708258E-009  0.1059270E+03  0.7561462E-02  0.1268304E+00
         -1   -1    0    0    0  501 -0.00000000000E+00  0.00000000000E+00  0.14500651819E+03  0.14500651819E+03  0.00000000000E+00 0. -1.
          1   -1    0    0  501    0  0.00000000000E+00 -0.00000000000E+00 -0.98791142771E+02  0.98791142771E+02  0.00000000000E+00 0.  1.
         25    2    1    2    0    0  0.54887293895E+01 -0.49472220998E+02  0.15592002934E+02  0.13552956096E+03  0.12509006570E+03 0.  0.
         23    2    1    2    0    0 -0.54887293895E+01  0.49472220998E+02  0.30623372485E+02  0.10826810000E+03  0.91140351846E+02 0.  0.
          5    1    3    3  502    0 -0.52456930101E+02  0.46635202038E+01 -0.61797528014E+01  0.53189657651E+02  0.41800000000E+01 0.  1.
         -5    1    3    3    0  502  0.57945659491E+02 -0.54135741201E+02  0.21771755736E+02  0.82339903310E+02  0.41800000000E+01 0.  1.
        -11    1    4    4    0    0 -0.22734382403E+02  0.56568979240E+02  0.51835567716E+02  0.80023919149E+02  0.00000000000E+00 0. -1.
         11    1    4    4    0    0  0.17245653013E+02 -0.70967582428E+01 -0.21212195232E+02  0.28244180851E+02  0.00000000000E+00 0.  1.
</event>
<event>
 8    1  0.3708258E-009  0.1239288E+03  0.7561462E-02  0.1236753E+00
          3   -1    0    0  501    0  0.00000000000E+00  0.00000000000E+00  0.24331233651E+02  0.24331233651E+02  0.00000000000E+00 0. -1.
         -3   -1    0    0    0  501 -0.00000000000E+00 -0.00000000000E+00 -0.69262453255E+03  0.69262453255E+03  0.00000000000E+00 0.  1.
         25    2    1    2    0    0  0.63074191738E+02 -0.30251057524E+02 -0.38160601520E+03  0.40763809550E+03  0.12510869646E+03 0.  0.
         23    2    1    2    0    0 -0.63074191738E+02  0.30251057524E+02 -0.28668728371E+03  0.30931767070E+03  0.92705677407E+02 0.  0.
          5    1    3    3  502    0  0.68268991500E+02  0.29840862569E+02 -0.14073790563E+03  0.15929771738E+03  0.41800000000E+01 0. -1.
         -5    1    3    3    0  502 -0.51947997617E+01 -0.60091920093E+02 -0.24086810956E+03  0.24834037813E+03  0.41800000000E+01 0. -1.
        -11    1    4    4    0    0  0.19842145231E+02  0.21721287051E+02 -0.45978096559E+02  0.54584891698E+02  0.00000000000E+00 0.  1.
         11    1    4    4    0    0 -0.82916336969E+02  0.85297704725E+01 -0.24070918715E+03  0.25473277900E+03  0.00000000000E+00 0. -1.
</event>
<event>
 8    1  0.3708258E-009  0.1358970E+03  0.7561462E-02  0.1218959E+00
         -1   -1    0    0    0  501 -0.00000000000E+00  0.00000000000E+00  0.33651570827E+03  0.33651570827E+03  0.00000000000E+00 0.  1.
          1   -1    0    0  501    0  0.00000000000E+00 -0.00000000000E+00 -0.58674475741E+02  0.58674475741E+02  0.00000000000E+00 0. -1.
         25    2    1    2    0    0 -0.84459426550E+02 -0.22910614053E+02  0.18373811709E+03  0.23888258822E+03  0.12508758657E+03 0.  0.
         23    2    1    2    0    0  0.84459426550E+02  0.22910614053E+02  0.94103115445E+02  0.15630759580E+03  0.88985263938E+02 0.  0.
          5    1    3    3  502    0 -0.11613228194E+03 -0.22770378384E+02  0.16012775586E+03  0.19915714307E+03  0.41800000000E+01 0. -1.
         -5    1    3    3    0  502  0.31672855390E+02 -0.14023566928E+00  0.23610361226E+02  0.39725445143E+02  0.41800000000E+01 0. -1.
        -11    1    4    4    0    0  0.30921936624E+02  0.51999710163E+02  0.64952619593E+02  0.88763611991E+02  0.00000000000E+00 0.  1.
         11    1    4    4    0    0  0.53537489926E+02 -0.29089096110E+02  0.29150495852E+02  0.67543983807E+02  0.00000000000E+00 0. -1.
</event>
<event>
 8    1  0.3708258E-009  0.1540890E+03  0.7561462E-02  0.1195537E+00
          1   -1    0    0  501    0  0.00000000000E+00  0.00000000000E+00  0.20220554807E+04  0.20220554807E+04  0.00000000000E+00 0. -1.
         -1   -1    0    0    0  501 -0.00000000000E+00 -0.00000000000E+00 -0.12525268477E+02  0.12525268477E+02  0.00000000000E+00 0.  1.
         25    2    1    2    0    0  0.11107008735E+03  0.17720353570E+02  0.13180619173E+04  0.13287535370E+04  0.12509264168E+03 0.  0.
         23    2    1    2    0    0 -0.11107008735E+03 -0.17720353570E+02  0.69146829498E+03  0.70582721224E+03  0.86099218002E+02 0.  0.
          5    1    3    3  502    0 -0.25729362837E+02  0.17422409511E+02  0.24145394001E+03  0.24348104240E+03  0.41800000000E+01 0. -1.
         -5    1    3    3    0  502  0.13679945019E+03  0.29794405966E+00  0.10766079773E+04  0.10852724946E+04  0.41800000000E+01 0. -1.
        -11    1    4    4    0    0  0.10086697737E+02  0.11534386355E+02  0.47574103666E+02  0.49980785103E+02  0.00000000000E+00 0.  1.
         11    1    4    4    0    0 -0.12115678509E+03 -0.29254739925E+02  0.64389419131E+03  0.65584642714E+03  0.00000000000E+00 0. -1.
</event>
<event>
 8    1  0.3708258E-009  0.1221615E+03  0.7561462E-02  0.1239573E+00
          1   -1    0    0  501    0  0.00000000000E+00  0.00000000000E+00  0.43008248672E+03  0.43008248672E+03  0.00000000000E+00 0. -1.
         -1   -1    0    0    0  501 -0.00000000000E+00 -0.00000000000E+00 -0.60835571995E+02  0.60835571995E+02  0.00000000000E+00 0.  1.
         25    2    1    2    0    0 -0.63276279488E+02  0.17231784106E+02  0.35094680948E+03  0.37830131866E+03  0.12508957864E+03 0.  0.
         23    2    1    2    0    0  0.63276279488E+02 -0.17231784106E+02  0.18300105240E+02  0.11261674005E+03  0.89704037586E+02 0.  0.
          5    1    3    3  502    0 -0.29655086257E+02  0.66818302548E+02  0.12858083141E+03  0.14796828140E+03  0.41800000000E+01 0. -1.
         -5    1    3    3    0  502 -0.33621193231E+02 -0.49586518442E+02  0.22236597807E+03  0.23033303725E+03  0.41800000000E+01 0. -1.
        -11    1    4    4    0    0  0.83941768316E+02  0.30294633294E+00  0.12045155968E+02  0.84802110981E+02  0.00000000000E+00 0.  1.
         11    1    4    4    0    0 -0.20665488828E+02 -0.17534730439E+02  0.62549492726E+01  0.27814629073E+02  0.00000000000E+00 0. -1.
</event>
<event>
 8    1  0.3708258E-009  0.1004855E+03  0.7561462E-02  0.1279278E+00
         -1   -1    0    0    0  501 -0.00000000000E+00  0.00000000000E+00  0.22733370184E+02  0.22733370184E+02  0.00000000000E+00 0.  1.
          1   -1    0    0  501    0  0.00000000000E+00 -0.00000000000E+00 -0.59936802278E+03  0.59936802278E+03  0.00000000000E+00 0. -1.
         25    2    1    2    0    0  0.33004180707E+01  0.39595664839E+02 -0.28423809919E+03  0.31308198152E+03  0.12510124177E+03 0.  0.
         23    2    1    2    0    0 -0.33004180707E+01 -0.39595664839E+02 -0.29239655341E+03  0.30901941144E+03  0.91752617220E+02 0.  0.
          5    1    3    3  502    0  0.15803741889E+02 -0.27834590969E+02 -0.20784572842E+03  0.21033744777E+03  0.41800000000E+01 0.  1.
         -5    1    3    3    0  502 -0.12503323819E+02  0.67430255808E+02 -0.76392370762E+02  0.10274453375E+03  0.41800000000E+01 0.  1.
        -11    1    4    4    0    0  0.38043224598E+02 -0.44277564772E+02 -0.17170055728E+03  0.18135289094E+03  0.00000000000E+00 0.  1.
         11    1    4    4    0    0 -0.41343642669E+02  0.46818999325E+01 -0.12069599613E+03  0.12766652051E+03  0.00000000000E+00 0. -1.
</event>
<event>
 8    1  0.3708258E-009  0.1653319E+03  0.7561462E-02  0.1182805E+00
          2   -1    0    0  501    0  0.00000000000E+00  0.00000000000E+00  0.13286469113E+03  0.13286469113E+03  0.00000000000E+00 0. -1.
         -2   -1    0    0    0  501 -0.00000000000E+00 -0.00000000000E+00 -0.22415292074E+03  0.22415292074E+03  0.00000000000E+00 0.  1.
         25    2    1    2    0    0  0.12166860394E+03  0.20682593984E+02 -0.44524798556E+00  0.17572334819E+03  0.12508987959E+03 0.  0.
         23    2    1    2    0    0 -0.12166860394E+03 -0.20682593984E+02 -0.90842981616E+02  0.18129426368E+03  0.96871790813E+02 0.  0.
          5    1    3    3  502    0  0.13012546471E+03  0.52675124649E+02 -0.10635578163E+02  0.14084705622E+03  0.41800000000E+01 0. -1.
         -5    1    3    3    0  502 -0.84568607715E+01 -0.31992530665E+02  0.10190330178E+02  0.34876291971E+02  0.41800000000E+01 0. -1.
        -11    1    4    4    0    0 -0.31403810193E+02 -0.52483728029E+02 -0.33761686848E+02  0.69861237473E+02  0.00000000000E+00 0. -1.
         11    1    4    4    0    0 -0.90264793748E+02  0.31801134046E+02 -0.57081294769E+02  0.11143302621E+03  0.00000000000E+00 0.  1.
</event>
<event>
 8    1  0.3708258E-009  0.1076172E+03  0.7561462E-02  0.1265047E+00
         -2   -1    0    0    0  501 -0.00000000000E+00  0.00000000000E+00  0.18095956050E+02  0.18095956050E+02  0.00000000000E+00 0.  1.
          2   -1    0    0  501    0  0.00000000000E+00 -0.00000000000E+00 -0.75205226284E+03  0.75205226284E+03  0.00000000000E+00 0. -1.
         25    2    1    2    0    0  0.28881996603E+02  0.28770209931E+02 -0.46801580321E+03  0.48615662655E+03  0.12509028251E+03 0.  0.
         23    2    1    2    0    0 -0.28881996603E+02 -0.28770209931E+02 -0.26594050359E+03  0.28399159234E+03  0.90911926433E+02 0.  0.
          5    1    3    3  502    0 -0.21633364554E+02 -0.30671517449E+02 -0.61245438295E+02  0.71952905129E+02  0.41800000000E+01 0.  1.
         -5    1    3    3    0  502  0.50515361157E+02  0.59441727381E+02 -0.40677036491E+03  0.41420372142E+03  0.41800000000E+01 0.  1.
        -11    1    4    4    0    0 -0.37434244884E+02  0.24928139345E+02 -0.13112158852E+03  0.13862036574E+03  0.00000000000E+00 0. -1.
         11    1    4    4    0    0  0.85522482814E+01 -0.53698349276E+02 -0.13481891506E+03  0.14537122661E+03  0.00000000000E+00 0.  1.
</event>
<event>
 8    1  0.3708258E-009  0.1349880E+03  0.7561462E-02  0.1220237E+00
         -2   -1    0    0    0  501 -0.00000000000E+00  0.00000000000E+00  0.42594853591E+02  0.42594853591E+02  0.00000000000E+00 0.  1.
          2   -1    0    0  501    0  0.00000000000E+00 -0.00000000000E+00 -0.47275090672E+03  0.47275090672E+03  0.00000000000E+00 0. -1.
         25    2    1    2    0    0 -0.69005652295E+02  0.51976310732E+02 -0.17467274448E+03  0.23156215526E+03  0.12508855727E+03 0.  0.
         23    2    1    2    0    0  0.69005652295E+02 -0.51976310732E+02 -0.25548330865E+03  0.28378360505E+03  0.88306831945E+02 0.  0.
          5    1    3    3  502    0  0.17027068700E+02 -0.25910251894E+02 -0.16593236283E+02  0.35412852357E+02  0.41800000000E+01 0. -1.
         -5    1    3    3    0  502 -0.86032720995E+02  0.77886562626E+02 -0.15807950819E+03  0.19614930291E+03  0.41800000000E+01 0. -1.
        -11    1    4    4    0    0 -0.20995276519E+02 -0.95756318953E+01 -0.63313266637E+02  0.67387417925E+02  0.00000000000E+00 0. -1.
         11    1    4    4    0    0  0.90000928815E+02 -0.42400678837E+02 -0.19217004201E+03  0.21639618712E+03  0.00000000000E+00 0.  1.
</event>
<event>
 8    1  0.3708258E-009  0.8481190E+02  0.7561462E-02  0.1315925E+00
          1   -1    0    0  501    0  0.00000000000E+00  0.00000000000E+00  0.81078371735E+03  0.81078371735E+03  0.00000000000E+00 0. -1.
         -1   -1    0    0    0  501 -0.00000000000E+00 -0.00000000000E+00 -0.16178753866E+02  0.16178753866E+02  0.00000000000E+00 0.  1.
         25    2    1    2    0    0 -0.20098048485E+02  0.35015441729E+01  0.57449269726E+03  0.58830907677E+03  0.12509803451E+03 0.  0.
         23    2    1    2    0    0  0.20098048485E+02 -0.35015441729E+01  0.22011226622E+03  0.23865339445E+03  0.89943541038E+02 0.  0.
          5    1    3    3  502    0  0.20076873965E+02  0.26255487557E+02  0.49622185903E+03  0.49733895612E+03  0.41800000000E+01 0.  1.
         -5    1    3    3    0  502 -0.40174922451E+02 -0.22753943384E+02  0.78270838223E+02  0.90970120642E+02  0.41800000000E+01 0.  1.
        -11    1    4    4    0    0 -0.25268326477E+02  0.25664252077E+02  0.63340967964E+02  0.72864397206E+02  0.00000000000E+00 0.  1.
         11    1    4    4    0    0  0.45366374962E+02 -0.29165796250E+02  0.15677129826E+03  0.16578899724E+03  0.00000000000E+00 0. -1.
</event>
<event>
 8    1  0.3708258E-009  0.2149955E+03  0.7561462E-02  0.1137670E+00
         -1   -1    0    0    0  501 -0.00000000000E+00  0.00000000000E+00  0.18322046586E+03  0.18322046586E+03  0.00000000000E+00 0.  1.
          1   -1    0    0  501    0  0.00000000000E+00 -0.00000000000E+00 -0.45675900783E+03  0.45675900783E+03  0.00000000000E+00 0. -1.
         25    2    1    2    0    0  0.15290490574E+03  0.10479356334E+03 -0.35373131132E+03  0.41849034388E+03  0.12508687462E+03 0.  0.
         23    2    1    2    0    0 -0.15290490574E+03 -0.10479356334E+03  0.80192769349E+02  0.22148912981E+03  0.90911788288E+02 0.  0.
          5    1    3    3  502    0  0.15969325499E+02  0.83239636543E+02 -0.12887112002E+03  0.15430195859E+03  0.41800000000E+01 0.  1.
         -5    1    3    3    0  502  0.13693558024E+03  0.21553926801E+02 -0.22486019130E+03  0.26418838530E+03  0.41800000000E+01 0.  1.
        -11    1    4    4    0    0 -0.59960482133E+02 -0.95866478065E+02  0.42539934114E+02  0.12081095575E+03  0.00000000000E+00 0.  1.
         11    1    4    4    0    0 -0.92944423604E+02 -0.89270852792E+01  0.37652835235E+02  0.10067817406E+03  0.00000000000E+00 0. -1.
</event>
<event>
 8    1  0.3708258E-009  0.5980202E+02  0.7561462E-02  0.1398664E+00
          1   -1    0    0  501    0  0.00000000000E+00  0.00000000000E+00  0.19044354008E+03  0.19044354008E+03  0.00000000000E+00 0. -1.
         -1   -1    0    0    0  501 -0.00000000000E+00 -0.00000000000E+00 -0.68634036577E+02  0.68634036577E+02  0.00000000000E+00 0.  1.
         25    2    1    2    0    0 -0.18904333809E+01 -0.35428898193E+02  0.56055735518E+02  0.14159088360E+03  0.12508777825E+03 0.  0.
         23    2    1    2    0    0  0.18904333809E+01  0.35428898193E+02  0.65753767983E+02  0.11748669306E+03  0.90668541821E+02 0.  0.
          5    1    3    3  502    0 -0.20062021334E+02 -0.45038268259E+02  0.89409987067E+02  0.10218878850E+03  0.41800000000E+01 0.  1.
         -5    1    3    3    0  502  0.18171587953E+02  0.96093700660E+01 -0.33354251549E+02  0.39402095099E+02  0.41800000000E+01 0.  1.
        -11    1    4    4    0    0 -0.15493412282E+02  0.23176669355E+02  0.84597010969E+02  0.89072207177E+02  0.00000000000E+00 0. -1.
         11    1    4    4    0    0  0.17383845663E+02  0.12252228838E+02 -0.18843242987E+02  0.28414485879E+02  0.00000000000E+00 0.  1.
</event>
<event>
 8    1  0.3708258E-009  0.1687616E+03  0.7561462E-02  0.1179146E+00
          2   -1    0    0  501    0  0.00000000000E+00  0.00000000000E+00  0.20637309406E+03  0.20637309406E+03  0.00000000000E+00 0. -1.
         -2   -1    0    0    0  501 -0.00000000000E+00 -0.00000000000E+00 -0.17019161970E+03  0.17019161970E+03  0.00000000000E+00 0.  1.
         25    2    1    2    0    0  0.12137462153E+03  0.76653156397E+02  0.71142255081E+02  0.20326425914E+03  0.12509050103E+03 0.  0.
         23    2    1    2    0    0 -0.12137462153E+03 -0.76653156397E+02 -0.34960780719E+02  0.17330045462E+03  0.90571994826E+02 0.  0.
          5    1    3    3  502    0  0.47226986502E+02 -0.32998406936E+02  0.17257841848E+02  0.60287549458E+02  0.41800000000E+01 0. -1.
         -5    1    3    3    0  502  0.74147635029E+02  0.10965156333E+03  0.53884413232E+02  0.14297670968E+03  0.41800000000E+01 0. -1.
        -11    1    4    4    0    0 -0.66252086668E+02 -0.60912936790E+02 -0.62630449807E+02  0.10964624070E+03  0.00000000000E+00 0.  1.
         11    1    4    4    0    0 -0.55122534863E+02 -0.15740219607E+02  0.27669669088E+02  0.63654213925E+02  0.00000000000E+00 0. -1.
</event>
<event>
 8    1  0.3708258E-009  0.3223346E+03  0.7561462E-02  0.1074580E+00
          1   -1    0    0  501    0  0.00000000000E+00  0.00000000000E+00  0.25186816530E+03  0.25186816530E+03  0.00000000000E+00 0. -1.
         -1   -1    0    0    0  501 -0.00000000000E+00 -0.00000000000E+00 -0.45073702591E+03  0.45073702591E+03  0.00000000000E+00 0.  1.
         25    2    1    2    0    0  0.23957151139E+02 -0.31460708463E+03 -0.15026583024E+03  0.37118546412E+03  0.12508903329E+03 0.  0.
         23    2    1    2    0    0 -0.23957151139E+02  0.31460708463E+03 -0.48603030360E+02  0.33141972708E+03  0.89023694323E+02 0.  0.
          5    1    3    3  502    0 -0.41216105114E+00  0.66214402381E+00  0.14139885060E+02  0.14765400805E+02  0.41800000000E+01 0.  1.
         -5    1    3    3    0  502  0.24369312190E+02 -0.31526922865E+03 -0.16440571530E+03  0.35642006332E+03  0.41800000000E+01 0.  1.
        -11    1    4    4    0    0  0.37477934377E+01  0.27918373853E+03 -0.58739234411E+02  0.28532070285E+03  0.00000000000E+00 0.  1.
         11    1    4    4    0    0 -0.27704944577E+02  0.35423346101E+02  0.10136204051E+02  0.46099024236E+02  0.00000000000E+00 0. -1.
</event>
<event>
 8    1  0.3708258E-009  0.1008752E+03  0.7561462E-02  0.1278466E+00
          1   -1    0    0  501    0  0.00000000000E+00  0.00000000000E+00  0.41644579559E+03  0.41644579559E+03  0.00000000000E+00 0. -1.
         -1   -1    0    0    0  501 -0.00000000000E+00 -0.00000000000E+00 -0.42074630447E+02  0.42074630447E+02  0.00000000000E+00 0.  1.
         25    2    1    2    0    0 -0.37918732491E+02  0.20286484478E+02  0.31421495189E+03  0.34092276795E+03  0.12509167032E+03 0.  0.
         23    2    1    2    0    0  0.37918732491E+02 -0.20286484478E+02  0.60156213250E+02  0.11759765809E+03  0.91438872860E+02 0.  0.
          5    1    3    3  502    0 -0.33154302812E+02  0.60348049212E+02  0.27838227382E+03  0.28680177408E+03  0.41800000000E+01 0.  1.
         -5    1    3    3    0  502 -0.47644296787E+01 -0.40061564734E+02  0.35832678079E+02  0.54120993869E+02  0.41800000000E+01 0.  1.
        -11    1    4    4    0    0 -0.17853997625E+02 -0.30659364989E+02  0.79449569936E+00  0.35487929161E+02  0.00000000000E+00 0.  1.
         11    1    4    4    0    0  0.55772730116E+02  0.10372880510E+02  0.59361717551E+02  0.82109728931E+02  0.00000000000E+00 0. -1.
</event>
<event>
 8    1  0.3708258E-009  0.1114178E+03  0.7561462E-02  0.1257967E+00
          2   -1    0    0  501    0  0.00000000000E+00  0.00000000000E+00  0.13741976201E+03  0.13741976201E+03  0.00000000000E+00 0. -1.
         -2   -1    0    0    0  501 -0.00000000000E+00 -0.00000000000E+00 -0.96610615532E+02  0.96610615532E+02  0.00000000000E+00 0.  1.
         25    2    1    2    0    0 -0.20989820790E+02  0.83664929398E+01 -0.22906477211E+01  0.12713610298E+03  0.12509105017E+03 0.  0.
         23    2    1    2    0    0  0.20989820790E+02 -0.83664929398E+01  0.43099794195E+02  0.10689427456E+03  0.95174696708E+02 0.  0.
          5    1    3    3  502    0 -0.71783896589E+02  0.19323708253E+02  0.43544121562E+01  0.74583958164E+02  0.41800000000E+01 0. -1.
         -5    1    3    3    0  502  0.50794075799E+02 -0.10957215313E+02 -0.66450598772E+01  0.52552144813E+02  0.41800000000E+01 0. -1.
        -11    1    4    4    0    0 -0.39169115974E+00 -0.49705699448E+02  0.12699021507E+02  0.51303753535E+02  0.00000000000E+00 0.  1.
         11    1    4    4    0    0  0.21381511950E+02  0.41339206508E+02  0.30400772688E+02  0.55590521026E+02  0.00000000000E+00 0. -1.
</event>
<event>
 8    1  0.3708258E-009  0.1055241E+03  0.7561462E-02  0.1269090E+00
         -1   -1    0    0    0  501 -0.00000000000E+00  0.00000000000E+00  0.25020664692E+02  0.25020664692E+02  0.00000000000E+00 0.  1.
          1   -1    0    0  501    0  0.00000000000E+00 -0.00000000000E+00 -0.48178962845E+03  0.48178962845E+03  0.00000000000E+00 0. -1.
         25    2    1    2    0    0  0.19780523629E+02  0.15651996395E+01 -0.26451268696E+03  0.29327411420E+03  0.12509606521E+03 0.  0.
         23    2    1    2    0    0 -0.19780523629E+02 -0.15651996395E+01 -0.19225627680E+03  0.21353617894E+03  0.90782733958E+02 0.  0.
          5    1    3    3  502    0 -0.52264897965E+02 -0.67377076136E+01 -0.92280678364E+02  0.10634948172E+03  0.41800000000E+01 0. -1.
         -5    1    3    3    0  502  0.72045421594E+02  0.83029072531E+01 -0.17223200860E+03  0.18692463248E+03  0.41800000000E+01 0. -1.
        -11    1    4    4    0    0 -0.21789246536E+02 -0.40801471299E+02 -0.14435244132E+03  0.15158218444E+03  0.00000000000E+00 0. -1.
         11    1    4    4    0    0  0.20087229079E+01  0.39236271660E+02 -0.47903835481E+02  0.61953994506E+02  0.00000000000E+00 0.  1.
</event>
<event>
 8    1  0.3708258E-009  0.1027034E+03  0.7561462E-02  0.1274712E+00
          1   -1    0    0  501    0  0.00000000000E+00  0.00000000000E+00  0.18226858164E+03  0.18226858164E+03  0.00000000000E+00 0. -1.
         -1   -1    0    0    0  501 -0.00000000000E+00 -0.00000000000E+00 -0.96013453026E+02  0.96013453026E+02  0.00000000000E+00 0.  1.
         25    2    1    2    0    0  0.41345544478E+02 -0.39310287180E+02  0.98339061639E+02  0.16903263636E+03  0.12508680339E+03 0.  0.
         23    2    1    2    0    0 -0.41345544478E+02  0.39310287180E+02 -0.12083933021E+02  0.10924939831E+03  0.92383206634E+02 0.  0.
          5    1    3    3  502    0  0.51035488817E+02 -0.76381327011E+02  0.42801804730E+02  0.10143074052E+03  0.41800000000E+01 0. -1.
         -5    1    3    3    0  502 -0.96899443387E+01  0.37071039832E+02  0.55537256909E+02  0.67601895835E+02  0.41800000000E+01 0. -1.
        -11    1    4    4    0    0 -0.42858294808E+02  0.80491636297E+01 -0.45804257654E+02  0.63242805822E+02  0.00000000000E+00 0.  1.
         11    1    4    4    0    0  0.15127503298E+01  0.31261123550E+02  0.33720324633E+02  0.46006592490E+02  0.00000000000E+00 0. -1.
</event>
<event>
 8    1  0.3708258E-009  0.1027781E+03  0.7561462E-02  0.1274560E+00
         -1   -1    0    0    0  501 -0.00000000000E+00  0.00000000000E+00  0.72395705136E+02  0.72395705136E+02  0.00000000000E+00 0.  1.
          1   -1    0    0  501    0  0.00000000000E+00 -0.00000000000E+00 -0.25749262101E+03  0.25749262101E+03  0.00000000000E+00 0. -1.
         25    2    1    2    0    0 -0.89917854336E+01 -0.82685286159E+02 -0.79417228260E+02  0.16991790215E+03  0.12508912252E+03 0.  0.
         23    2    1    2    0    0  0.89917854336E+01  0.82685286159E+02 -0.10567968762E+03  0.15997042400E+03  0.86629275809E+02 0.  0.
          5    1    3    3  502    0  0.33638230607E+02 -0.66185187049E+02 -0.95716905510E+02  0.12120729328E+03  0.41800000000E+01 0.  1.
         -5    1    3    3    0  502 -0.42630016041E+02 -0.16500099111E+02  0.16299677250E+02  0.48710608873E+02  0.41800000000E+01 0.  1.
        -11    1    4    4    0    0 -0.59422533801E+01  0.26381754683E+02 -0.97460775427E+02  0.10114301806E+03  0.00000000000E+00 0. -1.
         11    1    4    4    0    0  0.14934038814E+02  0.56303531476E+02 -0.82189121895E+01  0.58827405939E+02  0.00000000000E+00 0.  1.
</event>
<event>
 8    1  0.3708258E-009  0.1461811E+03  0.7561462E-02  0.1205246E+00
          2   -1    0    0  501    0  0.00000000000E+00  0.00000000000E+00  0.10688309261E+04  0.10688309261E+04  0.00000000000E+00 0. -1.
         -2   -1    0    0    0  501 -0.00000000000E+00 -0.00000000000E+00 -0.53869640377E+02  0.53869640377E+02  0.00000000000E+00 0.  1.
         25    2    1    2    0    0  0.97022443707E+02 -0.10163494834E+03  0.90019739808E+03  0.91964439488E+03  0.12508972870E+03 0.  0.
         23    2    1    2    0    0 -0.97022443707E+02  0.10163494834E+03  0.11476388762E+03  0.20305617157E+03  0.91203298203E+02 0.  0.
          5    1    3    3  502    0 -0.48736266509E+01  0.17166394502E+01  0.36617141360E+03  0.36623172395E+03  0.41800000000E+01 0.  1.
         -5    1    3    3    0  502  0.10189607036E+03 -0.10335158779E+03  0.53402598448E+03  0.55341267094E+03  0.41800000000E+01 0.  1.
        -11    1    4    4    0    0 -0.71125796165E+02  0.73404213647E+02  0.12683207804E+03  0.16289086371E+03  0.00000000000E+00 0. -1.
         11    1    4    4    0    0 -0.25896647542E+02  0.28230734697E+02 -0.12068190417E+02  0.40165307859E+02  0.00000000000E+00 0.  1.
</event>
<event>
 8    1  0.3708258E-009  0.1036325E+03  0.7561462E-02  0.1272838E+00
         -2   -1    0    0    0  501 -0.00000000000E+00  0.00000000000E+00  0.75527413425E+02  0.75527413425E+02  0.00000000000E+00 0.  1.
          2   -1    0    0  501    0  0.00000000000E+00 -0.00000000000E+00 -0.16332163015E+03  0.16332163015E+03  0.00000000000E+00 0. -1.
         25    2    1    2    0    0 -0.23586626800E+02  0.12659582482E+02 -0.41929053285E+02  0.13462218301E+03  0.12509393533E+03 0.  0.
         23    2    1    2    0    0  0.23586626800E+02 -0.12659582482E+02 -0.45865163441E+02  0.10422686056E+03  0.89682948509E+02 0.  0.
          5    1    3    3  502    0  0.28873928811E+01  0.61796213076E+02  0.41218822944E+01  0.62141542480E+02  0.41800000000E+01 0.  1.
         -5    1    3    3    0  502 -0.26474019681E+02 -0.49136630594E+02 -0.46050935579E+02  0.72480640532E+02  0.41800000000E+01 0.  1.
        -11    1    4    4    0    0 -0.13916487743E+02  0.29648445824E+02 -0.22644770720E+01  0.32830273031E+02  0.00000000000E+00 0.  1.
         11    1    4    4    0    0  0.37503114543E+02 -0.42308028306E+02 -0.43600686369E+02  0.71396587533E+02  0.00000000000E+00 0. -1.
</event>
<event>
 8    1  0.3708258E-009  0.1494837E+03  0.7561462E-02  0.1201109E+00
         -1   -1    0    0    0  501 -0.00000000000E+00  0.00000000000E+00  0.71455325647E+02  0.71455325647E+02  0.00000000000E+00 0.  1.
          1   -1    0    0  501    0  0.00000000000E+00 -0.00000000000E+00 -0.39958709881E+03  0.39958709881E+03  0.00000000000E+00 0. -1.
         25    2    1    2    0    0  0.10092842030E+03  0.51010614628E+02 -0.87945059349E+02  0.19017856339E+03  0.12507966934E+03 0.  0.
         23    2    1    2    0    0 -0.10092842030E+03 -0.51010614628E+02 -0.24018671381E+03  0.28086386106E+03  0.91685452112E+02 0.  0.
          5    1    3    3  502    0  0.11305330014E+03  0.69742608691E+01 -0.89293071267E+02  0.14429280635E+03  0.41800000000E+01 0.  1.
         -5    1    3    3    0  502 -0.12124879843E+02  0.44036353759E+02  0.13480119180E+01  0.45885757046E+02  0.41800000000E+01 0.  1.
        -11    1    4    4    0    0 -0.41648874225E+02  0.20869731401E+02 -0.45933956269E+02  0.65422494232E+02  0.00000000000E+00 0.  1.
         11    1    4    4    0    0 -0.59279546074E+02 -0.71880346029E+02 -0.19425275754E+03  0.21544136683E+03  0.00000000000E+00 0. -1.
</event>
<event>
 8    1  0.3708258E-009  0.1119865E+03  0.7561462E-02  0.1256935E+00
          1   -1    0    0  501    0  0.00000000000E+00  0.00000000000E+00  0.62333000372E+03  0.62333000372E+03  0.00000000000E+00 0. -1.
         -1   -1    0    0    0  501 -0.00000000000E+00 -0.00000000000E+00 -0.27159549107E+02  0.27159549107E+02  0.00000000000E+00 0.  1.
         25    2    1    2    0    0 -0.22884353172E+02  0.47446364245E+02  0.20882503833E+03  0.24905881875E+03  0.12509015734E+03 0.  0.
         23    2    1    2    0    0  0.22884353172E+02 -0.47446364245E+02  0.38734541628E+03  0.40143073407E+03  0.91297927948E+02 0.  0.
          5    1    3    3  502    0 -0.19109661155E+02  0.82723736690E+02  0.19115507723E+03  0.20920356524E+03  0.41800000000E+01 0.  1.
         -5    1    3    3    0  502 -0.37746920167E+01 -0.35277372445E+02  0.17669961106E+02  0.39855253505E+02  0.41800000000E+01 0.  1.
        -11    1    4    4    0    0  0.28059442427E+02 -0.72458495057E+02  0.32268492475E+03  0.33190831035E+03  0.00000000000E+00 0.  1.
         11    1    4    4    0    0 -0.51750892549E+01  0.25012130812E+02  0.64660491528E+02  0.69522423729E+02  0.00000000000E+00 0. -1.
</event>
<event>
 8    1  0.3708258E-009  0.9758132E+02  0.7561462E-02  0.1285466E+00
          1   -1    0    0  501    0  0.00000000000E+00  0.00000000000E+00  0.42291073114E+03  0.42291073114E+03  0.00000000000E+00 0. -1.
         -1   -1    0    0    0  501 -0.00000000000E+00 -0.00000000000E+00 -0.37374084492E+02  0.37374084492E+02  0.00000000000E+00 0.  1.
         25    2    1    2    0    0  0.31949783974E+01  0.38804330895E+02  0.30223115544E+03  0.32940388988E+03  0.12508903774E+03 0.  0.
         23    2    1    2    0    0 -0.31949783974E+01 -0.38804330895E+02  0.83305491209E+02  0.13088092576E+03  0.93134461285E+02 0.  0.
          5    1    3    3  502    0 -0.49707146875E+02  0.54704716639E+02  0.19757664398E+03  0.21099149063E+03  0.41800000000E+01 0.  1.
         -5    1    3    3    0  502  0.52902125272E+02 -0.15900385744E+02  0.10465451146E+03  0.11841239925E+03  0.41800000000E+01 0.  1.
        -11    1    4    4    0    0 -0.27343670296E+02 -0.28440798449E+02 -0.40480149188E+01  0.39660329631E+02  0.00000000000E+00 0.  1.
         11    1    4    4    0    0  0.24148691898E+02 -0.10363532446E+02  0.87353506128E+02  0.91220596129E+02  0.00000000000E+00 0. -1.
</event>
<event>
 8    1  0.3708258E-009  0.9617394E+02  0.7561462E-02  0.1288554E+00
          2   -1    0    0  501    0  0.00000000000E+00  0.00000000000E+00  0.36104484086E+03  0.36104484086E+03  0.00000000000E+00 0. -1.
         -2   -1    0    0    0  501 -0.00000000000E+00 -0.00000000000E+00 -0.49022473522E+02  0.49022473522E+02  0.00000000000E+00 0.  1.
         25    2    1    2    0    0 -0.67707694328E+02 -0.41716338310E+02  0.18985952011E+03  0.24087098422E+03  0.12509040296E+03 0.  0.
         23    2    1    2    0    0  0.67707694328E+02  0.41716338310E+02  0.12216284723E+03  0.16919633016E+03  0.85901409433E+02 0.  0.
          5    1    3    3  502    0 -0.90418062217E+01 -0.40236549177E+02 -0.67831438339E+00  0.41456804747E+02  0.41800000000E+01 0. -1.
         -5    1    3    3    0  502 -0.58665888106E+02 -0.14797891328E+01  0.19053783449E+03  0.19941417948E+03  0.41800000000E+01 0. -1.
        -11    1    4    4    0    0  0.58039805410E+02  0.99856262187E+01  0.20660652430E+02  0.62411491744E+02  0.00000000000E+00 0.  1.
         11    1    4    4    0    0  0.96678889185E+01  0.31730712091E+02  0.10150219480E+03  0.10678483841E+03  0.00000000000E+00 0. -1.
</event>
<event>
 8    1  0.3708258E-009  0.9182499E+02  0.7561462E-02  0.1298491E+00
         -1   -1    0    0    0  501 -0.00000000000E+00  0.00000000000E+00  0.17206744325E+02  0.17206744325E+02  0.00000000000E+00 0.  1.
          1   -1    0    0  501    0  0.00000000000E+00 -0.00000000000E+00 -0.92411542636E+03  0.92411542636E+03  0.00000000000E+00 0. -1.
         25    2    1    2    0    0  0.22114779491E+01  0.47313623558E+02 -0.67753603973E+03  0.69061269776E+03  0.12508934238E+03 0.  0.
         23    2    1    2    0    0 -0.22114779491E+01 -0.47313623558E+02 -0.22937264230E+03  0.25070947292E+03  0.89442501998E+02 0.  0.
          5    1    3    3  502    0 -0.12144640573E+02 -0.28976401961E+02 -0.56947260267E+02  0.65173514691E+02  0.41800000000E+01 0. -1.
         -5    1    3    3    0  502  0.14356118522E+02  0.76290025519E+02 -0.62058877946E+03  0.62543918307E+03  0.41800000000E+01 0. -1.
        -11    1    4    4    0    0  0.18554609491E+02  0.38906988304E+01 -0.49624749387E+01  0.19596867817E+02  0.00000000000E+00 0.  1.
         11    1    4    4    0    0 -0.20766087440E+02 -0.51204322388E+02 -0.22441016737E+03  0.23111260510E+03  0.00000000000E+00 0. -1.
</event>
<event>
 8    1  0.3708258E-009  0.3573736E+03  0.7561462E-02  0.1059629E+00
         -2   -1    0    0    0  501 -0.00000000000E+00  0.00000000000E+00  0.56281612537E+02  0.56281612537E+02  0.00000000000E+00 0.  1.
          2   -1    0    0  501    0  0.00000000000E+00 -0.00000000000E+00 -0.25409224855E+04  0.25409224855E+04  0.00000000000E+00 0. -1.
         25    2    1    2    0    0  0.91699085246E+02 -0.33083833283E+03 -0.16520227991E+04  0.16919486170E+04  0.12509224339E+03 0.  0.
         23    2    1    2    0    0 -0.91699085246E+02  0.33083833283E+03 -0.83261807390E+03  0.90525548101E+03  0.91498110327E+02 0.  0.
          5    1    3    3  502    0 -0.23713985504E+02 -0.14016617785E+02 -0.10860232293E+03  0.11211938115E+03  0.41800000000E+01 0. -1.
         -5    1    3    3    0  502  0.11541307075E+03 -0.31682171505E+03 -0.15434204761E+04  0.15798292359E+04  0.41800000000E+01 0. -1.
        -11    1    4    4    0    0 -0.66222040039E+02  0.11799218751E+03 -0.24693143315E+03  0.28157174500E+03  0.00000000000E+00 0.  1.
         11    1    4    4    0    0 -0.25477045206E+02  0.21284614533E+03 -0.58568664075E+03  0.62368373601E+03  0.00000000000E+00 0. -1.
</event>
<event>
 8    1  0.3708258E-009  0.9320644E+02  0.7561462E-02  0.1295267E+00
         -2   -1    0    0    0  501 -0.00000000000E+00  0.00000000000E+00  0.22830816088E+02  0.22830816088E+02  0.00000000000E+00 0.  1.
          2   -1    0    0  501    0  0.00000000000E+00 -0.00000000000E+00 -0.61064901957E+03  0.61064901957E+03  0.00000000000E+00 0. -1.
         25    2    1    2    0    0  0.46234546036E+02  0.63431369818E+01 -0.34949506680E+03  0.37412956149E+03  0.12509299914E+03 0.  0.
         23    2    1    2    0    0 -0.46234546036E+02 -0.63431369818E+01 -0.23832313669E+03  0.25935027417E+03  0.91031744994E+02 0.  0.
          5    1    3    3  502    0  0.17026094731E+02 -0.31678554534E+02 -0.30933630879E+03  0.31144797809E+03  0.41800000000E+01 0.  1.
         -5    1    3    3    0  502  0.29208451305E+02  0.38021691516E+02 -0.40158758007E+02  0.62681583404E+02  0.41800000000E+01 0.  1.
        -11    1    4    4    0    0 -0.71529283181E+02 -0.18691656050E+02 -0.16481762826E+03  0.18063960513E+03  0.00000000000E+00 0. -1.
         11    1    4    4    0    0  0.25294737145E+02  0.12348519068E+02 -0.73505508426E+02  0.78710669031E+02  0.00000000000E+00 0.  1.
</event>
<event>
 8    1  0.3708258E-009  0.1422655E+03  0.7561462E-02  0.1210313E+00
          2   -1    0    0  501    0  0.00000000000E+00  0.00000000000E+00  0.23039596277E+03  0.23039596277E+03  0.00000000000E+00 0. -1.
         -2   -1    0    0    0  501 -0.00000000000E+00 -0.00000000000E+00 -0.15603307276E+03  0.15603307276E+03  0.00000000000E+00 0.  1.
         25    2    1    2    0    0  0.43906804961E+02  0.10353700688E+03 -0.70399419289E+02  0.18234811565E+03  0.12508811985E+03 0.  0.
         23    2    1    2    0    0 -0.43906804961E+02 -0.10353700688E+03  0.14476230931E+03  0.20408091988E+03  0.89694907040E+02 0.  0.
          5    1    3    3  502    0  0.87086485632E+02  0.56186970393E+02 -0.38443249414E+02  0.11061820577E+03  0.41800000000E+01 0. -1.
         -5    1    3    3    0  502 -0.43179680671E+02  0.47350036491E+02 -0.31956169875E+02  0.71729909882E+02  0.41800000000E+01 0. -1.
        -11    1    4    4    0    0 -0.27977999165E+02 -0.28717509574E+02  0.11536004110E+03  0.12212863250E+03  0.00000000000E+00 0. -1.
         11    1    4    4    0    0 -0.15928805797E+02 -0.74819497310E+02  0.29402268203E+02  0.81952287383E+02  0.00000000000E+00 0.  1.
</event>
<event>
 8    1  0.3708258E-009  0.1019007E+03  0.7561462E-02  0.1276349E+00
         -2   -1    0    0    0  501 -0.00000000000E+00  0.00000000000E+00  0.16343124204E+04  0.16343124204E+04  0.00000000000E+00 0.  1.
          2   -1    0    0  501    0  0.00000000000E+00 -0.00000000000E+00 -0.83386228641E+01  0.83386228641E+01  0.00000000000E+00 0. -1.
         25    2    1    2    0    0  0.31995372876E+02  0.14966619939E+02  0.10726530293E+04  0.10805001136E+04  0.12509304800E+03 0.  0.
         23    2    1    2    0    0 -0.31995372876E+02 -0.14966619939E+02  0.55332076822E+03  0.56215092963E+03  0.92747461131E+02 0.  0.
          5    1    3    3  502    0  0.48697238812E+02  0.47456066629E+02  0.33108542384E+03  0.33802149282E+03  0.41800000000E+01 0. -1.
         -5    1    3    3    0  502 -0.16701865936E+02 -0.32489446690E+02  0.74156760548E+03  0.74247862082E+03  0.41800000000E+01 0. -1.
        -11    1    4    4    0    0  0.13885165068E+02  0.30996238645E+02  0.16855043473E+03  0.17193840079E+03  0.00000000000E+00 0.  1.
         11    1    4    4    0    0 -0.45880537944E+02 -0.45962858584E+02  0.38477033349E+03  0.39021252884E+03  0.00000000000E+00 0. -1.
</event>
<event>
 8    1  0.3708258E-009  0.1534369E+03  0.7561462E-02  0.1196312E+00
          1   -1    0    0  501    0  0.00000000000E+00  0.00000000000E+00  0.65551937737E+03  0.65551937737E+03  0.00000000000E+00 0. -1.
         -1   -1    0    0    0  501 -0.00000000000E+00 -0.00000000000E+00 -0.66702262669E+02  0.66702262669E+02  0.00000000000E+00 0.  1.
         25    2    1    2    0    0  0.13313361134E+03 -0.72106344550E+02  0.46581996152E+03  0.50552905603E+03  0.12508999382E+03 0.  0.
         23    2    1    2    0    0 -0.13313361134E+03  0.72106344550E+02  0.12299715318E+03  0.21669258400E+03  0.94358321730E+02 0.  0.
          5    1    3    3  502    0  0.16360979164E+02  0.18435706861E+01 -0.25455901377E+01  0.17176519474E+02  0.41800000000E+01 0. -1.
         -5    1    3    3    0  502  0.11677263217E+03 -0.73949915236E+02  0.46836555165E+03  0.48835253656E+03  0.41800000000E+01 0. -1.
        -11    1    4    4    0    0 -0.86020285682E+02  0.42335494590E+02  0.17611340569E+02  0.97477910152E+02  0.00000000000E+00 0.  1.
         11    1    4    4    0    0 -0.47113325654E+02  0.29770849960E+02  0.10538581261E+03  0.11921467385E+03  0.00000000000E+00 0. -1.
</event>
<event>
 8    1  0.3708258E-009  0.9320152E+02  0.7561462E-02  0.1295279E+00
          1   -1    0    0  501    0  0.00000000000E+00  0.00000000000E+00  0.16252677321E+02  0.16252677321E+02  0.00000000000E+00 0. -1.
         -1   -1    0    0    0  501 -0.00000000000E+00 -0.00000000000E+00 -0.89107088087E+03  0.89107088087E+03  0.00000000000E+00 0.  1.
         25    2    1    2    0    0  0.22313099590E+00 -0.53837464110E+02 -0.50200158343E+03  0.52014619909E+03  0.12509179166E+03 0.  0.
         23    2    1    2    0    0 -0.22313099590E+00  0.53837464110E+02 -0.37281662012E+03  0.38717735909E+03  0.89529619839E+02 0.  0.
          5    1    3    3  502    0  0.33493661204E+02 -0.37076940659E+02 -0.67781467797E+02  0.84310880948E+02  0.41800000000E+01 0. -1.
         -5    1    3    3    0  502 -0.33270530208E+02 -0.16760523450E+02 -0.43422011563E+03  0.43583531815E+03  0.41800000000E+01 0. -1.
        -11    1    4    4    0    0 -0.38609246204E+02  0.88005087394E+01 -0.91455591134E+02  0.99660664237E+02  0.00000000000E+00 0. -1.
         11    1    4    4    0    0  0.38386115208E+02  0.45036955370E+02 -0.28136102898E+03  0.28751669486E+03  0.00000000000E+00 0.  1.
</event>
<event>
 8    1  0.3708258E-009  0.2454635E+03  0.7561462E-02  0.1116206E+00
          2   -1    0    0  501    0  0.00000000000E+00  0.00000000000E+00  0.41197805791E+03  0.41197805791E+03  0.00000000000E+00 0. -1.
         -2   -1    0    0    0  501 -0.00000000000E+00 -0.00000000000E+00 -0.18383264718E+03  0.18383264718E+03  0.00000000000E+00 0.  1.
         25    2    1    2    0    0  0.22425001776E+03 -0.24378089705E+02 -0.60934293550E+01  0.25800793002E+03  0.12509436578E+03 0.  0.
         23    2    1    2    0    0 -0.22425001776E+03  0.24378089705E+02  0.23423884009E+03  0.33780277507E+03  0.91435873244E+02 0.  0.
          5    1    3    3  502    0  0.23161681474E+03 -0.37779172505E+01 -0.18657202436E+02  0.23243533537E+03  0.41800000000E+01 0.  1.
         -5    1    3    3    0  502 -0.73667969792E+01 -0.20600172455E+02  0.12563773081E+02  0.25572594646E+02  0.41800000000E+01 0.  1.
        -11    1    4    4    0    0 -0.18409670113E+02  0.25098815836E+02  0.84185608482E+01  0.32244979094E+02  0.00000000000E+00 0. -1.
         11    1    4    4    0    0 -0.20584034764E+03 -0.72072613050E+00  0.22582027924E+03  0.30555779597E+03  0.00000000000E+00 0.  1.
</event>
<event>
 8    1  0.3708258E-009  0.1672464E+03  0.7561462E-02  0.1180750E+00
          2   -1    0    0  501    0  0.00000000000E+00  0.00000000000E+00  0.70182634447E+03  0.70182634447E+03  0.00000000000E+00 0.  1.
         -2   -1    0    0    0  501 -0.00000000000E+00 -0.00000000000E+00 -0.48478237480E+02  0.48478237480E+02  0.00000000000E+00 0. -1.
         25    2    1    2    0    0 -0.84993491896E+01  0.14695709184E+03  0.29954412906E+03  0.35642944942E+03  0.12508653555E+03 0.  0.
         23    2    1    2    0    0  0.84993491896E+01 -0.14695709184E+03  0.35380397793E+03  0.39387513253E+03  0.91058988855E+02 0.  0.
          5    1    3    3  502    0  0.82332335168E+00  0.15060834966E+03  0.30786504183E+03  0.34275634091E+03  0.41800000000E+01 0. -1.
         -5    1    3    3    0  502 -0.93226725413E+01 -0.36512578177E+01 -0.83209127722E+01  0.13673108510E+02  0.41800000000E+01 0. -1.
        -11    1    4    4    0    0  0.48482879899E+02 -0.59064219829E+02  0.14916305942E+03  0.16759710619E+03  0.00000000000E+00 0.  1.
         11    1    4    4    0    0 -0.39983530709E+02 -0.87892872013E+02  0.20464091851E+03  0.22627802634E+03  0.00000000000E+00 0. -1.
</event>
<event>
 8    1  0.3708258E-009  0.1008729E+03  0.7561462E-02  0.1278471E+00
         -1   -1    0    0    0  501 -0.00000000000E+00  0.00000000000E+00  0.19819287205E+02  0.19819287205E+02  0.00000000000E+00 0.  1.
          1   -1    0    0  501    0  0.00000000000E+00 -0.00000000000E+00 -0.73376712589E+03  0.73376712589E+03  0.00000000000E+00 0. -1.
         25    2    1    2    0    0 -0.25303704097E+02  0.30176925451E+02 -0.28717619029E+03  0.31570453712E+03  0.12509303025E+03 0.  0.
         23    2    1    2    0    0  0.25303704097E+02 -0.30176925451E+02 -0.42677164840E+03  0.43788187598E+03  0.89752844871E+02 0.  0.
          5    1    3    3  502    0 -0.55036077412E+02  0.45285406356E+02 -0.86153380303E+02  0.11189108626E+03  0.41800000000E+01 0. -1.
         -5    1    3    3    0  502  0.29732373315E+02 -0.15108480905E+02 -0.20102280999E+03  0.20381345087E+03  0.41800000000E+01 0. -1.
        -11    1    4    4    0    0  0.17520577832E+02  0.30710286994E+02 -0.12354470072E+03  0.12850441802E+03  0.00000000000E+00 0. -1.
         11    1    4    4    0    0  0.77831262645E+01 -0.60887212445E+02 -0.30322694767E+03  0.30937745795E+03  0.00000000000E+00 0.  1.
</event>
<event>
 8    1  0.3708258E-009  0.1058527E+03  0.7561462E-02  0.1268449E+00
         -2   -1    0    0    0  501 -0.00000000000E+00  0.00000000000E+00  0.21637185640E+02  0.21637185640E+02  0.00000000000E+00 0.  1.
          2   -1    0    0  501    0  0.00000000000E+00 -0.00000000000E+00 -0.76400276466E+03  0.76400276466E+03  0.00000000000E+00 0. -1.
         25    2    1    2    0    0 -0.32082870119E+01 -0.31694116475E+02 -0.22526638357E+03  0.25962724753E+03  0.12508618616E+03 0.  0.
         23    2    1    2    0    0  0.32082870119E+01  0.31694116475E+02 -0.51709919546E+03  0.52601270278E+03  0.91010853281E+02 0.  0.
          5    1    3    3  502    0  0.37820538637E+02 -0.55794990817E+02 -0.70374765227E+02  0.97537449853E+02  0.41800000000E+01 0. -1.
         -5    1    3    3    0  502 -0.41028825649E+02  0.24100874342E+02 -0.15489161834E+03  0.16208979767E+03  0.41800000000E+01 0. -1.
        -11    1    4    4    0    0  0.38836811357E+02  0.44020061203E+02 -0.32026519127E+03  0.32560076235E+03  0.00000000000E+00 0. -1.
         11    1    4    4    0    0 -0.35628524345E+02 -0.12325944729E+02 -0.19683400419E+03  0.20041194043E+03  0.00000000000E+00 0.  1.
</event>
<event>
 8    1  0.3708258E-009  0.6371924E+02  0.7561462E-02  0.1382855E+00
          2   -1    0    0  501    0  0.00000000000E+00  0.00000000000E+00  0.13657507832E+04  0.13657507832E+04  0.00000000000E+00 0. -1.
         -2   -1    0    0    0  501 -0.00000000000E+00 -0.00000000000E+00 -0.11875589768E+02  0.11875589768E+02  0.00000000000E+00 0.  1.
         25    2    1    2    0    0 -0.61998291189E+01  0.33235005421E+02  0.10968937462E+04  0.11045211642E+04  0.12509239916E+03 0.  0.
         23    2    1    2    0    0  0.61998291189E+01 -0.33235005421E+02  0.25698144726E+03  0.27310520875E+03  0.86046425541E+02 0.  0.
          5    1    3    3  502    0  0.27765190912E+01  0.15408114419E+02  0.10729419291E+04  0.10730642920E+04  0.41800000000E+01 0.  1.
         -5    1    3    3    0  502 -0.89763482101E+01  0.17826891002E+02  0.23951817006E+02  0.31456872188E+02  0.41800000000E+01 0.  1.
        -11    1    4    4    0    0 -0.54996517545E+01  0.27981609601E+02  0.10592528185E+03  0.10969677288E+03  0.00000000000E+00 0.  1.
         11    1    4    4    0    0  0.11699480873E+02 -0.61216615023E+02  0.15105616540E+03  0.16340843587E+03  0.00000000000E+00 0. -1.
</event>
<event>
 8    1  0.3708258E-009  0.1426653E+03  0.7561462E-02  0.1209787E+00
         -3   -1    0    0    0  501 -0.00000000000E+00  0.00000000000E+00  0.21948962279E+03  0.21948962279E+03  0.00000000000E+00 0.  1.
          3   -1    0    0  501    0  0.00000000000E+00 -0.00000000000E+00 -0.11388558083E+03  0.11388558083E+03  0.00000000000E+00 0. -1.
         25    2    1    2    0    0  0.40412156064E+02 -0.10598790523E+03  0.80144928871E+02  0.18691371971E+03  0.12508777150E+03 0.  0.
         23    2    1    2    0    0 -0.40412156064E+02  0.10598790523E+03  0.25459113091E+02  0.14646148391E+03  0.89085472539E+02 0.  0.
          5    1    3    3  502    0  0.39857433262E+02 -0.46976399490E+01  0.75288305490E+02  0.85419460024E+02  0.41800000000E+01 0.  1.
         -5    1    3    3    0  502  0.55472280215E+00 -0.10129026528E+03  0.48566233814E+01  0.10149425969E+03  0.41800000000E+01 0.  1.
        -11    1    4    4    0    0 -0.58206401691E+02  0.29853077844E+02  0.47991599228E+01  0.65591336246E+02  0.00000000000E+00 0.  1.
         11    1    4    4    0    0  0.17794245626E+02  0.76134827389E+02  0.20659953169E+02  0.80870147668E+02  0.00000000000E+00 0. -1.
</event>
<event>
 8    1  0.3708258E-009  0.1057043E+03  0.7561462E-02  0.1268738E+00
          1   -1    0    0  501    0  0.00000000000E+00  0.00000000000E+00  0.15401828865E+04  0.15401828865E+04  0.00000000000E+00 0. -1.
         -1   -1    0    0    0  501 -0.00000000000E+00 -0.00000000000E+00 -0.33654485551E+02  0.33654485551E+02  0.00000000000E+00 0.  1.
         25    2    1    2    0    0 -0.45491763535E+02 -0.92618383033E+02  0.13705848918E+04  0.13801440396E+04  0.12508780580E+03 0.  0.
         23    2    1    2    0    0  0.45491763535E+02  0.92618383033E+02  0.13594350916E+03  0.19369333240E+03  0.91590413846E+02 0.  0.
          5    1    3    3  502    0 -0.37028456251E+02 -0.79183286597E+02  0.40179531562E+03  0.41121532985E+03  0.41800000000E+01 0.  1.
         -5    1    3    3    0  502 -0.84633072848E+01 -0.13435096436E+02  0.96878957616E+03  0.96892870979E+03  0.41800000000E+01 0.  1.
        -11    1    4    4    0    0 -0.66002793391E+00  0.28324745639E+02  0.10493438666E+03  0.10869200686E+03  0.00000000000E+00 0. -1.
         11    1    4    4    0    0  0.46151791469E+02  0.64293637393E+02  0.31009122505E+02  0.85001325541E+02  0.00000000000E+00 0.  1.
</event>
<event>
 8    1  0.3708258E-009  0.1015593E+03  0.7561462E-02  0.1277051E+00
         -1   -1    0    0    0  501 -0.00000000000E+00  0.00000000000E+00  0.75351254019E+02  0.75351254019E+02  0.00000000000E+00 0.  1.
          1   -1    0    0  501    0  0.00000000000E+00 -0.00000000000E+00 -0.23981473748E+03  0.23981473748E+03  0.00000000000E+00 0. -1.
         25    2    1    2    0    0 -0.31978440728E+02  0.70377283492E+02 -0.67606818687E+02  0.16184489306E+03  0.12508998671E+03 0.  0.
         23    2    1    2    0    0  0.31978440728E+02 -0.70377283492E+02 -0.96856664771E+02  0.15332109843E+03  0.90280468603E+02 0.  0.
          5    1    3    3  502    0 -0.50198828621E+02  0.82108734307E+02 -0.61266592954E+01  0.96523442741E+02  0.41800000000E+01 0.  1.
         -5    1    3    3    0  502  0.18220387893E+02 -0.11731450816E+02 -0.61480159392E+02  0.65321450321E+02  0.41800000000E+01 0.  1.
        -11    1    4    4    0    0 -0.45583386950E+01 -0.29680117840E+02  0.11331122249E+02  0.32094893334E+02  0.00000000000E+00 0.  1.
         11    1    4    4    0    0  0.36536779423E+02 -0.40697165651E+02 -0.10818778702E+03  0.12122620510E+03  0.00000000000E+00 0. -1.
</event>
<event>
 8    1  0.3708258E-009  0.1474098E+03  0.7561462E-02  0.1203692E+00
          2   -1    0    0  501    0  0.00000000000E+00  0.00000000000E+00  0.88800617354E+02  0.88800617354E+02  0.00000000000E+00 0. -1.
         -2   -1    0    0    0  501 -0.00000000000E+00 -0.00000000000E+00 -0.39381565957E+03  0.39381565957E+03  0.00000000000E+00 0.  1.
         25    2    1    2    0    0  0.51889065982E+01 -0.12049270091E+03 -0.41482042942E+02  0.17864294284E+03  0.12508847036E+03 0.  0.
         23    2    1    2    0    0 -0.51889065982E+01  0.12049270091E+03 -0.26353299927E+03  0.30397333408E+03  0.91677316725E+02 0.  0.
          5    1    3    3  502    0 -0.52353856048E+02 -0.16981166771E+02 -0.15339891072E+02  0.57289361370E+02  0.41800000000E+01 0.  1.
         -5    1    3    3    0  502  0.57542762647E+02 -0.10351153414E+03 -0.26142151870E+02  0.12135358147E+03  0.41800000000E+01 0.  1.
        -11    1    4    4    0    0 -0.60472986780E+01  0.29132120327E+02 -0.55192574437E+01  0.30260741213E+02  0.00000000000E+00 0. -1.
         11    1    4    4    0    0  0.85839207984E+00  0.91360580581E+02 -0.25801374183E+03  0.27371259286E+03  0.00000000000E+00 0.  1.
</event>
<event>
 8    1  0.3708258E-009  0.1233967E+03  0.7561462E-02  0.1237596E+00
          2   -1    0    0  501    0  0.00000000000E+00  0.00000000000E+00  0.61593935773E+03  0.61593935773E+03  0.00000000000E+00 0. -1.
         -2   -1    0    0    0  501 -0.00000000000E+00 -0.00000000000E+00 -0.25574366246E+02  0.25574366246E+02  0.00000000000E+00 0.  1.
         25    2    1    2    0    0  0.24536517866E+02  0.56519785552E+02  0.34590388867E+03  0.37295416624E+03  0.12509509602E+03 0.  0.
         23    2    1    2    0    0 -0.24536517866E+02 -0.56519785552E+02  0.24446110281E+03  0.26855955774E+03  0.92555272118E+02 0.  0.
          5    1    3    3  502    0 -0.41600583695E+02  0.55329090650E+02  0.21997609699E+03  0.23064880768E+03  0.41800000000E+01 0. -1.
         -5    1    3    3    0  502  0.66137101562E+02  0.11906949016E+01  0.12592779169E+03  0.14230535856E+03  0.41800000000E+01 0. -1.
        -11    1    4    4    0    0  0.33109575181E+02 -0.38474253722E+02  0.11447313459E+03  0.12522224527E+03  0.00000000000E+00 0.  1.
         11    1    4    4    0    0 -0.57646093047E+02 -0.18045531830E+02  0.12998796822E+03  0.14333731246E+03  0.00000000000E+00 0. -1.
</event>
<event>
 8    1  0.3708258E-009  0.1177902E+03  0.7561462E-02  0.1246788E+00
         -2   -1    0    0    0  501 -0.00000000000E+00  0.00000000000E+00  0.58940127052E+02  0.58940127052E+02  0.00000000000E+00 0.  1.
          2   -1    0    0  501    0  0.00000000000E+00 -0.00000000000E+00 -0.24218766869E+03  0.24218766869E+03  0.00000000000E+00 0. -1.
         25    2    1    2    0    0  0.30993594227E+02 -0.37576345175E+02 -0.11361326424E+03  0.17586439237E+03  0.12509087134E+03 0.  0.
         23    2    1    2    0    0 -0.30993594227E+02  0.37576345175E+02 -0.69634277396E+02  0.12526340337E+03  0.92029359645E+02 0.  0.
          5    1    3    3  502    0 -0.29148513806E+02 -0.62429552727E+02 -0.57672819574E+02  0.89948382022E+02  0.41800000000E+01 0.  1.
         -5    1    3    3    0  502  0.60142108032E+02  0.24853207552E+02 -0.55940444665E+02  0.85916010344E+02  0.41800000000E+01 0.  1.
        -11    1    4    4    0    0 -0.13482350835E+02 -0.29279401888E+02 -0.36258326722E+02  0.48515187474E+02  0.00000000000E+00 0. -1.
         11    1    4    4    0    0 -0.17511243391E+02  0.66855747063E+02 -0.33375950674E+02  0.76748215900E+02  0.00000000000E+00 0.  1.
</event>
<event>
 8    1  0.3708258E-009  0.9443233E+02  0.7561462E-02  0.1292460E+00
          1   -1    0    0  501    0  0.00000000000E+00  0.00000000000E+00  0.23342461217E+03  0.23342461217E+03  0.00000000000E+00 0. -1.
         -1   -1    0    0    0  501 -0.00000000000E+00 -0.00000000000E+00 -0.70436789249E+02  0.70436789249E+02  0.00000000000E+00 0.  1.
         25    2    1    2    0    0 -0.19063928013E+02  0.49725535333E+02  0.14058521649E+03  0.19557069456E+03  0.12509049228E+03 0.  0.
         23    2    1    2    0    0  0.19063928013E+02 -0.49725535333E+02  0.22402606433E+02  0.10829070686E+03  0.91591146962E+02 0.  0.
          5    1    3    3  502    0 -0.43276601077E+02  0.58003189208E+02  0.15110273017E+03  0.16759099505E+03  0.41800000000E+01 0.  1.
         -5    1    3    3    0  502  0.24212673064E+02 -0.82776538755E+01 -0.10517513677E+02  0.27979699507E+02  0.41800000000E+01 0.  1.
        -11    1    4    4    0    0  0.10825012241E+01  0.19192198547E+02 -0.18059302035E+02  0.26375190690E+02  0.00000000000E+00 0.  1.
         11    1    4    4    0    0  0.17981426789E+02 -0.68917733880E+02  0.40461908468E+02  0.81915516170E+02  0.00000000000E+00 0. -1.
</event>
<event>
 8    1  0.3708258E-009  0.1531665E+03  0.7561462E-02  0.1196635E+00
          2   -1    0    0  501    0  0.00000000000E+00  0.00000000000E+00  0.48837936166E+03  0.48837936166E+03  0.00000000000E+00 0. -1.
         -2   -1    0    0    0  501 -0.00000000000E+00 -0.00000000000E+00 -0.71291813410E+02  0.71291813410E+02  0.00000000000E+00 0.  1.
         25    2    1    2    0    0 -0.12507534968E+03  0.50736444978E+02  0.32203748222E+03  0.37090854548E+03  0.12508788595E+03 0.  0.
         23    2    1    2    0    0  0.12507534968E+03 -0.50736444978E+02  0.95050066028E+02  0.18876262958E+03  0.91535705214E+02 0.  0.
          5    1    3    3  502    0  0.17386606706E+02  0.17107042708E+02  0.10916270415E+02  0.27047779257E+02  0.41800000000E+01 0.  1.
         -5    1    3    3    0  502 -0.14246195639E+03  0.33629402270E+02  0.31112121180E+03  0.34386076622E+03  0.41800000000E+01 0.  1.
        -11    1    4    4    0    0  0.96625643628E+01 -0.59699773955E+01  0.58637877449E+02  0.59727769521E+02  0.00000000000E+00 0. -1.
         11    1    4    4    0    0  0.11541278532E+03 -0.44766467583E+02  0.36412188578E+02  0.12903486006E+03  0.00000000000E+00 0.  1.
</event>
<event>
 8    1  0.3708258E-009  0.9451290E+02  0.7561462E-02  0.1292277E+00
         -2   -1    0    0    0  501 -0.00000000000E+00  0.00000000000E+00  0.35215804450E+02  0.35215804450E+02  0.00000000000E+00 0. -1.
          2   -1    0    0  501    0  0.00000000000E+00 -0.00000000000E+00 -0.43221148315E+03  0.43221148315E+03  0.00000000000E+00 0.  1.
         25    2    1    2    0    0 -0.17752932750E+02 -0.40291569189E+02 -0.31378903501E+03  0.34065437410E+03  0.12507304638E+03 0.  0.
         23    2    1    2    0    0  0.17752932750E+02  0.40291569189E+02 -0.83206643688E+02  0.12677291350E+03  0.84908473515E+02 0.  0.
          5    1    3    3  502    0  0.26474123029E+02 -0.47084007581E+02 -0.52201813232E+02  0.75234863360E+02  0.41800000000E+01 0.  1.
         -5    1    3    3    0  502 -0.44227055779E+02  0.67924383922E+01 -0.26158722178E+03  0.26541951074E+03  0.41800000000E+01 0.  1.
        -11    1    4    4    0    0  0.37022002195E+02 -0.80323753937E+01 -0.57208232686E+02  0.68614354096E+02  0.00000000000E+00 0.  1.
         11    1    4    4    0    0 -0.19269069445E+02  0.48323944583E+02 -0.25998411002E+02  0.58158559404E+02  0.00000000000E+00 0. -1.
</event>
<event>
 8    1  0.3708258E-009  0.1218346E+03  0.7561462E-02  0.1240101E+00
          2   -1    0    0  501    0  0.00000000000E+00  0.00000000000E+00  0.42026599907E+02  0.42026599907E+02  0.00000000000E+00 0.  1.
         -2   -1    0    0    0  501 -0.00000000000E+00 -0.00000000000E+00 -0.47824676247E+03  0.47824676247E+03  0.00000000000E+00 0. -1.
         25    2    1    2    0    0  0.78450386034E+02  0.46096199733E+02 -0.24505095849E+03  0.28978689995E+03  0.12508857831E+03 0.  0.
         23    2    1    2    0    0 -0.78450386034E+02 -0.46096199733E+02 -0.19116920407E+03  0.23048646243E+03  0.91098968603E+02 0.  0.
          5    1    3    3  502    0 -0.14456372555E+02 -0.29253459005E+02 -0.74352265168E+02  0.81304878739E+02  0.41800000000E+01 0. -1.
         -5    1    3    3    0  502  0.92906758589E+02  0.75349658738E+02 -0.17069869333E+03  0.20848202121E+03  0.41800000000E+01 0. -1.
        -11    1    4    4    0    0 -0.40926633858E+02 -0.26351727573E+02 -0.18024274501E+03  0.18669989296E+03  0.00000000000E+00 0. -1.
         11    1    4    4    0    0 -0.37523752176E+02 -0.19744472161E+02 -0.10926459067E+02  0.43786569471E+02  0.00000000000E+00 0.  1.
</event>
<event>
 8    1  0.3708258E-009  0.1175347E+03  0.7561462E-02  0.1247220E+00
          1   -1    0    0  501    0  0.00000000000E+00  0.00000000000E+00  0.88879962161E+02  0.88879962161E+02  0.00000000000E+00 0. -1.
         -1   -1    0    0    0  501 -0.00000000000E+00 -0.00000000000E+00 -0.25148746345E+03  0.25148746345E+03  0.00000000000E+00 0.  1.
         25    2    1    2    0    0  0.26921201382E+02  0.58431738578E+02  0.27350256585E+01  0.14069018733E+03  0.12508888555E+03 0.  0.
         23    2    1    2    0    0 -0.26921201382E+02 -0.58431738578E+02 -0.16534252694E+03  0.19967723828E+03  0.91617842760E+02 0.  0.
          5    1    3    3  502    0 -0.32074273535E+02 -0.92457332817E+01  0.31736366218E+02  0.46248372376E+02  0.41800000000E+01 0. -1.
         -5    1    3    3    0  502  0.58995474917E+02  0.67677471859E+02 -0.29001340559E+02  0.94441814956E+02  0.41800000000E+01 0. -1.
        -11    1    4    4    0    0 -0.60939685260E+02 -0.39438155341E+02 -0.99365924941E+02  0.12305527366E+03  0.00000000000E+00 0.  1.
         11    1    4    4    0    0  0.34018483878E+02 -0.18993583236E+02 -0.65976602004E+02  0.76621964615E+02  0.00000000000E+00 0. -1.
</event>
<event>
 8    1  0.3708258E-009  0.1597872E+03  0.7561462E-02  0.1188937E+00
         -3   -1    0    0    0  501 -0.00000000000E+00  0.00000000000E+00  0.82998344983E+02  0.82998344983E+02  0.00000000000E+00 0.  1.
          3   -1    0    0  501    0  0.00000000000E+00 -0.00000000000E+00 -0.37076181783E+03  0.37076181783E+03  0.00000000000E+00 0. -1.
         25    2    1    2    0    0  0.40790550391E+02  0.12162596322E+03 -0.21637760820E+03  0.28092726882E+03  0.12507644506E+03 0.  0.
         23    2    1    2    0    0 -0.40790550391E+02 -0.12162596322E+03 -0.71385864647E+02  0.17283289399E+03  0.91205940842E+02 0.  0.
          5    1    3    3  502    0  0.51994232024E+02  0.13862644023E+03 -0.21364135467E+03  0.25996305683E+03  0.41800000000E+01 0. -1.
         -5    1    3    3    0  502 -0.11203681633E+02 -0.17000477014E+02 -0.27362535321E+01  0.20964211987E+02  0.41800000000E+01 0. -1.
        -11    1    4    4    0    0 -0.53105208894E+02 -0.35977011906E+02 -0.60934672328E+01  0.64433213021E+02  0.00000000000E+00 0.  1.
         11    1    4    4    0    0  0.12314658503E+02 -0.85648951310E+02 -0.65292397414E+02  0.10839968097E+03  0.00000000000E+00 0. -1.
</event>
<event>
 8    1  0.3708258E-009  0.1059696E+03  0.7561462E-02  0.1268221E+00
         -1   -1    0    0    0  501 -0.00000000000E+00  0.00000000000E+00  0.20816134220E+03  0.20816134220E+03  0.00000000000E+00 0.  1.
          1   -1    0    0  501    0  0.00000000000E+00 -0.00000000000E+00 -0.59434197569E+02  0.59434197569E+02  0.00000000000E+00 0. -1.
         25    2    1    2    0    0  0.66377633700E+01  0.34408999939E+02  0.73049009468E+02  0.14903543412E+03  0.12508942266E+03 0.  0.
         23    2    1    2    0    0 -0.66377633700E+01 -0.34408999939E+02  0.75678135164E+02  0.11856010565E+03  0.84269088814E+02 0.  0.
          5    1    3    3  502    0 -0.47241452956E+00  0.81261398513E+02  0.54698372309E+02  0.98046021831E+02  0.41800000000E+01 0. -1.
         -5    1    3    3    0  502  0.71101778996E+01 -0.46852398574E+02  0.18350637159E+02  0.50989412293E+02  0.41800000000E+01 0. -1.
        -11    1    4    4    0    0  0.19531958629E+01 -0.57926065081E+02  0.27255595028E+02  0.64047727908E+02  0.00000000000E+00 0.  1.
         11    1    4    4    0    0 -0.85909592329E+01  0.23517065142E+02  0.48422540136E+02  0.54512377738E+02  0.00000000000E+00 0. -1.
</event>
<event>
 8    1  0.3708258E-009  0.1053201E+03  0.7561462E-02  0.1269490E+00
         -1   -1    0    0    0  501 -0.00000000000E+00  0.00000000000E+00  0.40099342077E+02  0.40099342077E+02  0.00000000000E+00 0.  1.
          1   -1    0    0  501    0  0.00000000000E+00 -0.00000000000E+00 -0.56251331190E+03  0.56251331190E+03  0.00000000000E+00 0. -1.
         25    2    1    2    0    0  0.46354817064E+02  0.46308898333E+02 -0.43269259731E+03  0.45515320947E+03  0.12509307414E+03 0.  0.
         23    2    1    2    0    0 -0.46354817064E+02 -0.46308898333E+02 -0.89721372516E+02  0.14745944451E+03  0.96959166446E+02 0.  0.
          5    1    3    3  502    0  0.18584850415E+02  0.81839311000E+02 -0.35862136444E+03  0.36833384982E+03  0.41800000000E+01 0. -1.
         -5    1    3    3    0  502  0.27769966649E+02 -0.35530412667E+02 -0.74071232866E+02  0.86819359651E+02  0.41800000000E+01 0. -1.
        -11    1    4    4    0    0 -0.48455210806E+02 -0.16125067896E+02 -0.10257601470E+03  0.11458518255E+03  0.00000000000E+00 0. -1.
         11    1    4    4    0    0  0.21003937419E+01 -0.30183830437E+02  0.12854642179E+02  0.32874261958E+02  0.00000000000E+00 0.  1.
</event>
<event>
 8    1  0.3708258E-009  0.1074795E+03  0.7561462E-02  0.1265310E+00
         -2   -1    0    0    0  501 -0.00000000000E+00  0.00000000000E+00  0.30262298035E+03  0.30262298035E+03  0.00000000000E+00 0. -1.
          2   -1    0    0  501    0  0.00000000000E+00 -0.00000000000E+00 -0.67761190912E+02  0.67761190912E+02  0.00000000000E+00 0.  1.
         25    2    1    2    0    0 -0.62308683155E+02  0.85133962719E+01  0.21849516563E+03  0.25950808543E+03  0.12509779809E+03 0.  0.
         23    2    1    2    0    0  0.62308683155E+02 -0.85133962719E+01  0.16366623818E+02  0.11087608584E+03  0.89837576346E+02 0.  0.
          5    1    3    3  502    0 -0.84406315998E+02 -0.32080056083E+02  0.16902542188E+03  0.19167843337E+03  0.41800000000E+01 0. -1.
         -5    1    3    3    0  502  0.22097632843E+02  0.40593452355E+02  0.49469743746E+02  0.67829652053E+02  0.41800000000E+01 0. -1.
        -11    1    4    4    0    0  0.10602965457E+02  0.17358777582E+02  0.42735570633E+02  0.47329473195E+02  0.00000000000E+00 0. -1.
         11    1    4    4    0    0  0.51705717698E+02 -0.25872173854E+02 -0.26368946816E+02  0.63546612646E+02  0.00000000000E+00 0.  1.
</event>
<event>
 8    1  0.3708258E-009  0.7505896E+02  0.7561462E-02  0.1343689E+00
         -2   -1    0    0    0  501 -0.00000000000E+00  0.00000000000E+00  0.53433995578E+02  0.53433995578E+02  0.00000000000E+00 0.  1.
          2   -1    0    0  501    0  0.00000000000E+00 -0.00000000000E+00 -0.34247729440E+03  0.34247729440E+03  0.00000000000E+00 0. -1.
         25    2    1    2    0    0  0.49035225330E+02 -0.39713215066E+02 -0.83800519246E+02  0.16325317467E+03  0.12508988464E+03 0.  0.
         23    2    1    2    0    0 -0.49035225330E+02  0.39713215066E+02 -0.20524277957E+03  0.23265811531E+03  0.89574590587E+02 0.  0.
          5    1    3    3  502    0  0.26901912807E+02 -0.50232426359E+02  0.16857608339E+02  0.59570638149E+02  0.41800000000E+01 0. -1.
         -5    1    3    3    0  502  0.22133312523E+02  0.10519211293E+02 -0.10065812759E+03  0.10368253652E+03  0.41800000000E+01 0. -1.
        -11    1    4    4    0    0 -0.22970156273E+02  0.34646824590E+02 -0.20161817144E+03  0.20585897500E+03  0.00000000000E+00 0. -1.
         11    1    4    4    0    0 -0.26065069057E+02  0.50663904760E+01 -0.36246081364E+01  0.26799140313E+02  0.00000000000E+00 0.  1.
</event>
<event>
 8    1  0.3708258E-009  0.1093424E+03  0.7561462E-02  0.1261792E+00
         -1   -1    0    0    0  501 -0.00000000000E+00  0.00000000000E+00  0.16988546829E+02  0.16988546829E+02  0.00000000000E+00 0.  1.
          1   -1    0    0  501    0  0.00000000000E+00 -0.00000000000E+00 -0.10803157395E+04  0.10803157395E+04  0.00000000000E+00 0. -1.
         25    2    1    2    0    0 -0.87250715766E+01  0.42162430081E+02 -0.85703654035E+03  0.86718621961E+03  0.12508601284E+03 0.  0.
         23    2    1    2    0    0  0.87250715766E+01 -0.42162430081E+02 -0.20629065232E+03  0.23011806672E+03  0.92437514081E+02 0.  0.
          5    1    3    3  502    0 -0.32563885255E+02 -0.36494313908E+02 -0.37066389253E+03  0.37390030115E+03  0.41800000000E+01 0.  1.
         -5    1    3    3    0  502  0.23838813678E+02  0.78656743989E+02 -0.48637264782E+03  0.49328591847E+03  0.41800000000E+01 0.  1.
        -11    1    4    4    0    0 -0.33525689209E+02 -0.24412264033E+02 -0.39965563248E+02  0.57594936565E+02  0.00000000000E+00 0.  1.
         11    1    4    4    0    0  0.42250760786E+02 -0.17750166048E+02 -0.16632508907E+03  0.17252313015E+03  0.00000000000E+00 0. -1.
</event>
<event>
 8    1  0.3708258E-009  0.1259903E+03  0.7561462E-02  0.1233530E+00
         -1   -1    0    0    0  501 -0.00000000000E+00  0.00000000000E+00  0.14028403009E+04  0.14028403009E+04  0.00000000000E+00 0.  1.
          1   -1    0    0  501    0  0.00000000000E+00 -0.00000000000E+00 -0.16769569690E+02  0.16769569690E+02  0.00000000000E+00 0. -1.
         25    2    1    2    0    0 -0.80458920443E+02 -0.37254660091E+02  0.10310936357E+04  0.10424328923E+04  0.12510276521E+03 0.  0.
         23    2    1    2    0    0  0.80458920443E+02  0.37254660091E+02  0.35497709554E+03  0.37717697829E+03  0.91608880640E+02 0.  0.
          5    1    3    3  502    0 -0.33421428197E+02  0.28137435193E+02  0.11996868016E+03  0.12774452529E+03  0.41800000000E+01 0. -1.
         -5    1    3    3    0  502 -0.47037492246E+02 -0.65392095284E+02  0.91112495555E+03  0.91468836705E+03  0.41800000000E+01 0. -1.
        -11    1    4    4    0    0  0.78297523144E+02  0.63676485561E+02  0.27640405601E+03  0.29425227123E+03  0.00000000000E+00 0.  1.
         11    1    4    4    0    0  0.21613972991E+01 -0.26421825469E+02  0.78573039531E+02  0.82924707057E+02  0.00000000000E+00 0. -1.
</event>
<event>
 8    1  0.3708258E-009  0.1539568E+03  0.7561462E-02  0.1195694E+00
          2   -1    0    0  501    0  0.00000000000E+00  0.00000000000E+00  0.30284254758E+03  0.30284254758E+03  0.00000000000E+00 0.  1.
         -2   -1    0    0    0  501 -0.00000000000E+00 -0.00000000000E+00 -0.11598197605E+03  0.11598197605E+03  0.00000000000E+00 0. -1.
         25    2    1    2    0    0 -0.10187649537E+03 -0.98842384949E+02  0.37522972778E+02  0.19288444637E+03  0.12509116194E+03 0.  0.
         23    2    1    2    0    0  0.10187649537E+03  0.98842384949E+02  0.14933759875E+03  0.22594007726E+03  0.92728435441E+02 0.  0.
          5    1    3    3  502    0 -0.30502612939E+02 -0.50296527741E+02  0.77730675000E+02  0.97568849204E+02  0.41800000000E+01 0.  1.
         -5    1    3    3    0  502 -0.71373882434E+02 -0.48545857208E+02 -0.40207702222E+02  0.95315597169E+02  0.41800000000E+01 0.  1.
        -11    1    4    4    0    0  0.60531337439E+02  0.10452631349E+03  0.13651552031E+03  0.18228077328E+03  0.00000000000E+00 0.  1.
         11    1    4    4    0    0  0.41345157933E+02 -0.56839285362E+01  0.12822078440E+02  0.43659303976E+02  0.00000000000E+00 0. -1.
</event>
<event>
 8    1  0.3708258E-009  0.1327702E+03  0.7561462E-02  0.1223402E+00
         -1   -1    0    0    0  501 -0.00000000000E+00  0.00000000000E+00  0.22730516252E+02  0.22730516252E+02  0.00000000000E+00 0.  1.
          1   -1    0    0  501    0  0.00000000000E+00 -0.00000000000E+00 -0.99012915078E+03  0.99012915078E+03  0.00000000000E+00 0. -1.
         25    2    1    2    0    0  0.75077802027E+02  0.63839574066E+02 -0.57696135142E+03  0.59853458340E+03  0.12508828451E+03 0.  0.
         23    2    1    2    0    0 -0.75077802027E+02 -0.63839574066E+02 -0.39043728310E+03  0.41432508362E+03  0.97528638409E+02 0.  0.
          5    1    3    3  502    0  0.78274083318E+02  0.96712566308E+02 -0.48537027940E+03  0.50108076508E+03  0.41800000000E+01 0. -1.
         -5    1    3    3    0  502 -0.31962812912E+01 -0.32872992243E+02 -0.91591072020E+02  0.97453818329E+02  0.41800000000E+01 0. -1.
        -11    1    4    4    0    0 -0.69850141767E+02 -0.34403778576E+02 -0.37001623285E+03  0.37811992127E+03  0.00000000000E+00 0. -1.
         11    1    4    4    0    0 -0.52276602601E+01 -0.29435795490E+02 -0.20421050249E+02  0.36205162356E+02  0.00000000000E+00 0.  1.
</event>
<event>
 8    1  0.3708258E-009  0.2505674E+03  0.7561462E-02  0.1112947E+00
         -2   -1    0    0    0  501 -0.00000000000E+00  0.00000000000E+00  0.74539993222E+02  0.74539993222E+02  0.00000000000E+00 0.  1.
          2   -1    0    0  501    0  0.00000000000E+00 -0.00000000000E+00 -0.10756340888E+04  0.10756340888E+04  0.00000000000E+00 0. -1.
         25    2    1    2    0    0 -0.24193316612E+03  0.85028459290E+00 -0.31177032908E+03  0.41398110775E+03  0.12508892687E+03 0.  0.
         23    2    1    2    0    0  0.24193316612E+03 -0.85028459290E+00 -0.68932376649E+03  0.73619297427E+03  0.90997035428E+02 0.  0.
          5    1    3    3  502    0 -0.21946181464E+03 -0.15688770267E+02 -0.31638676656E+03  0.38539289570E+03  0.41800000000E+01 0.  1.
         -5    1    3    3    0  502 -0.22471351483E+02  0.16539054860E+02  0.46164374872E+01  0.28588212050E+02  0.41800000000E+01 0.  1.
        -11    1    4    4    0    0  0.22848429535E+03  0.18570132480E+02 -0.65913620897E+03  0.69786135085E+03  0.00000000000E+00 0.  1.
         11    1    4    4    0    0  0.13448870774E+02 -0.19420417073E+02 -0.30187557523E+02  0.38331623414E+02  0.00000000000E+00 0. -1.
</event>
<event>
 8    1  0.3708258E-009  0.9015719E+02  0.7561462E-02  0.1302471E+00
          1   -1    0    0  501    0  0.00000000000E+00  0.00000000000E+00  0.30542404351E+02  0.30542404351E+02  0.00000000000E+00 0. -1.
         -1   -1    0    0    0  501 -0.00000000000E+00 -0.00000000000E+00 -0.55124535801E+03  0.55124535801E+03  0.00000000000E+00 0.  1.
         25    2    1    2    0    0  0.27359512594E+02 -0.60351675677E+01 -0.43358124839E+03  0.45212990143E+03  0.12507510796E+03 0.  0.
         23    2    1    2    0    0 -0.27359512594E+02  0.60351675677E+01 -0.87121705270E+02  0.12965786094E+03  0.91847717426E+02 0.  0.
          5    1    3    3  502    0  0.10331664361E+02 -0.43080334671E+02 -0.38913641725E+03  0.39167241689E+03  0.41800000000E+01 0. -1.
         -5    1    3    3    0  502  0.17027848233E+02  0.37045167103E+02 -0.44444831140E+02  0.60457484534E+02  0.41800000000E+01 0. -1.
        -11    1    4    4    0    0 -0.42021253773E+02 -0.32808513007E+02 -0.58963149731E+02  0.79491114728E+02  0.00000000000E+00 0.  1.
         11    1    4    4    0    0  0.14661741179E+02  0.38843680575E+02 -0.28158555538E+02  0.50166746208E+02  0.00000000000E+00 0. -1.
</event>
<event>
 8    1  0.3708258E-009  0.1300944E+03  0.7561462E-02  0.1227316E+00
          1   -1    0    0  501    0  0.00000000000E+00  0.00000000000E+00  0.64399236472E+03  0.64399236472E+03  0.00000000000E+00 0. -1.
         -1   -1    0    0    0  501 -0.00000000000E+00 -0.00000000000E+00 -0.40039204364E+02  0.40039204364E+02  0.00000000000E+00 0.  1.
         25    2    1    2    0    0  0.59046441232E+02 -0.93175996561E+02  0.41434696947E+03  0.44665365447E+03  0.12509127623E+03 0.  0.
         23    2    1    2    0    0 -0.59046441232E+02  0.93175996561E+02  0.18960619089E+03  0.23737791461E+03  0.90716691765E+02 0.  0.
          5    1    3    3  502    0  0.70418749285E+01  0.80142110801E+01  0.22795397818E+03  0.22824176689E+03  0.41800000000E+01 0. -1.
         -5    1    3    3    0  502  0.52004566303E+02 -0.10119020764E+03  0.18639299129E+03  0.21841188759E+03  0.41800000000E+01 0. -1.
        -11    1    4    4    0    0 -0.56369101713E+02  0.17306908562E+02  0.12292007667E+03  0.13633176431E+03  0.00000000000E+00 0. -1.
         11    1    4    4    0    0 -0.26773395187E+01  0.75869087999E+02  0.66686114218E+02  0.10104615030E+03  0.00000000000E+00 0.  1.
</event>
<event>
 8    1  0.3708258E-009  0.1041736E+03  0.7561462E-02  0.1271756E+00
          1   -1    0    0  501    0  0.00000000000E+00  0.00000000000E+00  0.89718250664E+03  0.89718250664E+03  0.00000000000E+00 0. -1.
         -1   -1    0    0    0  501 -0.00000000000E+00 -0.00000000000E+00 -0.18852998876E+02  0.18852998876E+02  0.00000000000E+00 0.  1.
         25    2    1    2    0    0  0.59115448412E+01 -0.69489268862E+02  0.42090413594E+03  0.44460305142E+03  0.12509147385E+03 0.  0.
         23    2    1    2    0    0 -0.59115448412E+01  0.69489268862E+02  0.45742537183E+03  0.47143245410E+03  0.90260086072E+02 0.  0.
          5    1    3    3  502    0  0.22876731680E+02 -0.26678353957E+00  0.65758494075E+01  0.24168786093E+02  0.41800000000E+01 0. -1.
         -5    1    3    3    0  502 -0.16965186838E+02 -0.69222485323E+02  0.41432828653E+03  0.42043426532E+03  0.41800000000E+01 0. -1.
        -11    1    4    4    0    0 -0.34639428688E+02  0.76629236994E+02  0.32102049429E+03  0.33185250901E+03  0.00000000000E+00 0. -1.
         11    1    4    4    0    0  0.28727883847E+02 -0.71399681317E+01  0.13640487754E+03  0.13957994509E+03  0.00000000000E+00 0.  1.
</event>
<event>
 8    1  0.3708258E-009  0.1087683E+03  0.7561462E-02  0.1262868E+00
          1   -1    0    0  501    0  0.00000000000E+00  0.00000000000E+00  0.57424124310E+02  0.57424124310E+02  0.00000000000E+00 0. -1.
         -1   -1    0    0    0  501 -0.00000000000E+00 -0.00000000000E+00 -0.24449222870E+03  0.24449222870E+03  0.00000000000E+00 0.  1.
         25    2    1    2    0    0 -0.41922762885E+02  0.45960048658E+01 -0.14091372858E+03  0.19308699605E+03  0.12508903961E+03 0.  0.
         23    2    1    2    0    0  0.41922762885E+02 -0.45960048658E+01 -0.46154375811E+02  0.10882935696E+03  0.89078399300E+02 0.  0.
          5    1    3    3  502    0 -0.88780119211E+01  0.58314977241E+02 -0.32198239095E+02  0.67332419139E+02  0.41800000000E+01 0.  1.
         -5    1    3    3    0  502 -0.33044750964E+02 -0.53718972376E+02 -0.10871548948E+03  0.12575457691E+03  0.41800000000E+01 0.  1.
        -11    1    4    4    0    0  0.58518812064E+02  0.23094811351E+02 -0.43399705568E+02  0.76428765005E+02  0.00000000000E+00 0.  1.
         11    1    4    4    0    0 -0.16596049179E+02 -0.27690816217E+02 -0.27546702430E+01  0.32400591958E+02  0.00000000000E+00 0. -1.
</event>
<event>
 8    1  0.3708258E-009  0.1500275E+03  0.7561462E-02  0.1200439E+00
         -2   -1    0    0    0  501 -0.00000000000E+00  0.00000000000E+00  0.46760858195E+03  0.46760858195E+03  0.00000000000E+00 0.  1.
          2   -1    0    0  501    0  0.00000000000E+00 -0.00000000000E+00 -0.65107355997E+02  0.65107355997E+02  0.00000000000E+00 0. -1.
         25    2    1    2    0    0 -0.34015607941E+02  0.13029487787E+03  0.18079340889E+03  0.25781223124E+03  0.12508826122E+03 0.  0.
         23    2    1    2    0    0  0.34015607941E+02 -0.13029487787E+03  0.22170781707E+03  0.27490370671E+03  0.91015795504E+02 0.  0.
          5    1    3    3  502    0 -0.38477865181E+01 -0.22808027841E+01  0.98786029516E+02  0.98975550263E+02  0.41800000000E+01 0.  1.
         -5    1    3    3    0  502 -0.30167821423E+02  0.13257568066E+03  0.82007379372E+02  0.15883668097E+03  0.41800000000E+01 0.  1.
        -11    1    4    4    0    0  0.36512664087E+02 -0.10374974152E+02  0.28399512514E+02  0.47406191984E+02  0.00000000000E+00 0. -1.
         11    1    4    4    0    0 -0.24970561456E+01 -0.11991990372E+03  0.19330830455E+03  0.22749751473E+03  0.00000000000E+00 0.  1.
</event>
<event>
 8    1  0.3708258E-009  0.2191860E+03  0.7561462E-02  0.1134491E+00
          1   -1    0    0  501    0  0.00000000000E+00  0.00000000000E+00  0.12133942688E+03  0.12133942688E+03  0.00000000000E+00 0. -1.
         -1   -1    0    0    0  501 -0.00000000000E+00 -0.00000000000E+00 -0.44144337350E+03  0.44144337350E+03  0.00000000000E+00 0.  1.
         25    2    1    2    0    0 -0.16243072340E+03  0.11960586173E+03 -0.20556693630E+03  0.31399893031E+03  0.12509300889E+03 0.  0.
         23    2    1    2    0    0  0.16243072340E+03 -0.11960586173E+03 -0.11453701032E+03  0.24878387007E+03  0.89918770057E+02 0.  0.
          5    1    3    3  502    0 -0.43139325875E+02  0.10142691355E+03 -0.62441851741E+02  0.12674729772E+03  0.41800000000E+01 0. -1.
         -5    1    3    3    0  502 -0.11929139753E+03  0.18178948180E+02 -0.14312508455E+03  0.18725163260E+03  0.41800000000E+01 0. -1.
        -11    1    4    4    0    0  0.48874017171E+02 -0.65010424280E+02 -0.44292137385E+01  0.81453316408E+02  0.00000000000E+00 0. -1.
         11    1    4    4    0    0  0.11355670623E+03 -0.54595437451E+02 -0.11010779659E+03  0.16733055366E+03  0.00000000000E+00 0.  1.
</event>
<event>
 8    1  0.3708258E-009  0.1795348E+03  0.7561462E-02  0.1168254E+00
         -3   -1    0    0    0  501 -0.00000000000E+00  0.00000000000E+00  0.19334464733E+03  0.19334464733E+03  0.00000000000E+00 0.  1.
          3   -1    0    0  501    0  0.00000000000E+00 -0.00000000000E+00 -0.19809683538E+03  0.19809683538E+03  0.00000000000E+00 0. -1.
         25    2    1    2    0    0 -0.14303850803E+03 -0.76208965649E+02  0.43161014281E+01  0.20477201887E+03  0.12508049311E+03 0.  0.
         23    2    1    2    0    0  0.14303850803E+03  0.76208965649E+02 -0.90682894747E+01  0.18666946384E+03  0.92170676641E+02 0.  0.
          5    1    3    3  502    0 -0.13791371432E+03 -0.97695607149E+02  0.28838092176E+02  0.17150432127E+03  0.41800000000E+01 0. -1.
         -5    1    3    3    0  502 -0.51247937139E+01  0.21486641500E+02 -0.24521990748E+02  0.33267697603E+02  0.41800000000E+01 0. -1.
        -11    1    4    4    0    0  0.10881147198E+02 -0.54557888394E+01  0.24836820160E+02  0.27659223269E+02  0.00000000000E+00 0.  1.
         11    1    4    4    0    0  0.13215736084E+03  0.81664754488E+02 -0.33905109635E+02  0.15901024058E+03  0.00000000000E+00 0. -1.
</event>
<event>
 8    1  0.3708258E-009  0.9146247E+02  0.7561462E-02  0.1299348E+00
         -1   -1    0    0    0  501 -0.00000000000E+00  0.00000000000E+00  0.27787739350E+02  0.27787739350E+02  0.00000000000E+00 0.  1.
          1   -1    0    0  501    0  0.00000000000E+00 -0.00000000000E+00 -0.47025945352E+03  0.47025945352E+03  0.00000000000E+00 0. -1.
         25    2    1    2    0    0  0.30365119089E+02  0.33771103242E+01 -0.21887667550E+03  0.25394269616E+03  0.12508576466E+03 0.  0.
         23    2    1    2    0    0 -0.30365119089E+02 -0.33771103242E+01 -0.22359503867E+03  0.24410449671E+03  0.93052773556E+02 0.  0.
          5    1    3    3  502    0  0.58969558914E+02  0.27362390379E+02 -0.53331105456E+02  0.84189004596E+02  0.41800000000E+01 0.  1.
         -5    1    3    3    0  502 -0.28604439825E+02 -0.23985280055E+02 -0.16554557005E+03  0.16975369156E+03  0.41800000000E+01 0.  1.
        -11    1    4    4    0    0 -0.31624210056E+02 -0.35802494850E+02 -0.56960673095E+02  0.74339946049E+02  0.00000000000E+00 0.  1.
         11    1    4    4    0    0  0.12590909672E+01  0.32425384526E+02 -0.16663436557E+03  0.16976455066E+03  0.00000000000E+00 0. -1.
</event>
<event>
 8    1  0.3708258E-009  0.7715938E+02  0.7561462E-02  0.1337312E+00
          1   -1    0    0  501    0  0.00000000000E+00  0.00000000000E+00  0.12799209299E+03  0.12799209299E+03  0.00000000000E+00 0. -1.
         -1   -1    0    0    0  501 -0.00000000000E+00 -0.00000000000E+00 -0.11131938682E+03  0.11131938682E+03  0.00000000000E+00 0.  1.
         25    2    1    2    0    0 -0.80738737051E+01 -0.33137307981E+02  0.44677462519E+02  0.13714382226E+03  0.12509629775E+03 0.  0.
         23    2    1    2    0    0  0.80738737051E+01  0.33137307981E+02 -0.28004756348E+02  0.10216765755E+03  0.92144968684E+02 0.  0.
          5    1    3    3  502    0 -0.56416799426E+02 -0.19424745580E+02  0.59721287253E+02  0.84523846040E+02  0.41800000000E+01 0. -1.
         -5    1    3    3    0  502  0.48342925721E+02 -0.13712562400E+02 -0.15043824734E+02  0.52619976220E+02  0.41800000000E+01 0. -1.
        -11    1    4    4    0    0  0.18410425345E+02  0.17967499641E+02  0.31052028659E+02  0.40323731085E+02  0.00000000000E+00 0. -1.
         11    1    4    4    0    0 -0.10336551640E+02  0.15169808340E+02 -0.59056785008E+02  0.61843926463E+02  0.00000000000E+00 0.  1.
</event>
<event>
 8    1  0.3708258E-009  0.1556924E+03  0.7561462E-02  0.1193648E+00
         -1   -1    0    0    0  501 -0.00000000000E+00  0.00000000000E+00  0.40070872193E+03  0.40070872193E+03  0.00000000000E+00 0.  1.
          1   -1    0    0  501    0  0.00000000000E+00 -0.00000000000E+00 -0.15699163806E+03  0.15699163806E+03  0.00000000000E+00 0. -1.
         25    2    1    2    0    0 -0.13108813344E+03  0.45267057090E+02 -0.72818692001E+02  0.20046402097E+03  0.12510018629E+03 0.  0.
         23    2    1    2    0    0  0.13108813344E+03 -0.45267057090E+02  0.31653577587E+03  0.35723633903E+03  0.90496957555E+02 0.  0.
          5    1    3    3  502    0  0.48600710382E+01  0.34075881788E+02 -0.51872239097E+02  0.62393810583E+02  0.41800000000E+01 0.  1.
         -5    1    3    3    0  502 -0.13594820448E+03  0.11191175302E+02 -0.20946452904E+02  0.13807021038E+03  0.41800000000E+01 0.  1.
        -11    1    4    4    0    0  0.12225009513E+03 -0.36016483565E+02  0.31960628479E+03  0.34407913352E+03  0.00000000000E+00 0.  1.
         11    1    4    4    0    0  0.88380383094E+01 -0.92505735250E+01 -0.30705089160E+01  0.13157205505E+02  0.00000000000E+00 0. -1.
</event>
<event>
 8    1  0.3708258E-009  0.1546483E+03  0.7561462E-02  0.1194875E+00
         -2   -1    0    0    0  501 -0.00000000000E+00  0.00000000000E+00  0.25119411522E+03  0.25119411522E+03  0.00000000000E+00 0.  1.
          2   -1    0    0  501    0  0.00000000000E+00 -0.00000000000E+00 -0.10884694513E+03  0.10884694513E+03  0.00000000000E+00 0. -1.
         25    2    1    2    0    0 -0.96107779205E+02 -0.59700544349E+02  0.18980440543E+02  0.16972992207E+03  0.12508848509E+03 0.  0.
         23    2    1    2    0    0  0.96107779205E+02  0.59700544349E+02  0.12336672954E+03  0.19031113829E+03  0.90543465687E+02 0.  0.
          5    1    3    3  502    0 -0.12264076181E+02 -0.80998381267E+02  0.10827074305E+02  0.82739611254E+02  0.41800000000E+01 0.  1.
         -5    1    3    3    0  502 -0.83843703024E+02  0.21297836918E+02  0.81533662382E+01  0.86990310812E+02  0.41800000000E+01 0.  1.
        -11    1    4    4    0    0  0.10172813588E+03  0.73670834915E+02  0.12214848061E+03  0.17520347274E+03  0.00000000000E+00 0.  1.
         11    1    4    4    0    0 -0.56203566742E+01 -0.13970290567E+02  0.12182489338E+01  0.15107665542E+02  0.00000000000E+00 0. -1.
</event>
<event>
 8    1  0.3708258E-009  0.1331745E+03  0.7561462E-02  0.1222820E+00
         -2   -1    0    0    0  501 -0.00000000000E+00  0.00000000000E+00  0.18233870665E+03  0.18233870665E+03  0.00000000000E+00 0.  1.
          2   -1    0    0  501    0  0.00000000000E+00 -0.00000000000E+00 -0.11488584507E+03  0.11488584507E+03  0.00000000000E+00 0. -1.
         25    2    1    2    0    0 -0.39542804432E+02  0.84352902184E+02  0.15034936485E+02  0.15669248634E+03  0.12508972968E+03 0.  0.
         23    2    1    2    0    0  0.39542804432E+02 -0.84352902184E+02  0.52417925096E+02  0.14053206538E+03  0.91228159245E+02 0.  0.
          5    1    3    3  502    0 -0.44537412182E+02 -0.95206382778E+01  0.38420049033E+02  0.59731032175E+02  0.41800000000E+01 0.  1.
         -5    1    3    3    0  502  0.49946077497E+01  0.93873540462E+02 -0.23385112548E+02  0.96961454167E+02  0.41800000000E+01 0.  1.
        -11    1    4    4    0    0 -0.12818091777E+02  0.11546569323E+02 -0.37841841494E+01  0.17662015446E+02  0.00000000000E+00 0. -1.
         11    1    4    4    0    0  0.52360896209E+02 -0.95899471506E+02  0.56202109245E+02  0.12287004993E+03  0.00000000000E+00 0.  1.
</event>
<event>
 8    1  0.3708258E-009  0.1710385E+03  0.7561462E-02  0.1176769E+00
         -2   -1    0    0    0  501 -0.00000000000E+00  0.00000000000E+00  0.77159139834E+03  0.77159139834E+03  0.00000000000E+00 0. -1.
          2   -1    0    0  501    0  0.00000000000E+00 -0.00000000000E+00 -0.39429863909E+02  0.39429863909E+02  0.00000000000E+00 0.  1.
         25    2    1    2    0    0  0.11466527941E+03 -0.68394176870E+02  0.42777296461E+03  0.46525565607E+03  0.12508887449E+03 0.  0.
         23    2    1    2    0    0 -0.11466527941E+03  0.68394176870E+02  0.30438856982E+03  0.34576560618E+03  0.95265750657E+02 0.  0.
          5    1    3    3  502    0  0.61524010906E+02 -0.99131592467E+02  0.32661327170E+03  0.34685152183E+03  0.41800000000E+01 0. -1.
         -5    1    3    3    0  502  0.53141268503E+02  0.30737415597E+02  0.10115969291E+03  0.11840413424E+03  0.41800000000E+01 0. -1.
        -11    1    4    4    0    0 -0.81740094419E+02  0.92163785311E+02  0.22100982842E+03  0.25302361672E+03  0.00000000000E+00 0.  1.
         11    1    4    4    0    0 -0.32925184990E+02 -0.23769608441E+02  0.83378741398E+02  0.92741989461E+02  0.00000000000E+00 0. -1.
</event>
<event>
 8    1  0.3708258E-009  0.3527094E+03  0.7561462E-02  0.1061508E+00
         -2   -1    0    0    0  501 -0.00000000000E+00  0.00000000000E+00  0.10293030384E+03  0.10293030384E+03  0.00000000000E+00 0. -1.
          2   -1    0    0  501    0  0.00000000000E+00 -0.00000000000E+00 -0.15746087176E+04  0.15746087176E+04  0.00000000000E+00 0.  1.
         25    2    1    2    0    0 -0.14905392514E+03 -0.31858816110E+03 -0.10822166219E+04  0.11447949859E+04  0.12508898475E+03 0.  0.
         23    2    1    2    0    0  0.14905392514E+03  0.31858816110E+03 -0.38946179188E+03  0.53274403552E+03  0.91761816991E+02 0.  0.
          5    1    3    3  502    0 -0.21321605161E+02 -0.46148845527E+02 -0.57774338632E+02  0.77069276592E+02  0.41800000000E+01 0. -1.
         -5    1    3    3    0  502 -0.12773231997E+03 -0.27243931557E+03 -0.10244422833E+04  0.10677257093E+04  0.41800000000E+01 0. -1.
        -11    1    4    4    0    0  0.36426525439E+02  0.11735311015E+03 -0.19792751623E+03  0.23296769282E+03  0.00000000000E+00 0.  1.
         11    1    4    4    0    0  0.11262739970E+03  0.20123505095E+03 -0.19153427565E+03  0.29977634270E+03  0.00000000000E+00 0. -1.
</event>
<event>
 8    1  0.3708258E-009  0.1346849E+03  0.7561462E-02  0.1220665E+00
          2   -1    0    0  501    0  0.00000000000E+00  0.00000000000E+00  0.60516333320E+03  0.60516333320E+03  0.00000000000E+00 0. -1.
         -2   -1    0    0    0  501 -0.00000000000E+00 -0.00000000000E+00 -0.42899598852E+02  0.42899598852E+02  0.00000000000E+00 0.  1.
         25    2    1    2    0    0  0.80135948947E+01  0.11668332790E+03  0.25914187492E+03  0.31061481422E+03  0.12509130572E+03 0.  0.
         23    2    1    2    0    0 -0.80135948947E+01 -0.11668332790E+03  0.30312185943E+03  0.33744811783E+03  0.91154560209E+02 0.  0.
          5    1    3    3  502    0  0.57214329244E+01 -0.88897185598E+01 -0.89921690852E+01  0.14494598844E+02  0.41800000000E+01 0.  1.
         -5    1    3    3    0  502  0.22921619703E+01  0.12557304646E+03  0.26813404400E+03  0.29612021538E+03  0.41800000000E+01 0.  1.
        -11    1    4    4    0    0  0.26030480507E+02 -0.69018342973E+02  0.89701116426E+02  0.11613529985E+03  0.00000000000E+00 0.  1.
         11    1    4    4    0    0 -0.34044075402E+02 -0.47664984930E+02  0.21342074301E+03  0.22131281798E+03  0.00000000000E+00 0. -1.
</event>
<event>
 8    1  0.3708258E-009  0.2996641E+03  0.7561462E-02  0.1085409E+00
         -3   -1    0    0    0  501 -0.00000000000E+00  0.00000000000E+00  0.17803775520E+04  0.17803775520E+04  0.00000000000E+00 0.  1.
          3   -1    0    0  501    0  0.00000000000E+00 -0.00000000000E+00 -0.56471816264E+02  0.56471816264E+02  0.00000000000E+00 0. -1.
         25    2    1    2    0    0  0.24226991757E+03 -0.15838033534E+03  0.67597580200E+03  0.74590146790E+03  0.12508665532E+03 0.  0.
         23    2    1    2    0    0 -0.24226991757E+03  0.15838033534E+03  0.10479299337E+04  0.10909479004E+04  0.90725584701E+02 0.  0.
          5    1    3    3  502    0  0.99300312684E+02 -0.12143789036E+03  0.25135852791E+03  0.29632127035E+03  0.41800000000E+01 0. -1.
         -5    1    3    3    0  502  0.14296960488E+03 -0.36942444979E+02  0.42461727410E+03  0.44958019755E+03  0.41800000000E+01 0. -1.
        -11    1    4    4    0    0 -0.15317638453E+03  0.13077360341E+03  0.82627843830E+03  0.85047092703E+03  0.00000000000E+00 0.  1.
         11    1    4    4    0    0 -0.89093533035E+02  0.27606731924E+02  0.22165149545E+03  0.24047697335E+03  0.00000000000E+00 0. -1.
</event>
<event>
 8    1  0.3708258E-009  0.9213338E+02  0.7561462E-02  0.1297766E+00
          2   -1    0    0  501    0  0.00000000000E+00  0.00000000000E+00  0.13222428571E+03  0.13222428571E+03  0.00000000000E+00 0. -1.
         -2   -1    0    0    0  501 -0.00000000000E+00 -0.00000000000E+00 -0.11304656476E+03  0.11304656476E+03  0.00000000000E+00 0.  1.
         25    2    1    2    0    0 -0.50678806124E+01 -0.29339462642E+02  0.52914725240E+02  0.13904602935E+03  0.12508933866E+03 0.  0.
         23    2    1    2    0    0  0.50678806124E+01  0.29339462642E+02 -0.33737004292E+02  0.10622482113E+03  0.96223903911E+02 0.  0.
          5    1    3    3  502    0 -0.52619930028E+02  0.77515593803E+01 -0.71485499402E+01  0.53828597188E+02  0.41800000000E+01 0.  1.
         -5    1    3    3    0  502  0.47552049415E+02 -0.37091022022E+02  0.60063275180E+02  0.85217432158E+02  0.41800000000E+01 0.  1.
        -11    1    4    4    0    0  0.89717971450E+01 -0.19501591857E+02 -0.50150726841E+02  0.54551816025E+02  0.00000000000E+00 0.  1.
         11    1    4    4    0    0 -0.39039165326E+01  0.48841054499E+02  0.16413722549E+02  0.51673005107E+02  0.00000000000E+00 0. -1.
</event>
<event>
 8    1  0.3708258E-009  0.1100324E+03  0.7561462E-02  0.1260510E+00
          1   -1    0    0  501    0  0.00000000000E+00  0.00000000000E+00  0.92600667615E+02  0.92600667615E+02  0.00000000000E+00 0. -1.
         -1   -1    0    0    0  501 -0.00000000000E+00 -0.00000000000E+00 -0.14591424771E+03  0.14591424771E+03  0.00000000000E+00 0.  1.
         25    2    1    2    0    0  0.26412043182E+02  0.25207162609E+02 -0.49263224436E+02  0.13931003321E+03  0.12508965984E+03 0.  0.
         23    2    1    2    0    0 -0.26412043182E+02 -0.25207162609E+02 -0.40503556617E+01  0.99204882119E+02  0.92153166975E+02 0.  0.
          5    1    3    3  502    0  0.32223702090E+02  0.72143393062E+02 -0.46444352643E+02  0.91747405584E+02  0.41800000000E+01 0. -1.
         -5    1    3    3    0  502 -0.58116589083E+01 -0.46936230453E+02 -0.28188717924E+01  0.47562627625E+02  0.41800000000E+01 0. -1.
        -11    1    4    4    0    0 -0.34194866444E+02  0.25187662351E+02 -0.18321138302E+02  0.46253338631E+02  0.00000000000E+00 0.  1.
         11    1    4    4    0    0  0.77828232615E+01 -0.50394824960E+02  0.14270782641E+02  0.52951543489E+02  0.00000000000E+00 0. -1.
</event>
<event>
 8    1  0.3708258E-009  0.1276755E+03  0.7561462E-02  0.1230946E+00
         -3   -1    0    0    0  501 -0.00000000000E+00  0.00000000000E+00  0.93922721990E+02  0.93922721990E+02  0.00000000000E+00 0.  1.
          3   -1    0    0  501    0  0.00000000000E+00 -0.00000000000E+00 -0.20530688901E+03  0.20530688901E+03  0.00000000000E+00 0. -1.
         25    2    1    2    0    0 -0.72395477703E+01  0.70880323613E+02 -0.11052250249E+03  0.18149051932E+03  0.12508858349E+03 0.  0.
         23    2    1    2    0    0  0.72395477703E+01 -0.70880323613E+02 -0.86166452895E+00  0.11773909168E+03  0.93730037427E+02 0.  0.
          5    1    3    3  502    0  0.51725988436E+02  0.56798868860E+02 -0.87485917670E+02  0.11650299384E+03  0.41800000000E+01 0.  1.
         -5    1    3    3    0  502 -0.58965536206E+02  0.14081454753E+02 -0.23036584823E+02  0.64987525482E+02  0.41800000000E+01 0.  1.
        -11    1    4    4    0    0  0.41020584981E+02 -0.73068390964E+02 -0.26819317918E+01  0.83838361794E+02  0.00000000000E+00 0. -1.
         11    1    4    4    0    0 -0.33781037211E+02  0.21880673512E+01  0.18202672629E+01  0.33900729884E+02  0.00000000000E+00 0.  1.
</event>
<event>
 8    1  0.3708258E-009  0.2802429E+03  0.7561462E-02  0.1095556E+00
         -2   -1    0    0    0  501 -0.00000000000E+00  0.00000000000E+00  0.30684350136E+02  0.30684350136E+02  0.00000000000E+00 0.  1.
          2   -1    0    0  501    0  0.00000000000E+00 -0.00000000000E+00 -0.26207842806E+04  0.26207842806E+04  0.00000000000E+00 0. -1.
         25    2    1    2    0    0 -0.70105346570E+02 -0.25149746782E+03 -0.13790318598E+04  0.14090924152E+04  0.12508728331E+03 0.  0.
         23    2    1    2    0    0  0.70105346570E+02  0.25149746782E+03 -0.12110680707E+04  0.12423762156E+04  0.92989532078E+02 0.  0.
          5    1    3    3  502    0 -0.22923047765E+02  0.60050333102E+01 -0.19367558396E+03  0.19516462478E+03  0.41800000000E+01 0.  1.
         -5    1    3    3    0  502 -0.47182298804E+02 -0.25750250113E+03 -0.11853562758E+04  0.12139277904E+04  0.41800000000E+01 0.  1.
        -11    1    4    4    0    0  0.49133770997E+02  0.24862461972E+03 -0.11542048966E+04  0.11817010080E+04  0.00000000000E+00 0. -1.
         11    1    4    4    0    0  0.20971575573E+02  0.28728481008E+01 -0.56863174148E+02  0.60675207559E+02  0.00000000000E+00 0.  1.
</event>
<event>
 8    1  0.3708258E-009  0.1037712E+03  0.7561462E-02  0.1272560E+00
         -2   -1    0    0    0  501 -0.00000000000E+00  0.00000000000E+00  0.31944534857E+02  0.31944534857E+02  0.00000000000E+00 0.  1.
          2   -1    0    0  501    0  0.00000000000E+00 -0.00000000000E+00 -0.78926049950E+03  0.78926049950E+03  0.00000000000E+00 0. -1.
         25    2    1    2    0    0  0.55635715848E+02  0.77532449281E+02 -0.57869653854E+03  0.59970292698E+03  0.12508918153E+03 0.  0.
         23    2    1    2    0    0 -0.55635715848E+02 -0.77532449281E+02 -0.17861942610E+03  0.22150210738E+03  0.89731101761E+02 0.  0.
          5    1    3    3  502    0  0.48023907572E+02  0.26393630199E+02 -0.51329448429E+03  0.51622826290E+03  0.41800000000E+01 0.  1.
         -5    1    3    3    0  502  0.76118082760E+01  0.51138819082E+02 -0.65402054249E+02  0.83474664074E+02  0.41800000000E+01 0.  1.
        -11    1    4    4    0    0 -0.23927817867E+02 -0.59741827773E+02 -0.34807596908E+02  0.73165533252E+02  0.00000000000E+00 0.  1.
         11    1    4    4    0    0 -0.31707897981E+02 -0.17790621508E+02 -0.14381182919E+03  0.14833657413E+03  0.00000000000E+00 0. -1.
</event>
<event>
 8    1  0.3708258E-009  0.1780684E+03  0.7561462E-02  0.1169686E+00
          2   -1    0    0  501    0  0.00000000000E+00  0.00000000000E+00  0.53813655979E+03  0.53813655979E+03  0.00000000000E+00 0. -1.
         -2   -1    0    0    0  501 -0.00000000000E+00 -0.00000000000E+00 -0.77018409682E+02  0.77018409682E+02  0.00000000000E+00 0.  1.
         25    2    1    2    0    0 -0.30808533748E+02  0.16261444077E+03  0.30923567830E+03  0.37237873071E+03  0.12508633918E+03 0.  0.
         23    2    1    2    0    0  0.30808533748E+02 -0.16261444077E+03  0.15188247181E+03  0.24277623877E+03  0.92083629224E+02 0.  0.
          5    1    3    3  502    0 -0.60739774093E+02  0.13990273739E+03  0.29474017244E+03  0.33189055083E+03  0.41800000000E+01 0. -1.
         -5    1    3    3    0  502  0.29931240345E+02  0.22711703378E+02  0.14495505867E+02  0.40488179871E+02  0.41800000000E+01 0. -1.
        -11    1    4    4    0    0  0.82341586387E+01 -0.67450956481E+02  0.74699869581E+01  0.68361053268E+02  0.00000000000E+00 0.  1.
         11    1    4    4    0    0  0.22574375109E+02 -0.95163484285E+02  0.14441248485E+03  0.17441518550E+03  0.00000000000E+00 0. -1.
</event>
<event>
 8    1  0.3708258E-009  0.1516363E+03  0.7561462E-02  0.1198477E+00
          1   -1    0    0  501    0  0.00000000000E+00  0.00000000000E+00  0.59759789891E+03  0.59759789891E+03  0.00000000000E+00 0. -1.
         -1   -1    0    0    0  501 -0.00000000000E+00 -0.00000000000E+00 -0.52738359337E+02  0.52738359337E+02  0.00000000000E+00 0.  1.
         25    2    1    2    0    0 -0.45175429741E+02 -0.96701973007E+02  0.45350334365E+03  0.48239409719E+03  0.12508673496E+03 0.  0.
         23    2    1    2    0    0  0.45175429741E+02  0.96701973007E+02  0.91356195920E+02  0.16794216106E+03  0.92013715780E+02 0.  0.
          5    1    3    3  502    0 -0.43606012711E+02 -0.12623966796E+03  0.34905438104E+03  0.37375710218E+03  0.41800000000E+01 0. -1.
         -5    1    3    3    0  502 -0.15694170302E+01  0.29537694951E+02  0.10444896261E+03  0.10863699500E+03  0.41800000000E+01 0. -1.
        -11    1    4    4    0    0  0.47836643225E+02  0.50698803581E+01  0.21510642429E+02  0.52694932010E+02  0.00000000000E+00 0.  1.
         11    1    4    4    0    0 -0.26612134836E+01  0.91632092649E+02  0.69845553491E+02  0.11524722905E+03  0.00000000000E+00 0. -1.
</event>
<event>
 8    1  0.3708258E-009  0.1531110E+03  0.7561462E-02  0.1196702E+00
         -1   -1    0    0    0  501 -0.00000000000E+00  0.00000000000E+00  0.51486549965E+02  0.51486549965E+02  0.00000000000E+00 0.  1.
          1   -1    0    0  501    0  0.00000000000E+00 -0.00000000000E+00 -0.57177806223E+03  0.57177806223E+03  0.00000000000E+00 0. -1.
         25    2    1    2    0    0  0.25659936966E+02  0.11496225404E+03 -0.37488728445E+03  0.41238648492E+03  0.12508950668E+03 0.  0.
         23    2    1    2    0    0 -0.25659936966E+02 -0.11496225404E+03 -0.14540422781E+03  0.21087812727E+03  0.97223674471E+02 0.  0.
          5    1    3    3  502    0 -0.33689602315E+02  0.14877906784E+02 -0.19226288898E+03  0.19580304465E+03  0.41800000000E+01 0. -1.
         -5    1    3    3    0  502  0.59349539281E+02  0.10008434726E+03 -0.18262439547E+03  0.21658344027E+03  0.41800000000E+01 0. -1.
        -11    1    4    4    0    0  0.33930180780E+02 -0.70938377093E+02 -0.73736503037E+02  0.10779880515E+03  0.00000000000E+00 0.  1.
         11    1    4    4    0    0 -0.59590117746E+02 -0.44023876948E+02 -0.71667724773E+02  0.10307932212E+03  0.00000000000E+00 0. -1.
</event>
<event>
 8    1  0.3708258E-009  0.1028089E+03  0.7561462E-02  0.1274498E+00
         -2   -1    0    0    0  501 -0.00000000000E+00  0.00000000000E+00  0.14696194606E+03  0.14696194606E+03  0.00000000000E+00 0.  1.
          2   -1    0    0  501    0  0.00000000000E+00 -0.00000000000E+00 -0.19283057294E+03  0.19283057294E+03  0.00000000000E+00 0. -1.
         25    2    1    2    0    0 -0.44493832244E+01 -0.50486323437E+02  0.94526705758E+02  0.16478298063E+03  0.12509782867E+03 0.  0.
         23    2    1    2    0    0  0.44493832244E+01  0.50486323437E+02 -0.14039533264E+03  0.17500953837E+03  0.91371895187E+02 0.  0.
          5    1    3    3  502    0  0.59390746847E+02 -0.26047906854E+02  0.33795869694E+02  0.73248805252E+02  0.41800000000E+01 0. -1.
         -5    1    3    3    0  502 -0.63840130072E+02 -0.24438416583E+02  0.60730836064E+02  0.91534175375E+02  0.41800000000E+01 0. -1.
        -11    1    4    4    0    0 -0.23154900061E+02  0.29320532339E+02 -0.81150766408E+01  0.38232152468E+02  0.00000000000E+00 0.  1.
         11    1    4    4    0    0  0.27604283286E+02  0.21165791099E+02 -0.13228025600E+03  0.13677738591E+03  0.00000000000E+00 0. -1.
</event>
<event>
 8    1  0.3708258E-009  0.1018255E+03  0.7561462E-02  0.1276503E+00
          2   -1    0    0  501    0  0.00000000000E+00  0.00000000000E+00  0.47452991585E+03  0.47452991585E+03  0.00000000000E+00 0. -1.
         -2   -1    0    0    0  501 -0.00000000000E+00 -0.00000000000E+00 -0.26381034224E+02  0.26381034224E+02  0.00000000000E+00 0.  1.
         25    2    1    2    0    0 -0.18889039701E+02 -0.19382058283E+02  0.27572002684E+03  0.30397386166E+03  0.12508443294E+03 0.  0.
         23    2    1    2    0    0  0.18889039701E+02  0.19382058283E+02  0.17242885479E+03  0.19693708842E+03  0.91214290699E+02 0.  0.
          5    1    3    3  502    0  0.45036130902E+02 -0.69124583983E+01  0.19435552868E+03  0.19966867329E+03  0.41800000000E+01 0. -1.
         -5    1    3    3    0  502 -0.63925170602E+02 -0.12469599885E+02  0.81364498163E+02  0.10430518836E+03  0.41800000000E+01 0. -1.
        -11    1    4    4    0    0  0.18855162405E+02 -0.34198279183E+02  0.51180973587E+02  0.64378035895E+02  0.00000000000E+00 0.  1.
         11    1    4    4    0    0  0.33877295390E-01  0.53580337466E+02  0.12124788120E+03  0.13255905253E+03  0.00000000000E+00 0. -1.
</event>
<event>
 8    1  0.3708258E-009  0.1367141E+03  0.7561462E-02  0.1217820E+00
          1   -1    0    0  501    0  0.00000000000E+00  0.00000000000E+00  0.53488064471E+02  0.53488064471E+02  0.00000000000E+00 0. -1.
         -1   -1    0    0    0  501 -0.00000000000E+00 -0.00000000000E+00 -0.41823971609E+03  0.41823971609E+03  0.00000000000E+00 0.  1.
         25    2    1    2    0    0  0.53053425074E+02 -0.69424543436E+02 -0.28063128518E+03  0.31942300893E+03  0.12507080904E+03 0.  0.
         23    2    1    2    0    0 -0.53053425074E+02  0.69424543436E+02 -0.84120366447E+02  0.15230477163E+03  0.92119890723E+02 0.  0.
          5    1    3    3  502    0  0.62460662243E+02 -0.97894569137E+02 -0.25311457417E+03  0.27851237145E+03  0.41800000000E+01 0.  1.
         -5    1    3    3    0  502 -0.94072371691E+01  0.28470025701E+02 -0.27516711005E+02  0.40910637481E+02  0.41800000000E+01 0.  1.
        -11    1    4    4    0    0 -0.74636453320E+02  0.27024571842E+02 -0.53565947135E+02  0.95761361414E+02  0.00000000000E+00 0. -1.
         11    1    4    4    0    0  0.21583028246E+02  0.42399971594E+02 -0.30554419311E+02  0.56543410216E+02  0.00000000000E+00 0.  1.
</event>
<event>
 8    1  0.3708258E-009  0.9307352E+02  0.7561462E-02  0.1295575E+00
         -3   -1    0    0    0  501 -0.00000000000E+00  0.00000000000E+00  0.11609098615E+03  0.11609098615E+03  0.00000000000E+00 0.  1.
          3   -1    0    0  501    0  0.00000000000E+00 -0.00000000000E+00 -0.11474380081E+03  0.11474380081E+03  0.00000000000E+00 0. -1.
         25    2    1    2    0    0  0.86401112977E+00  0.41230390947E+02 -0.34563782843E+01  0.13175854753E+03  0.12509067368E+03 0.  0.
         23    2    1    2    0    0 -0.86401112977E+00 -0.41230390947E+02  0.48035636328E+01  0.99076239432E+02  0.89957408497E+02 0.  0.
          5    1    3    3  502    0  0.19451775999E+02 -0.40433000904E+02  0.11668345252E+02  0.46549133531E+02  0.41800000000E+01 0. -1.
         -5    1    3    3    0  502 -0.18587764869E+02  0.81663391851E+02 -0.15124723536E+02  0.85209413996E+02  0.41800000000E+01 0. -1.
        -11    1    4    4    0    0 -0.20247410936E+02 -0.22586540434E+02  0.42840279980E+02  0.52491895061E+02  0.00000000000E+00 0.  1.
         11    1    4    4    0    0  0.19383399806E+02 -0.18643850513E+02 -0.38036716347E+02  0.46584344371E+02  0.00000000000E+00 0. -1.
</event>
<event>
 8    1  0.3708258E-009  0.1115373E+03  0.7561462E-02  0.1257749E+00
         -2   -1    0    0    0  501 -0.00000000000E+00  0.00000000000E+00  0.13294107578E+03  0.13294107578E+03  0.00000000000E+00 0. -1.
          2   -1    0    0  501    0  0.00000000000E+00 -0.00000000000E+00 -0.11799990793E+03  0.11799990793E+03  0.00000000000E+00 0.  1.
         25    2    1    2    0    0 -0.24019263314E+02 -0.29770210490E+02  0.58888338834E+02  0.14345090794E+03  0.12508851304E+03 0.  0.
         23    2    1    2    0    0  0.24019263314E+02  0.29770210490E+02 -0.43947170990E+02  0.10749007577E+03  0.90330349872E+02 0.  0.
          5    1    3    3  502    0  0.47853250741E+02 -0.21098777207E+02  0.46051677567E+02  0.69809178572E+02  0.41800000000E+01 0.  1.
         -5    1    3    3    0  502 -0.71872514055E+02 -0.86714332829E+01  0.12836661266E+02  0.73641729368E+02  0.41800000000E+01 0.  1.
        -11    1    4    4    0    0 -0.14921730207E+02  0.51419641600E+02 -0.23867493802E+02  0.58619918415E+02  0.00000000000E+00 0. -1.
         11    1    4    4    0    0  0.38940993521E+02 -0.21649431110E+02 -0.20079677188E+02  0.48870157354E+02  0.00000000000E+00 0.  1.
</event>
<event>
 8    1  0.3708258E-009  0.6534190E+02  0.7561462E-02  0.1376690E+00
         -2   -1    0    0    0  501 -0.00000000000E+00  0.00000000000E+00  0.31554534533E+02  0.31554534533E+02  0.00000000000E+00 0.  1.
          2   -1    0    0  501    0  0.00000000000E+00 -0.00000000000E+00 -0.39223228691E+03  0.39223228691E+03  0.00000000000E+00 0. -1.
         25    2    1    2    0    0  0.18357825760E+02  0.13271275270E+02 -0.19594776633E+03  0.23357272525E+03  0.12509018481E+03 0.  0.
         23    2    1    2    0    0 -0.18357825760E+02 -0.13271275270E+02 -0.16472998605E+03  0.19021409620E+03  0.92370436687E+02 0.  0.
          5    1    3    3  502    0  0.32635505134E+02  0.22130899393E+02 -0.29091929046E+01  0.39759133625E+02  0.41800000000E+01 0. -1.
         -5    1    3    3    0  502 -0.14277679374E+02 -0.88596241231E+01 -0.19303857342E+03  0.19381359162E+03  0.41800000000E+01 0. -1.
        -11    1    4    4    0    0 -0.41885276169E+02 -0.23538100579E+02 -0.38976901864E+02  0.61867741332E+02  0.00000000000E+00 0.  1.
         11    1    4    4    0    0  0.23527450409E+02  0.10266825309E+02 -0.12575308419E+03  0.12834635486E+03  0.00000000000E+00 0. -1.
</event>
<event>
 8    1  0.3708258E-009  0.1091319E+03  0.7561462E-02  0.1262186E+00
         -2   -1    0    0    0  501 -0.00000000000E+00  0.00000000000E+00  0.50991538237E+02  0.50991538237E+02  0.00000000000E+00 0. -1.
          2   -1    0    0  501    0  0.00000000000E+00 -0.00000000000E+00 -0.44577494456E+03  0.44577494456E+03  0.00000000000E+00 0.  1.
         25    2    1    2    0    0  0.58754496715E+02  0.15292842447E+02 -0.35194294335E+03  0.37841371476E+03  0.12508853757E+03 0.  0.
         23    2    1    2    0    0 -0.58754496715E+02 -0.15292842447E+02 -0.42840462973E+02  0.11835276803E+03  0.92120087491E+02 0.  0.
          5    1    3    3  502    0 -0.37276509479E+02  0.20501258662E+02 -0.11209311532E+03  0.11996740669E+03  0.41800000000E+01 0.  1.
         -5    1    3    3    0  502  0.96031006194E+02 -0.52084162154E+01 -0.23984982803E+03  0.25844630807E+03  0.41800000000E+01 0.  1.
        -11    1    4    4    0    0 -0.35262918006E+01 -0.23196331071E+02 -0.56272278562E+02  0.60967809896E+02  0.00000000000E+00 0.  1.
         11    1    4    4    0    0 -0.55228204915E+02  0.79034886244E+01  0.13431815589E+02  0.57384958138E+02  0.00000000000E+00 0. -1.
</event>
<event>
 8    1  0.3708258E-009  0.1103187E+03  0.7561462E-02  0.1259981E+00
          2   -1    0    0  501    0  0.00000000000E+00  0.00000000000E+00  0.10769410758E+03  0.10769410758E+03  0.00000000000E+00 0. -1.
         -2   -1    0    0    0  501 -0.00000000000E+00 -0.00000000000E+00 -0.12671436234E+03  0.12671436234E+03  0.00000000000E+00 0.  1.
         25    2    1    2    0    0  0.34960779408E+02 -0.28378963264E+02  0.17284302693E+02  0.13406835441E+03  0.12509178583E+03 0.  0.
         23    2    1    2    0    0 -0.34960779408E+02  0.28378963264E+02 -0.36304557446E+02  0.10034011551E+03  0.81990830198E+02 0.  0.
          5    1    3    3  502    0 -0.45524639790E+02 -0.14126849734E+02  0.20741188594E+02  0.52151030821E+02  0.41800000000E+01 0.  1.
         -5    1    3    3    0  502  0.80485419198E+02 -0.14252113530E+02 -0.34568859010E+01  0.81917323587E+02  0.41800000000E+01 0.  1.
        -11    1    4    4    0    0 -0.50945866422E+02  0.44934517988E+02 -0.36926333679E+02  0.77318473415E+02  0.00000000000E+00 0.  1.
         11    1    4    4    0    0  0.15985087015E+02 -0.16555554724E+02  0.62177623318E+00  0.23021642095E+02  0.00000000000E+00 0. -1.
</event>
<event>
 8    1  0.3708258E-009  0.1165356E+03  0.7561462E-02  0.1248924E+00
         -1   -1    0    0    0  501 -0.00000000000E+00  0.00000000000E+00  0.17862587646E+02  0.17862587646E+02  0.00000000000E+00 0.  1.
          1   -1    0    0  501    0  0.00000000000E+00 -0.00000000000E+00 -0.95702123334E+03  0.95702123334E+03  0.00000000000E+00 0. -1.
         25    2    1    2    0    0 -0.17004609408E+02  0.60368832686E+02 -0.38282187736E+03  0.40759627293E+03  0.12509428131E+03 0.  0.
         23    2    1    2    0    0  0.17004609408E+02 -0.60368832686E+02 -0.55633676833E+03  0.56728754806E+03  0.91493222061E+02 0.  0.
          5    1    3    3  502    0  0.44075891416E+02  0.34222001860E+02 -0.80546494903E+02  0.98076703945E+02  0.41800000000E+01 0.  1.
         -5    1    3    3    0  502 -0.61080500824E+02  0.26146830825E+02 -0.30227538246E+03  0.30951956898E+03  0.41800000000E+01 0.  1.
        -11    1    4    4    0    0 -0.29248788116E+01  0.23833061119E+02 -0.14146585671E+03  0.14348922724E+03  0.00000000000E+00 0. -1.
         11    1    4    4    0    0  0.19929488219E+02 -0.84201893805E+02 -0.41487091162E+03  0.42379832082E+03  0.00000000000E+00 0.  1.
</event>
<event>
 8    1  0.3708258E-009  0.1393278E+03  0.7561462E-02  0.1214236E+00
          2   -1    0    0  501    0  0.00000000000E+00  0.00000000000E+00  0.24513519523E+03  0.24513519523E+03  0.00000000000E+00 0. -1.
         -2   -1    0    0    0  501 -0.00000000000E+00 -0.00000000000E+00 -0.11093018115E+03  0.11093018115E+03  0.00000000000E+00 0.  1.
         25    2    1    2    0    0  0.11002308394E+03 -0.40526217129E+02  0.11463199383E+03  0.20624099367E+03  0.12508956865E+03 0.  0.
         23    2    1    2    0    0 -0.11002308394E+03  0.40526217129E+02  0.19573020254E+02  0.14982438270E+03  0.91196432255E+02 0.  0.
          5    1    3    3  502    0  0.79589657814E+02 -0.76089383619E+02  0.11496846277E+03  0.15924612323E+03  0.41800000000E+01 0. -1.
         -5    1    3    3    0  502  0.30433426126E+02  0.35563166490E+02 -0.33646894344E+00  0.46994870442E+02  0.41800000000E+01 0. -1.
        -11    1    4    4    0    0 -0.10268616832E+03  0.27146645780E+02  0.48773683109E+02  0.11687712225E+03  0.00000000000E+00 0. -1.
         11    1    4    4    0    0 -0.73369156220E+01  0.13379571349E+02 -0.29200662855E+02  0.32947260455E+02  0.00000000000E+00 0.  1.
</event>
<event>
 8    1  0.3708258E-009  0.9578855E+02  0.7561462E-02  0.1289410E+00
          2   -1    0    0  501    0  0.00000000000E+00  0.00000000000E+00  0.71582895338E+03  0.71582895338E+03  0.00000000000E+00 0. -1.
         -2   -1    0    0    0  501 -0.00000000000E+00 -0.00000000000E+00 -0.30166922155E+02  0.30166922155E+02  0.00000000000E+00 0.  1.
         25    2    1    2    0    0  0.54833482409E+02  0.56713505915E+02  0.53170336190E+03  0.55188693324E+03  0.12509032528E+03 0.  0.
         23    2    1    2    0    0 -0.54833482409E+02 -0.56713505915E+02  0.15395866933E+03  0.19410894230E+03  0.88044744715E+02 0.  0.
          5    1    3    3  502    0 -0.16191149496E+00  0.46155539304E+01  0.39883110873E+03  0.39887975036E+03  0.41800000000E+01 0. -1.
         -5    1    3    3    0  502  0.54995393904E+02  0.52097951984E+02  0.13287225317E+03  0.15300718288E+03  0.41800000000E+01 0. -1.
        -11    1    4    4    0    0 -0.21847522034E+02  0.17676731872E+02  0.77543471286E+02  0.82478912503E+02  0.00000000000E+00 0. -1.
         11    1    4    4    0    0 -0.32985960376E+02 -0.74390237786E+02  0.76415198041E+02  0.11163002979E+03  0.00000000000E+00 0.  1.
</event>
<event>
 8    1  0.3708258E-009  0.1026908E+03  0.7561462E-02  0.1274737E+00
         -3   -1    0    0    0  501 -0.00000000000E+00  0.00000000000E+00  0.29971812019E+02  0.29971812019E+02  0.00000000000E+00 0.  1.
          3   -1    0    0  501    0  0.00000000000E+00 -0.00000000000E+00 -0.50186994477E+03  0.50186994477E+03  0.00000000000E+00 0. -1.
         25    2    1    2    0    0  0.59522997778E+02 -0.55147790284E+01 -0.29302268938E+03  0.32416223938E+03  0.12508181682E+03 0.  0.
         23    2    1    2    0    0 -0.59522997778E+02  0.55147790284E+01 -0.17887544338E+03  0.20767951741E+03  0.86953767344E+02 0.  0.
          5    1    3    3  502    0  0.77687681955E+02  0.33964456636E+02 -0.12898060483E+03  0.15440993836E+03  0.41800000000E+01 0. -1.
         -5    1    3    3    0  502 -0.18164684177E+02 -0.39479235664E+02 -0.16404208455E+03  0.16975230102E+03  0.41800000000E+01 0. -1.
        -11    1    4    4    0    0 -0.38940041386E+02  0.26762670087E+02 -0.30171179011E+02  0.56061282328E+02  0.00000000000E+00 0.  1.
         11    1    4    4    0    0 -0.20582956392E+02 -0.21247891059E+02 -0.14870426437E+03  0.15161823508E+03  0.00000000000E+00 0. -1.
</event>
<event>
 8    1  0.3708258E-009  0.8530288E+02  0.7561462E-02  0.1314642E+00
          1   -1    0    0  501    0  0.00000000000E+00  0.00000000000E+00  0.29426511136E+03  0.29426511136E+03  0.00000000000E+00 0. -1.
         -1   -1    0    0    0  501 -0.00000000000E+00 -0.00000000000E+00 -0.57352372460E+02  0.57352372460E+02  0.00000000000E+00 0.  1.
         25    2    1    2    0    0 -0.17566646830E+02 -0.58634663040E+02  0.78716482381E+02  0.15997521083E+03  0.12509665340E+03 0.  0.
         23    2    1    2    0    0  0.17566646830E+02  0.58634663040E+02  0.15819625652E+03  0.19164227299E+03  0.89185729957E+02 0.  0.
          5    1    3    3  502    0 -0.35122228257E+01 -0.34906999035E+02 -0.30855918678E+02  0.46908361816E+02  0.41800000000E+01 0.  1.
         -5    1    3    3    0  502 -0.14054424005E+02 -0.23727664005E+02  0.10957240106E+03  0.11306684902E+03  0.41800000000E+01 0.  1.
        -11    1    4    4    0    0 -0.36076205180E+02  0.19756326799E+02  0.49634078453E+02  0.64461979279E+02  0.00000000000E+00 0. -1.
         11    1    4    4    0    0  0.53642852011E+02  0.38878336242E+02  0.10856217807E+03  0.12718029371E+03  0.00000000000E+00 0.  1.
</event>
<event>
 8    1  0.3708258E-009  0.1070203E+03  0.7561462E-02  0.1266189E+00
         -1   -1    0    0    0  501 -0.00000000000E+00  0.00000000000E+00  0.21425528906E+03  0.21425528906E+03  0.00000000000E+00 0.  1.
          1   -1    0    0  501    0  0.00000000000E+00 -0.00000000000E+00 -0.97137396881E+02  0.97137396881E+02  0.00000000000E+00 0. -1.
         25    2    1    2    0    0 -0.72053461597E+02 -0.50963965371E+02  0.40119148609E+02  0.15825720697E+03  0.12508705121E+03 0.  0.
         23    2    1    2    0    0  0.72053461597E+02  0.50963965371E+02  0.76998743565E+02  0.15313547896E+03  0.98654150000E+02 0.  0.
          5    1    3    3  502    0 -0.67526484082E+01 -0.36271535005E+01  0.71191125705E+02  0.71724495691E+02  0.41800000000E+01 0.  1.
         -5    1    3    3    0  502 -0.65300813189E+02 -0.47336811870E+02 -0.31071977095E+02  0.86532711282E+02  0.41800000000E+01 0.  1.
        -11    1    4    4    0    0  0.26304541888E+02  0.70164636231E+02  0.19977333537E+02  0.77550621897E+02  0.00000000000E+00 0. -1.
         11    1    4    4    0    0  0.45748919709E+02 -0.19200670860E+02  0.57021410028E+02  0.75584857066E+02  0.00000000000E+00 0.  1.
</event>
<event>
 8    1  0.3708258E-009  0.1064742E+03  0.7561462E-02  0.1267242E+00
          1   -1    0    0  501    0  0.00000000000E+00  0.00000000000E+00  0.57392557177E+03  0.57392557177E+03  0.00000000000E+00 0. -1.
         -1   -1    0    0    0  501 -0.00000000000E+00 -0.00000000000E+00 -0.36586748374E+02  0.36586748374E+02  0.00000000000E+00 0.  1.
         25    2    1    2    0    0  0.72901630831E+02  0.31762919295E+02  0.18090860071E+03  0.23387753366E+03  0.12508896083E+03 0.  0.
         23    2    1    2    0    0 -0.72901630831E+02 -0.31762919295E+02  0.35643022269E+03  0.37663478648E+03  0.92128865845E+02 0.  0.
          5    1    3    3  502    0  0.32287622858E+02  0.66429284300E+02  0.16019389345E+03  0.17645083253E+03  0.41800000000E+01 0. -1.
         -5    1    3    3    0  502  0.40614007974E+02 -0.34666365004E+02  0.20714707262E+02  0.57426701135E+02  0.41800000000E+01 0. -1.
        -11    1    4    4    0    0 -0.56620975880E+02 -0.88605463906E+01  0.33846617881E+03  0.34328384522E+03  0.00000000000E+00 0. -1.
         11    1    4    4    0    0 -0.16280654951E+02 -0.22902372905E+02  0.17964043874E+02  0.33350941255E+02  0.00000000000E+00 0.  1.
</event>
<event>
 8    1  0.3708258E-009  0.1886052E+03  0.7561462E-02  0.1159725E+00
          1   -1    0    0  501    0  0.00000000000E+00  0.00000000000E+00  0.10748317681E+04  0.10748317681E+04  0.00000000000E+00 0. -1.
         -1   -1    0    0    0  501 -0.00000000000E+00 -0.00000000000E+00 -0.41097867663E+02  0.41097867663E+02  0.00000000000E+00 0.  1.
         25    2    1    2    0    0  0.16792800779E+03  0.27455987508E+02  0.69447184557E+03  0.72587368634E+03  0.12509123546E+03 0.  0.
         23    2    1    2    0    0 -0.16792800779E+03 -0.27455987508E+02  0.33926205488E+03  0.39005594943E+03  0.89951402180E+02 0.  0.
          5    1    3    3  502    0  0.38908694516E+02 -0.31135248027E+02  0.34717952985E+03  0.35076258142E+03  0.41800000000E+01 0. -1.
         -5    1    3    3    0  502  0.12901931327E+03  0.58591235535E+02  0.34729231572E+03  0.37511110493E+03  0.41800000000E+01 0. -1.
        -11    1    4    4    0    0 -0.10896262209E+03 -0.53014101530E+02  0.16806347990E+03  0.20719237740E+03  0.00000000000E+00 0.  1.
         11    1    4    4    0    0 -0.58965385701E+02  0.25558114023E+02  0.17119857497E+03  0.18286357203E+03  0.00000000000E+00 0. -1.
</event>
<event>
 8    1  0.3708258E-009  0.9584854E+02  0.7561462E-02  0.1289276E+00
         -2   -1    0    0    0  501 -0.00000000000E+00  0.00000000000E+00  0.82355232940E+01  0.82355232940E+01  0.00000000000E+00 0.  1.
          2   -1    0    0  501    0  0.00000000000E+00 -0.00000000000E+00 -0.17056380570E+04  0.17056380570E+04  0.00000000000E+00 0. -1.
         25    2    1    2    0    0 -0.47406175213E+01 -0.37724197370E+01 -0.13191969712E+04  0.13251283128E+04  0.12509073395E+03 0.  0.
         23    2    1    2    0    0  0.47406175213E+01  0.37724197370E+01 -0.37820556248E+03  0.38874526755E+03  0.89703572683E+02 0.  0.
          5    1    3    3  502    0  0.17755496926E+02 -0.48850306924E+02 -0.28729927320E+03  0.29199307344E+03  0.41800000000E+01 0. -1.
         -5    1    3    3    0  502 -0.22496114447E+02  0.45077887187E+02 -0.10318976980E+04  0.10331352393E+04  0.41800000000E+01 0. -1.
        -11    1    4    4    0    0 -0.32596986954E+01  0.45952308294E+02 -0.16809019632E+03  0.17428870983E+03  0.00000000000E+00 0.  1.
         11    1    4    4    0    0  0.80003162167E+01 -0.42179888557E+02 -0.21011536615E+03  0.21445655773E+03  0.00000000000E+00 0. -1.
</event>
<event>
 8    1  0.3708258E-009  0.1190743E+03  0.7561462E-02  0.1244632E+00
         -2   -1    0    0    0  501 -0.00000000000E+00  0.00000000000E+00  0.17651763900E+02  0.17651763900E+02  0.00000000000E+00 0.  1.
          2   -1    0    0  501    0  0.00000000000E+00 -0.00000000000E+00 -0.15167051856E+04  0.15167051856E+04  0.00000000000E+00 0. -1.
         25    2    1    2    0    0  0.22566837401E+02 -0.94046933369E+02 -0.11427098941E+04  0.11535971267E+04  0.12508533388E+03 0.  0.
         23    2    1    2    0    0 -0.22566837401E+02  0.94046933369E+02 -0.35634352760E+03  0.38075982283E+03  0.92969055048E+02 0.  0.
          5    1    3    3  502    0 -0.31157096435E+02 -0.78266059540E+02 -0.40149483022E+03  0.41025834767E+03  0.41800000000E+01 0.  1.
         -5    1    3    3    0  502  0.53723933836E+02 -0.15780873828E+02 -0.74121506392E+03  0.74333877904E+03  0.41800000000E+01 0.  1.
        -11    1    4    4    0    0 -0.12858760406E+02  0.26954470447E+02 -0.16297101162E+02  0.34021856248E+02  0.00000000000E+00 0.  1.
         11    1    4    4    0    0 -0.97080769957E+01  0.67092462921E+02 -0.34004642643E+03  0.34673796658E+03  0.00000000000E+00 0. -1.
</event>
<event>
 8    1  0.3708258E-009  0.1232692E+03  0.7561462E-02  0.1237799E+00
         -2   -1    0    0    0  501 -0.00000000000E+00  0.00000000000E+00  0.44892809515E+02  0.44892809515E+02  0.00000000000E+00 0.  1.
          2   -1    0    0  501    0  0.00000000000E+00 -0.00000000000E+00 -0.63377359688E+03  0.63377359688E+03  0.00000000000E+00 0. -1.
         25    2    1    2    0    0 -0.92289944439E+02  0.93426318175E+01 -0.49391863323E+03  0.51788768946E+03  0.12508926427E+03 0.  0.
         23    2    1    2    0    0  0.92289944439E+02 -0.93426318175E+01 -0.94962154138E+02  0.16077871693E+03  0.90704280417E+02 0.  0.
          5    1    3    3  502    0  0.17143022932E+02  0.33723887582E+02 -0.73678248689E+02  0.82928526809E+02  0.41800000000E+01 0.  1.
         -5    1    3    3    0  502 -0.10943296737E+03 -0.24381255765E+02 -0.42024038454E+03  0.43495916265E+03  0.41800000000E+01 0.  1.
        -11    1    4    4    0    0  0.30556539757E+02  0.90493763476E+01 -0.90799298656E+02  0.96229444405E+02  0.00000000000E+00 0. -1.
         11    1    4    4    0    0  0.61733404682E+02 -0.18392008165E+02 -0.41628554821E+01  0.64549272526E+02  0.00000000000E+00 0.  1.
</event>
<event>
 8    1  0.3708258E-009  0.2597830E+03  0.7561462E-02  0.1107274E+00
          2   -1    0    0  501    0  0.00000000000E+00  0.00000000000E+00  0.82157403215E+03  0.82157403215E+03  0.00000000000E+00 0. -1.
         -2   -1    0    0    0  501 -0.00000000000E+00 -0.00000000000E+00 -0.92911051274E+02  0.92911051274E+02  0.00000000000E+00 0.  1.
         25    2    1    2    0    0 -0.23773023757E+03 -0.86328733579E+02  0.39981959412E+03  0.48935719336E+03  0.12508572564E+03 0.  0.
         23    2    1    2    0    0  0.23773023757E+03  0.86328733579E+02  0.32884338676E+03  0.42512789006E+03  0.92883980303E+02 0.  0.
          5    1    3    3  502    0 -0.59183700216E+02  0.95971705345E+01  0.18258433973E+03  0.19222208397E+03  0.41800000000E+01 0.  1.
         -5    1    3    3    0  502 -0.17854653735E+03 -0.95925904114E+02  0.21723525439E+03  0.29713510939E+03  0.41800000000E+01 0.  1.
        -11    1    4    4    0    0  0.40837529778E+02 -0.21147118699E+01  0.13645924702E+02  0.43109014204E+02  0.00000000000E+00 0.  1.
         11    1    4    4    0    0  0.19689270779E+03  0.88443445449E+02  0.31519746206E+03  0.38201887586E+03  0.00000000000E+00 0. -1.
</event>
<event>
 8    1  0.3708258E-009  0.9458692E+02  0.7561462E-02  0.1292109E+00
         -2   -1    0    0    0  501 -0.00000000000E+00  0.00000000000E+00  0.19262058160E+03  0.19262058160E+03  0.00000000000E+00 0.  1.
          2   -1    0    0  501    0  0.00000000000E+00 -0.00000000000E+00 -0.69056615004E+02  0.69056615004E+02  0.00000000000E+00 0. -1.
         25    2    1    2    0    0 -0.26312240040E+02 -0.42170397741E+01  0.33826183726E+02  0.13229299242E+03  0.12508839969E+03 0.  0.
         23    2    1    2    0    0  0.26312240040E+02  0.42170397741E+01  0.89737782865E+02  0.12938420418E+03  0.89315649339E+02 0.  0.
          5    1    3    3  502    0 -0.38119491398E+02 -0.56224495695E+02  0.39183474133E+02  0.78530927575E+02  0.41800000000E+01 0. -1.
         -5    1    3    3    0  502  0.11807251357E+02  0.52007455921E+02 -0.53572904070E+01  0.53762064846E+02  0.41800000000E+01 0. -1.
        -11    1    4    4    0    0 -0.98384820494E+01 -0.21239794059E+02 -0.57961745627E+01  0.24114730358E+02  0.00000000000E+00 0. -1.
         11    1    4    4    0    0  0.36150722090E+02  0.25456833833E+02  0.95533957428E+02  0.10526947382E+03  0.00000000000E+00 0.  1.
</event>
<event>
 8    1  0.3708258E-009  0.8693650E+02  0.7561462E-02  0.1310445E+00
         -1   -1    0    0    0  501 -0.00000000000E+00  0.00000000000E+00  0.11347560421E+03  0.11347560421E+03  0.00000000000E+00 0.  1.
          1   -1    0    0  501    0  0.00000000000E+00 -0.00000000000E+00 -0.11177828262E+03  0.11177828262E+03  0.00000000000E+00 0. -1.
         25    2    1    2    0    0  0.24805063174E+01  0.11856453839E+02 -0.21842788021E+02  0.12755503441E+03  0.12508577459E+03 0.  0.
         23    2    1    2    0    0 -0.24805063174E+01 -0.11856453839E+02  0.23540109609E+02  0.97698852424E+02  0.94043610072E+02 0.  0.
          5    1    3    3  502    0  0.30604533881E+02 -0.28896152141E+02  0.32926805615E+02  0.53602910655E+02  0.41800000000E+01 0. -1.
         -5    1    3    3    0  502 -0.28124027564E+02  0.40752605980E+02 -0.54769593637E+02  0.73952123754E+02  0.41800000000E+01 0. -1.
        -11    1    4    4    0    0  0.13275575685E+02  0.32342335742E+02 -0.13946735866E+02  0.37640125297E+02  0.00000000000E+00 0.  1.
         11    1    4    4    0    0 -0.15756082002E+02 -0.44198789581E+02  0.37486845475E+02  0.60058727128E+02  0.00000000000E+00 0. -1.
</event>
<event>
 8    1  0.3708258E-009  0.1338893E+03  0.7561462E-02  0.1221796E+00
          2   -1    0    0  501    0  0.00000000000E+00  0.00000000000E+00  0.75387364129E+03  0.75387364129E+03  0.00000000000E+00 0. -1.
         -2   -1    0    0    0  501 -0.00000000000E+00 -0.00000000000E+00 -0.37429856409E+02  0.37429856409E+02  0.00000000000E+00 0.  1.
         25    2    1    2    0    0  0.68164968586E+02 -0.77465667777E+02  0.57413885909E+03  0.59659911645E+03  0.12509070153E+03 0.  0.
         23    2    1    2    0    0 -0.68164968586E+02  0.77465667777E+02  0.14230492579E+03  0.19470438125E+03  0.83735963273E+02 0.  0.
          5    1    3    3  502    0  0.57642918827E+02  0.22119007264E+02  0.22633231160E+03  0.23463960503E+03  0.41800000000E+01 0.  1.
         -5    1    3    3    0  502  0.10522049759E+02 -0.99584675041E+02  0.34780654749E+03  0.36195951142E+03  0.41800000000E+01 0.  1.
        -11    1    4    4    0    0 -0.17970450258E+02  0.37228344609E+02  0.32219805997E+01  0.41464055322E+02  0.00000000000E+00 0.  1.
         11    1    4    4    0    0 -0.50194518329E+02  0.40237323169E+02  0.13908294519E+03  0.15324032592E+03  0.00000000000E+00 0. -1.
</event>
<event>
 8    1  0.3708258E-009  0.7388274E+02  0.7561462E-02  0.1347366E+00
          1   -1    0    0  501    0  0.00000000000E+00  0.00000000000E+00  0.32364773905E+03  0.32364773905E+03  0.00000000000E+00 0. -1.
         -1   -1    0    0    0  501 -0.00000000000E+00 -0.00000000000E+00 -0.40802837777E+02  0.40802837777E+02  0.00000000000E+00 0.  1.
         25    2    1    2    0    0 -0.94144181165E+01 -0.80672557091E+01  0.20266317835E+03  0.23848008700E+03  0.12508667456E+03 0.  0.
         23    2    1    2    0    0  0.94144181165E+01  0.80672557091E+01  0.80181722928E+02  0.12597048983E+03  0.96362563962E+02 0.  0.
          5    1    3    3  502    0 -0.28762570599E+02 -0.15513962378E+02 -0.17340524758E+01  0.32991632789E+02  0.41800000000E+01 0.  1.
         -5    1    3    3    0  502  0.19348152483E+02  0.74467066686E+01  0.20439723082E+03  0.20548845421E+03  0.41800000000E+01 0.  1.
        -11    1    4    4    0    0 -0.22593055630E+02  0.41584258113E+02  0.57201323558E+02  0.74240744220E+02  0.00000000000E+00 0. -1.
         11    1    4    4    0    0  0.32007473747E+02 -0.33517002404E+02  0.22980399370E+02  0.51729745611E+02  0.00000000000E+00 0.  1.
</event>
<event>
 8    1  0.3708258E-009  0.1285739E+03  0.7561462E-02  0.1229587E+00
         -1   -1    0    0    0  501 -0.00000000000E+00  0.00000000000E+00  0.22512657126E+03  0.22512657126E+03  0.00000000000E+00 0.  1.
          1   -1    0    0  501    0  0.00000000000E+00 -0.00000000000E+00 -0.10887404326E+03  0.10887404326E+03  0.00000000000E+00 0. -1.
         25    2    1    2    0    0  0.10911456802E+03  0.22620634017E+02  0.46090241670E+02  0.17375617960E+03  0.12509683263E+03 0.  0.
         23    2    1    2    0    0 -0.10911456802E+03 -0.22620634017E+02  0.70162286335E+02  0.16024443493E+03  0.91311830911E+02 0.  0.
          5    1    3    3  502    0  0.34592330394E+02 -0.29582301492E+02 -0.30334014117E+02  0.54857694958E+02  0.41800000000E+01 0. -1.
         -5    1    3    3    0  502  0.74522237624E+02  0.52202935510E+02  0.76424255788E+02  0.11889848464E+03  0.41800000000E+01 0. -1.
        -11    1    4    4    0    0 -0.93164878239E+02 -0.60054768533E+00  0.93552521790E+01  0.93635334881E+02  0.00000000000E+00 0. -1.
         11    1    4    4    0    0 -0.15949689778E+02 -0.22020086332E+02  0.60807034156E+02  0.66609100046E+02  0.00000000000E+00 0.  1.
</event>
<event>
 8    1  0.3708258E-009  0.1380962E+03  0.7561462E-02  0.1215914E+00
         -2   -1    0    0    0  501 -0.00000000000E+00  0.00000000000E+00  0.52354644040E+02  0.52354644040E+02  0.00000000000E+00 0. -1.
          2   -1    0    0  501    0  0.00000000000E+00 -0.00000000000E+00 -0.43532098034E+03  0.43532098034E+03  0.00000000000E+00 0.  1.
         25    2    1    2    0    0  0.27301897869E+02  0.99252045077E+02 -0.22359474974E+03  0.27611291490E+03  0.12508943834E+03 0.  0.
         23    2    1    2    0    0 -0.27301897869E+02 -0.99252045077E+02 -0.15937158656E+03  0.21156270948E+03  0.93611512972E+02 0.  0.
          5    1    3    3  502    0 -0.38349044466E+02 -0.48211760277E+01 -0.53075301197E+02  0.65790219234E+02  0.41800000000E+01 0. -1.
         -5    1    3    3    0  502  0.65650942336E+02  0.10407322110E+03 -0.17051944854E+03  0.21032269566E+03  0.41800000000E+01 0. -1.
        -11    1    4    4    0    0 -0.22026887253E+02 -0.90088963230E+01 -0.10144311841E+03  0.10419717005E+03  0.00000000000E+00 0.  1.
         11    1    4    4    0    0 -0.52750106159E+01 -0.90243148754E+02 -0.57928468156E+02  0.10736553943E+03  0.00000000000E+00 0. -1.
</event>
<event>
 8    1  0.3708258E-009  0.1236886E+03  0.7561462E-02  0.1237133E+00
         -1   -1    0    0    0  501 -0.00000000000E+00  0.00000000000E+00  0.23230045453E+02  0.23230045453E+02  0.00000000000E+00 0.  1.
          1   -1    0    0  501    0  0.00000000000E+00 -0.00000000000E+00 -0.10895032954E+04  0.10895032954E+04  0.00000000000E+00 0. -1.
         25    2    1    2    0    0 -0.52221151141E+02  0.38529132166E+02 -0.90635431352E+03  0.91724442376E+03  0.12509056169E+03 0.  0.
         23    2    1    2    0    0  0.52221151141E+02 -0.38529132166E+02 -0.15991893645E+03  0.19548891712E+03  0.91816707789E+02 0.  0.
          5    1    3    3  502    0  0.29959393237E+02 -0.23022854797E+02 -0.26382442060E+03  0.26654908439E+03  0.41800000000E+01 0.  1.
         -5    1    3    3    0  502 -0.82180544378E+02  0.61551986963E+02 -0.64252989292E+03  0.65069533936E+03  0.41800000000E+01 0.  1.
        -11    1    4    4    0    0 -0.23377600829E+02 -0.13348198424E+02 -0.71825930691E+02  0.76704960343E+02  0.00000000000E+00 0. -1.
         11    1    4    4    0    0  0.75598751970E+02 -0.25180933742E+02 -0.88093005755E+02  0.11878395677E+03  0.00000000000E+00 0.  1.
</event>
<event>
 8    1  0.3708258E-009  0.8759566E+02  0.7561462E-02  0.1308781E+00
         -1   -1    0    0    0  501 -0.00000000000E+00  0.00000000000E+00  0.11876920328E+03  0.11876920328E+03  0.00000000000E+00 0.  1.
          1   -1    0    0  501    0  0.00000000000E+00 -0.00000000000E+00 -0.19373925321E+03  0.19373925321E+03  0.00000000000E+00 0. -1.
         25    2    1    2    0    0  0.10111213011E+02  0.33814551094E+01  0.68647842224E+02  0.14308670784E+03  0.12509040272E+03 0.  0.
         23    2    1    2    0    0 -0.10111213011E+02 -0.33814551094E+01 -0.14361789216E+03  0.16942174865E+03  0.89241016918E+02 0.  0.
          5    1    3    3  502    0 -0.18943553361E+02 -0.35008264986E+02  0.83443901066E+02  0.92546171484E+02  0.41800000000E+01 0. -1.
         -5    1    3    3    0  502  0.29054766372E+02  0.38389720095E+02 -0.14796058843E+02  0.50540536356E+02  0.41800000000E+01 0. -1.
        -11    1    4    4    0    0  0.31645541244E+02 -0.24525144323E+02 -0.88347772855E+02  0.96996144012E+02  0.00000000000E+00 0.  1.
         11    1    4    4    0    0 -0.41756754254E+02  0.21143689214E+02 -0.55270119302E+02  0.72425604637E+02  0.00000000000E+00 0. -1.
</event>
<event>
 8    1  0.3708258E-009  0.1298706E+03  0.7561462E-02  0.1227648E+00
          1   -1    0    0  501    0  0.00000000000E+00  0.00000000000E+00  0.79622122382E+03  0.79622122382E+03  0.00000000000E+00 0. -1.
         -1   -1    0    0    0  501 -0.00000000000E+00 -0.00000000000E+00 -0.35610737099E+02  0.35610737099E+02  0.00000000000E+00 0.  1.
         25    2    1    2    0    0  0.20427167772E+02 -0.85592760841E+02  0.64397022164E+03  0.66188185402E+03  0.12508618004E+03 0.  0.
         23    2    1    2    0    0 -0.20427167772E+02  0.85592760841E+02  0.11664026508E+03  0.16995010689E+03  0.86802635350E+02 0.  0.
          5    1    3    3  502    0 -0.46935598997E+00  0.32107964208E+02  0.10935415182E+03  0.11404799245E+03  0.41800000000E+01 0. -1.
         -5    1    3    3    0  502  0.20896523762E+02 -0.11770072505E+03  0.53461606982E+03  0.54783386158E+03  0.41800000000E+01 0. -1.
        -11    1    4    4    0    0 -0.38107185502E+02  0.27426732689E+02  0.94007880443E+02  0.10508027807E+03  0.00000000000E+00 0.  1.
         11    1    4    4    0    0  0.17680017730E+02  0.58166028151E+02  0.22632384637E+02  0.64869828828E+02  0.00000000000E+00 0. -1.
</event>
<event>
 8    1  0.3708258E-009  0.1407554E+03  0.7561462E-02  0.1212316E+00
         -2   -1    0    0    0  501 -0.00000000000E+00  0.00000000000E+00  0.31189236311E+02  0.31189236311E+02  0.00000000000E+00 0.  1.
          2   -1    0    0  501    0  0.00000000000E+00 -0.00000000000E+00 -0.72536411827E+03  0.72536411827E+03  0.00000000000E+00 0. -1.
         25    2    1    2    0    0  0.62961756488E+02 -0.67173865633E+02 -0.49395835210E+03  0.51780205833E+03  0.12509039532E+03 0.  0.
         23    2    1    2    0    0 -0.62961756488E+02  0.67173865633E+02 -0.20021652986E+03  0.23875129625E+03  0.91864093241E+02 0.  0.
          5    1    3    3  502    0  0.98920134296E+02 -0.59549426728E+02 -0.41175848408E+03  0.42766090400E+03  0.41800000000E+01 0.  1.
         -5    1    3    3    0  502 -0.35958377808E+02 -0.76244389049E+01 -0.82199868018E+02  0.90141154338E+02  0.41800000000E+01 0.  1.
        -11    1    4    4    0    0  0.18034007224E+02  0.39438685346E+02 -0.53337335048E+02  0.68742320505E+02  0.00000000000E+00 0. -1.
         11    1    4    4    0    0 -0.80995763712E+02  0.27735180287E+02 -0.14687919481E+03  0.17000897574E+03  0.00000000000E+00 0.  1.
</event>
<event>
 8    1  0.3708258E-009  0.1249573E+03  0.7561462E-02  0.1235136E+00
         -1   -1    0    0    0  501 -0.00000000000E+00  0.00000000000E+00  0.24696787574E+02  0.24696787574E+02  0.00000000000E+00 0.  1.
          1   -1    0    0  501    0  0.00000000000E+00 -0.00000000000E+00 -0.77510376332E+03  0.77510376332E+03  0.00000000000E+00 0. -1.
         25    2    1    2    0    0  0.31677655723E+02 -0.62356089979E+02 -0.54913118237E+03  0.56752755042E+03  0.12510279456E+03 0.  0.
         23    2    1    2    0    0 -0.31677655723E+02  0.62356089979E+02 -0.20127579338E+03  0.23227300047E+03  0.92450234830E+02 0.  0.
          5    1    3    3  502    0  0.64816818289E+02 -0.81584641200E+02 -0.42117428904E+03  0.43389229972E+03  0.41800000000E+01 0. -1.
         -5    1    3    3    0  502 -0.33139162566E+02  0.19228551221E+02 -0.12795689333E+03  0.13363525070E+03  0.41800000000E+01 0. -1.
        -11    1    4    4    0    0 -0.46172558583E+02  0.74856289337E+02 -0.12003460894E+03  0.14880751514E+03  0.00000000000E+00 0.  1.
         11    1    4    4    0    0  0.14494902861E+02 -0.12500199358E+02 -0.81241184437E+02  0.83465485332E+02  0.00000000000E+00 0. -1.
</event>
<event>
 8    1  0.3708258E-009  0.1209007E+03  0.7561462E-02  0.1241619E+00
          2   -1    0    0  501    0  0.00000000000E+00  0.00000000000E+00  0.67989179653E+03  0.67989179653E+03  0.00000000000E+00 0. -1.
         -2   -1    0    0    0  501 -0.00000000000E+00 -0.00000000000E+00 -0.26114406246E+02  0.26114406246E+02  0.00000000000E+00 0.  1.
         25    2    1    2    0    0 -0.53979478455E+02 -0.15306360617E+02  0.50238798373E+03  0.52075808290E+03  0.12508887219E+03 0.  0.
         23    2    1    2    0    0  0.53979478455E+02  0.15306360617E+02  0.15138940656E+03  0.18524811988E+03  0.90829756854E+02 0.  0.
          5    1    3    3  502    0  0.30201409115E+02  0.27176159985E+02  0.11499880355E+03  0.12203633066E+03  0.41800000000E+01 0. -1.
         -5    1    3    3    0  502 -0.84180887570E+02 -0.42482520602E+02  0.38738918018E+03  0.39872175224E+03  0.41800000000E+01 0. -1.
        -11    1    4    4    0    0 -0.55889475015E+01 -0.30764045572E+02  0.39507278447E+02  0.50383408821E+02  0.00000000000E+00 0. -1.
         11    1    4    4    0    0  0.59568425956E+02  0.46070406189E+02  0.11188212811E+03  0.13486471106E+03  0.00000000000E+00 0.  1.
</event>
<event>
 8    1  0.3708258E-009  0.1100064E+03  0.7561462E-02  0.1260558E+00
          1   -1    0    0  501    0  0.00000000000E+00  0.00000000000E+00  0.61205237344E+03  0.61205237344E+03  0.00000000000E+00 0. -1.
         -1   -1    0    0    0  501 -0.00000000000E+00 -0.00000000000E+00 -0.28369592693E+02  0.28369592693E+02  0.00000000000E+00 0.  1.
         25    2    1    2    0    0  0.77922777280E+01 -0.52502934041E+02  0.44547919973E+03  0.46574358640E+03  0.12509233872E+03 0.  0.
         23    2    1    2    0    0 -0.77922777280E+01  0.52502934041E+02  0.13820358101E+03  0.17467837973E+03  0.92709378518E+02 0.  0.
          5    1    3    3  502    0  0.36744245072E+02  0.14774231589E+02  0.52070465693E+02  0.65553209399E+02  0.41800000000E+01 0.  1.
         -5    1    3    3    0  502 -0.28951967344E+02 -0.67277165630E+02  0.39340873403E+03  0.40019037700E+03  0.41800000000E+01 0.  1.
        -11    1    4    4    0    0  0.34996295185E+02  0.53614057808E+02  0.83046387028E+02  0.10486138598E+03  0.00000000000E+00 0.  1.
         11    1    4    4    0    0 -0.42788572913E+02 -0.11111237669E+01  0.55157193986E+02  0.69816993751E+02  0.00000000000E+00 0. -1.
</event>
<event>
 8    1  0.3708258E-009  0.1026060E+03  0.7561462E-02  0.1274909E+00
          2   -1    0    0  501    0  0.00000000000E+00  0.00000000000E+00  0.49378964777E+02  0.49378964777E+02  0.00000000000E+00 0. -1.
         -2   -1    0    0    0  501 -0.00000000000E+00 -0.00000000000E+00 -0.37870891406E+03  0.37870891406E+03  0.00000000000E+00 0.  1.
         25    2    1    2    0    0 -0.62101273296E+02  0.24149487520E+02 -0.10178928735E+03  0.17449304137E+03  0.12508795535E+03 0.  0.
         23    2    1    2    0    0  0.62101273296E+02 -0.24149487520E+02 -0.22754066194E+03  0.25359483747E+03  0.89976790709E+02 0.  0.
          5    1    3    3  502    0 -0.84153869355E+02 -0.21029197594E+02 -0.84491867300E+02  0.12116290240E+03  0.41800000000E+01 0. -1.
         -5    1    3    3    0  502  0.22052596059E+02  0.45178685114E+02 -0.17297420053E+02  0.53330138966E+02  0.41800000000E+01 0. -1.
        -11    1    4    4    0    0  0.39034840097E+02 -0.82211543208E+01 -0.22131344773E+03  0.22487985296E+03  0.00000000000E+00 0.  1.
         11    1    4    4    0    0  0.23066433199E+02 -0.15928333199E+02 -0.62272142062E+01  0.28714984516E+02  0.00000000000E+00 0. -1.
</event>
<event>
 8    1  0.3708258E-009  0.1037429E+03  0.7561462E-02  0.1272616E+00
         -2   -1    0    0    0  501 -0.00000000000E+00  0.00000000000E+00  0.16363189602E+02  0.16363189602E+02  0.00000000000E+00 0.  1.
          2   -1    0    0  501    0  0.00000000000E+00 -0.00000000000E+00 -0.15665377526E+04  0.15665377526E+04  0.00000000000E+00 0. -1.
         25    2    1    2    0    0  0.22350640469E+02 -0.74671186819E+02 -0.12662714092E+04  0.12748206166E+04  0.12509590566E+03 0.  0.
         23    2    1    2    0    0 -0.22350640469E+02  0.74671186819E+02 -0.28390315378E+03  0.30808032553E+03  0.90758740534E+02 0.  0.
          5    1    3    3  502    0 -0.20462914834E+02 -0.53487355874E+02 -0.11069898929E+04  0.11084781114E+04  0.41800000000E+01 0. -1.
         -5    1    3    3    0  502  0.42813555302E+02 -0.21183830946E+02 -0.15928151633E+03  0.16634250526E+03  0.41800000000E+01 0. -1.
        -11    1    4    4    0    0  0.22944033624E+02  0.35297957531E+02 -0.44456766204E+02  0.61227269628E+02  0.00000000000E+00 0.  1.
         11    1    4    4    0    0 -0.45294674093E+02  0.39373229288E+02 -0.23944638757E+03  0.24685305590E+03  0.00000000000E+00 0. -1.
</event>
<event>
 8    1  0.3708258E-009  0.1038333E+03  0.7561462E-02  0.1272435E+00
         -1   -1    0    0    0  501 -0.00000000000E+00  0.00000000000E+00  0.23358569951E+02  0.23358569951E+02  0.00000000000E+00 0.  1.
          1   -1    0    0  501    0  0.00000000000E+00 -0.00000000000E+00 -0.97841967929E+03  0.97841967929E+03  0.00000000000E+00 0. -1.
         25    2    1    2    0    0 -0.29834084624E+02  0.42724836377E+02 -0.82098988348E+03  0.83209796678E+03  0.12508858183E+03 0.  0.
         23    2    1    2    0    0  0.29834084624E+02 -0.42724836377E+02 -0.13407122587E+03  0.16968028246E+03  0.90004557675E+02 0.  0.
          5    1    3    3  502    0 -0.22370838865E+02  0.74400542413E+02 -0.29505555315E+03  0.30514119189E+03  0.41800000000E+01 0.  1.
         -5    1    3    3    0  502 -0.74632457587E+01 -0.31675706036E+02 -0.52593433032E+03  0.52695677489E+03  0.41800000000E+01 0.  1.
        -11    1    4    4    0    0  0.56767557524E+02 -0.41074160553E+02 -0.65199857345E+02  0.95711355910E+02  0.00000000000E+00 0.  1.
         11    1    4    4    0    0 -0.26933472900E+02 -0.16506758239E+01 -0.68871368523E+02  0.73968926553E+02  0.00000000000E+00 0. -1.
</event>
<event>
 8    1  0.3708258E-009  0.4299961E+03  0.7561462E-02  0.1033861E+00
          2   -1    0    0  501    0  0.00000000000E+00  0.00000000000E+00  0.30714523393E+04  0.30714523393E+04  0.00000000000E+00 0. -1.
         -2   -1    0    0    0  501 -0.00000000000E+00 -0.00000000000E+00 -0.65334137872E+02  0.65334137872E+02  0.00000000000E+00 0.  1.
         25    2    1    2    0    0  0.17297628827E+03  0.39021681370E+03  0.17902019264E+04  0.18446307864E+04  0.12509933200E+03 0.  0.
         23    2    1    2    0    0 -0.17297628827E+03 -0.39021681370E+03  0.12159162751E+04  0.12921556908E+04  0.94994648829E+02 0.  0.
          5    1    3    3  502    0  0.12845648862E+03  0.35043482043E+03  0.13602415497E+04  0.14105247885E+04  0.41800000000E+01 0.  1.
         -5    1    3    3    0  502  0.44519799655E+02  0.39781993274E+02  0.42996037662E+03  0.43410599790E+03  0.41800000000E+01 0.  1.
        -11    1    4    4    0    0 -0.14835208444E+03 -0.33980265049E+03  0.93778942930E+03  0.10084260984E+04  0.00000000000E+00 0.  1.
         11    1    4    4    0    0 -0.24624203831E+02 -0.50414163209E+02  0.27812684576E+03  0.28372959239E+03  0.00000000000E+00 0. -1.
</event>
<event>
 8    1  0.3708258E-009  0.2259310E+03  0.7561462E-02  0.1129537E+00
         -3   -1    0    0    0  501 -0.00000000000E+00  0.00000000000E+00  0.75825048815E+02  0.75825048815E+02  0.00000000000E+00 0.  1.
          3   -1    0    0  501    0  0.00000000000E+00 -0.00000000000E+00 -0.75745308639E+03  0.75745308639E+03  0.00000000000E+00 0. -1.
         25    2    1    2    0    0 -0.17653819525E+03 -0.94047663954E+02 -0.48123724131E+03  0.53595525144E+03  0.12509217259E+03 0.  0.
         23    2    1    2    0    0  0.17653819525E+03  0.94047663954E+02 -0.20039079627E+03  0.29732288376E+03  0.90739894772E+02 0.  0.
          5    1    3    3  502    0 -0.98877561965E+02 -0.11728831531E+03 -0.28733773497E+03  0.32575108212E+03  0.41800000000E+01 0. -1.
         -5    1    3    3    0  502 -0.77660633289E+02  0.23240651356E+02 -0.19389950634E+03  0.21020416931E+03  0.41800000000E+01 0. -1.
        -11    1    4    4    0    0  0.26639407290E+02 -0.16176492717E+02 -0.14718330644E+02  0.34466885475E+02  0.00000000000E+00 0. -1.
         11    1    4    4    0    0  0.14989878796E+03  0.11022415667E+03 -0.18567246562E+03  0.26285599829E+03  0.00000000000E+00 0.  1.
</event>
<event>
 8    1  0.3708258E-009  0.9469198E+02  0.7561462E-02  0.1291871E+00
         -2   -1    0    0    0  501 -0.00000000000E+00  0.00000000000E+00  0.59438823850E+02  0.59438823850E+02  0.00000000000E+00 0.  1.
          2   -1    0    0  501    0  0.00000000000E+00 -0.00000000000E+00 -0.25365007361E+03  0.25365007361E+03  0.00000000000E+00 0. -1.
         25    2    1    2    0    0 -0.15882379552E+01  0.25415355757E+02 -0.41236001363E+02  0.13415295869E+03  0.12509254858E+03 0.  0.
         23    2    1    2    0    0  0.15882379552E+01 -0.25415355757E+02 -0.15297524840E+03  0.17893593877E+03  0.89264666878E+02 0.  0.
          5    1    3    3  502    0 -0.58710235342E+02 -0.10464457518E+02 -0.23879731185E+02  0.64374766535E+02  0.41800000000E+01 0.  1.
         -5    1    3    3    0  502  0.57121997386E+02  0.35879813276E+02 -0.17356270178E+02  0.69778192156E+02  0.41800000000E+01 0.  1.
        -11    1    4    4    0    0  0.23137508710E+02  0.60169653791E+01 -0.13445563146E+03  0.13656450861E+03  0.00000000000E+00 0. -1.
         11    1    4    4    0    0 -0.21549270754E+02 -0.31432321136E+02 -0.18519616942E+02  0.42371430159E+02  0.00000000000E+00 0.  1.
</event>
<event>
 8    1  0.3708258E-009  0.1612924E+03  0.7561462E-02  0.1187245E+00
          2   -1    0    0  501    0  0.00000000000E+00  0.00000000000E+00  0.13273956002E+04  0.13273956002E+04  0.00000000000E+00 0. -1.
         -2   -1    0    0    0  501 -0.00000000000E+00 -0.00000000000E+00 -0.22364099617E+02  0.22364099617E+02  0.00000000000E+00 0.  1.
         25    2    1    2    0    0 -0.13059103057E+03 -0.46044774933E+01  0.85089793171E+03  0.86991157514E+03  0.12507453741E+03 0.  0.
         23    2    1    2    0    0  0.13059103057E+03  0.46044774933E+01  0.45413356890E+03  0.47984812470E+03  0.83316900405E+02 0.  0.
          5    1    3    3  502    0 -0.67357712875E+02 -0.62130780558E+02  0.52548574712E+03  0.53343231830E+03  0.41800000000E+01 0.  1.
         -5    1    3    3    0  502 -0.63233317699E+02  0.57526303064E+02  0.32541218458E+03  0.33647925684E+03  0.41800000000E+01 0.  1.
        -11    1    4    4    0    0  0.28030288431E+02  0.28482291126E+02  0.61533983750E+02  0.73371446309E+02  0.00000000000E+00 0.  1.
         11    1    4    4    0    0  0.10256074214E+03 -0.23877813633E+02  0.39259958515E+03  0.40647667839E+03  0.00000000000E+00 0. -1.
</event>
<event>
 8    1  0.3708258E-009  0.5835030E+02  0.7561462E-02  0.1404888E+00
         -2   -1    0    0    0  501 -0.00000000000E+00  0.00000000000E+00  0.10424884484E+02  0.10424884484E+02  0.00000000000E+00 0. -1.
          2   -1    0    0  501    0  0.00000000000E+00 -0.00000000000E+00 -0.11508956207E+04  0.11508956207E+04  0.00000000000E+00 0.  1.
         25    2    1    2    0    0  0.93343439847E+00 -0.20709649464E+01 -0.75703414798E+03  0.76730231696E+03  0.12508790594E+03 0.  0.
         23    2    1    2    0    0 -0.93343439847E+00  0.20709649464E+01 -0.38343658823E+03  0.39401818821E+03  0.90672792251E+02 0.  0.
          5    1    3    3  502    0 -0.12007256842E+02 -0.37468596241E+01 -0.75286286445E+03  0.75297953375E+03  0.41800000000E+01 0. -1.
         -5    1    3    3    0  502  0.12940691241E+02  0.16758946777E+01 -0.41712835297E+01  0.14322783216E+02  0.41800000000E+01 0. -1.
        -11    1    4    4    0    0 -0.43791615345E+02 -0.10591834072E+02 -0.16393490680E+03  0.17001337063E+03  0.00000000000E+00 0.  1.
         11    1    4    4    0    0  0.42858180946E+02  0.12662799019E+02 -0.21950168142E+03  0.22400481758E+03  0.00000000000E+00 0. -1.
</event>
<event>
 8    1  0.3708258E-009  0.1347433E+03  0.7561462E-02  0.1220583E+00
         -1   -1    0    0    0  501 -0.00000000000E+00  0.00000000000E+00  0.49808287615E+02  0.49808287615E+02  0.00000000000E+00 0.  1.
          1   -1    0    0  501    0  0.00000000000E+00 -0.00000000000E+00 -0.52459925362E+03  0.52459925362E+03  0.00000000000E+00 0. -1.
         25    2    1    2    0    0  0.22251919675E+02 -0.11174213136E+03 -0.31077392932E+03  0.35384953844E+03  0.12509040275E+03 0.  0.
         23    2    1    2    0    0 -0.22251919675E+02  0.11174213136E+03 -0.16401703668E+03  0.22055800279E+03  0.93609788069E+02 0.  0.
          5    1    3    3  502    0  0.52066013075E+02 -0.29163111454E+02 -0.21796197271E+03  0.22602267748E+03  0.41800000000E+01 0.  1.
         -5    1    3    3    0  502 -0.29814093400E+02 -0.82579019907E+02 -0.92811956613E+02  0.12782686097E+03  0.41800000000E+01 0.  1.
        -11    1    4    4    0    0 -0.33986399327E+02  0.62461091091E+02 -0.29803217145E+02  0.77101848173E+02  0.00000000000E+00 0.  1.
         11    1    4    4    0    0  0.11734479652E+02  0.49281040270E+02 -0.13421381954E+03  0.14345615462E+03  0.00000000000E+00 0. -1.
</event>
<event>
 8    1  0.3708258E-009  0.1179113E+03  0.7561462E-02  0.1246583E+00
          1   -1    0    0  501    0  0.00000000000E+00  0.00000000000E+00  0.99172277120E+03  0.99172277120E+03  0.00000000000E+00 0. -1.
         -1   -1    0    0    0  501 -0.00000000000E+00 -0.00000000000E+00 -0.14178548354E+02  0.14178548354E+02  0.00000000000E+00 0.  1.
         25    2    1    2    0    0  0.49237173160E+02 -0.87566407547E+01  0.59386804514E+03  0.60895608861E+03  0.12508910762E+03 0.  0.
         23    2    1    2    0    0 -0.49237173160E+02  0.87566407547E+01  0.38367617771E+03  0.39694523094E+03  0.88640448147E+02 0.  0.
          5    1    3    3  502    0  0.88364806562E+02  0.13523379547E+02  0.39223011846E+03  0.40230977997E+03  0.41800000000E+01 0. -1.
         -5    1    3    3    0  502 -0.39127633403E+02 -0.22280020302E+02  0.20163792668E+03  0.20664630865E+03  0.41800000000E+01 0. -1.
        -11    1    4    4    0    0  0.68718392886E+01 -0.31380695643E+02  0.10172001068E+03  0.10667207135E+03  0.00000000000E+00 0.  1.
         11    1    4    4    0    0 -0.56109012448E+02  0.40137336398E+02  0.28195616703E+03  0.29027315959E+03  0.00000000000E+00 0. -1.
</event>
<event>
 8    1  0.3708258E-009  0.1807316E+03  0.7561462E-02  0.1167097E+00
          1   -1    0    0  501    0  0.00000000000E+00  0.00000000000E+00  0.93664590778E+03  0.93664590778E+03  0.00000000000E+00 0. -1.
         -1   -1    0    0    0  501 -0.00000000000E+00 -0.00000000000E+00 -0.50861741693E+02  0.50861741693E+02  0.00000000000E+00 0.  1.
         25    2    1    2    0    0  0.14559878526E+03  0.89123219175E+02  0.64661367291E+03  0.68036646470E+03  0.12508928744E+03 0.  0.
         23    2    1    2    0    0 -0.14559878526E+03 -0.89123219175E+02  0.23917049318E+03  0.30714118477E+03  0.89393669288E+02 0.  0.
          5    1    3    3  502    0  0.19524165526E+02 -0.86785590247E+01  0.27580494007E+03  0.27666287751E+03  0.41800000000E+01 0.  1.
         -5    1    3    3    0  502  0.12607461974E+03  0.97801778200E+02  0.37080873284E+03  0.40370358719E+03  0.41800000000E+01 0.  1.
        -11    1    4    4    0    0 -0.40710350465E+02 -0.57634046784E+02  0.43454453662E+02  0.82869207350E+02  0.00000000000E+00 0.  1.
         11    1    4    4    0    0 -0.10488843480E+03 -0.31489172390E+02  0.19571603952E+03  0.22427197742E+03  0.00000000000E+00 0. -1.
</event>
<event>
 8    1  0.3708258E-009  0.1154592E+03  0.7561462E-02  0.1250782E+00
          1   -1    0    0  501    0  0.00000000000E+00  0.00000000000E+00  0.17576771923E+03  0.17576771923E+03  0.00000000000E+00 0.  1.
         -1   -1    0    0    0  501 -0.00000000000E+00 -0.00000000000E+00 -0.11515560847E+03  0.11515560847E+03  0.00000000000E+00 0. -1.
         25    2    1    2    0    0 -0.17815288360E+02  0.84534556055E+02  0.68479705239E+02  0.16673819782E+03  0.12509468780E+03 0.  0.
         23    2    1    2    0    0  0.17815288360E+02 -0.84534556055E+02 -0.78675944785E+01  0.12418512988E+03  0.88862656796E+02 0.  0.
          5    1    3    3  502    0 -0.62851908720E+02  0.75564244857E+02  0.21078326822E+02  0.10060857713E+03  0.41800000000E+01 0.  1.
         -5    1    3    3    0  502  0.45036620361E+02  0.89703111981E+01  0.47401378417E+02  0.66129620688E+02  0.41800000000E+01 0.  1.
        -11    1    4    4    0    0  0.32161561309E+01 -0.20740088498E+02 -0.44489506382E+02  0.49191575593E+02  0.00000000000E+00 0. -1.
         11    1    4    4    0    0  0.14599132229E+02 -0.63794467557E+02  0.36621911904E+02  0.74993554284E+02  0.00000000000E+00 0.  1.
</event>
<event>
 8    1  0.3708258E-009  0.2058538E+03  0.7561462E-02  0.1144892E+00
          1   -1    0    0  501    0  0.00000000000E+00  0.00000000000E+00  0.27533493624E+03  0.27533493624E+03  0.00000000000E+00 0. -1.
         -1   -1    0    0    0  501 -0.00000000000E+00 -0.00000000000E+00 -0.19012713435E+03  0.19012713435E+03  0.00000000000E+00 0.  1.
         25    2    1    2    0    0  0.17281921951E+03  0.49603172692E+02  0.13541279342E+03  0.25750282054E+03  0.12507645898E+03 0.  0.
         23    2    1    2    0    0 -0.17281921951E+03 -0.49603172692E+02 -0.50204991532E+02  0.20795925006E+03  0.91649065112E+02 0.  0.
          5    1    3    3  502    0  0.98597299364E+01  0.51065723311E+02  0.13372831340E+02  0.53863042893E+02  0.41800000000E+01 0. -1.
         -5    1    3    3    0  502  0.16295948957E+03 -0.14625506190E+01  0.12203996208E+03  0.20363977765E+03  0.41800000000E+01 0. -1.
        -11    1    4    4    0    0 -0.16770794318E+03 -0.65323534400E+02 -0.58781090383E+02  0.18933656525E+03  0.00000000000E+00 0.  1.
         11    1    4    4    0    0 -0.51112763267E+01  0.15720361709E+02  0.85760988513E+01  0.18622684808E+02  0.00000000000E+00 0. -1.
</event>
<event>
 8    1  0.3708258E-009  0.1195741E+03  0.7561462E-02  0.1243801E+00
         -1   -1    0    0    0  501 -0.00000000000E+00  0.00000000000E+00  0.17818198709E+03  0.17818198709E+03  0.00000000000E+00 0.  1.
          1   -1    0    0  501    0  0.00000000000E+00 -0.00000000000E+00 -0.13259328013E+03  0.13259328013E+03  0.00000000000E+00 0. -1.
         25    2    1    2    0    0  0.76822514778E+02  0.71492785912E+02 -0.22198275989E+01  0.16329700274E+03  0.12509223099E+03 0.  0.
         23    2    1    2    0    0 -0.76822514778E+02 -0.71492785912E+02  0.47808534556E+02  0.14747826449E+03  0.91930763647E+02 0.  0.
          5    1    3    3  502    0  0.54389977259E+02  0.69339818880E+02  0.53408407384E+02  0.10313200516E+03  0.41800000000E+01 0.  1.
         -5    1    3    3    0  502  0.22432537519E+02  0.21529670328E+01 -0.55628234983E+02  0.60164997581E+02  0.41800000000E+01 0.  1.
        -11    1    4    4    0    0 -0.65231853288E+02 -0.86939586865E+02  0.15433686959E+02  0.10978107825E+03  0.00000000000E+00 0. -1.
         11    1    4    4    0    0 -0.11590661491E+02  0.15446800953E+02  0.32374847597E+02  0.37697186240E+02  0.00000000000E+00 0.  1.
</event>
<event>
 8    1  0.3708258E-009  0.2426578E+03  0.7561462E-02  0.1118035E+00
          3   -1    0    0  501    0  0.00000000000E+00  0.00000000000E+00  0.28136282108E+03  0.28136282108E+03  0.00000000000E+00 0. -1.
         -3   -1    0    0    0  501 -0.00000000000E+00 -0.00000000000E+00 -0.23371625385E+03  0.23371625385E+03  0.00000000000E+00 0.  1.
         25    2    1    2    0    0 -0.19320412361E+03 -0.10385668273E+03 -0.51247897501E+02  0.25765508311E+03  0.12508297617E+03 0.  0.
         23    2    1    2    0    0  0.19320412361E+03  0.10385668273E+03  0.98894464732E+02  0.25742399182E+03  0.91503838616E+02 0.  0.
          5    1    3    3  502    0 -0.43965208094E+01  0.21624687699E+02  0.70494998191E+01  0.23539846240E+02  0.41800000000E+01 0.  1.
         -5    1    3    3    0  502 -0.18880760280E+03 -0.12548137043E+03 -0.58297397320E+02  0.23411523687E+03  0.41800000000E+01 0.  1.
        -11    1    4    4    0    0  0.12793408298E+03  0.19430750639E+02  0.68766375329E+02  0.14653838416E+03  0.00000000000E+00 0. -1.
         11    1    4    4    0    0  0.65270040630E+02  0.84425932091E+02  0.30128089403E+02  0.11088560765E+03  0.00000000000E+00 0.  1.
</event>
<event>
 8    1  0.3708258E-009  0.1099118E+03  0.7561462E-02  0.1260733E+00
         -1   -1    0    0    0  501 -0.00000000000E+00  0.00000000000E+00  0.74602732373E+02  0.74602732373E+02  0.00000000000E+00 0.  1.
          1   -1    0    0  501    0  0.00000000000E+00 -0.00000000000E+00 -0.31661414858E+03  0.31661414858E+03  0.00000000000E+00 0. -1.
         25    2    1    2    0    0  0.78534366324E+02 -0.46443187750E+02 -0.55457835829E+02  0.16445960203E+03  0.12508706074E+03 0.  0.
         23    2    1    2    0    0 -0.78534366324E+02  0.46443187750E+02 -0.18655358037E+03  0.22675727892E+03  0.91060467869E+02 0.  0.
          5    1    3    3  502    0  0.54855625691E+02 -0.10725208957E+02 -0.92170816372E+02  0.10787539834E+03  0.41800000000E+01 0.  1.
         -5    1    3    3    0  502  0.23678740632E+02 -0.35717978793E+02  0.36712980543E+02  0.56584203691E+02  0.41800000000E+01 0.  1.
        -11    1    4    4    0    0 -0.42388909310E+02 -0.18611022758E+02 -0.11302648314E+03  0.12213998400E+03  0.00000000000E+00 0. -1.
         11    1    4    4    0    0 -0.36145457013E+02  0.65054210507E+02 -0.73527097230E+02  0.10461729491E+03  0.00000000000E+00 0.  1.
</event>
<event>
 8    1  0.3708258E-009  0.1102422E+03  0.7561462E-02  0.1260122E+00
          2   -1    0    0  501    0  0.00000000000E+00  0.00000000000E+00  0.25077559028E+03  0.25077559028E+03  0.00000000000E+00 0. -1.
         -2   -1    0    0    0  501 -0.00000000000E+00 -0.00000000000E+00 -0.58836783702E+02  0.58836783702E+02  0.00000000000E+00 0.  1.
         25    2    1    2    0    0  0.51539229369E+02  0.82428429274E+01  0.83439761267E+02  0.15916573229E+03  0.12508916800E+03 0.  0.
         23    2    1    2    0    0 -0.51539229369E+02 -0.82428429274E+01  0.10849904531E+03  0.15044664170E+03  0.90210379342E+02 0.  0.
          5    1    3    3  502    0  0.60170760743E+02 -0.48477262689E+02  0.40197652229E+02  0.87200281484E+02  0.41800000000E+01 0. -1.
         -5    1    3    3    0  502 -0.86315313737E+01  0.56720105617E+02  0.43242109038E+02  0.71965450801E+02  0.41800000000E+01 0. -1.
        -11    1    4    4    0    0 -0.68324035785E+02 -0.79936891969E+01  0.39266711857E+02  0.79208254576E+02  0.00000000000E+00 0.  1.
         11    1    4    4    0    0  0.16784806416E+02 -0.24915373053E+00  0.69232333458E+02  0.71238387124E+02  0.00000000000E+00 0. -1.
</event>
<event>
 8    1  0.3708258E-009  0.1274626E+03  0.7561462E-02  0.1231270E+00
         -2   -1    0    0    0  501 -0.00000000000E+00  0.00000000000E+00  0.14922449872E+03  0.14922449872E+03  0.00000000000E+00 0.  1.
          2   -1    0    0  501    0  0.00000000000E+00 -0.00000000000E+00 -0.18361442918E+03  0.18361442918E+03  0.00000000000E+00 0. -1.
         25    2    1    2    0    0  0.11981259182E+03 -0.30272766138E+02 -0.31639803613E+02  0.17865673470E+03  0.12508258933E+03 0.  0.
         23    2    1    2    0    0 -0.11981259182E+03  0.30272766138E+02 -0.27501268467E+01  0.15418219319E+03  0.92157951221E+02 0.  0.
          5    1    3    3  502    0  0.23294325133E+02 -0.22541718460E+02 -0.67757205256E+02  0.75228092616E+02  0.41800000000E+01 0.  1.
         -5    1    3    3    0  502  0.96518266682E+02 -0.77310476780E+01  0.36117401643E+02  0.10342864208E+03  0.41800000000E+01 0.  1.
        -11    1    4    4    0    0 -0.74903831883E+02  0.29223715069E+02  0.42054160205E+02  0.90736772831E+02  0.00000000000E+00 0.  1.
         11    1    4    4    0    0 -0.44908759932E+02  0.10490510684E+01 -0.44804287052E+02  0.63445420363E+02  0.00000000000E+00 0. -1.
</event>
<event>
 8    1  0.3708258E-009  0.3146440E+03  0.7561462E-02  0.1078141E+00
         -1   -1    0    0    0  501 -0.00000000000E+00  0.00000000000E+00  0.64863712432E+03  0.64863712432E+03  0.00000000000E+00 0.  1.
          1   -1    0    0  501    0  0.00000000000E+00 -0.00000000000E+00 -0.21642485005E+03  0.21642485005E+03  0.00000000000E+00 0. -1.
         25    2    1    2    0    0 -0.17632866996E+03 -0.24840500539E+03  0.86107330289E+00  0.32930851598E+03  0.12508601319E+03 0.  0.
         23    2    1    2    0    0  0.17632866996E+03  0.24840500539E+03  0.43135120098E+03  0.53575345839E+03  0.90393932527E+02 0.  0.
          5    1    3    3  502    0 -0.10287336171E+03 -0.19977543830E+03  0.47250995023E+02  0.22965905867E+03  0.41800000000E+01 0. -1.
         -5    1    3    3    0  502 -0.73455308246E+02 -0.48629567092E+02 -0.46389921720E+02  0.99649457311E+02  0.41800000000E+01 0. -1.
        -11    1    4    4    0    0  0.15299933702E+03  0.24985147073E+03  0.41117591723E+03  0.50487641009E+03  0.00000000000E+00 0.  1.
         11    1    4    4    0    0  0.23329332943E+02 -0.14464653365E+01  0.20175283748E+02  0.30877048302E+02  0.00000000000E+00 0. -1.
</event>
<event>
 8    1  0.3708258E-009  0.8260085E+02  0.7561462E-02  0.1321829E+00
          1   -1    0    0  501    0  0.00000000000E+00  0.00000000000E+00  0.36719139707E+02  0.36719139707E+02  0.00000000000E+00 0. -1.
         -1   -1    0    0    0  501 -0.00000000000E+00 -0.00000000000E+00 -0.36937299288E+03  0.36937299288E+03  0.00000000000E+00 0.  1.
         25    2    1    2    0    0 -0.88922748886E+01  0.28300791616E+02 -0.22769162183E+03  0.26147694774E+03  0.12508681861E+03 0.  0.
         23    2    1    2    0    0  0.88922748886E+01 -0.28300791616E+02 -0.10496223135E+03  0.14461518485E+03  0.94955117399E+02 0.  0.
          5    1    3    3  502    0  0.41998782702E+02  0.39955658774E+02 -0.51460016942E+02  0.77627045288E+02  0.41800000000E+01 0. -1.
         -5    1    3    3    0  502 -0.50891057590E+02 -0.11654867158E+02 -0.17623160489E+03  0.18384990246E+03  0.41800000000E+01 0. -1.
        -11    1    4    4    0    0 -0.15377582301E+02 -0.26157373455E+02  0.60677164494E+01  0.30943422667E+02  0.00000000000E+00 0. -1.
         11    1    4    4    0    0  0.24269857189E+02 -0.21434181613E+01 -0.11102994780E+03  0.11367176218E+03  0.00000000000E+00 0.  1.
</event>
<event>
 8    1  0.3708258E-009  0.5407322E+02  0.7561462E-02  0.1424533E+00
          1   -1    0    0  501    0  0.00000000000E+00  0.00000000000E+00  0.25417201417E+03  0.25417201417E+03  0.00000000000E+00 0. -1.
         -1   -1    0    0    0  501 -0.00000000000E+00 -0.00000000000E+00 -0.49662162679E+02  0.49662162679E+02  0.00000000000E+00 0.  1.
         25    2    1    2    0    0 -0.21099866558E+01 -0.11641968250E+02  0.80530981546E+02  0.14924106626E+03  0.12509064474E+03 0.  0.
         23    2    1    2    0    0  0.21099866558E+01  0.11641968250E+02  0.12397886995E+03  0.15459311059E+03  0.91587565646E+02 0.  0.
          5    1    3    3  502    0 -0.92157830700E+01 -0.28073167120E+00 -0.33168182819E+02  0.34678670958E+02  0.41800000000E+01 0. -1.
         -5    1    3    3    0  502  0.71057964142E+01 -0.11361236578E+02  0.11369916437E+03  0.11456239530E+03  0.41800000000E+01 0. -1.
        -11    1    4    4    0    0 -0.36581823382E+02 -0.12171043562E+02  0.89842536278E+02  0.97765256754E+02  0.00000000000E+00 0. -1.
         11    1    4    4    0    0  0.38691810038E+02  0.23813011812E+02  0.34136333668E+02  0.56827853838E+02  0.00000000000E+00 0.  1.
</event>
<event>
 8    1  0.3708258E-009  0.1070944E+03  0.7561462E-02  0.1266047E+00
          1   -1    0    0  501    0  0.00000000000E+00  0.00000000000E+00  0.17617085004E+02  0.17617085004E+02  0.00000000000E+00 0. -1.
         -1   -1    0    0    0  501 -0.00000000000E+00 -0.00000000000E+00 -0.72599696432E+03  0.72599696432E+03  0.00000000000E+00 0.  1.
         25    2    1    2    0    0 -0.24225175909E+02 -0.17946441983E+02 -0.47405638866E+03  0.49120995335E+03  0.12509526254E+03 0.  0.
         23    2    1    2    0    0  0.24225175909E+02  0.17946441983E+02 -0.23432349066E+03  0.25240409598E+03  0.88833526694E+02 0.  0.
          5    1    3    3  502    0  0.48796333543E+02 -0.90445542571E+01 -0.26268926461E+03  0.26736867482E+03  0.41800000000E+01 0.  1.
         -5    1    3    3    0  502 -0.73021509452E+02 -0.89018877258E+01 -0.21136712405E+03  0.22384127854E+03  0.41800000000E+01 0.  1.
        -11    1    4    4    0    0 -0.24848770792E+02  0.31187047744E+02 -0.13591721697E+03  0.14164597850E+03  0.00000000000E+00 0. -1.
         11    1    4    4    0    0  0.49073946701E+02 -0.13240605761E+02 -0.98406273686E+02  0.11075811747E+03  0.00000000000E+00 0.  1.
</event>
<event>
 8    1  0.3708258E-009  0.1614201E+03  0.7561462E-02  0.1187103E+00
         -4   -1    0    0    0  501 -0.00000000000E+00  0.00000000000E+00  0.64489441792E+02  0.64489441792E+02  0.00000000000E+00 0.  1.
          4   -1    0    0  501    0  0.00000000000E+00 -0.00000000000E+00 -0.59028567759E+03  0.59028567759E+03  0.00000000000E+00 0. -1.
         25    2    1    2    0    0  0.11341261159E+03  0.87168474588E+02 -0.40498592951E+03  0.44734970034E+03  0.12508951940E+03 0.  0.
         23    2    1    2    0    0 -0.11341261159E+03 -0.87168474588E+02 -0.12081030629E+03  0.20742541904E+03  0.89271557233E+02 0.  0.
          5    1    3    3  502    0  0.13287981799E+03  0.71438251898E+02 -0.26397260679E+03  0.30407150376E+03  0.41800000000E+01 0.  1.
         -5    1    3    3    0  502 -0.19467206403E+02  0.15730222689E+02 -0.14101332271E+03  0.14327819657E+03  0.41800000000E+01 0.  1.
        -11    1    4    4    0    0 -0.48850117866E+02 -0.57614330478E+02 -0.10535032919E+02  0.76267502978E+02  0.00000000000E+00 0.  1.
         11    1    4    4    0    0 -0.64562493721E+02 -0.29554144109E+02 -0.11027527337E+03  0.13115791607E+03  0.00000000000E+00 0. -1.
</event>
<event>
 8    1  0.3708258E-009  0.8699201E+02  0.7561462E-02  0.1310304E+00
          3   -1    0    0  501    0  0.00000000000E+00  0.00000000000E+00  0.33496025736E+03  0.33496025736E+03  0.00000000000E+00 0. -1.
         -3   -1    0    0    0  501 -0.00000000000E+00 -0.00000000000E+00 -0.47105724259E+02  0.47105724259E+02  0.00000000000E+00 0.  1.
         25    2    1    2    0    0  0.33123324077E+02 -0.65880703423E+01  0.23961453148E+03  0.27240194552E+03  0.12508852449E+03 0.  0.
         23    2    1    2    0    0 -0.33123324077E+02  0.65880703423E+01  0.48240001616E+02  0.10966403609E+03  0.92512408829E+02 0.  0.
          5    1    3    3  502    0  0.24235567354E+02  0.58567544432E+02  0.12425650355E+03  0.13955167881E+03  0.41800000000E+01 0. -1.
         -5    1    3    3    0  502  0.88877567235E+01 -0.65155614774E+02  0.11535802793E+03  0.13285026671E+03  0.41800000000E+01 0. -1.
        -11    1    4    4    0    0 -0.24116989907E+02 -0.96710434423E+01 -0.23817372321E+02  0.35248056794E+02  0.00000000000E+00 0.  1.
         11    1    4    4    0    0 -0.90063341703E+01  0.16259113785E+02  0.72057373938E+02  0.74415979299E+02  0.00000000000E+00 0. -1.
</event>
<event>
 8    1  0.3708258E-009  0.1005256E+03  0.7561462E-02  0.1279195E+00
          1   -1    0    0  501    0  0.00000000000E+00  0.00000000000E+00  0.29387086950E+03  0.29387086950E+03  0.00000000000E+00 0. -1.
         -1   -1    0    0    0  501 -0.00000000000E+00 -0.00000000000E+00 -0.42148486573E+02  0.42148486573E+02  0.00000000000E+00 0.  1.
         25    2    1    2    0    0 -0.23166337670E+01  0.24984053773E+02  0.16166162143E+03  0.20594206001E+03  0.12509229594E+03 0.  0.
         23    2    1    2    0    0  0.23166337670E+01 -0.24984053773E+02  0.90060761500E+02  0.13007729607E+03  0.90441099368E+02 0.  0.
          5    1    3    3  502    0  0.54966304405E+02 -0.79921065291E+01  0.10466723516E+03  0.11856589266E+03  0.41800000000E+01 0.  1.
         -5    1    3    3    0  502 -0.57282938172E+02  0.32976160302E+02  0.56994386264E+02  0.87376167342E+02  0.41800000000E+01 0.  1.
        -11    1    4    4    0    0  0.18903885429E+02  0.22169716491E+02  0.24859114154E+01  0.29240946790E+02  0.00000000000E+00 0. -1.
         11    1    4    4    0    0 -0.16587251662E+02 -0.47153770264E+02  0.87574850085E+02  0.10083634928E+03  0.00000000000E+00 0.  1.
</event>
<event>
 8    1  0.3708258E-009  0.7474005E+02  0.7561462E-02  0.1344678E+00
         -3   -1    0    0    0  501 -0.00000000000E+00  0.00000000000E+00  0.21564622380E+02  0.21564622380E+02  0.00000000000E+00 0.  1.
          3   -1    0    0  501    0  0.00000000000E+00 -0.00000000000E+00 -0.77782108414E+03  0.77782108414E+03  0.00000000000E+00 0. -1.
         25    2    1    2    0    0  0.56295011018E+02 -0.10330664024E+02 -0.54971826932E+03  0.56666872159E+03  0.12508962197E+03 0.  0.
         23    2    1    2    0    0 -0.56295011018E+02  0.10330664024E+02 -0.20653819244E+03  0.23271698493E+03  0.90682519000E+02 0.  0.
          5    1    3    3  502    0  0.47148954378E+02 -0.38072702389E+02 -0.10756913815E+03  0.12353601276E+03  0.41800000000E+01 0. -1.
         -5    1    3    3    0  502  0.91460566399E+01  0.27742038365E+02 -0.44214913117E+03  0.44313270883E+03  0.41800000000E+01 0. -1.
        -11    1    4    4    0    0 -0.21445756682E+02 -0.35060714603E+01  0.10633847586E+01  0.21756465795E+02  0.00000000000E+00 0.  1.
         11    1    4    4    0    0 -0.34849254336E+02  0.13836735484E+02 -0.20760157720E+03  0.21096051914E+03  0.00000000000E+00 0. -1.
</event>
<event>
 8    1  0.3708258E-009  0.1368153E+03  0.7561462E-02  0.1217680E+00
         -1   -1    0    0    0  501 -0.00000000000E+00  0.00000000000E+00  0.16531006620E+03  0.16531006620E+03  0.00000000000E+00 0.  1.
          1   -1    0    0  501    0  0.00000000000E+00 -0.00000000000E+00 -0.13946622982E+03  0.13946622982E+03  0.00000000000E+00 0. -1.
         25    2    1    2    0    0  0.38741524474E+02  0.98660513037E+02  0.24862877823E+02  0.16583378606E+03  0.12509148394E+03 0.  0.
         23    2    1    2    0    0 -0.38741524474E+02 -0.98660513037E+02  0.98095856184E+00  0.13894250995E+03  0.89829038962E+02 0.  0.
          5    1    3    3  502    0 -0.50600341855E+01 -0.17538926312E+02  0.36515435194E+02  0.41037388922E+02  0.41800000000E+01 0. -1.
         -5    1    3    3    0  502  0.43801558660E+02  0.11619943935E+03 -0.11652557371E+02  0.12479639714E+03  0.41800000000E+01 0. -1.
        -11    1    4    4    0    0  0.21865116727E+02 -0.43574066083E+02  0.23330821709E+02  0.54047292310E+02  0.00000000000E+00 0.  1.
         11    1    4    4    0    0 -0.60606641202E+02 -0.55086446955E+02 -0.22349863147E+02  0.84895217642E+02  0.00000000000E+00 0. -1.
</event>
<event>
 8    1  0.3708258E-009  0.1106448E+03  0.7561462E-02  0.1259380E+00
         -2   -1    0    0    0  501 -0.00000000000E+00  0.00000000000E+00  0.10305865700E+03  0.10305865700E+03  0.00000000000E+00 0.  1.
          2   -1    0    0  501    0  0.00000000000E+00 -0.00000000000E+00 -0.34780304575E+03  0.34780304575E+03  0.00000000000E+00 0. -1.
         25    2    1    2    0    0  0.97034739761E+02 -0.40186995296E+02  0.58365749337E+01  0.16343768730E+03  0.12508827567E+03 0.  0.
         23    2    1    2    0    0 -0.97034739761E+02  0.40186995296E+02 -0.25058096368E+03  0.28742401544E+03  0.93760386003E+02 0.  0.
          5    1    3    3  502    0  0.88890010351E+02 -0.30949142273E+02  0.57356216916E+02  0.11030181942E+03  0.41800000000E+01 0. -1.
         -5    1    3    3    0  502  0.81447294107E+01 -0.92378530230E+01 -0.51519641983E+02  0.53135867883E+02  0.41800000000E+01 0. -1.
        -11    1    4    4    0    0 -0.67089277185E+02  0.41571795525E+01 -0.56624634706E+02  0.87889717889E+02  0.00000000000E+00 0.  1.
         11    1    4    4    0    0 -0.29945462576E+02  0.36029815744E+02 -0.19395632898E+03  0.19953429756E+03  0.00000000000E+00 0. -1.
</event>
<event>
 8    1  0.3708258E-009  0.1664724E+03  0.7561462E-02  0.1181577E+00
         -2   -1    0    0    0  501 -0.00000000000E+00  0.00000000000E+00  0.51896946517E+02  0.51896946517E+02  0.00000000000E+00 0.  1.
          2   -1    0    0  501    0  0.00000000000E+00 -0.00000000000E+00 -0.55343792000E+03  0.55343792000E+03  0.00000000000E+00 0. -1.
         25    2    1    2    0    0 -0.65968382527E+02  0.10865849801E+03 -0.32063036295E+03  0.36689159252E+03  0.12508842607E+03 0.  0.
         23    2    1    2    0    0  0.65968382527E+02 -0.10865849801E+03 -0.18091061054E+03  0.23844327399E+03  0.89263930149E+02 0.  0.
          5    1    3    3  502    0 -0.10246617388E+03  0.92841509409E+02 -0.24705469863E+03  0.28314723939E+03  0.41800000000E+01 0. -1.
         -5    1    3    3    0  502  0.36497791353E+02  0.15816988600E+02 -0.73575664320E+02  0.83744353136E+02  0.41800000000E+01 0. -1.
        -11    1    4    4    0    0  0.87455576222E+02 -0.95135378990E+02 -0.15913503314E+03  0.20499555342E+03  0.00000000000E+00 0. -1.
         11    1    4    4    0    0 -0.21487193695E+02 -0.13523119019E+02 -0.21775577394E+02  0.33447720576E+02  0.00000000000E+00 0.  1.
</event>
<event>
 8    1  0.3708258E-009  0.8416983E+02  0.7561462E-02  0.1317618E+00
         -2   -1    0    0    0  501 -0.00000000000E+00  0.00000000000E+00  0.63152642760E+03  0.63152642760E+03  0.00000000000E+00 0.  1.
          2   -1    0    0  501    0  0.00000000000E+00 -0.00000000000E+00 -0.32266220163E+02  0.32266220163E+02  0.00000000000E+00 0. -1.
         25    2    1    2    0    0  0.12226266591E+02 -0.28446324170E+02  0.53093702463E+03  0.54635105183E+03  0.12508666102E+03 0.  0.
         23    2    1    2    0    0 -0.12226266591E+02  0.28446324170E+02  0.68323182808E+02  0.11744159593E+03  0.90364795088E+02 0.  0.
          5    1    3    3  502    0 -0.46194477504E+02 -0.21233203435E+02  0.39332807559E+03  0.39662227134E+03  0.41800000000E+01 0. -1.
         -5    1    3    3    0  502  0.58420744095E+02 -0.72131207347E+01  0.13760894904E+03  0.14972878049E+03  0.41800000000E+01 0. -1.
        -11    1    4    4    0    0 -0.11426129148E+02 -0.12744264375E+02  0.73910074875E+02  0.75866144424E+02  0.00000000000E+00 0.  1.
         11    1    4    4    0    0 -0.80013744289E+00  0.41190588545E+02 -0.55868920674E+01  0.41575451502E+02  0.00000000000E+00 0. -1.
</event>
<event>
 8    1  0.3708258E-009  0.1027717E+03  0.7561462E-02  0.1274573E+00
         -4   -1    0    0    0  501 -0.00000000000E+00  0.00000000000E+00  0.24062379615E+02  0.24062379615E+02  0.00000000000E+00 0.  1.
          4   -1    0    0  501    0  0.00000000000E+00 -0.00000000000E+00 -0.54807202383E+03  0.54807202383E+03  0.00000000000E+00 0. -1.
         25    2    1    2    0    0 -0.19545177615E+02 -0.35126022576E+02 -0.28208722536E+03  0.31118577398E+03  0.12509009468E+03 0.  0.
         23    2    1    2    0    0  0.19545177615E+02  0.35126022576E+02 -0.24192241885E+03  0.26094862946E+03  0.89173309036E+02 0.  0.
          5    1    3    3  502    0 -0.19734421180E+02  0.43468580752E+02 -0.14955374897E+03  0.15704381912E+03  0.41800000000E+01 0. -1.
         -5    1    3    3    0  502  0.18924356477E+00 -0.78594603328E+02 -0.13253347639E+03  0.15414195487E+03  0.41800000000E+01 0. -1.
        -11    1    4    4    0    0 -0.24296078668E+02  0.22935958920E+02 -0.32399252075E+02  0.46541048390E+02  0.00000000000E+00 0.  1.
         11    1    4    4    0    0  0.43841256283E+02  0.12190063656E+02 -0.20952316678E+03  0.21440758107E+03  0.00000000000E+00 0. -1.
</event>
<event>
 8    1  0.3708258E-009  0.9840038E+02  0.7561462E-02  0.1283696E+00
          1   -1    0    0  501    0  0.00000000000E+00  0.00000000000E+00  0.27112613537E+03  0.27112613537E+03  0.00000000000E+00 0. -1.
         -1   -1    0    0    0  501 -0.00000000000E+00 -0.00000000000E+00 -0.55423523282E+02  0.55423523282E+02  0.00000000000E+00 0.  1.
         25    2    1    2    0    0  0.26455263815E+02 -0.43547724056E+02  0.15407849183E+03  0.20489953016E+03  0.12508937029E+03 0.  0.
         23    2    1    2    0    0 -0.26455263815E+02  0.43547724056E+02  0.61624120260E+02  0.12165012850E+03  0.91678439730E+02 0.  0.
          5    1    3    3  502    0 -0.21311094514E+02  0.15121942905E+02 -0.65804562225E+01  0.27269226441E+02  0.41800000000E+01 0. -1.
         -5    1    3    3    0  502  0.47766358329E+02 -0.58669666960E+02  0.16065894805E+03  0.17763030372E+03  0.41800000000E+01 0. -1.
        -11    1    4    4    0    0  0.19861867617E+02 -0.11241920673E+02  0.41127919197E+02  0.47035946925E+02  0.00000000000E+00 0. -1.
         11    1    4    4    0    0 -0.46317131431E+02  0.54789644728E+02  0.20496201063E+02  0.74614181571E+02  0.00000000000E+00 0.  1.
</event>
<event>
 8    1  0.3708258E-009  0.1521588E+03  0.7561462E-02  0.1197845E+00
          2   -1    0    0  501    0  0.00000000000E+00  0.00000000000E+00  0.95362116588E+03  0.95362116588E+03  0.00000000000E+00 0. -1.
         -2   -1    0    0    0  501 -0.00000000000E+00 -0.00000000000E+00 -0.75921553174E+02  0.75921553174E+02  0.00000000000E+00 0.  1.
         25    2    1    2    0    0 -0.11817673589E+03  0.54597726811E+02  0.84952512206E+03  0.86849817059E+03  0.12509790811E+03 0.  0.
         23    2    1    2    0    0  0.11817673589E+03 -0.54597726811E+02  0.28174490638E+02  0.16104454846E+03  0.90525642718E+02 0.  0.
          5    1    3    3  502    0  0.21964243557E+02 -0.29411831209E+01  0.21252824607E+03  0.21372132868E+03  0.41800000000E+01 0. -1.
         -5    1    3    3    0  502 -0.14014097944E+03  0.57538909932E+02  0.63699687599E+03  0.65477684191E+03  0.41800000000E+01 0. -1.
        -11    1    4    4    0    0  0.68877558966E+02 -0.33487854648E+02 -0.29698824313E+02  0.82143622416E+02  0.00000000000E+00 0.  1.
         11    1    4    4    0    0  0.49299176921E+02 -0.21109872162E+02  0.57873314951E+02  0.78900926048E+02  0.00000000000E+00 0. -1.
</event>
<event>
 8    1  0.3708258E-009  0.1255579E+03  0.7561462E-02  0.1234200E+00
         -2   -1    0    0    0  501 -0.00000000000E+00  0.00000000000E+00  0.17449395422E+03  0.17449395422E+03  0.00000000000E+00 0.  1.
          2   -1    0    0  501    0  0.00000000000E+00 -0.00000000000E+00 -0.11774414537E+03  0.11774414537E+03  0.00000000000E+00 0. -1.
         25    2    1    2    0    0  0.34159866894E+02  0.82623894194E+02  0.27186670582E+01  0.15378284890E+03  0.12509264194E+03 0.  0.
         23    2    1    2    0    0 -0.34159866894E+02 -0.82623894194E+02  0.54031141792E+02  0.13845525069E+03  0.90867418594E+02 0.  0.
          5    1    3    3  502    0  0.70258554491E+02  0.96544612730E+01  0.10830156197E+02  0.71862631352E+02  0.41800000000E+01 0. -1.
         -5    1    3    3    0  502 -0.36098687597E+02  0.72969432921E+02 -0.81114891383E+01  0.81920217548E+02  0.41800000000E+01 0. -1.
        -11    1    4    4    0    0 -0.20948629436E+02 -0.74556573454E+01  0.57914180284E+02  0.62036152199E+02  0.00000000000E+00 0.  1.
         11    1    4    4    0    0 -0.13211237458E+02 -0.75168236849E+02 -0.38830384914E+01  0.76419098490E+02  0.00000000000E+00 0. -1.
</event>
<event>
 8    1  0.3708258E-009  0.2196874E+03  0.7561462E-02  0.1134116E+00
         -1   -1    0    0    0  501 -0.00000000000E+00  0.00000000000E+00  0.23074923989E+03  0.23074923989E+03  0.00000000000E+00 0.  1.
          1   -1    0    0  501    0  0.00000000000E+00 -0.00000000000E+00 -0.36650436771E+03  0.36650436771E+03  0.00000000000E+00 0. -1.
         25    2    1    2    0    0 -0.17096188848E+03 -0.10344471085E+03  0.11547030576E+03  0.26250547400E+03  0.12508779658E+03 0.  0.
         23    2    1    2    0    0  0.17096188848E+03  0.10344471085E+03 -0.25122543358E+03  0.33474813359E+03  0.94938500899E+02 0.  0.
          5    1    3    3  502    0 -0.18740361234E+02 -0.70687139335E+02  0.67281346491E+02  0.99459161429E+02  0.41800000000E+01 0.  1.
         -5    1    3    3    0  502 -0.15222152724E+03 -0.32757571518E+02  0.48188959268E+02  0.16304631257E+03  0.41800000000E+01 0.  1.
        -11    1    4    4    0    0  0.14990828571E+03  0.11251897085E+03 -0.24907271339E+03  0.31172139721E+03  0.00000000000E+00 0. -1.
         11    1    4    4    0    0  0.21053602770E+02 -0.90742600018E+01 -0.21527201912E+01  0.23026736382E+02  0.00000000000E+00 0.  1.
</event>
<event>
 8    1  0.3708258E-009  0.1934761E+03  0.7561462E-02  0.1155363E+00
          1   -1    0    0  501    0  0.00000000000E+00  0.00000000000E+00  0.23634637644E+03  0.23634637644E+03  0.00000000000E+00 0. -1.
         -1   -1    0    0    0  501 -0.00000000000E+00 -0.00000000000E+00 -0.20501811882E+03  0.20501811882E+03  0.00000000000E+00 0.  1.
         25    2    1    2    0    0  0.12784648235E+02 -0.16441482996E+03 -0.83940080308E+02  0.22335842982E+03  0.12508943820E+03 0.  0.
         23    2    1    2    0    0 -0.12784648235E+02  0.16441482996E+03  0.11526833793E+03  0.21800606544E+03  0.83929561535E+02 0.  0.
          5    1    3    3  502    0 -0.45065197560E+02 -0.23404070500E+02 -0.37651457027E+01  0.51090813942E+02  0.41800000000E+01 0.  1.
         -5    1    3    3    0  502  0.57849845796E+02 -0.14101075946E+03 -0.80174934605E+02  0.17226761588E+03  0.41800000000E+01 0.  1.
        -11    1    4    4    0    0 -0.45331618581E+02  0.12139273124E+03  0.93695461535E+02  0.15990619236E+03  0.00000000000E+00 0.  1.
         11    1    4    4    0    0  0.32546970346E+02  0.43022098713E+02  0.21572876397E+02  0.58099873084E+02  0.00000000000E+00 0. -1.
</event>
<event>
 8    1  0.3708258E-009  0.1744388E+03  0.7561462E-02  0.1173296E+00
          2   -1    0    0  501    0  0.00000000000E+00  0.00000000000E+00  0.17538964671E+04  0.17538964671E+04  0.00000000000E+00 0. -1.
         -2   -1    0    0    0  501 -0.00000000000E+00 -0.00000000000E+00 -0.19511113590E+02  0.19511113590E+02  0.00000000000E+00 0.  1.
         25    2    1    2    0    0 -0.13494627289E+02  0.14443516614E+03  0.10828116677E+04  0.10996238239E+04  0.12509126269E+03 0.  0.
         23    2    1    2    0    0  0.13494627289E+02 -0.14443516614E+03  0.65157368577E+03  0.67378375684E+03  0.91611466603E+02 0.  0.
          5    1    3    3  502    0 -0.69505451801E+02  0.81473038650E+02  0.60327651258E+03  0.61272252030E+03  0.41800000000E+01 0. -1.
         -5    1    3    3    0  502  0.56010824512E+02  0.62962127485E+02  0.47953515517E+03  0.48690130355E+03  0.41800000000E+01 0. -1.
        -11    1    4    4    0    0  0.37644205198E+02 -0.77200054529E+02  0.48484989264E+03  0.49239857128E+03  0.00000000000E+00 0. -1.
         11    1    4    4    0    0 -0.24149577908E+02 -0.67235111606E+02  0.16672379312E+03  0.18138518556E+03  0.00000000000E+00 0.  1.
</event>
<event>
 8    1  0.3708258E-009  0.7310384E+02  0.7561462E-02  0.1349845E+00
          1   -1    0    0  501    0  0.00000000000E+00  0.00000000000E+00  0.11921922919E+03  0.11921922919E+03  0.00000000000E+00 0. -1.
         -1   -1    0    0    0  501 -0.00000000000E+00 -0.00000000000E+00 -0.13491908311E+03  0.13491908311E+03  0.00000000000E+00 0.  1.
         25    2    1    2    0    0  0.30621692597E+02 -0.31870844109E+02  0.39083019678E+02  0.13830643240E+03  0.12509095913E+03 0.  0.
         23    2    1    2    0    0 -0.30621692597E+02  0.31870844109E+02 -0.54782873599E+02  0.11583187990E+03  0.91991425683E+02 0.  0.
          5    1    3    3  502    0  0.38576788700E+01  0.23595421164E+02 -0.34549574061E+02  0.42222873587E+02  0.41800000000E+01 0.  1.
         -5    1    3    3    0  502  0.26764013727E+02 -0.55466265273E+02  0.73632593739E+02  0.96083558817E+02  0.41800000000E+01 0.  1.
        -11    1    4    4    0    0  0.92263380273E+01  0.13446557125E+02  0.21999765694E+02  0.27384756754E+02  0.00000000000E+00 0. -1.
         11    1    4    4    0    0 -0.39848030624E+02  0.18424286984E+02 -0.76782639293E+02  0.88447123143E+02  0.00000000000E+00 0.  1.
</event>
<event>
 8    1  0.3708258E-009  0.9716828E+02  0.7561462E-02  0.1286366E+00
         -2   -1    0    0    0  501 -0.00000000000E+00  0.00000000000E+00  0.86459784751E+01  0.86459784751E+01  0.00000000000E+00 0.  1.
          2   -1    0    0  501    0  0.00000000000E+00 -0.00000000000E+00 -0.21155017045E+04  0.21155017045E+04  0.00000000000E+00 0. -1.
         25    2    1    2    0    0 -0.30203950063E+02  0.35500596275E+02 -0.17422208270E+04  0.17473275932E+04  0.12509091601E+03 0.  0.
         23    2    1    2    0    0  0.30203950063E+02 -0.35500596275E+02 -0.36463489902E+03  0.37682008969E+03  0.82838393728E+02 0.  0.
          5    1    3    3  502    0  0.37806959118E+02  0.34933151321E+02 -0.11571677100E+04  0.11583195900E+04  0.41800000000E+01 0.  1.
         -5    1    3    3    0  502 -0.68010909181E+02  0.56744495401E+00 -0.58505311700E+03  0.58900800323E+03  0.41800000000E+01 0.  1.
        -11    1    4    4    0    0  0.43591886862E+02 -0.41217610073E+02 -0.35333417959E+03  0.35839110822E+03  0.00000000000E+00 0. -1.
         11    1    4    4    0    0 -0.13387936799E+02  0.57170137977E+01 -0.11300719421E+02  0.18428981467E+02  0.00000000000E+00 0.  1.
</event>
<event>
 8    1  0.3708258E-009  0.1915328E+03  0.7561462E-02  0.1157086E+00
         -4   -1    0    0    0  501 -0.00000000000E+00  0.00000000000E+00  0.13005196706E+04  0.13005196706E+04  0.00000000000E+00 0.  1.
          4   -1    0    0  501    0  0.00000000000E+00 -0.00000000000E+00 -0.42163464946E+02  0.42163464946E+02  0.00000000000E+00 0. -1.
         25    2    1    2    0    0  0.15474686836E+03  0.95394327473E+02  0.94108783852E+03  0.96661450782E+03  0.12510242176E+03 0.  0.
         23    2    1    2    0    0 -0.15474686836E+03 -0.95394327473E+02  0.31726836717E+03  0.37606862777E+03  0.87873346357E+02 0.  0.
          5    1    3    3  502    0  0.13485814285E+02  0.49970777684E+01  0.52678130355E+01  0.15876404736E+02  0.41800000000E+01 0.  1.
         -5    1    3    3    0  502  0.14126105408E+03  0.90397249704E+02  0.93582002549E+03  0.95073810309E+03  0.41800000000E+01 0.  1.
        -11    1    4    4    0    0 -0.36208690446E+02  0.14195968151E+02  0.81798076394E+02  0.90573285671E+02  0.00000000000E+00 0. -1.
         11    1    4    4    0    0 -0.11853817792E+03 -0.10959029562E+03  0.23547029078E+03  0.28549534210E+03  0.00000000000E+00 0.  1.
</event>
<event>
 8    1  0.3708258E-009  0.8663873E+02  0.7561462E-02  0.1311202E+00
         -2   -1    0    0    0  501 -0.00000000000E+00  0.00000000000E+00  0.10401672915E+03  0.10401672915E+03  0.00000000000E+00 0.  1.
          2   -1    0    0  501    0  0.00000000000E+00 -0.00000000000E+00 -0.14757231750E+03  0.14757231750E+03  0.00000000000E+00 0. -1.
         25    2    1    2    0    0  0.29651007483E+01  0.57809862403E+02 -0.88095268130E+01  0.13810780036E+03  0.12508151240E+03 0.  0.
         23    2    1    2    0    0 -0.29651007483E+01 -0.57809862403E+02 -0.34746061538E+02  0.11348124629E+03  0.91213663739E+02 0.  0.
          5    1    3    3  502    0  0.22916276857E+02 -0.71257869802E+00  0.48430756994E+02  0.53746387194E+02  0.41800000000E+01 0. -1.
         -5    1    3    3    0  502 -0.19951176109E+02  0.58522441101E+02 -0.57240283807E+02  0.84361413163E+02  0.41800000000E+01 0. -1.
        -11    1    4    4    0    0 -0.32949136910E+02 -0.44053050013E+02 -0.52478360668E+02  0.76028252492E+02  0.00000000000E+00 0. -1.
         11    1    4    4    0    0  0.29984036162E+02 -0.13756812391E+02  0.17732299130E+02  0.37452993794E+02  0.00000000000E+00 0.  1.
</event>
<event>
 8    1  0.3708258E-009  0.9472572E+02  0.7561462E-02  0.1291795E+00
         -1   -1    0    0    0  501 -0.00000000000E+00  0.00000000000E+00  0.43836765481E+02  0.43836765481E+02  0.00000000000E+00 0.  1.
          1   -1    0    0  501    0  0.00000000000E+00 -0.00000000000E+00 -0.33237115555E+03  0.33237115555E+03  0.00000000000E+00 0. -1.
         25    2    1    2    0    0  0.40258710296E+02  0.31736107346E+02 -0.16292384383E+03  0.21170458245E+03  0.12508679816E+03 0.  0.
         23    2    1    2    0    0 -0.40258710296E+02 -0.31736107346E+02 -0.12561054623E+03  0.16450333858E+03  0.93034374378E+02 0.  0.
          5    1    3    3  502    0  0.70476623711E+02  0.39937833759E+02 -0.16073215720E+03  0.18003967288E+03  0.41800000000E+01 0. -1.
         -5    1    3    3    0  502 -0.30217913415E+02 -0.82017264133E+01 -0.21916866385E+01  0.31664909563E+02  0.41800000000E+01 0. -1.
        -11    1    4    4    0    0 -0.54190308106E+02 -0.17789050156E+02 -0.25510413950E+02  0.62480565121E+02  0.00000000000E+00 0.  1.
         11    1    4    4    0    0  0.13931597809E+02 -0.13947057190E+02 -0.10010013228E+03  0.10202277346E+03  0.00000000000E+00 0. -1.
</event>
<event>
 8    1  0.3708258E-009  0.1109893E+03  0.7561462E-02  0.1258749E+00
          2   -1    0    0  501    0  0.00000000000E+00  0.00000000000E+00  0.15126482812E+02  0.15126482812E+02  0.00000000000E+00 0.  1.
         -2   -1    0    0    0  501 -0.00000000000E+00 -0.00000000000E+00 -0.14719123300E+04  0.14719123300E+04  0.00000000000E+00 0. -1.
         25    2    1    2    0    0 -0.88414978466E+02  0.44070631524E+02 -0.91490944701E+03  0.92869094514E+03  0.12509255124E+03 0.  0.
         23    2    1    2    0    0  0.88414978466E+02 -0.44070631524E+02 -0.54187640016E+03  0.55834786766E+03  0.91448779559E+02 0.  0.
          5    1    3    3  502    0 -0.70415769107E+02  0.53659449521E+02 -0.28557248576E+03  0.29900975583E+03  0.41800000000E+01 0. -1.
         -5    1    3    3    0  502 -0.17999209360E+02 -0.95888179970E+01 -0.62933696126E+03  0.62968118931E+03  0.41800000000E+01 0. -1.
        -11    1    4    4    0    0 -0.24320260721E+00 -0.20891450324E+02 -0.21556170366E+02  0.30019665638E+02  0.00000000000E+00 0.  1.
         11    1    4    4    0    0  0.88658181073E+02 -0.23179181200E+02 -0.52032022980E+03  0.52832820202E+03  0.00000000000E+00 0. -1.
</event>
<event>
 8    1  0.3708258E-009  0.1250426E+03  0.7561462E-02  0.1235003E+00
          1   -1    0    0  501    0  0.00000000000E+00  0.00000000000E+00  0.98179931860E+02  0.98179931860E+02  0.00000000000E+00 0. -1.
         -1   -1    0    0    0  501 -0.00000000000E+00 -0.00000000000E+00 -0.19726941478E+03  0.19726941478E+03  0.00000000000E+00 0.  1.
         25    2    1    2    0    0  0.43327322019E+02 -0.73429587369E+02 -0.49646663375E+02  0.15930950457E+03  0.12508223666E+03 0.  0.
         23    2    1    2    0    0 -0.43327322019E+02  0.73429587369E+02 -0.49442819543E+02  0.13613984206E+03  0.93916468514E+02 0.  0.
          5    1    3    3  502    0  0.14501553089E+02 -0.89150056739E+02  0.10126831642E+02  0.90983805030E+02  0.41800000000E+01 0.  1.
         -5    1    3    3    0  502  0.28825768930E+02  0.15720469370E+02 -0.59773495018E+02  0.68325699545E+02  0.41800000000E+01 0.  1.
        -11    1    4    4    0    0 -0.56725069261E+02  0.51187347251E+01 -0.17791202128E+02  0.59669605337E+02  0.00000000000E+00 0. -1.
         11    1    4    4    0    0  0.13397747242E+02  0.68310852644E+02 -0.31651617415E+02  0.76470236727E+02  0.00000000000E+00 0.  1.
</event>
<event>
 8    1  0.3708258E-009  0.8909486E+02  0.7561462E-02  0.1305059E+00
          1   -1    0    0  501    0  0.00000000000E+00  0.00000000000E+00  0.28140038635E+03  0.28140038635E+03  0.00000000000E+00 0. -1.
         -1   -1    0    0    0  501 -0.00000000000E+00 -0.00000000000E+00 -0.60326059615E+02  0.60326059615E+02  0.00000000000E+00 0.  1.
         25    2    1    2    0    0 -0.54634719505E+02 -0.58532452277E+01  0.18183113230E+03  0.22744065653E+03  0.12508988174E+03 0.  0.
         23    2    1    2    0    0  0.54634719505E+02  0.58532452277E+01  0.39243194434E+02  0.11428578943E+03  0.92206292095E+02 0.  0.
          5    1    3    3  502    0  0.99618384915E+01 -0.24065279545E+02  0.15131223624E+03  0.15359440466E+03  0.41800000000E+01 0. -1.
         -5    1    3    3    0  502 -0.64596557996E+02  0.18212034318E+02  0.30518896055E+02  0.73846251871E+02  0.41800000000E+01 0. -1.
        -11    1    4    4    0    0  0.15315999261E+02  0.33274146093E+02 -0.17003018883E+02  0.40383799755E+02  0.00000000000E+00 0.  1.
         11    1    4    4    0    0  0.39318720244E+02 -0.27420900865E+02  0.56246213317E+02  0.73901989678E+02  0.00000000000E+00 0. -1.
</event>
<event>
 8    1  0.3708258E-009  0.1081494E+03  0.7561462E-02  0.1264036E+00
          1   -1    0    0  501    0  0.00000000000E+00  0.00000000000E+00  0.46002472344E+03  0.46002472344E+03  0.00000000000E+00 0. -1.
         -1   -1    0    0    0  501 -0.00000000000E+00 -0.00000000000E+00 -0.33799424753E+02  0.33799424753E+02  0.00000000000E+00 0.  1.
         25    2    1    2    0    0  0.27852997984E+02  0.49019039886E+02  0.22996476915E+03  0.26778813884E+03  0.12509211201E+03 0.  0.
         23    2    1    2    0    0 -0.27852997984E+02 -0.49019039886E+02  0.19626052954E+03  0.22603600935E+03  0.96930007229E+02 0.  0.
          5    1    3    3  502    0 -0.31774187819E+02  0.60897142875E+01  0.75074735194E+01  0.33474142114E+02  0.41800000000E+01 0.  1.
         -5    1    3    3    0  502  0.59627185802E+02  0.42929325598E+02  0.22245729563E+03  0.23431399673E+03  0.41800000000E+01 0.  1.
        -11    1    4    4    0    0 -0.57153356104E+02 -0.52225855133E+01  0.80678924300E+02  0.99009445710E+02  0.00000000000E+00 0.  1.
         11    1    4    4    0    0  0.29300358121E+02 -0.43796454373E+02  0.11558160524E+03  0.12702656364E+03  0.00000000000E+00 0. -1.
</event>
<event>
 8    1  0.3708258E-009  0.1699575E+03  0.7561462E-02  0.1177892E+00
         -2   -1    0    0    0  501 -0.00000000000E+00  0.00000000000E+00  0.25580116785E+03  0.25580116785E+03  0.00000000000E+00 0.  1.
          2   -1    0    0  501    0  0.00000000000E+00 -0.00000000000E+00 -0.15455976105E+03  0.15455976105E+03  0.00000000000E+00 0. -1.
         25    2    1    2    0    0 -0.79414902095E+02 -0.12027621312E+03  0.13929911235E+03  0.23627830739E+03  0.12510036661E+03 0.  0.
         23    2    1    2    0    0  0.79414902095E+02  0.12027621312E+03 -0.38057705544E+02  0.17408262151E+03  0.89907041131E+02 0.  0.
          5    1    3    3  502    0 -0.34703810894E+01  0.14569770061E+02 -0.12125897003E+02  0.19718811391E+02  0.41800000000E+01 0. -1.
         -5    1    3    3    0  502 -0.75944521005E+02 -0.13484598318E+03  0.15142500935E+03  0.21655949600E+03  0.41800000000E+01 0. -1.
        -11    1    4    4    0    0  0.11847383397E+02 -0.14534964159E+02 -0.76458996690E+01  0.20250566861E+02  0.00000000000E+00 0.  1.
         11    1    4    4    0    0  0.67567518698E+02  0.13481117728E+03 -0.30411805875E+02  0.15383205465E+03  0.00000000000E+00 0. -1.
</event>
<event>
 8    1  0.3708258E-009  0.1255196E+03  0.7561462E-02  0.1234259E+00
          1   -1    0    0  501    0  0.00000000000E+00  0.00000000000E+00  0.53997163655E+03  0.53997163655E+03  0.00000000000E+00 0. -1.
         -1   -1    0    0    0  501 -0.00000000000E+00 -0.00000000000E+00 -0.30011846683E+02  0.30011846683E+02  0.00000000000E+00 0.  1.
         25    2    1    2    0    0 -0.62589239300E+02 -0.19211070976E+02  0.30399595295E+03  0.33518478134E+03  0.12509524414E+03 0.  0.
         23    2    1    2    0    0  0.62589239300E+02  0.19211070976E+02  0.20596383692E+03  0.23479870190E+03  0.91776087139E+02 0.  0.
          5    1    3    3  502    0 -0.72374892914E+02 -0.63050850164E+02  0.20759862852E+03  0.22875357438E+03  0.41800000000E+01 0. -1.
         -5    1    3    3    0  502  0.97856536140E+01  0.43839779189E+02  0.96397324430E+02  0.10643120695E+03  0.41800000000E+01 0. -1.
        -11    1    4    4    0    0 -0.21863542026E+02  0.12366621039E+02  0.72330101455E+02  0.76567560770E+02  0.00000000000E+00 0.  1.
         11    1    4    4    0    0  0.84452781326E+02  0.68444499368E+01  0.13363373547E+03  0.15823114113E+03  0.00000000000E+00 0. -1.
</event>
<event>
 8    1  0.3708258E-009  0.1109750E+03  0.7561462E-02  0.1258775E+00
         -2   -1    0    0    0  501 -0.00000000000E+00  0.00000000000E+00  0.38011610801E+03  0.38011610801E+03  0.00000000000E+00 0.  1.
          2   -1    0    0  501    0  0.00000000000E+00 -0.00000000000E+00 -0.40299770138E+02  0.40299770138E+02  0.00000000000E+00 0. -1.
         25    2    1    2    0    0  0.57618270228E+02 -0.90371924669E+01  0.21464406657E+03  0.25518832758E+03  0.12508985295E+03 0.  0.
         23    2    1    2    0    0 -0.57618270228E+02  0.90371924669E+01  0.12517227130E+03  0.16522755057E+03  0.90722158544E+02 0.  0.
          5    1    3    3  502    0 -0.26870223508E+02 -0.14290541162E+02  0.13647494578E+03  0.13988964116E+03  0.41800000000E+01 0.  1.
         -5    1    3    3    0  502  0.84488493736E+02  0.52533486955E+01  0.78169120789E+02  0.11529868642E+03  0.41800000000E+01 0.  1.
        -11    1    4    4    0    0 -0.77306961318E+02 -0.11347071400E+02  0.79442465399E+02  0.11142812754E+03  0.00000000000E+00 0. -1.
         11    1    4    4    0    0  0.19688691090E+02  0.20384263867E+02  0.45729805905E+02  0.53799423029E+02  0.00000000000E+00 0.  1.
</event>
<event>
 8    1  0.3708258E-009  0.1193718E+03  0.7561462E-02  0.1244137E+00
          2   -1    0    0  501    0  0.00000000000E+00  0.00000000000E+00  0.82789437995E+03  0.82789437995E+03  0.00000000000E+00 0. -1.
         -2   -1    0    0    0  501 -0.00000000000E+00 -0.00000000000E+00 -0.29546178228E+02  0.29546178228E+02  0.00000000000E+00 0.  1.
         25    2    1    2    0    0  0.22220090904E+02 -0.10938254407E+03  0.45219107032E+03  0.48226830167E+03  0.12509067644E+03 0.  0.
         23    2    1    2    0    0 -0.22220090904E+02  0.10938254407E+03  0.34615713140E+03  0.37517225651E+03  0.92039062597E+02 0.  0.
          5    1    3    3  502    0  0.17476832566E+02 -0.57879079990E+00  0.89798402724E+00  0.18001484679E+02  0.41800000000E+01 0.  1.
         -5    1    3    3    0  502  0.47432583377E+01 -0.10880375327E+03  0.45129308630E+03  0.46426681700E+03  0.41800000000E+01 0.  1.
        -11    1    4    4    0    0 -0.64570249171E+01  0.46640465805E+02  0.38599850309E+02  0.60884929705E+02  0.00000000000E+00 0.  1.
         11    1    4    4    0    0 -0.15763065987E+02  0.62742078267E+02  0.30755728109E+03  0.31428732680E+03  0.00000000000E+00 0. -1.
</event>
<event>
 8    1  0.3708258E-009  0.8720576E+02  0.7561462E-02  0.1309763E+00
         -1   -1    0    0    0  501 -0.00000000000E+00  0.00000000000E+00  0.17318958341E+03  0.17318958341E+03  0.00000000000E+00 0.  1.
          1   -1    0    0  501    0  0.00000000000E+00 -0.00000000000E+00 -0.75136463427E+02  0.75136463427E+02  0.00000000000E+00 0. -1.
         25    2    1    2    0    0  0.24930954641E+01  0.36043283302E+02  0.58697156203E+02  0.14282547725E+03  0.12509367294E+03 0.  0.
         23    2    1    2    0    0 -0.24930954641E+01 -0.36043283302E+02  0.39355963784E+02  0.10550056959E+03  0.90973317526E+02 0.  0.
          5    1    3    3  502    0  0.31780464386E+02 -0.33478825752E+02  0.47637702026E+02  0.66465425182E+02  0.41800000000E+01 0.  1.
         -5    1    3    3    0  502 -0.29287368922E+02  0.69522109055E+02  0.11059454177E+02  0.76360052072E+02  0.41800000000E+01 0.  1.
        -11    1    4    4    0    0 -0.20326968048E+02 -0.20065295905E+02 -0.24293394431E+02  0.37496276386E+02  0.00000000000E+00 0. -1.
         11    1    4    4    0    0  0.17833872584E+02 -0.15977987397E+02  0.63649358215E+02  0.68004293202E+02  0.00000000000E+00 0.  1.
</event>
<event>
 8    1  0.3708258E-009  0.1938318E+03  0.7561462E-02  0.1155050E+00
          2   -1    0    0  501    0  0.00000000000E+00  0.00000000000E+00  0.56895958408E+02  0.56895958408E+02  0.00000000000E+00 0. -1.
         -2   -1    0    0    0  501 -0.00000000000E+00 -0.00000000000E+00 -0.77492784513E+03  0.77492784513E+03  0.00000000000E+00 0.  1.
         25    2    1    2    0    0  0.22495537419E+02  0.17636352694E+03 -0.42622814708E+03  0.47846465192E+03  0.12509135437E+03 0.  0.
         23    2    1    2    0    0 -0.22495537419E+02 -0.17636352694E+03 -0.29180373965E+03  0.35335915162E+03  0.90017357913E+02 0.  0.
          5    1    3    3  502    0  0.28578363225E+02  0.18191469767E+03 -0.43052985940E+03  0.46827674756E+03  0.41800000000E+01 0.  1.
         -5    1    3    3    0  502 -0.60828258064E+01 -0.55511707368E+01  0.43017123194E+01  0.10187904359E+02  0.41800000000E+01 0.  1.
        -11    1    4    4    0    0 -0.30992784377E+02 -0.18399828417E+02 -0.27519128658E+02  0.45347643945E+02  0.00000000000E+00 0. -1.
         11    1    4    4    0    0  0.84972469584E+01 -0.15796369852E+03 -0.26428461099E+03  0.30801150768E+03  0.00000000000E+00 0.  1.
</event>
<event>
 8    1  0.3708258E-009  0.1793026E+03  0.7561462E-02  0.1168480E+00
          3   -1    0    0  501    0  0.00000000000E+00  0.00000000000E+00  0.10367456810E+04  0.10367456810E+04  0.00000000000E+00 0. -1.
         -3   -1    0    0    0  501 -0.00000000000E+00 -0.00000000000E+00 -0.36475617557E+02  0.36475617557E+02  0.00000000000E+00 0.  1.
         25    2    1    2    0    0  0.57636923205E+02 -0.15007396905E+03  0.54786637290E+03  0.58450757213E+03  0.12508928100E+03 0.  0.
         23    2    1    2    0    0 -0.57636923205E+02  0.15007396905E+03  0.45240369059E+03  0.48871372647E+03  0.91256759089E+02 0.  0.
          5    1    3    3  502    0  0.28895383504E+02 -0.16010257215E+03  0.51219000230E+03  0.53742334119E+03  0.41800000000E+01 0. -1.
         -5    1    3    3    0  502  0.28741539701E+02  0.10028603093E+02  0.35676370595E+02  0.47084230940E+02  0.41800000000E+01 0. -1.
        -11    1    4    4    0    0 -0.58591169656E+02  0.10651488675E+03  0.41102757985E+03  0.42862806448E+03  0.00000000000E+00 0. -1.
         11    1    4    4    0    0  0.95424645069E+00  0.43559082299E+02  0.41376110733E+02  0.60085661987E+02  0.00000000000E+00 0.  1.
</event>
<event>
 8    1  0.3708258E-009  0.1599693E+03  0.7561462E-02  0.1188731E+00
          1   -1    0    0  501    0  0.00000000000E+00  0.00000000000E+00  0.29612611798E+02  0.29612611798E+02  0.00000000000E+00 0. -1.
         -1   -1    0    0    0  501 -0.00000000000E+00 -0.00000000000E+00 -0.11218254031E+04  0.11218254031E+04  0.00000000000E+00 0.  1.
         25    2    1    2    0    0  0.19058278161E+01 -0.14547073445E+03 -0.61380431614E+03  0.64309503367E+03  0.12510042788E+03 0.  0.
         23    2    1    2    0    0 -0.19058278161E+01  0.14547073445E+03 -0.47840847518E+03  0.50834298125E+03  0.91501643152E+02 0.  0.
          5    1    3    3  502    0  0.35268408927E+02 -0.10234980957E+03 -0.21699416053E+03  0.24253511559E+03  0.41800000000E+01 0. -1.
         -5    1    3    3    0  502 -0.33362581111E+02 -0.43120924880E+02 -0.39681015560E+03  0.40055991808E+03  0.41800000000E+01 0. -1.
        -11    1    4    4    0    0  0.27676716004E+02  0.88520271962E+02 -0.37773464358E+03  0.38895411056E+03  0.00000000000E+00 0. -1.
         11    1    4    4    0    0 -0.29582543820E+02  0.56950462487E+02 -0.10067383160E+03  0.11938887069E+03  0.00000000000E+00 0.  1.
</event>
<event>
 8    1  0.3708258E-009  0.1439157E+03  0.7561462E-02  0.1208155E+00
          1   -1    0    0  501    0  0.00000000000E+00  0.00000000000E+00  0.81709558786E+02  0.81709558786E+02  0.00000000000E+00 0.  1.
         -1   -1    0    0    0  501 -0.00000000000E+00 -0.00000000000E+00 -0.36993346828E+03  0.36993346828E+03  0.00000000000E+00 0. -1.
         25    2    1    2    0    0  0.10201002379E+03  0.86200913689E+02 -0.12307808281E+03  0.22052902996E+03  0.12509275004E+03 0.  0.
         23    2    1    2    0    0 -0.10201002379E+03 -0.86200913689E+02 -0.16514582669E+03  0.23111399711E+03  0.91125699521E+02 0.  0.
          5    1    3    3  502    0  0.86369911822E+02  0.23940874463E+02 -0.12765877064E+03  0.15603576917E+03  0.41800000000E+01 0.  1.
         -5    1    3    3    0  502  0.15640111966E+02  0.62260039226E+02  0.45806878322E+01  0.64493260793E+02  0.41800000000E+01 0.  1.
        -11    1    4    4    0    0 -0.67042307288E+02 -0.51779265674E+02 -0.16093349914E+03  0.18186630932E+03  0.00000000000E+00 0. -1.
         11    1    4    4    0    0 -0.34967716500E+02 -0.34421648016E+02 -0.42123275505E+01  0.49247687791E+02  0.00000000000E+00 0.  1.
</event>
<event>
 8    1  0.3708258E-009  0.1571174E+03  0.7561462E-02  0.1191990E+00
          2   -1    0    0  501    0  0.00000000000E+00  0.00000000000E+00  0.84261628678E+03  0.84261628678E+03  0.00000000000E+00 0. -1.
         -2   -1    0    0    0  501 -0.00000000000E+00 -0.00000000000E+00 -0.34112218223E+02  0.34112218223E+02  0.00000000000E+00 0.  1.
         25    2    1    2    0    0  0.12076502467E+03  0.47587357636E+02  0.41672827477E+03  0.45404701938E+03  0.12508993972E+03 0.  0.
         23    2    1    2    0    0 -0.12076502467E+03 -0.47587357636E+02  0.39177579378E+03  0.42268148562E+03  0.91228383232E+02 0.  0.
          5    1    3    3  502    0  0.82127900921E+02  0.90500269660E+02  0.27602079693E+03  0.30189442469E+03  0.41800000000E+01 0.  1.
         -5    1    3    3    0  502  0.38637123749E+02 -0.42912912024E+02  0.14070747784E+03  0.15215259469E+03  0.41800000000E+01 0.  1.
        -11    1    4    4    0    0 -0.69009711532E+02 -0.44701549961E+02  0.33852546100E+03  0.34836770315E+03  0.00000000000E+00 0. -1.
         11    1    4    4    0    0 -0.51755313139E+02 -0.28858076751E+01  0.53250332779E+02  0.74313782471E+02  0.00000000000E+00 0.  1.
</event>
<event>
 8    1  0.3708258E-009  0.1490108E+03  0.7561462E-02  0.1201694E+00
          1   -1    0    0  501    0  0.00000000000E+00  0.00000000000E+00  0.15119317618E+03  0.15119317618E+03  0.00000000000E+00 0. -1.
         -1   -1    0    0    0  501 -0.00000000000E+00 -0.00000000000E+00 -0.15603628796E+03  0.15603628796E+03  0.00000000000E+00 0.  1.
         25    2    1    2    0    0  0.30057784062E+02 -0.10330611799E+03 -0.10447914439E+02  0.16532541396E+03  0.12509080377E+03 0.  0.
         23    2    1    2    0    0 -0.30057784062E+02  0.10330611799E+03  0.56048026597E+01  0.14190405018E+03  0.92356490016E+02 0.  0.
          5    1    3    3  502    0 -0.47667210249E+02 -0.44118657974E+02  0.87604626800E+01  0.65672193665E+02  0.41800000000E+01 0. -1.
         -5    1    3    3    0  502  0.77724994311E+02 -0.59187460016E+02 -0.19208377119E+02  0.99653220296E+02  0.41800000000E+01 0. -1.
        -11    1    4    4    0    0  0.21602247194E+02  0.23291971775E+01  0.17443880266E+02  0.27863438447E+02  0.00000000000E+00 0. -1.
         11    1    4    4    0    0 -0.51660031256E+02  0.10097692081E+03 -0.11839077607E+02  0.11404061173E+03  0.00000000000E+00 0.  1.
</event>
<event>
 8    1  0.3708258E-009  0.1088063E+03  0.7561462E-02  0.1262796E+00
          3   -1    0    0  501    0  0.00000000000E+00  0.00000000000E+00  0.65364610618E+02  0.65364610618E+02  0.00000000000E+00 0. -1.
         -3   -1    0    0    0  501 -0.00000000000E+00 -0.00000000000E+00 -0.22843296564E+03  0.22843296564E+03  0.00000000000E+00 0.  1.
         25    2    1    2    0    0  0.47098739428E+02  0.17527202758E+02 -0.14507221540E+03  0.19803354495E+03  0.12508334482E+03 0.  0.
         23    2    1    2    0    0 -0.47098739428E+02 -0.17527202758E+02 -0.17996139620E+02  0.95764031311E+02  0.79507198162E+02 0.  0.
          5    1    3    3  502    0 -0.25268560468E+02  0.45076706842E+02 -0.86520818566E+02  0.10086492995E+03  0.41800000000E+01 0.  1.
         -5    1    3    3    0  502  0.72367299895E+02 -0.27549504085E+02 -0.58551396835E+02  0.97168614998E+02  0.41800000000E+01 0.  1.
        -11    1    4    4    0    0  0.16705540146E+02  0.91699415347E+01 -0.18554087519E+02  0.26597313078E+02  0.00000000000E+00 0.  1.
         11    1    4    4    0    0 -0.63804279573E+02 -0.26697144293E+02  0.55794789900E+00  0.69166718233E+02  0.00000000000E+00 0. -1.
</event>
<event>
 8    1  0.3708258E-009  0.2319736E+03  0.7561462E-02  0.1125258E+00
         -1   -1    0    0    0  501 -0.00000000000E+00  0.00000000000E+00  0.57760603042E+02  0.57760603042E+02  0.00000000000E+00 0.  1.
          1   -1    0    0  501    0  0.00000000000E+00 -0.00000000000E+00 -0.12728216385E+04  0.12728216385E+04  0.00000000000E+00 0. -1.
         25    2    1    2    0    0 -0.21815162791E+03 -0.83247551120E+00 -0.91250865322E+03  0.94652532536E+03  0.12508926238E+03 0.  0.
         23    2    1    2    0    0  0.21815162791E+03  0.83247551120E+00 -0.30255238222E+03  0.38405691617E+03  0.91492869087E+02 0.  0.
          5    1    3    3  502    0 -0.96065545544E+02 -0.32327476876E+02 -0.61597890331E+03  0.62427649045E+03  0.41800000000E+01 0. -1.
         -5    1    3    3    0  502 -0.12208608237E+03  0.31495001365E+02 -0.29652974991E+03  0.32224883491E+03  0.41800000000E+01 0. -1.
        -11    1    4    4    0    0 -0.60484704162E+01 -0.10221756949E+02 -0.11877678623E+02  0.16797248554E+02  0.00000000000E+00 0.  1.
         11    1    4    4    0    0  0.22420009833E+03  0.11054232460E+02 -0.29067470359E+03  0.36725966761E+03  0.00000000000E+00 0. -1.
</event>
<event>
 8    1  0.3708258E-009  0.9016272E+02  0.7561462E-02  0.1302458E+00
         -3   -1    0    0    0  501 -0.00000000000E+00  0.00000000000E+00  0.26817677741E+02  0.26817677741E+02  0.00000000000E+00 0.  1.
          3   -1    0    0  501    0  0.00000000000E+00 -0.00000000000E+00 -0.64288509038E+03  0.64288509038E+03  0.00000000000E+00 0. -1.
         25    2    1    2    0    0  0.68427997150E+02  0.14363477922E+02 -0.40069013156E+03  0.42554567926E+03  0.12509133986E+03 0.  0.
         23    2    1    2    0    0 -0.68427997150E+02 -0.14363477922E+02 -0.21537728107E+03  0.24415708886E+03  0.91305041195E+02 0.  0.
          5    1    3    3  502    0  0.40872099501E+02 -0.65388163513E+01 -0.25614337394E+02  0.48855412361E+02  0.41800000000E+01 0.  1.
         -5    1    3    3    0  502  0.27555897650E+02  0.20902294273E+02 -0.37507579417E+03  0.37669026689E+03  0.41800000000E+01 0.  1.
        -11    1    4    4    0    0 -0.10630631761E+02  0.29481010916E+02 -0.23945396669E+02  0.39440111028E+02  0.00000000000E+00 0.  1.
         11    1    4    4    0    0 -0.57797365389E+02 -0.43844488838E+02 -0.19143188440E+03  0.20471697784E+03  0.00000000000E+00 0. -1.
</event>
<event>
 8    1  0.3708258E-009  0.8132787E+02  0.7561462E-02  0.1325325E+00
         -2   -1    0    0    0  501 -0.00000000000E+00  0.00000000000E+00  0.16326217472E+02  0.16326217472E+02  0.00000000000E+00 0.  1.
          2   -1    0    0  501    0  0.00000000000E+00 -0.00000000000E+00 -0.86071740488E+03  0.86071740488E+03  0.00000000000E+00 0. -1.
         25    2    1    2    0    0 -0.45950563511E+02  0.15582104209E+02 -0.47092369227E+03  0.48966365793E+03  0.12508843948E+03 0.  0.
         23    2    1    2    0    0  0.45950563511E+02 -0.15582104209E+02 -0.37346749513E+03  0.38737996442E+03  0.90724917513E+02 0.  0.
          5    1    3    3  502    0 -0.24182709101E+02 -0.10183487226E+02 -0.44772620955E+03  0.44851392169E+03  0.41800000000E+01 0.  1.
         -5    1    3    3    0  502 -0.21767854410E+02  0.25765591434E+02 -0.23197482722E+02  0.41149736235E+02  0.41800000000E+01 0.  1.
        -11    1    4    4    0    0 -0.26310943411E+02  0.53835546848E+01 -0.12069102202E+03  0.12364291811E+03  0.00000000000E+00 0.  1.
         11    1    4    4    0    0  0.72261506922E+02 -0.20965658893E+02 -0.25277647311E+03  0.26373704631E+03  0.00000000000E+00 0. -1.
</event>
<event>
 8    1  0.3708258E-009  0.1112292E+03  0.7561462E-02  0.1258310E+00
          2   -1    0    0  501    0  0.00000000000E+00  0.00000000000E+00  0.45686120470E+03  0.45686120470E+03  0.00000000000E+00 0. -1.
         -2   -1    0    0    0  501 -0.00000000000E+00 -0.00000000000E+00 -0.32579052525E+02  0.32579052525E+02  0.00000000000E+00 0.  1.
         25    2    1    2    0    0  0.11124018376E+02  0.28370624591E+02  0.14135108687E+03  0.19119725213E+03  0.12509046062E+03 0.  0.
         23    2    1    2    0    0 -0.11124018376E+02 -0.28370624591E+02  0.28293106531E+03  0.29824300510E+03  0.89276347636E+02 0.  0.
          5    1    3    3  502    0  0.45980063397E+02 -0.33662325316E+02  0.56106037991E+02  0.80079200013E+02  0.41800000000E+01 0.  1.
         -5    1    3    3    0  502 -0.34856045020E+02  0.62032949906E+02  0.85245048878E+02  0.11111805212E+03  0.41800000000E+01 0.  1.
        -11    1    4    4    0    0 -0.25015995331E+02  0.27086852008E+02  0.99675046354E+02  0.10627611415E+03  0.00000000000E+00 0.  1.
         11    1    4    4    0    0  0.13891976955E+02 -0.55457476599E+02  0.18325601896E+03  0.19196689094E+03  0.00000000000E+00 0. -1.
</event>
<event>
 8    1  0.3708258E-009  0.9330826E+02  0.7561462E-02  0.1295032E+00
          2   -1    0    0  501    0  0.00000000000E+00  0.00000000000E+00  0.45174351136E+03  0.45174351136E+03  0.00000000000E+00 0. -1.
         -2   -1    0    0    0  501 -0.00000000000E+00 -0.00000000000E+00 -0.31956079024E+02  0.31956079024E+02  0.00000000000E+00 0.  1.
         25    2    1    2    0    0  0.43117921372E+01  0.48945765259E+02  0.20152428680E+03  0.24222518530E+03  0.12508686076E+03 0.  0.
         23    2    1    2    0    0 -0.43117921372E+01 -0.48945765259E+02  0.21826314554E+03  0.24147440509E+03  0.90866980379E+02 0.  0.
          5    1    3    3  502    0  0.20270947008E+02 -0.12029288838E+02 -0.65129696736E+01  0.24809398553E+02  0.41800000000E+01 0.  1.
         -5    1    3    3    0  502 -0.15959154871E+02  0.60975054097E+02  0.20803725647E+03  0.21741578674E+03  0.41800000000E+01 0.  1.
        -11    1    4    4    0    0 -0.22509423300E+02  0.18821683014E+02  0.37812979619E+02  0.47861793912E+02  0.00000000000E+00 0.  1.
         11    1    4    4    0    0  0.18197631163E+02 -0.67767448273E+02  0.18045016593E+03  0.19361261118E+03  0.00000000000E+00 0. -1.
</event>
<event>
 8    1  0.3708258E-009  0.1140666E+03  0.7561462E-02  0.1253219E+00
          2   -1    0    0  501    0  0.00000000000E+00  0.00000000000E+00  0.31357440440E+03  0.31357440440E+03  0.00000000000E+00 0. -1.
         -2   -1    0    0    0  501 -0.00000000000E+00 -0.00000000000E+00 -0.64685516519E+02  0.64685516519E+02  0.00000000000E+00 0.  1.
         25    2    1    2    0    0 -0.67869053848E+02 -0.60547002359E+01  0.55010736445E+02  0.15269833808E+03  0.12509090080E+03 0.  0.
         23    2    1    2    0    0  0.67869053848E+02  0.60547002359E+01  0.19387815143E+03  0.22556158284E+03  0.92986139737E+02 0.  0.
          5    1    3    3  502    0 -0.57200224465E+02 -0.52874698076E+02  0.67220634122E+02  0.10297419787E+03  0.41800000000E+01 0. -1.
         -5    1    3    3    0  502 -0.10668829383E+02  0.46819997840E+02 -0.12209897677E+02  0.49724140208E+02  0.41800000000E+01 0. -1.
        -11    1    4    4    0    0  0.71904635308E+02 -0.20733397576E+02  0.84476774971E+02  0.11285599613E+03  0.00000000000E+00 0.  1.
         11    1    4    4    0    0 -0.40355814604E+01  0.26788097812E+02  0.10940137646E+03  0.11270558670E+03  0.00000000000E+00 0. -1.
</event>
<event>
 8    1  0.3708258E-009  0.1112839E+03  0.7561462E-02  0.1258211E+00
         -2   -1    0    0    0  501 -0.00000000000E+00  0.00000000000E+00  0.38698590680E+02  0.38698590680E+02  0.00000000000E+00 0.  1.
          2   -1    0    0  501    0  0.00000000000E+00 -0.00000000000E+00 -0.40826005425E+03  0.40826005425E+03  0.00000000000E+00 0. -1.
         25    2    1    2    0    0  0.37186291066E+02  0.80768239616E+01 -0.29557606469E+03  0.32320271744E+03  0.12508689465E+03 0.  0.
         23    2    1    2    0    0 -0.37186291066E+02 -0.80768239616E+01 -0.73985398883E+02  0.12375592749E+03  0.91616783469E+02 0.  0.
          5    1    3    3  502    0  0.80030575566E+02 -0.13310528224E+02 -0.20801578784E+03  0.22331615163E+03  0.41800000000E+01 0.  1.
         -5    1    3    3    0  502 -0.42844284499E+02  0.21387352186E+02 -0.87560276846E+02  0.99886565809E+02  0.41800000000E+01 0.  1.
        -11    1    4    4    0    0  0.13477135290E+02 -0.33839829810E+02 -0.50480458207E+02  0.62249850747E+02  0.00000000000E+00 0. -1.
         11    1    4    4    0    0 -0.50663426356E+02  0.25763005849E+02 -0.23504940676E+02  0.61506076746E+02  0.00000000000E+00 0.  1.
</event>
<event>
 8    1  0.3708258E-009  0.1817737E+03  0.7561462E-02  0.1166097E+00
          2   -1    0    0  501    0  0.00000000000E+00  0.00000000000E+00  0.37422324639E+03  0.37422324639E+03  0.00000000000E+00 0. -1.
         -2   -1    0    0    0  501 -0.00000000000E+00 -0.00000000000E+00 -0.90662577577E+02  0.90662577577E+02  0.00000000000E+00 0.  1.
         25    2    1    2    0    0 -0.13868993941E+03  0.45820725972E+02  0.18608468942E+03  0.26760192953E+03  0.12509533498E+03 0.  0.
         23    2    1    2    0    0  0.13868993941E+03 -0.45820725972E+02  0.97475979395E+02  0.19728389443E+03  0.89916240037E+02 0.  0.
          5    1    3    3  502    0 -0.10717650306E+03  0.88391280256E+02  0.13990830777E+03  0.19720960478E+03  0.41800000000E+01 0.  1.
         -5    1    3    3    0  502 -0.31513436349E+02 -0.42570554284E+02  0.46176381646E+02  0.70392324756E+02  0.41800000000E+01 0.  1.
        -11    1    4    4    0    0  0.72007977746E+02 -0.70072446467E+02  0.60273981274E+02  0.11716761255E+03  0.00000000000E+00 0. -1.
         11    1    4    4    0    0  0.66681961662E+02  0.24251720495E+02  0.37201998121E+02  0.80116281880E+02  0.00000000000E+00 0.  1.
</event>
<event>
 8    1  0.3708258E-009  0.1602882E+03  0.7561462E-02  0.1188372E+00
         -2   -1    0    0    0  501 -0.00000000000E+00  0.00000000000E+00  0.53734963294E+02  0.53734963294E+02  0.00000000000E+00 0.  1.
          2   -1    0    0  501    0  0.00000000000E+00 -0.00000000000E+00 -0.52122915218E+03  0.52122915218E+03  0.00000000000E+00 0. -1.
         25    2    1    2    0    0  0.10272726356E+02 -0.12131851355E+03 -0.30731281475E+03  0.35342858618E+03  0.12508752450E+03 0.  0.
         23    2    1    2    0    0 -0.10272726356E+02  0.12131851355E+03 -0.16018137413E+03  0.22153552929E+03  0.92715734802E+02 0.  0.
          5    1    3    3  502    0  0.47172794290E+02 -0.61608089429E+01 -0.13234944861E+03  0.14070208611E+03  0.41800000000E+01 0.  1.
         -5    1    3    3    0  502 -0.36900067934E+02 -0.11515770461E+03 -0.17496336614E+03  0.21272650008E+03  0.41800000000E+01 0.  1.
        -11    1    4    4    0    0 -0.50774227279E+02  0.68107702715E+02 -0.75654194363E+02  0.11375516889E+03  0.00000000000E+00 0.  1.
         11    1    4    4    0    0  0.40501500923E+02  0.53210810836E+02 -0.84527179770E+02  0.10778036039E+03  0.00000000000E+00 0. -1.
</event>
<event>
 8    1  0.3708258E-009  0.1510764E+03  0.7561462E-02  0.1199157E+00
          4   -1    0    0  501    0  0.00000000000E+00  0.00000000000E+00  0.12265856008E+04  0.12265856008E+04  0.00000000000E+00 0. -1.
         -4   -1    0    0    0  501 -0.00000000000E+00 -0.00000000000E+00 -0.24656284956E+02  0.24656284956E+02  0.00000000000E+00 0.  1.
         25    2    1    2    0    0 -0.67701309000E+02 -0.92940435664E+02  0.89986579009E+03  0.91576619384E+03  0.12509152568E+03 0.  0.
         23    2    1    2    0    0  0.67701309000E+02  0.92940435664E+02  0.30206352580E+03  0.33547569196E+03  0.89889790594E+02 0.  0.
          5    1    3    3  502    0 -0.17848627156E+02 -0.10495917365E+03  0.42629194879E+03  0.43940562084E+03  0.41800000000E+01 0.  1.
         -5    1    3    3    0  502 -0.49852681844E+02  0.12018737983E+02  0.47357384130E+03  0.47636057300E+03  0.41800000000E+01 0.  1.
        -11    1    4    4    0    0  0.85367590679E+02  0.53003500182E+02  0.23327012303E+03  0.25399202127E+03  0.00000000000E+00 0. -1.
         11    1    4    4    0    0 -0.17666281679E+02  0.39936935481E+02  0.68793402774E+02  0.81483670691E+02  0.00000000000E+00 0.  1.
</event>
<event>
 8    1  0.3708258E-009  0.1862184E+03  0.7561462E-02  0.1161917E+00
          1   -1    0    0  501    0  0.00000000000E+00  0.00000000000E+00  0.25361958111E+03  0.25361958111E+03  0.00000000000E+00 0. -1.
         -1   -1    0    0    0  501 -0.00000000000E+00 -0.00000000000E+00 -0.15247475665E+03  0.15247475665E+03  0.00000000000E+00 0.  1.
         25    2    1    2    0    0  0.16152516999E+03 -0.38696355483E+02  0.37802793372E+02  0.21133738098E+03  0.12508656581E+03 0.  0.
         23    2    1    2    0    0 -0.16152516999E+03  0.38696355483E+02  0.63342031085E+02  0.19475695677E+03  0.79562999198E+02 0.  0.
          5    1    3    3  502    0  0.69539080427E+02 -0.79406636665E+02  0.62039150816E+01  0.10581615479E+03  0.41800000000E+01 0. -1.
         -5    1    3    3    0  502  0.91986089564E+02  0.40710281181E+02  0.31598878291E+02  0.10552122619E+03  0.41800000000E+01 0. -1.
        -11    1    4    4    0    0 -0.30712242280E+02  0.61308525302E+01  0.50391596083E+02  0.59330785722E+02  0.00000000000E+00 0. -1.
         11    1    4    4    0    0 -0.13081292771E+03  0.32565502953E+02  0.12950435002E+02  0.13542617105E+03  0.00000000000E+00 0.  1.
</event>
<event>
 8    1  0.3708258E-009  0.1390107E+03  0.7561462E-02  0.1214666E+00
          1   -1    0    0  501    0  0.00000000000E+00  0.00000000000E+00  0.27134267240E+03  0.27134267240E+03  0.00000000000E+00 0. -1.
         -1   -1    0    0    0  501 -0.00000000000E+00 -0.00000000000E+00 -0.80955228385E+02  0.80955228385E+02  0.00000000000E+00 0.  1.
         25    2    1    2    0    0 -0.61524039432E+02 -0.63958984665E+02  0.15946774981E+03  0.22125466257E+03  0.12509078035E+03 0.  0.
         23    2    1    2    0    0  0.61524039432E+02  0.63958984665E+02  0.30919694201E+02  0.13104323822E+03  0.91325481913E+02 0.  0.
          5    1    3    3  502    0 -0.75659286548E+02 -0.92394936922E+02  0.13873279634E+03  0.18309946256E+03  0.41800000000E+01 0.  1.
         -5    1    3    3    0  502  0.14135247115E+02  0.28435952257E+02  0.20734953472E+02  0.38155200003E+02  0.41800000000E+01 0.  1.
        -11    1    4    4    0    0  0.56531536953E+02 -0.55568258955E+01  0.64109698662E+01  0.57164617719E+02  0.00000000000E+00 0. -1.
         11    1    4    4    0    0  0.49925024794E+01  0.69515810560E+02  0.24508724335E+02  0.73878620503E+02  0.00000000000E+00 0.  1.
</event>
<event>
 8    1  0.3708258E-009  0.8315552E+02  0.7561462E-02  0.1320328E+00
          1   -1    0    0  501    0  0.00000000000E+00  0.00000000000E+00  0.41793032394E+03  0.41793032394E+03  0.00000000000E+00 0. -1.
         -1   -1    0    0    0  501 -0.00000000000E+00 -0.00000000000E+00 -0.36279905272E+02  0.36279905272E+02  0.00000000000E+00 0.  1.
         25    2    1    2    0    0  0.10611721537E+01  0.37575887073E+02  0.13377604283E+03  0.18696657363E+03  0.12508955449E+03 0.  0.
         23    2    1    2    0    0 -0.10611721537E+01 -0.37575887073E+02  0.24787437584E+03  0.26724365558E+03  0.92543999685E+02 0.  0.
          5    1    3    3  502    0 -0.22925246304E+02  0.36150397734E+02  0.15106643299E+03  0.15706991358E+03  0.41800000000E+01 0. -1.
         -5    1    3    3    0  502  0.23986418458E+02  0.14254893387E+01 -0.17290390161E+02  0.29896660051E+02  0.41800000000E+01 0. -1.
        -11    1    4    4    0    0  0.20123448030E+02 -0.62814951412E+02  0.14690392921E+03  0.16103240574E+03  0.00000000000E+00 0. -1.
         11    1    4    4    0    0 -0.21184620184E+02  0.25239064339E+02  0.10097044663E+03  0.10621124985E+03  0.00000000000E+00 0.  1.
</event>
<event>
 8    1  0.3708258E-009  0.1067844E+03  0.7561462E-02  0.1266643E+00
          1   -1    0    0  501    0  0.00000000000E+00  0.00000000000E+00  0.70693211211E+02  0.70693211211E+02  0.00000000000E+00 0. -1.
         -1   -1    0    0    0  501 -0.00000000000E+00 -0.00000000000E+00 -0.31754504049E+03  0.31754504049E+03  0.00000000000E+00 0.  1.
         25    2    1    2    0    0  0.74660408155E+02 -0.59665775884E+01 -0.23410480898E+03  0.27578505711E+03  0.12507021844E+03 0.  0.
         23    2    1    2    0    0 -0.74660408155E+02  0.59665775884E+01 -0.12747020298E+02  0.11245319460E+03  0.82906319753E+02 0.  0.
          5    1    3    3  502    0  0.85183989634E+02 -0.23432123945E+02 -0.23862130528E+03  0.25448570934E+03  0.41800000000E+01 0.  1.
         -5    1    3    3    0  502 -0.10523581479E+02  0.17465546357E+02  0.45164962952E+01  0.21299347771E+02  0.41800000000E+01 0.  1.
        -11    1    4    4    0    0 -0.57489232999E+02  0.37333305405E+02  0.11143593902E+02  0.69447586627E+02  0.00000000000E+00 0. -1.
         11    1    4    4    0    0 -0.17171175157E+02 -0.31366727817E+02 -0.23890614200E+02  0.43005607972E+02  0.00000000000E+00 0.  1.
</event>
<event>
 8    1  0.3708258E-009  0.1049305E+03  0.7561462E-02  0.1270257E+00
         -1   -1    0    0    0  501 -0.00000000000E+00  0.00000000000E+00  0.62451016230E+02  0.62451016230E+02  0.00000000000E+00 0.  1.
          1   -1    0    0  501    0  0.00000000000E+00 -0.00000000000E+00 -0.20105247027E+03  0.20105247027E+03  0.00000000000E+00 0. -1.
         25    2    1    2    0    0  0.97624049455E+00  0.18456252063E+02 -0.12191630047E+03  0.17564906289E+03  0.12508965860E+03 0.  0.
         23    2    1    2    0    0 -0.97624049455E+00 -0.18456252063E+02 -0.16685153561E+02  0.87854423602E+02  0.84252116361E+02 0.  0.
          5    1    3    3  502    0 -0.21097158358E+02  0.66876888818E+02 -0.87186664821E+02  0.11196693830E+03  0.41800000000E+01 0.  1.
         -5    1    3    3    0  502  0.22073398853E+02 -0.48420636755E+02 -0.34729635653E+02  0.63682124598E+02  0.41800000000E+01 0.  1.
        -11    1    4    4    0    0  0.35815025306E+02 -0.30993573241E+02 -0.10173775395E+02  0.48444022600E+02  0.00000000000E+00 0.  1.
         11    1    4    4    0    0 -0.36791265800E+02  0.12537321178E+02 -0.65113781661E+01  0.39410401002E+02  0.00000000000E+00 0. -1.
</event>
<event>
 8    1  0.3708258E-009  0.1881024E+03  0.7561462E-02  0.1160184E+00
         -1   -1    0    0    0  501 -0.00000000000E+00  0.00000000000E+00  0.14385576548E+03  0.14385576548E+03  0.00000000000E+00 0.  1.
          1   -1    0    0  501    0  0.00000000000E+00 -0.00000000000E+00 -0.31251500189E+03  0.31251500189E+03  0.00000000000E+00 0. -1.
         25    2    1    2    0    0 -0.53874878859E+02  0.17105116803E+03 -0.61300857624E+02  0.22708314853E+03  0.12509179246E+03 0.  0.
         23    2    1    2    0    0  0.53874878859E+02 -0.17105116803E+03 -0.10735837879E+03  0.22928761884E+03  0.94265508008E+02 0.  0.
          5    1    3    3  502    0  0.90866705311E+01  0.77285901609E+02 -0.80952186461E+02  0.11236728644E+03  0.41800000000E+01 0. -1.
         -5    1    3    3    0  502 -0.62961549390E+02  0.93765266424E+02  0.19651328838E+02  0.11471586209E+03  0.41800000000E+01 0. -1.
        -11    1    4    4    0    0  0.38635098425E+02 -0.16395090168E+03 -0.59630505655E+02  0.17868510345E+03  0.00000000000E+00 0.  1.
         11    1    4    4    0    0  0.15239780434E+02 -0.71002663565E+01 -0.47727873130E+02  0.50602515387E+02  0.00000000000E+00 0. -1.
</event>
<event>
 8    1  0.3708258E-009  0.1385429E+03  0.7561462E-02  0.1215303E+00
         -2   -1    0    0    0  501 -0.00000000000E+00  0.00000000000E+00  0.65605134614E+02  0.65605134614E+02  0.00000000000E+00 0.  1.
          2   -1    0    0  501    0  0.00000000000E+00 -0.00000000000E+00 -0.60193570255E+03  0.60193570255E+03  0.00000000000E+00 0. -1.
         25    2    1    2    0    0  0.11797368306E+03 -0.33601815344E+02 -0.46860907188E+03  0.50029095987E+03  0.12509880250E+03 0.  0.
         23    2    1    2    0    0 -0.11797368306E+03  0.33601815344E+02 -0.67721496052E+02  0.16724987729E+03  0.91320581129E+02 0.  0.
          5    1    3    3  502    0  0.11262921991E+03 -0.19150883746E+02 -0.47052294283E+03  0.48421215356E+03  0.41800000000E+01 0.  1.
         -5    1    3    3    0  502  0.53444631531E+01 -0.14450931598E+02  0.19138709439E+01  0.16078806313E+02  0.41800000000E+01 0.  1.
        -11    1    4    4    0    0 -0.22949518338E+02 -0.25960914473E+02  0.28128766773E+01  0.34764374688E+02  0.00000000000E+00 0.  1.
         11    1    4    4    0    0 -0.95024164723E+02  0.59562729817E+02 -0.70534372730E+02  0.13248550261E+03  0.00000000000E+00 0. -1.
</event>
<event>
 8    1  0.3708258E-009  0.6555635E+02  0.7561462E-02  0.1375891E+00
         -1   -1    0    0    0  501 -0.00000000000E+00  0.00000000000E+00  0.28343812925E+03  0.28343812925E+03  0.00000000000E+00 0.  1.
          1   -1    0    0  501    0  0.00000000000E+00 -0.00000000000E+00 -0.58526739115E+02  0.58526739115E+02  0.00000000000E+00 0. -1.
         25    2    1    2    0    0  0.11103224594E+02 -0.46595090549E+02  0.19073920057E+03  0.23307129340E+03  0.12508557515E+03 0.  0.
         23    2    1    2    0    0 -0.11103224594E+02  0.46595090549E+02  0.34172189560E+02  0.10889357496E+03  0.91627987371E+02 0.  0.
          5    1    3    3  502    0  0.18004199612E+02 -0.49717424225E+02  0.12334807391E+02  0.54457261670E+02  0.41800000000E+01 0.  1.
         -5    1    3    3    0  502 -0.69009750179E+01  0.31223336763E+01  0.17840439318E+03  0.17861403173E+03  0.41800000000E+01 0.  1.
        -11    1    4    4    0    0 -0.30903954270E+02  0.22471439708E+02  0.58119776043E+02  0.69555218060E+02  0.00000000000E+00 0.  1.
         11    1    4    4    0    0  0.19800729676E+02  0.24123650840E+02 -0.23947586483E+02  0.39338356904E+02  0.00000000000E+00 0. -1.
</event>
<event>
 8    1  0.3708258E-009  0.1003839E+03  0.7561462E-02  0.1279491E+00
         -1   -1    0    0    0  501 -0.00000000000E+00  0.00000000000E+00  0.51363879364E+02  0.51363879364E+02  0.00000000000E+00 0.  1.
          1   -1    0    0  501    0  0.00000000000E+00 -0.00000000000E+00 -0.28462562761E+03  0.28462562761E+03  0.00000000000E+00 0. -1.
         25    2    1    2    0    0 -0.14005085723E+02 -0.20881655825E+02 -0.20339489089E+03  0.24010351489E+03  0.12509208706E+03 0.  0.
         23    2    1    2    0    0  0.14005085723E+02  0.20881655825E+02 -0.29866857360E+02  0.95885992089E+02  0.87578012847E+02 0.  0.
          5    1    3    3  502    0 -0.24342303024E+02  0.49823780818E+02 -0.79525940777E+02  0.97040221084E+02  0.41800000000E+01 0. -1.
         -5    1    3    3    0  502  0.10337217301E+02 -0.70705436643E+02 -0.12386895011E+03  0.14306329381E+03  0.41800000000E+01 0. -1.
        -11    1    4    4    0    0  0.37543886679E+02  0.30280202218E+02  0.94087318518E+01  0.49142225310E+02  0.00000000000E+00 0. -1.
         11    1    4    4    0    0 -0.23538800956E+02 -0.93985463932E+01 -0.39275589212E+02  0.46743766779E+02  0.00000000000E+00 0.  1.
</event>
<event>
 8    1  0.3708258E-009  0.1896793E+03  0.7561462E-02  0.1158751E+00
         -3   -1    0    0    0  501 -0.00000000000E+00  0.00000000000E+00  0.34778188037E+03  0.34778188037E+03  0.00000000000E+00 0.  1.
          3   -1    0    0  501    0  0.00000000000E+00 -0.00000000000E+00 -0.13990886810E+03  0.13990886810E+03  0.00000000000E+00 0. -1.
         25    2    1    2    0    0  0.12153763637E+03  0.13639590164E+03  0.40412032110E+02  0.22506408063E+03  0.12508184926E+03 0.  0.
         23    2    1    2    0    0 -0.12153763637E+03 -0.13639590164E+03  0.16746098017E+03  0.26262666784E+03  0.86915750838E+02 0.  0.
          5    1    3    3  502    0  0.75473575247E+02  0.67351916562E+02  0.83699919202E+02  0.13136091542E+03  0.41800000000E+01 0.  1.
         -5    1    3    3    0  502  0.46064061125E+02  0.69043985074E+02 -0.43287887093E+02  0.93703165214E+02  0.41800000000E+01 0.  1.
        -11    1    4    4    0    0 -0.12937449005E+03 -0.11836598781E+03  0.12352160047E+03  0.21448974691E+03  0.00000000000E+00 0. -1.
         11    1    4    4    0    0  0.78368536832E+01 -0.18029913824E+02  0.43939379698E+02  0.48136920927E+02  0.00000000000E+00 0.  1.
</event>
<event>
 8    1  0.3708258E-009  0.1246273E+03  0.7561462E-02  0.1235653E+00
          2   -1    0    0  501    0  0.00000000000E+00  0.00000000000E+00  0.23869362574E+03  0.23869362574E+03  0.00000000000E+00 0.  1.
         -2   -1    0    0    0  501 -0.00000000000E+00 -0.00000000000E+00 -0.76548535467E+02  0.76548535467E+02  0.00000000000E+00 0. -1.
         25    2    1    2    0    0  0.55388069249E+02  0.38992092375E+02  0.37482469411E+02  0.14710835129E+03  0.12509080711E+03 0.  0.
         23    2    1    2    0    0 -0.55388069249E+02 -0.38992092375E+02  0.12466262086E+03  0.16813380991E+03  0.90221879350E+02 0.  0.
          5    1    3    3  502    0  0.42977402264E+02 -0.39299112016E+02  0.34192102160E+02  0.67661285539E+02  0.41800000000E+01 0. -1.
         -5    1    3    3    0  502  0.12410666985E+02  0.78291204391E+02  0.32903672509E+01  0.79447065752E+02  0.41800000000E+01 0. -1.
        -11    1    4    4    0    0 -0.54491453486E+02  0.15764187681E+02  0.50535033192E+02  0.75971163582E+02  0.00000000000E+00 0. -1.
         11    1    4    4    0    0 -0.89661576257E+00 -0.54756280055E+02  0.74127587668E+02  0.92162646331E+02  0.00000000000E+00 0.  1.
</event>
<event>
 8    1  0.3708258E-009  0.1263370E+03  0.7561462E-02  0.1232994E+00
         -1   -1    0    0    0  501 -0.00000000000E+00  0.00000000000E+00  0.90894362226E+02  0.90894362226E+02  0.00000000000E+00 0.  1.
          1   -1    0    0  501    0  0.00000000000E+00 -0.00000000000E+00 -0.20827986794E+03  0.20827986794E+03  0.00000000000E+00 0. -1.
         25    2    1    2    0    0 -0.34101002145E+02  0.74924464144E+02 -0.78546513414E+02  0.16909692979E+03  0.12509062004E+03 0.  0.
         23    2    1    2    0    0  0.34101002145E+02 -0.74924464144E+02 -0.38838992304E+02  0.13007730038E+03  0.92925147705E+02 0.  0.
          5    1    3    3  502    0  0.37385962011E+01  0.88127683746E+02 -0.90560029061E+01  0.88769078696E+02  0.41800000000E+01 0.  1.
         -5    1    3    3    0  502 -0.37839598346E+02 -0.13203219602E+02 -0.69490510508E+02  0.80327851095E+02  0.41800000000E+01 0.  1.
        -11    1    4    4    0    0  0.64421350177E+02 -0.66539424339E+02 -0.27082668446E+02  0.96493918358E+02  0.00000000000E+00 0.  1.
         11    1    4    4    0    0 -0.30320348031E+02 -0.83850398053E+01 -0.11756323858E+02  0.33583382020E+02  0.00000000000E+00 0. -1.
</event>
<event>
 8    1  0.3708258E-009  0.9165340E+02  0.7561462E-02  0.1298896E+00
          2   -1    0    0  501    0  0.00000000000E+00  0.00000000000E+00  0.11113157644E+03  0.11113157644E+03  0.00000000000E+00 0. -1.
         -2   -1    0    0    0  501 -0.00000000000E+00 -0.00000000000E+00 -0.13823821461E+03  0.13823821461E+03  0.00000000000E+00 0.  1.
         25    2    1    2    0    0 -0.19125797582E+01  0.57332316947E+02  0.37687221158E+01  0.13766846242E+03  0.12509096590E+03 0.  0.
         23    2    1    2    0    0  0.19125797582E+01 -0.57332316947E+02 -0.30875360283E+02  0.11170132863E+03  0.90737238319E+02 0.  0.
          5    1    3    3  502    0 -0.18726205324E+02 -0.51677210978E+01 -0.49756123199E+02  0.53577236799E+02  0.41800000000E+01 0.  1.
         -5    1    3    3    0  502  0.16813625565E+02  0.62500038045E+02  0.53524845315E+02  0.84091225620E+02  0.41800000000E+01 0.  1.
        -11    1    4    4    0    0  0.31666772792E+02  0.24912189181E+01 -0.31707696706E+02  0.44881719008E+02  0.00000000000E+00 0.  1.
         11    1    4    4    0    0 -0.29754193033E+02 -0.59823535866E+02  0.83233642226E+00  0.66819609625E+02  0.00000000000E+00 0. -1.
</event>
<event>
 8    1  0.3708258E-009  0.1332577E+03  0.7561462E-02  0.1222700E+00
         -2   -1    0    0    0  501 -0.00000000000E+00  0.00000000000E+00  0.22399208008E+02  0.22399208008E+02  0.00000000000E+00 0.  1.
          2   -1    0    0  501    0  0.00000000000E+00 -0.00000000000E+00 -0.91940946862E+03  0.91940946862E+03  0.00000000000E+00 0. -1.
         25    2    1    2    0    0 -0.39931242641E+02  0.82582898281E+02 -0.44644729278E+03  0.47262852076E+03  0.12509234260E+03 0.  0.
         23    2    1    2    0    0  0.39931242641E+02 -0.82582898281E+02 -0.45056296784E+03  0.46918015587E+03  0.93319834182E+02 0.  0.
          5    1    3    3  502    0  0.13744995937E+02  0.87138036691E+02 -0.17690413188E+03  0.19772330826E+03  0.41800000000E+01 0.  1.
         -5    1    3    3    0  502 -0.53676238578E+02 -0.45551384100E+01 -0.26954316089E+03  0.27490521250E+03  0.41800000000E+01 0.  1.
        -11    1    4    4    0    0 -0.26301342389E+02 -0.27157910436E+02 -0.77217836054E+02  0.85976199704E+02  0.00000000000E+00 0.  1.
         11    1    4    4    0    0  0.66232585030E+02 -0.55424987845E+02 -0.37334513178E+03  0.38320395617E+03  0.00000000000E+00 0. -1.
</event>
<event>
 8    1  0.3708258E-009  0.1181526E+03  0.7561462E-02  0.1246176E+00
         -1   -1    0    0    0  501 -0.00000000000E+00  0.00000000000E+00  0.27401420109E+03  0.27401420109E+03  0.00000000000E+00 0. -1.
          1   -1    0    0  501    0  0.00000000000E+00 -0.00000000000E+00 -0.58274526388E+02  0.58274526388E+02  0.00000000000E+00 0.  1.
         25    2    1    2    0    0  0.33884268140E+02  0.55132220635E+02  0.13433530835E+03  0.19463138899E+03  0.12509075558E+03 0.  0.
         23    2    1    2    0    0 -0.33884268140E+02 -0.55132220635E+02  0.81404366355E+02  0.13765733849E+03  0.90195158395E+02 0.  0.
          5    1    3    3  502    0 -0.45546832799E+02  0.37876299154E+02  0.59523434689E+02  0.84081149450E+02  0.41800000000E+01 0. -1.
         -5    1    3    3    0  502  0.79431100939E+02  0.17255921480E+02  0.74811873656E+02  0.11055023954E+03  0.41800000000E+01 0. -1.
        -11    1    4    4    0    0 -0.54335987804E+02 -0.26799361324E+02  0.14682659316E+02  0.62339279933E+02  0.00000000000E+00 0.  1.
         11    1    4    4    0    0  0.20451719664E+02 -0.28332859311E+02  0.66721707039E+02  0.75318058553E+02  0.00000000000E+00 0. -1.
</event>
<event>
 8    1  0.3708258E-009  0.8141000E+02  0.7561462E-02  0.1325097E+00
          2   -1    0    0  501    0  0.00000000000E+00  0.00000000000E+00  0.74380615934E+02  0.74380615934E+02  0.00000000000E+00 0.  1.
         -2   -1    0    0    0  501 -0.00000000000E+00 -0.00000000000E+00 -0.19137622088E+03  0.19137622088E+03  0.00000000000E+00 0. -1.
         25    2    1    2    0    0 -0.25907636402E+02  0.81165024849E+01 -0.12930497059E+02  0.12865283058E+03  0.12508904759E+03 0.  0.
         23    2    1    2    0    0  0.25907636402E+02 -0.81165024849E+01 -0.10406510789E+03  0.13710400623E+03  0.85034573021E+02 0.  0.
          5    1    3    3  502    0  0.30247976889E+02 -0.20472830341E+01 -0.51316366826E+02  0.59749254204E+02  0.41800000000E+01 0.  1.
         -5    1    3    3    0  502 -0.56155613291E+02  0.10163785519E+02  0.38385869767E+02  0.68903576380E+02  0.41800000000E+01 0.  1.
        -11    1    4    4    0    0 -0.10372588059E+02  0.24250333536E+02 -0.77144871740E+02  0.81529138935E+02  0.00000000000E+00 0. -1.
         11    1    4    4    0    0  0.36280224461E+02 -0.32366836021E+02 -0.26920236150E+02  0.55574867300E+02  0.00000000000E+00 0.  1.
</event>
<event>
 8    1  0.3708258E-009  0.1097539E+03  0.7561462E-02  0.1261026E+00
          3   -1    0    0  501    0  0.00000000000E+00  0.00000000000E+00  0.82661798729E+02  0.82661798729E+02  0.00000000000E+00 0. -1.
         -3   -1    0    0    0  501 -0.00000000000E+00 -0.00000000000E+00 -0.21544173957E+03  0.21544173957E+03  0.00000000000E+00 0.  1.
         25    2    1    2    0    0 -0.34765770240E+02  0.35290852902E+02 -0.14017651344E+03  0.19429629450E+03  0.12508993588E+03 0.  0.
         23    2    1    2    0    0  0.34765770240E+02 -0.35290852902E+02  0.73965725991E+01  0.10380724379E+03  0.90923767514E+02 0.  0.
          5    1    3    3  502    0  0.40502315470E+02  0.22885606201E+02 -0.94164745393E+02  0.10511260726E+03  0.41800000000E+01 0. -1.
         -5    1    3    3    0  502 -0.75268085710E+02  0.12405246700E+02 -0.46011768046E+02  0.89183687246E+02  0.41800000000E+01 0. -1.
        -11    1    4    4    0    0 -0.25989484245E+02 -0.22362600010E+02  0.21018123854E+02  0.40215677302E+02  0.00000000000E+00 0. -1.
         11    1    4    4    0    0  0.60755254485E+02 -0.12928252892E+02 -0.13621551255E+02  0.63591566492E+02  0.00000000000E+00 0.  1.
</event>
<event>
 8    1  0.3708258E-009  0.2290668E+03  0.7561462E-02  0.1127298E+00
          2   -1    0    0  501    0  0.00000000000E+00  0.00000000000E+00  0.24110214622E+03  0.24110214622E+03  0.00000000000E+00 0. -1.
         -2   -1    0    0    0  501 -0.00000000000E+00 -0.00000000000E+00 -0.28871197116E+03  0.28871197116E+03  0.00000000000E+00 0.  1.
         25    2    1    2    0    0  0.20540502695E+03 -0.58084432868E+02 -0.13446202594E+03  0.28158913873E+03  0.12508948873E+03 0.  0.
         23    2    1    2    0    0 -0.20540502695E+03  0.58084432868E+02  0.86852201008E+02  0.24822497865E+03  0.92235073420E+02 0.  0.
          5    1    3    3  502    0  0.15573403783E+03  0.11725771655E+00 -0.13316640327E+03  0.20494845120E+03  0.41800000000E+01 0. -1.
         -5    1    3    3    0  502  0.49670989115E+02 -0.58201690585E+02 -0.12956226760E+01  0.76640687528E+02  0.41800000000E+01 0. -1.
        -11    1    4    4    0    0 -0.52153607863E+02  0.49999526764E+02  0.74322968895E+00  0.72253054469E+02  0.00000000000E+00 0.  1.
         11    1    4    4    0    0 -0.15325141909E+03  0.80849061039E+01  0.86108971319E+02  0.17597192418E+03  0.00000000000E+00 0. -1.
</event>
<event>
 8    1  0.3708258E-009  0.1501380E+03  0.7561462E-02  0.1200303E+00
         -2   -1    0    0    0  501 -0.00000000000E+00  0.00000000000E+00  0.48643609137E+02  0.48643609137E+02  0.00000000000E+00 0.  1.
          2   -1    0    0  501    0  0.00000000000E+00 -0.00000000000E+00 -0.62432335813E+03  0.62432335813E+03  0.00000000000E+00 0. -1.
         25    2    1    2    0    0  0.10316821084E+03  0.88131531708E+02 -0.28048016299E+03  0.33574907122E+03  0.12508984925E+03 0.  0.
         23    2    1    2    0    0 -0.10316821084E+03 -0.88131531708E+02 -0.29519958601E+03  0.33721789605E+03  0.90345266774E+02 0.  0.
          5    1    3    3  502    0  0.97217095957E+01  0.48800102060E+02 -0.20027537462E+03  0.20640653981E+03  0.41800000000E+01 0.  1.
         -5    1    3    3    0  502  0.93446501245E+02  0.39331429648E+02 -0.80204788368E+02  0.12934253140E+03  0.41800000000E+01 0.  1.
        -11    1    4    4    0    0 -0.21192261253E+02  0.78912654990E+01 -0.11492332235E+03  0.11712708494E+03  0.00000000000E+00 0. -1.
         11    1    4    4    0    0 -0.81975949588E+02 -0.96022797207E+02 -0.18027626366E+03  0.22009081111E+03  0.00000000000E+00 0.  1.
</event>
<event>
 8    1  0.3708258E-009  0.1080670E+03  0.7561462E-02  0.1264192E+00
          1   -1    0    0  501    0  0.00000000000E+00  0.00000000000E+00  0.25067932387E+03  0.25067932387E+03  0.00000000000E+00 0. -1.
         -1   -1    0    0    0  501 -0.00000000000E+00 -0.00000000000E+00 -0.70070547273E+02  0.70070547273E+02  0.00000000000E+00 0.  1.
         25    2    1    2    0    0 -0.58957120670E+02 -0.11193721715E+02  0.15224685942E+03  0.20597268562E+03  0.12507757406E+03 0.  0.
         23    2    1    2    0    0  0.58957120670E+02  0.11193721715E+02  0.28361917170E+02  0.11477718552E+03  0.93638466918E+02 0.  0.
          5    1    3    3  502    0 -0.50457266568E+02  0.39395913402E+02  0.25248978299E+02  0.68941693099E+02  0.41800000000E+01 0. -1.
         -5    1    3    3    0  502 -0.84998541024E+01 -0.50589635117E+02  0.12699788112E+03  0.13703099252E+03  0.41800000000E+01 0. -1.
        -11    1    4    4    0    0  0.76451207821E+02 -0.50809948913E+01 -0.13724699566E+01  0.76632156176E+02  0.00000000000E+00 0.  1.
         11    1    4    4    0    0 -0.17494087151E+02  0.16274716606E+02  0.29734387126E+02  0.38145029344E+02  0.00000000000E+00 0. -1.
</event>
<event>
 8    1  0.3708258E-009  0.1142081E+03  0.7561462E-02  0.1252970E+00
          3   -1    0    0  501    0  0.00000000000E+00  0.00000000000E+00  0.15102484447E+03  0.15102484447E+03  0.00000000000E+00 0. -1.
         -3   -1    0    0    0  501 -0.00000000000E+00 -0.00000000000E+00 -0.98712642411E+02  0.98712642411E+02  0.00000000000E+00 0.  1.
         25    2    1    2    0    0 -0.68649442040E+01  0.56400035636E+02  0.42541809686E+02  0.14382339707E+03  0.12508905825E+03 0.  0.
         23    2    1    2    0    0  0.68649442040E+01 -0.56400035636E+02  0.97703923752E+01  0.10591408982E+03  0.88849549104E+02 0.  0.
          5    1    3    3  502    0 -0.32555570380E+02 -0.23075705034E+02 -0.14422878897E+02  0.42636195436E+02  0.41800000000E+01 0.  1.
         -5    1    3    3    0  502  0.25690626176E+02  0.79475740670E+02  0.56964688583E+02  0.10118720163E+03  0.41800000000E+01 0.  1.
        -11    1    4    4    0    0 -0.22086497590E+01 -0.79663311175E+02  0.12960617264E+02  0.80740936835E+02  0.00000000000E+00 0.  1.
         11    1    4    4    0    0  0.90735939630E+01  0.23263275539E+02 -0.31902248888E+01  0.25173152982E+02  0.00000000000E+00 0. -1.
</event>
<event>
 8    1  0.3708258E-009  0.9005889E+02  0.7561462E-02  0.1302709E+00
          2   -1    0    0  501    0  0.00000000000E+00  0.00000000000E+00  0.40338368591E+03  0.40338368591E+03  0.00000000000E+00 0. -1.
         -2   -1    0    0    0  501 -0.00000000000E+00 -0.00000000000E+00 -0.12423441800E+03  0.12423441800E+03  0.00000000000E+00 0.  1.
         25    2    1    2    0    0 -0.29792524317E+02  0.79316409090E+02  0.34763788570E+03  0.37905376619E+03  0.12510384021E+03 0.  0.
         23    2    1    2    0    0  0.29792524317E+02 -0.79316409090E+02 -0.68488617796E+02  0.14856433771E+03  0.10100487323E+03 0.  0.
          5    1    3    3  502    0 -0.23840753660E+02  0.52908752868E+02  0.40957706105E+02  0.71152819723E+02  0.41800000000E+01 0.  1.
         -5    1    3    3    0  502 -0.59517706565E+01  0.26407656222E+02  0.30668017960E+03  0.30790094647E+03  0.41800000000E+01 0.  1.
        -11    1    4    4    0    0 -0.10954646193E+01 -0.55576973697E+02 -0.88698218534E+02  0.10467747618E+03  0.00000000000E+00 0.  1.
         11    1    4    4    0    0  0.30887988936E+02 -0.23739435393E+02  0.20209600738E+02  0.43886861533E+02  0.00000000000E+00 0. -1.
</event>
<event>
 8    1  0.3708258E-009  0.8616827E+02  0.7561462E-02  0.1312405E+00
         -1   -1    0    0    0  501 -0.00000000000E+00  0.00000000000E+00  0.10837242299E+03  0.10837242299E+03  0.00000000000E+00 0.  1.
          1   -1    0    0  501    0  0.00000000000E+00 -0.00000000000E+00 -0.25125083093E+03  0.25125083093E+03  0.00000000000E+00 0. -1.
         25    2    1    2    0    0  0.22079806345E+02 -0.18517235375E+01 -0.20963529503E+03  0.24512179330E+03  0.12508712924E+03 0.  0.
         23    2    1    2    0    0 -0.22079806345E+02  0.18517235375E+01  0.66756887083E+02  0.11450146062E+03  0.90350184182E+02 0.  0.
          5    1    3    3  502    0  0.46582840421E+02  0.44521205597E+02 -0.16102216803E+03  0.17348691526E+03  0.41800000000E+01 0. -1.
         -5    1    3    3    0  502 -0.24503034076E+02 -0.46372929134E+02 -0.48613127006E+02  0.71634878046E+02  0.41800000000E+01 0. -1.
        -11    1    4    4    0    0 -0.37833943833E+02 -0.46257885084E+01  0.82768799384E+02  0.91123429351E+02  0.00000000000E+00 0.  1.
         11    1    4    4    0    0  0.15754137487E+02  0.64775120459E+01 -0.16011912301E+02  0.23378031264E+02  0.00000000000E+00 0. -1.
</event>
<event>
 8    1  0.3708258E-009  0.1129301E+03  0.7561462E-02  0.1255238E+00
          1   -1    0    0  501    0  0.00000000000E+00  0.00000000000E+00  0.18852369984E+03  0.18852369984E+03  0.00000000000E+00 0. -1.
         -1   -1    0    0    0  501 -0.00000000000E+00 -0.00000000000E+00 -0.14777368893E+03  0.14777368893E+03  0.00000000000E+00 0.  1.
         25    2    1    2    0    0 -0.30575674400E+02 -0.58532169101E+02 -0.86487288833E+02  0.16579564690E+03  0.12508900318E+03 0.  0.
         23    2    1    2    0    0  0.30575674400E+02  0.58532169101E+02  0.12723729974E+03  0.17050174187E+03  0.92307241603E+02 0.  0.
          5    1    3    3  502    0  0.29432582438E+02  0.30507804601E+00 -0.75242879942E+02  0.80903234568E+02  0.41800000000E+01 0.  1.
         -5    1    3    3    0  502 -0.60008256838E+02 -0.58837247147E+02 -0.11244408891E+02  0.84892412334E+02  0.41800000000E+01 0.  1.
        -11    1    4    4    0    0  0.57152544188E+02  0.11999351657E+02  0.52429611485E+02  0.78480965258E+02  0.00000000000E+00 0.  1.
         11    1    4    4    0    0 -0.26576869788E+02  0.46532817444E+02  0.74807688255E+02  0.92020776616E+02  0.00000000000E+00 0. -1.
</event>
<event>
 8    1  0.3708258E-009  0.9228996E+02  0.7561462E-02  0.1297399E+00
          2   -1    0    0  501    0  0.00000000000E+00  0.00000000000E+00  0.15475814377E+03  0.15475814377E+03  0.00000000000E+00 0. -1.
         -2   -1    0    0    0  501 -0.00000000000E+00 -0.00000000000E+00 -0.92126845638E+02  0.92126845638E+02  0.00000000000E+00 0.  1.
         25    2    1    2    0    0  0.40166999017E+02 -0.25228738549E+01  0.50513439310E+01  0.13150654374E+03  0.12509477315E+03 0.  0.
         23    2    1    2    0    0 -0.40166999017E+02  0.25228738549E+01  0.57579954197E+02  0.11537844566E+03  0.91525853702E+02 0.  0.
          5    1    3    3  502    0  0.21260528841E+02  0.43342111782E+02 -0.41161496030E+02  0.63579005149E+02  0.41800000000E+01 0.  1.
         -5    1    3    3    0  502  0.18906470176E+02 -0.45864985636E+02  0.46212839961E+02  0.67927538592E+02  0.41800000000E+01 0.  1.
        -11    1    4    4    0    0 -0.31004739605E+02  0.38374704152E+02  0.29854078316E+01  0.49424937599E+02  0.00000000000E+00 0.  1.
         11    1    4    4    0    0 -0.91622594112E+01 -0.35851830297E+02  0.54594546365E+02  0.65953508064E+02  0.00000000000E+00 0. -1.
</event>
<event>
 8    1  0.3708258E-009  0.1199110E+03  0.7561462E-02  0.1243244E+00
          1   -1    0    0  501    0  0.00000000000E+00  0.00000000000E+00  0.16715977696E+03  0.16715977696E+03  0.00000000000E+00 0. -1.
         -1   -1    0    0    0  501 -0.00000000000E+00 -0.00000000000E+00 -0.13061004391E+03  0.13061004391E+03  0.00000000000E+00 0.  1.
         25    2    1    2    0    0 -0.79526288803E+02 -0.61204794751E+02  0.13566603782E+02  0.16094233058E+03  0.12509166049E+03 0.  0.
         23    2    1    2    0    0  0.79526288803E+02  0.61204794751E+02  0.22983129269E+02  0.13682749028E+03  0.90128132984E+02 0.  0.
          5    1    3    3  502    0 -0.11794190593E+02 -0.26557127919E+02  0.63421715121E+02  0.69886839418E+02  0.41800000000E+01 0.  1.
         -5    1    3    3    0  502 -0.67732098211E+02 -0.34647666832E+02 -0.49855111338E+02  0.91055491166E+02  0.41800000000E+01 0.  1.
        -11    1    4    4    0    0  0.38666783861E+02 -0.19875973894E+02  0.13579865827E+02  0.45547637351E+02  0.00000000000E+00 0. -1.
         11    1    4    4    0    0  0.40859504943E+02  0.81080768645E+02  0.94032634424E+01  0.91279852934E+02  0.00000000000E+00 0.  1.
</event>
<event>
 8    1  0.3708258E-009  0.8086835E+02  0.7561462E-02  0.1326605E+00
          4   -1    0    0  501    0  0.00000000000E+00  0.00000000000E+00  0.16621694303E+03  0.16621694303E+03  0.00000000000E+00 0.  1.
         -4   -1    0    0    0  501 -0.00000000000E+00 -0.00000000000E+00 -0.79755337551E+02  0.79755337551E+02  0.00000000000E+00 0. -1.
         25    2    1    2    0    0  0.20779849995E+01 -0.16759745976E+02  0.11481319628E+02  0.12675001489E+03  0.12509411844E+03 0.  0.
         23    2    1    2    0    0 -0.20779849995E+01  0.16759745976E+02  0.74980285851E+02  0.11922226569E+03  0.91141089871E+02 0.  0.
          5    1    3    3  502    0 -0.45348417898E+02  0.23838292791E+02  0.32417275775E+02  0.60770843155E+02  0.41800000000E+01 0.  1.
         -5    1    3    3    0  502  0.47426402897E+02 -0.40598038766E+02 -0.20935956147E+02  0.65979171738E+02  0.41800000000E+01 0.  1.
        -11    1    4    4    0    0  0.14273885393E+02 -0.92736824522E+01  0.85154857991E+02  0.86839477370E+02  0.00000000000E+00 0.  1.
         11    1    4    4    0    0 -0.16351870392E+02  0.26033428428E+02 -0.10174572140E+02  0.32382788319E+02  0.00000000000E+00 0. -1.
</event>
<event>
 8    1  0.3708258E-009  0.9589213E+02  0.7561462E-02  0.1289179E+00
         -1   -1    0    0    0  501 -0.00000000000E+00  0.00000000000E+00  0.30757583131E+03  0.30757583131E+03  0.00000000000E+00 0.  1.
          1   -1    0    0  501    0  0.00000000000E+00 -0.00000000000E+00 -0.52122669840E+02  0.52122669840E+02  0.00000000000E+00 0. -1.
         25    2    1    2    0    0  0.64363608104E+02  0.30265182072E+01  0.14218356985E+03  0.20004058784E+03  0.12509290701E+03 0.  0.
         23    2    1    2    0    0 -0.64363608104E+02 -0.30265182072E+01  0.11326959162E+03  0.15965791332E+03  0.92243238443E+02 0.  0.
          5    1    3    3  502    0  0.34917098890E+02  0.30145569183E+02  0.15175706340E+03  0.15866832648E+03  0.41800000000E+01 0. -1.
         -5    1    3    3    0  502  0.29446509214E+02 -0.27119050976E+02 -0.95734935511E+01  0.41372261353E+02  0.41800000000E+01 0. -1.
        -11    1    4    4    0    0 -0.81837660592E+02  0.11307368877E+02  0.60949550718E+02  0.10266502333E+03  0.00000000000E+00 0. -1.
         11    1    4    4    0    0  0.17474052489E+02 -0.14333887084E+02  0.52320040905E+02  0.56992889992E+02  0.00000000000E+00 0.  1.
</event>
<event>
 8    1  0.3708258E-009  0.1552684E+03  0.7561462E-02  0.1194145E+00
         -1   -1    0    0    0  501 -0.00000000000E+00  0.00000000000E+00  0.62558584858E+02  0.62558584858E+02  0.00000000000E+00 0.  1.
          1   -1    0    0  501    0  0.00000000000E+00 -0.00000000000E+00 -0.77231830027E+03  0.77231830027E+03  0.00000000000E+00 0. -1.
         25    2    1    2    0    0 -0.52248201205E+02  0.12952466306E+03 -0.61147321743E+03  0.63957300932E+03  0.12509047025E+03 0.  0.
         23    2    1    2    0    0  0.52248201205E+02 -0.12952466306E+03 -0.98286497989E+02  0.19530387581E+03  0.94746268269E+02 0.  0.
          5    1    3    3  502    0 -0.13101135169E+02  0.72998472469E+02 -0.10605368530E+03  0.12948078348E+03  0.41800000000E+01 0.  1.
         -5    1    3    3    0  502 -0.39147066036E+02  0.56526190593E+02 -0.50541953212E+03  0.51009222583E+03  0.41800000000E+01 0.  1.
        -11    1    4    4    0    0  0.95410963248E+01  0.14381958880E+02 -0.30358880443E+01  0.17523980042E+02  0.00000000000E+00 0. -1.
         11    1    4    4    0    0  0.42707104881E+02 -0.14390662194E+03 -0.95250609945E+02  0.17777989577E+03  0.00000000000E+00 0.  1.
</event>
<event>
 8    1  0.3708258E-009  0.1645797E+03  0.7561462E-02  0.1183621E+00
         -3   -1    0    0    0  501 -0.00000000000E+00  0.00000000000E+00  0.77290752721E+02  0.77290752721E+02  0.00000000000E+00 0.  1.
          3   -1    0    0  501    0  0.00000000000E+00 -0.00000000000E+00 -0.43809433396E+03  0.43809433396E+03  0.00000000000E+00 0. -1.
         25    2    1    2    0    0 -0.39492811480E+02 -0.12969487688E+03 -0.11264365434E+03  0.21614144219E+03  0.12509231360E+03 0.  0.
         23    2    1    2    0    0  0.39492811480E+02  0.12969487688E+03 -0.24815992689E+03  0.29924364448E+03  0.97892625880E+02 0.  0.
          5    1    3    3  502    0  0.35152937292E+02 -0.87877806546E+00 -0.18648055704E+02  0.40021539609E+02  0.41800000000E+01 0. -1.
         -5    1    3    3    0  502 -0.74645748771E+02 -0.12881609881E+03 -0.93995598640E+02  0.17611990259E+03  0.41800000000E+01 0. -1.
        -11    1    4    4    0    0  0.47236914987E+01  0.96892495704E+02 -0.84182851491E+02  0.12844150992E+03  0.00000000000E+00 0.  1.
         11    1    4    4    0    0  0.34769119981E+02  0.32802381175E+02 -0.16397707540E+03  0.17080213456E+03  0.00000000000E+00 0. -1.
</event>
<event>
 8    1  0.3708258E-009  0.6862447E+02  0.7561462E-02  0.1364834E+00
         -1   -1    0    0    0  501 -0.00000000000E+00  0.00000000000E+00  0.52290667618E+03  0.52290667618E+03  0.00000000000E+00 0.  1.
          1   -1    0    0  501    0  0.00000000000E+00 -0.00000000000E+00 -0.23805618758E+02  0.23805618758E+02  0.00000000000E+00 0. -1.
         25    2    1    2    0    0  0.17223693300E+02 -0.96887821268E+01  0.22685176548E+03  0.25980646741E+03  0.12508856421E+03 0.  0.
         23    2    1    2    0    0 -0.17223693300E+02  0.96887821268E+01  0.27224929195E+03  0.28690582753E+03  0.88344489337E+02 0.  0.
          5    1    3    3  502    0  0.13210686193E+02 -0.32683712897E+02  0.40313640341E+01  0.35727742924E+02  0.41800000000E+01 0.  1.
         -5    1    3    3    0  502  0.40130071064E+01  0.22994930770E+02  0.22282040144E+03  0.22407872448E+03  0.41800000000E+01 0.  1.
        -11    1    4    4    0    0 -0.19707885110E+02  0.41597706625E+02  0.22614093710E+03  0.23077801750E+03  0.00000000000E+00 0.  1.
         11    1    4    4    0    0  0.24841918101E+01 -0.31908924498E+02  0.46108354852E+02  0.56127810030E+02  0.00000000000E+00 0. -1.
</event>
<event>
 8    1  0.3708258E-009  0.1039587E+03  0.7561462E-02  0.1272185E+00
         -2   -1    0    0    0  501 -0.00000000000E+00  0.00000000000E+00  0.72086170368E+02  0.72086170368E+02  0.00000000000E+00 0.  1.
          2   -1    0    0  501    0  0.00000000000E+00 -0.00000000000E+00 -0.21164590821E+03  0.21164590821E+03  0.00000000000E+00 0. -1.
         25    2    1    2    0    0 -0.34276919197E+02  0.53092456345E+02 -0.10896543575E+03  0.17752194496E+03  0.12508740402E+03 0.  0.
         23    2    1    2    0    0  0.34276919197E+02 -0.53092456345E+02 -0.30594302094E+02  0.10621013362E+03  0.79692314889E+02 0.  0.
          5    1    3    3  502    0  0.26638496802E+02  0.27981741481E+01 -0.92935488338E+02  0.96808660166E+02  0.41800000000E+01 0.  1.
         -5    1    3    3    0  502 -0.60915415999E+02  0.50294282197E+02 -0.16029947411E+02  0.80713284793E+02  0.41800000000E+01 0.  1.
        -11    1    4    4    0    0  0.50778350624E+02 -0.64168052515E+02 -0.24173141314E+02  0.85324794853E+02  0.00000000000E+00 0. -1.
         11    1    4    4    0    0 -0.16501431427E+02  0.11075596169E+02 -0.64211607794E+01  0.20885338767E+02  0.00000000000E+00 0.  1.
</event>
<event>
 8    1  0.3708258E-009  0.1680022E+03  0.7561462E-02  0.1179947E+00
          2   -1    0    0  501    0  0.00000000000E+00  0.00000000000E+00  0.74421408900E+02  0.74421408900E+02  0.00000000000E+00 0. -1.
         -2   -1    0    0    0  501 -0.00000000000E+00 -0.00000000000E+00 -0.49200723663E+03  0.49200723663E+03  0.00000000000E+00 0.  1.
         25    2    1    2    0    0 -0.56176029758E+02  0.12452436235E+03 -0.33896752950E+03  0.38627492077E+03  0.12508902916E+03 0.  0.
         23    2    1    2    0    0  0.56176029758E+02 -0.12452436235E+03 -0.78618298227E+02  0.18015372476E+03  0.87249438919E+02 0.  0.
          5    1    3    3  502    0 -0.86517667574E+02  0.44948736338E+02 -0.21137078457E+03  0.23281060258E+03  0.41800000000E+01 0.  1.
         -5    1    3    3    0  502  0.30341637816E+02  0.79575626013E+02 -0.12759674493E+03  0.15346431819E+03  0.41800000000E+01 0.  1.
        -11    1    4    4    0    0  0.72452734732E+02 -0.10712094849E+03 -0.41078740645E+02  0.13568993812E+03  0.00000000000E+00 0. -1.
         11    1    4    4    0    0 -0.16276704974E+02 -0.17403413864E+02 -0.37539557582E+02  0.44463786640E+02  0.00000000000E+00 0.  1.
</event>
<event>
 8    1  0.3708258E-009  0.4024082E+03  0.7561462E-02  0.1042949E+00
          2   -1    0    0  501    0  0.00000000000E+00  0.00000000000E+00  0.88273137518E+03  0.88273137518E+03  0.00000000000E+00 0. -1.
         -2   -1    0    0    0  501 -0.00000000000E+00 -0.00000000000E+00 -0.29203779273E+03  0.29203779273E+03  0.00000000000E+00 0.  1.
         25    2    1    2    0    0  0.37781601112E+02  0.39027545553E+03  0.65073779716E+03  0.76996848221E+03  0.12509757143E+03 0.  0.
         23    2    1    2    0    0 -0.37781601112E+02 -0.39027545553E+03 -0.60044214705E+02  0.40480068570E+03  0.80721167336E+02 0.  0.
          5    1    3    3  502    0 -0.39575847238E+02  0.19544802469E+03  0.27542527165E+03  0.34006283346E+03  0.41800000000E+01 0. -1.
         -5    1    3    3    0  502  0.77357448350E+02  0.19482743084E+03  0.37531252551E+03  0.42990564875E+03  0.41800000000E+01 0. -1.
        -11    1    4    4    0    0  0.12098118667E+02 -0.13829352726E+03 -0.50599481007E+02  0.14775578376E+03  0.00000000000E+00 0.  1.
         11    1    4    4    0    0 -0.49879719779E+02 -0.25198192826E+03 -0.94447336981E+01  0.25704490194E+03  0.00000000000E+00 0. -1.
</event>
<event>
 8    1  0.3708258E-009  0.1469253E+03  0.7561462E-02  0.1204303E+00
          2   -1    0    0  501    0  0.00000000000E+00  0.00000000000E+00  0.42162367352E+03  0.42162367352E+03  0.00000000000E+00 0. -1.
         -2   -1    0    0    0  501 -0.00000000000E+00 -0.00000000000E+00 -0.64118125262E+02  0.64118125262E+02  0.00000000000E+00 0.  1.
         25    2    1    2    0    0  0.11824074786E+03  0.22408601167E+02  0.17454474209E+03  0.24616290067E+03  0.12508911549E+03 0.  0.
         23    2    1    2    0    0 -0.11824074786E+03 -0.22408601167E+02  0.18296080617E+03  0.23957889812E+03  0.97161576598E+02 0.  0.
          5    1    3    3  502    0 -0.13877788231E+02  0.34994309853E+02  0.21531621039E+02  0.43569230344E+02  0.41800000000E+01 0. -1.
         -5    1    3    3    0  502  0.13211853609E+03 -0.12585708686E+02  0.15301312105E+03  0.20259367032E+03  0.41800000000E+01 0. -1.
        -11    1    4    4    0    0 -0.55811203059E+02 -0.23972880055E+02  0.18246185804E+02  0.63423281699E+02  0.00000000000E+00 0.  1.
         11    1    4    4    0    0 -0.62429544801E+02  0.15642788877E+01  0.16471462037E+03  0.17615561642E+03  0.00000000000E+00 0. -1.
</event>
<event>
 8    1  0.3708258E-009  0.1125643E+03  0.7561462E-02  0.1255894E+00
         -1   -1    0    0    0  501 -0.00000000000E+00  0.00000000000E+00  0.69541109865E+02  0.69541109865E+02  0.00000000000E+00 0.  1.
          1   -1    0    0  501    0  0.00000000000E+00 -0.00000000000E+00 -0.18714200461E+03  0.18714200461E+03  0.00000000000E+00 0. -1.
         25    2    1    2    0    0  0.34605471333E+02  0.12090643305E+02 -0.78354923777E+02  0.15209106750E+03  0.12509387048E+03 0.  0.
         23    2    1    2    0    0 -0.34605471333E+02 -0.12090643305E+02 -0.39245970963E+02  0.10459204697E+03  0.89752591886E+02 0.  0.
          5    1    3    3  502    0 -0.47049880652E+02  0.44555860291E+01 -0.20755005559E+02  0.51785965010E+02  0.41800000000E+01 0.  1.
         -5    1    3    3    0  502  0.81655351985E+02  0.76350572754E+01 -0.57599918218E+02  0.10030510249E+03  0.41800000000E+01 0.  1.
        -11    1    4    4    0    0 -0.63528997178E+02 -0.18031630480E+02 -0.35063907318E+02  0.74769985800E+02  0.00000000000E+00 0. -1.
         11    1    4    4    0    0  0.28923525845E+02  0.59409871755E+01 -0.41820636449E+01  0.29822061167E+02  0.00000000000E+00 0.  1.
</event>
<event>
 8    1  0.3708258E-009  0.1181271E+03  0.7561462E-02  0.1246219E+00
          1   -1    0    0  501    0  0.00000000000E+00  0.00000000000E+00  0.13425797774E+03  0.13425797774E+03  0.00000000000E+00 0. -1.
         -1   -1    0    0    0  501 -0.00000000000E+00 -0.00000000000E+00 -0.13275034365E+03  0.13275034365E+03  0.00000000000E+00 0.  1.
         25    2    1    2    0    0 -0.26744000824E+02 -0.69907782557E+02 -0.18770022342E+02  0.14697395644E+03  0.12508673187E+03 0.  0.
         23    2    1    2    0    0  0.26744000824E+02  0.69907782557E+02  0.20277656428E+02  0.12003436495E+03  0.91622736128E+02 0.  0.
          5    1    3    3  502    0  0.74646790440E+00 -0.86270607623E+02 -0.51868579989E+02  0.10075215603E+03  0.41800000000E+01 0. -1.
         -5    1    3    3    0  502 -0.27490468728E+02  0.16362825066E+02  0.33098557647E+02  0.46221800412E+02  0.41800000000E+01 0. -1.
        -11    1    4    4    0    0  0.38783377948E+02 -0.73087506963E+01  0.71018303440E+00  0.39472428374E+02  0.00000000000E+00 0.  1.
         11    1    4    4    0    0 -0.12039377124E+02  0.77216533253E+02  0.19567473394E+02  0.80561936572E+02  0.00000000000E+00 0. -1.
</event>
<event>
 8    1  0.3708258E-009  0.1654273E+03  0.7561462E-02  0.1182702E+00
         -2   -1    0    0    0  501 -0.00000000000E+00  0.00000000000E+00  0.73292002603E+02  0.73292002603E+02  0.00000000000E+00 0.  1.
          2   -1    0    0  501    0  0.00000000000E+00 -0.00000000000E+00 -0.49266307226E+03  0.49266307226E+03  0.00000000000E+00 0. -1.
         25    2    1    2    0    0 -0.14496456328E+03  0.68700512951E+01 -0.30491975807E+03  0.36011827733E+03  0.12508873887E+03 0.  0.
         23    2    1    2    0    0  0.14496456328E+03 -0.68700512951E+01 -0.11445131158E+03  0.20583679753E+03  0.90596701271E+02 0.  0.
          5    1    3    3  502    0 -0.67899975808E+02 -0.54446174008E+02 -0.99406812299E+02  0.13218918000E+03  0.41800000000E+01 0.  1.
         -5    1    3    3    0  502 -0.77064587475E+02  0.61316225303E+02 -0.20551294577E+03  0.22792909733E+03  0.41800000000E+01 0.  1.
        -11    1    4    4    0    0  0.10831070615E+03 -0.39986754526E+01 -0.28075541677E+02  0.11196175469E+03  0.00000000000E+00 0.  1.
         11    1    4    4    0    0  0.36653857134E+02 -0.28713758425E+01 -0.86375769905E+02  0.93875042843E+02  0.00000000000E+00 0. -1.
</event>
<event>
 8    1  0.3708258E-009  0.1063645E+03  0.7561462E-02  0.1267454E+00
          1   -1    0    0  501    0  0.00000000000E+00  0.00000000000E+00  0.60852973436E+02  0.60852973436E+02  0.00000000000E+00 0. -1.
         -1   -1    0    0    0  501 -0.00000000000E+00 -0.00000000000E+00 -0.23975467042E+03  0.23975467042E+03  0.00000000000E+00 0.  1.
         25    2    1    2    0    0  0.40181093255E+02 -0.32125751276E+02 -0.82151516478E+02  0.15824842415E+03  0.12508840048E+03 0.  0.
         23    2    1    2    0    0 -0.40181093255E+02  0.32125751276E+02 -0.96750180506E+02  0.14235921971E+03  0.90878852646E+02 0.  0.
          5    1    3    3  502    0 -0.14419542668E+02  0.26577752635E+02 -0.70890248635E+02  0.77182898996E+02  0.41800000000E+01 0. -1.
         -5    1    3    3    0  502  0.54600635923E+02 -0.58703503911E+02 -0.11261267843E+02  0.81065525151E+02  0.41800000000E+01 0. -1.
        -11    1    4    4    0    0  0.16256759458E+02 -0.19533698271E+02 -0.11757600489E+02  0.28001585053E+02  0.00000000000E+00 0. -1.
         11    1    4    4    0    0 -0.56437852713E+02  0.51659449547E+02 -0.84992580018E+02  0.11435763466E+03  0.00000000000E+00 0.  1.
</event>
<event>
 8    1  0.3708258E-009  0.9229728E+02  0.7561462E-02  0.1297382E+00
          1   -1    0    0  501    0  0.00000000000E+00  0.00000000000E+00  0.16286489125E+03  0.16286489125E+03  0.00000000000E+00 0. -1.
         -1   -1    0    0    0  501 -0.00000000000E+00 -0.00000000000E+00 -0.11285626603E+03  0.11285626603E+03  0.00000000000E+00 0.  1.
         25    2    1    2    0    0  0.42600519623E+02 -0.66005639544E+02  0.58763454579E+01  0.14783007059E+03  0.12509056564E+03 0.  0.
         23    2    1    2    0    0 -0.42600519623E+02  0.66005639544E+02  0.44132279766E+02  0.12789108668E+03  0.90757496726E+02 0.  0.
          5    1    3    3  502    0 -0.42584628331E+01  0.18956687534E+01  0.52568984764E+02  0.52940519688E+02  0.41800000000E+01 0. -1.
         -5    1    3    3    0  502  0.46858982456E+02 -0.67901308298E+02 -0.46692639306E+02  0.94889550904E+02  0.41800000000E+01 0. -1.
        -11    1    4    4    0    0 -0.53799915897E+02  0.38873867768E+02 -0.92056592972E+01  0.67010094082E+02  0.00000000000E+00 0.  1.
         11    1    4    4    0    0  0.11199396275E+02  0.27131771776E+02  0.53337939063E+02  0.60880992602E+02  0.00000000000E+00 0. -1.
</event>
<event>
 8    1  0.3708258E-009  0.1894736E+03  0.7561462E-02  0.1158937E+00
         -3   -1    0    0    0  501 -0.00000000000E+00  0.00000000000E+00  0.48631427718E+03  0.48631427718E+03  0.00000000000E+00 0.  1.
          3   -1    0    0  501    0  0.00000000000E+00 -0.00000000000E+00 -0.87984721639E+02  0.87984721639E+02  0.00000000000E+00 0. -1.
         25    2    1    2    0    0  0.34619710478E+02 -0.16833964499E+03  0.14382096046E+03  0.25664585484E+03  0.12508343498E+03 0.  0.
         23    2    1    2    0    0 -0.34619710478E+02  0.16833964499E+03  0.25450859508E+03  0.31765314398E+03  0.81191960704E+02 0.  0.
          5    1    3    3  502    0  0.49925044710E+02 -0.34715225311E+02  0.17685449558E+01  0.60977513142E+02  0.41800000000E+01 0.  1.
         -5    1    3    3    0  502 -0.15305334232E+02 -0.13362441968E+03  0.14205241550E+03  0.19566834169E+03  0.41800000000E+01 0.  1.
        -11    1    4    4    0    0 -0.56778043743E+00  0.13746858649E+03  0.22285983208E+03  0.26184812278E+03  0.00000000000E+00 0.  1.
         11    1    4    4    0    0 -0.34051930041E+02  0.30871058497E+02  0.31648762999E+02  0.55805021204E+02  0.00000000000E+00 0. -1.
</event>
<event>
 8    1  0.3708258E-009  0.8645376E+02  0.7561462E-02  0.1311674E+00
         -1   -1    0    0    0  501 -0.00000000000E+00  0.00000000000E+00  0.66464544937E+02  0.66464544937E+02  0.00000000000E+00 0.  1.
          1   -1    0    0  501    0  0.00000000000E+00 -0.00000000000E+00 -0.23918720944E+03  0.23918720944E+03  0.00000000000E+00 0. -1.
         25    2    1    2    0    0 -0.18708985322E+02 -0.52910192311E+02 -0.55917925674E+02  0.14806695836E+03  0.12508994829E+03 0.  0.
         23    2    1    2    0    0  0.18708985322E+02  0.52910192311E+02 -0.11680473883E+03  0.15758479602E+03  0.89666640066E+02 0.  0.
          5    1    3    3  502    0 -0.31404997591E+02  0.43932471055E+01 -0.78713587362E+02  0.84963967240E+02  0.41800000000E+01 0. -1.
         -5    1    3    3    0  502  0.12696012269E+02 -0.57303439416E+02  0.22795661688E+02  0.63102991120E+02  0.41800000000E+01 0. -1.
        -11    1    4    4    0    0  0.31821943225E+02  0.59447321382E+02 -0.12408612915E+03  0.14122318343E+03  0.00000000000E+00 0. -1.
         11    1    4    4    0    0 -0.13112957903E+02 -0.65371290711E+01  0.72813903218E+01  0.16361612588E+02  0.00000000000E+00 0.  1.
</event>
<event>
 8    1  0.3708258E-009  0.1083259E+03  0.7561462E-02  0.1263702E+00
          1   -1    0    0  501    0  0.00000000000E+00  0.00000000000E+00  0.54063503956E+03  0.54063503956E+03  0.00000000000E+00 0. -1.
         -1   -1    0    0    0  501 -0.00000000000E+00 -0.00000000000E+00 -0.29824229268E+02  0.29824229268E+02  0.00000000000E+00 0.  1.
         25    2    1    2    0    0 -0.68703566895E+02  0.96853367331E+00  0.33970572196E+03  0.36846568443E+03  0.12508343178E+03 0.  0.
         23    2    1    2    0    0  0.68703566895E+02 -0.96853367331E+00  0.17110508833E+03  0.20199358440E+03  0.82482354021E+02 0.  0.
          5    1    3    3  502    0 -0.90718759311E+02 -0.32237700219E+02  0.18422826373E+03  0.20791028874E+03  0.41800000000E+01 0.  1.
         -5    1    3    3    0  502  0.22015192416E+02  0.33206233893E+02  0.15547745824E+03  0.16055539569E+03  0.41800000000E+01 0.  1.
        -11    1    4    4    0    0  0.11979760340E+00 -0.10921759638E+02 -0.55351445687E+01  0.12244876906E+02  0.00000000000E+00 0.  1.
         11    1    4    4    0    0  0.68583769291E+02  0.99532259646E+01  0.17664023289E+03  0.18974870749E+03  0.00000000000E+00 0. -1.
</event>
<event>
 8    1  0.3708258E-009  0.1679394E+03  0.7561462E-02  0.1180014E+00
         -2   -1    0    0    0  501 -0.00000000000E+00  0.00000000000E+00  0.87843259776E+02  0.87843259776E+02  0.00000000000E+00 0.  1.
          2   -1    0    0  501    0  0.00000000000E+00 -0.00000000000E+00 -0.40859844739E+03  0.40859844739E+03  0.00000000000E+00 0. -1.
         25    2    1    2    0    0  0.11100018136E+03  0.10194426248E+03 -0.12205497620E+03  0.23077841917E+03  0.12509032186E+03 0.  0.
         23    2    1    2    0    0 -0.11100018136E+03 -0.10194426248E+03 -0.19870021141E+03  0.26566328799E+03  0.91550727251E+02 0.  0.
          5    1    3    3  502    0  0.10056876443E+03  0.12419198237E+03 -0.72967593951E+02  0.17572554462E+03  0.41800000000E+01 0.  1.
         -5    1    3    3    0  502  0.10431416927E+02 -0.22247719893E+02 -0.49087382253E+02  0.55052874548E+02  0.41800000000E+01 0.  1.
        -11    1    4    4    0    0 -0.59803581618E+02 -0.62153334563E+02 -0.17766496399E+03  0.19749517666E+03  0.00000000000E+00 0. -1.
         11    1    4    4    0    0 -0.51196599740E+02 -0.39790927918E+02 -0.21035247413E+02  0.68168111337E+02  0.00000000000E+00 0.  1.
</event>
<event>
 8    1  0.3708258E-009  0.9523763E+02  0.7561462E-02  0.1290642E+00
          2   -1    0    0  501    0  0.00000000000E+00  0.00000000000E+00  0.11072589251E+03  0.11072589251E+03  0.00000000000E+00 0. -1.
         -2   -1    0    0    0  501 -0.00000000000E+00 -0.00000000000E+00 -0.11193443514E+03  0.11193443514E+03  0.00000000000E+00 0.  1.
         25    2    1    2    0    0 -0.71598923147E+01 -0.85649064293E+01 -0.39395203759E+02  0.13162775095E+03  0.12509700661E+03 0.  0.
         23    2    1    2    0    0  0.71598923147E+01  0.85649064293E+01  0.38186661127E+02  0.91032576700E+02  0.81878490781E+02 0.  0.
          5    1    3    3  502    0 -0.19940803335E+02  0.50757929496E+02  0.69800353846E+01  0.55137975465E+02  0.41800000000E+01 0.  1.
         -5    1    3    3    0  502  0.12780911020E+02 -0.59322835925E+02 -0.46375239143E+02  0.76489775489E+02  0.41800000000E+01 0.  1.
        -11    1    4    4    0    0  0.12791169836E+02  0.40527521386E+02  0.21745014001E+01  0.42553759784E+02  0.00000000000E+00 0.  1.
         11    1    4    4    0    0 -0.56312775209E+01 -0.31962614956E+02  0.36012159727E+02  0.48478816916E+02  0.00000000000E+00 0. -1.
</event>
<event>
 8    1  0.3708258E-009  0.1685852E+03  0.7561462E-02  0.1179331E+00
         -1   -1    0    0    0  501 -0.00000000000E+00  0.00000000000E+00  0.17702913101E+03  0.17702913101E+03  0.00000000000E+00 0.  1.
          1   -1    0    0  501    0  0.00000000000E+00 -0.00000000000E+00 -0.32356386445E+03  0.32356386445E+03  0.00000000000E+00 0. -1.
         25    2    1    2    0    0 -0.44753181338E+02  0.13223262137E+03 -0.24302101732E+03  0.30691392815E+03  0.12509448845E+03 0.  0.
         23    2    1    2    0    0  0.44753181338E+02 -0.13223262137E+03  0.96486283881E+02  0.19367906731E+03  0.93347012496E+02 0.  0.
          5    1    3    3  502    0 -0.69942700560E+02  0.58689686770E+02 -0.63654107317E+02  0.11138123034E+03  0.41800000000E+01 0. -1.
         -5    1    3    3    0  502  0.25189519222E+02  0.73542934596E+02 -0.17936691000E+03  0.19553269780E+03  0.41800000000E+01 0. -1.
        -11    1    4    4    0    0  0.41211214096E+02 -0.14703474434E+03  0.88439678360E+02  0.17646290522E+03  0.00000000000E+00 0. -1.
         11    1    4    4    0    0  0.35419672418E+01  0.14802122975E+02  0.80466055203E+01  0.17216162084E+02  0.00000000000E+00 0.  1.
</event>
<event>
 8    1  0.3708258E-009  0.1054916E+03  0.7561462E-02  0.1269154E+00
          1   -1    0    0  501    0  0.00000000000E+00  0.00000000000E+00  0.11560876358E+03  0.11560876358E+03  0.00000000000E+00 0. -1.
         -1   -1    0    0    0  501 -0.00000000000E+00 -0.00000000000E+00 -0.15179687857E+03  0.15179687857E+03  0.00000000000E+00 0.  1.
         25    2    1    2    0    0 -0.39542292926E+02 -0.42998544611E+02  0.18469291487E+02  0.13928567422E+03  0.12508763547E+03 0.  0.
         23    2    1    2    0    0  0.39542292926E+02  0.42998544611E+02 -0.54657406481E+02  0.12811996793E+03  0.10007410420E+03 0.  0.
          5    1    3    3  502    0 -0.10178802323E+02 -0.60247150191E+02 -0.38818075037E+02  0.72509602623E+02  0.41800000000E+01 0. -1.
         -5    1    3    3    0  502 -0.29363490604E+02  0.17248605580E+02  0.57287366525E+02  0.66776071599E+02  0.41800000000E+01 0. -1.
        -11    1    4    4    0    0  0.65322912107E+02  0.33517960427E-01 -0.25330626743E+02  0.70062291005E+02  0.00000000000E+00 0.  1.
         11    1    4    4    0    0 -0.25780619181E+02  0.42965026651E+02 -0.29326779738E+02  0.58057676928E+02  0.00000000000E+00 0. -1.
</event>
<event>
 8    1  0.3708258E-009  0.1265659E+03  0.7561462E-02  0.1232642E+00
          1   -1    0    0  501    0  0.00000000000E+00  0.00000000000E+00  0.61252959943E+02  0.61252959943E+02  0.00000000000E+00 0. -1.
         -1   -1    0    0    0  501 -0.00000000000E+00 -0.00000000000E+00 -0.47885675385E+03  0.47885675385E+03  0.00000000000E+00 0.  1.
         25    2    1    2    0    0  0.76154399449E+02  0.75169541532E+02 -0.34410494512E+03  0.38145670140E+03  0.12510415364E+03 0.  0.
         23    2    1    2    0    0 -0.76154399449E+02 -0.75169541532E+02 -0.73498848791E+02  0.15865301240E+03  0.91207154541E+02 0.  0.
          5    1    3    3  502    0  0.78936312282E+02  0.25121552860E+02 -0.30945514158E+03  0.32037788761E+03  0.41800000000E+01 0.  1.
         -5    1    3    3    0  502 -0.27819128333E+01  0.50047988672E+02 -0.34649803532E+02  0.61078813789E+02  0.41800000000E+01 0. -1.
        -11    1    4    4    0    0 -0.65909245479E+02 -0.83716238100E+02 -0.88549224313E+02  0.13854025512E+03  0.00000000000E+00 0.  1.
         11    1    4    4    0    0 -0.10245153970E+02  0.85466965681E+01  0.15050375522E+02  0.20112757281E+02  0.00000000000E+00 0. -1.
</event>
<event>
 8    1  0.3708258E-009  0.1284947E+03  0.7561462E-02  0.1229707E+00
          1   -1    0    0  501    0  0.00000000000E+00  0.00000000000E+00  0.29434698123E+03  0.29434698123E+03  0.00000000000E+00 0. -1.
         -1   -1    0    0    0  501 -0.00000000000E+00 -0.00000000000E+00 -0.75486665101E+02  0.75486665101E+02  0.00000000000E+00 0.  1.
         25    2    1    2    0    0  0.94053399477E+02  0.30091821944E+02  0.16632843820E+03  0.23035663212E+03  0.12508984334E+03 0.  0.
         23    2    1    2    0    0 -0.94053399477E+02 -0.30091821944E+02  0.52531877935E+02  0.13947701422E+03  0.83322743562E+02 0.  0.
          5    1    3    3  502    0  0.10828685351E+03  0.36470094375E+02  0.73032543490E+02  0.13567363500E+03  0.41800000000E+01 0. -1.
         -5    1    3    3    0  502 -0.14233454032E+02 -0.63782724308E+01  0.93295894708E+02  0.94682997113E+02  0.41800000000E+01 0. -1.
        -11    1    4    4    0    0 -0.83846633900E+02 -0.54529359709E+02  0.29231398559E+02  0.10420260912E+03  0.00000000000E+00 0. -1.
         11    1    4    4    0    0 -0.10206765577E+02  0.24437537765E+02  0.23300479377E+02  0.35274405094E+02  0.00000000000E+00 0.  1.
</event>
<event>
 8    1  0.3708258E-009  0.9555373E+02  0.7561462E-02  0.1289934E+00
         -2   -1    0    0    0  501 -0.00000000000E+00  0.00000000000E+00  0.52507337050E+02  0.52507337050E+02  0.00000000000E+00 0.  1.
          2   -1    0    0  501    0  0.00000000000E+00 -0.00000000000E+00 -0.30217893338E+03  0.30217893338E+03  0.00000000000E+00 0. -1.
         25    2    1    2    0    0 -0.52553653721E+02 -0.12997880446E+02 -0.91567523130E+02  0.16420397437E+03  0.12508997758E+03 0.  0.
         23    2    1    2    0    0  0.52553653721E+02  0.12997880446E+02 -0.15810407320E+03  0.19048229606E+03  0.91409932360E+02 0.  0.
          5    1    3    3  502    0 -0.13445324291E+02  0.37989500972E+02  0.11995552774E+02  0.42253338516E+02  0.41800000000E+01 0.  1.
         -5    1    3    3    0  502 -0.39108329430E+02 -0.50987381418E+02 -0.10356307590E+03  0.12195063585E+03  0.41800000000E+01 0.  1.
        -11    1    4    4    0    0  0.53868815956E+02 -0.16756452365E+02 -0.14902507196E+03  0.15934585059E+03  0.00000000000E+00 0. -1.
         11    1    4    4    0    0 -0.13151622349E+01  0.29754332811E+02 -0.90790012386E+01  0.31136445466E+02  0.00000000000E+00 0.  1.
</event>
<event>
 8    1  0.3708258E-009  0.1081705E+03  0.7561462E-02  0.1263996E+00
         -2   -1    0    0    0  501 -0.00000000000E+00  0.00000000000E+00  0.13137397318E+03  0.13137397318E+03  0.00000000000E+00 0.  1.
          2   -1    0    0  501    0  0.00000000000E+00 -0.00000000000E+00 -0.11414716821E+03  0.11414716821E+03  0.00000000000E+00 0. -1.
         25    2    1    2    0    0  0.54685052816E+02  0.63740326596E+01  0.11910902511E+02  0.13718871835E+03  0.12509113297E+03 0.  0.
         23    2    1    2    0    0 -0.54685052816E+02 -0.63740326596E+01  0.53159024651E+01  0.10833242305E+03  0.93148117374E+02 0.  0.
          5    1    3    3  502    0  0.51118276101E+02 -0.52029506366E+02 -0.11632089947E+02  0.73979224116E+02  0.41800000000E+01 0. -1.
         -5    1    3    3    0  502  0.35667767151E+01  0.58403539026E+02  0.23542992459E+02  0.63209494230E+02  0.41800000000E+01 0. -1.
        -11    1    4    4    0    0 -0.49478373317E+02  0.23160324380E+02  0.36000858888E+02  0.65426079602E+02  0.00000000000E+00 0.  1.
         11    1    4    4    0    0 -0.52066794989E+01 -0.29534357040E+02 -0.30684956422E+02  0.42906343445E+02  0.00000000000E+00 0. -1.
</event>
<event>
 8    1  0.3708258E-009  0.4102764E+03  0.7561462E-02  0.1040278E+00
         -1   -1    0    0    0  501 -0.00000000000E+00  0.00000000000E+00  0.30659484772E+03  0.30659484772E+03  0.00000000000E+00 0.  1.
          1   -1    0    0  501    0  0.00000000000E+00 -0.00000000000E+00 -0.87147435265E+03  0.87147435265E+03  0.00000000000E+00 0. -1.
         25    2    1    2    0    0 -0.30791680198E+03  0.25068269255E+03 -0.64046360662E+03  0.76386894047E+03  0.12509019755E+03 0.  0.
         23    2    1    2    0    0  0.30791680198E+03 -0.25068269255E+03  0.75584101698E+02  0.41420025990E+03  0.90522536364E+02 0.  0.
          5    1    3    3  502    0 -0.13703414065E+03  0.41006663641E+02 -0.26398856358E+03  0.30027876426E+03  0.41800000000E+01 0.  1.
         -5    1    3    3    0  502 -0.17088266132E+03  0.20967602891E+03 -0.37647504304E+03  0.46359017621E+03  0.41800000000E+01 0.  1.
        -11    1    4    4    0    0  0.82008903651E+02 -0.12182644200E+03  0.19479786886E+02  0.14814386368E+03  0.00000000000E+00 0. -1.
         11    1    4    4    0    0  0.22590789832E+03 -0.12885625056E+03  0.56104314812E+02  0.26605639623E+03  0.00000000000E+00 0.  1.
</event>
<event>
 8    1  0.3708258E-009  0.9406136E+02  0.7561462E-02  0.1293304E+00
          1   -1    0    0  501    0  0.00000000000E+00  0.00000000000E+00  0.50346922206E+03  0.50346922206E+03  0.00000000000E+00 0. -1.
         -1   -1    0    0    0  501 -0.00000000000E+00 -0.00000000000E+00 -0.25948441546E+02  0.25948441546E+02  0.00000000000E+00 0.  1.
         25    2    1    2    0    0  0.18533421898E+02  0.13064161830E+02  0.34549094396E+03  0.36813760962E+03  0.12508855746E+03 0.  0.
         23    2    1    2    0    0 -0.18533421898E+02 -0.13064161830E+02  0.13202983656E+03  0.16128005399E+03  0.89806558903E+02 0.  0.
          5    1    3    3  502    0  0.66994668385E+02 -0.13901085624E+02  0.15061104053E+03  0.16547713952E+03  0.41800000000E+01 0. -1.
         -5    1    3    3    0  502 -0.48461246487E+02  0.26965247454E+02  0.19487990343E+03  0.20266047010E+03  0.41800000000E+01 0. -1.
        -11    1    4    4    0    0  0.16901057911E+02 -0.21681575428E+02  0.11965187463E+03  0.12276932668E+03  0.00000000000E+00 0. -1.
         11    1    4    4    0    0 -0.35434479808E+02  0.86174135987E+01  0.12377961931E+02  0.38510727310E+02  0.00000000000E+00 0.  1.
</event>
<event>
 8    1  0.3708258E-009  0.1118115E+03  0.7561462E-02  0.1257252E+00
         -1   -1    0    0    0  501 -0.00000000000E+00  0.00000000000E+00  0.33340905019E+03  0.33340905019E+03  0.00000000000E+00 0.  1.
          1   -1    0    0  501    0  0.00000000000E+00 -0.00000000000E+00 -0.69382219811E+02  0.69382219811E+02  0.00000000000E+00 0. -1.
         25    2    1    2    0    0 -0.25736240689E+02  0.99348416803E+02  0.17903482282E+03  0.24132590893E+03  0.12510901059E+03 0.  0.
         23    2    1    2    0    0  0.25736240689E+02 -0.99348416803E+02  0.84992007566E+02  0.16146536108E+03  0.91186399598E+02 0.  0.
          5    1    3    3  502    0  0.13442510472E+02  0.69473862389E+02  0.18374232321E+02  0.73228433388E+02  0.41800000000E+01 0. -1.
         -5    1    3    3    0  502 -0.39178751161E+02  0.29874554414E+02  0.16066059050E+03  0.16809747554E+03  0.41800000000E+01 0. -1.
        -11    1    4    4    0    0  0.10786215836E+02 -0.21891908816E+02  0.78621851749E+02  0.82322498116E+02  0.00000000000E+00 0.  1.
         11    1    4    4    0    0  0.14950024853E+02 -0.77456507987E+02  0.63701558175E+01  0.79142862961E+02  0.00000000000E+00 0. -1.
</event>
<event>
 8    1  0.3708258E-009  0.9951237E+02  0.7561462E-02  0.1281325E+00
          3   -1    0    0  501    0  0.00000000000E+00  0.00000000000E+00  0.70253817386E+02  0.70253817386E+02  0.00000000000E+00 0. -1.
         -3   -1    0    0    0  501 -0.00000000000E+00 -0.00000000000E+00 -0.21747852313E+03  0.21747852313E+03  0.00000000000E+00 0.  1.
         25    2    1    2    0    0 -0.26406986598E+02  0.51519132225E+02 -0.68734329724E+02  0.15402520481E+03  0.12509118956E+03 0.  0.
         23    2    1    2    0    0  0.26406986598E+02 -0.51519132225E+02 -0.78490376023E+02  0.13370713571E+03  0.91462063642E+02 0.  0.
          5    1    3    3  502    0 -0.75130330187E+02  0.19189057089E+02 -0.27614486444E+02  0.82418557907E+02  0.41800000000E+01 0.  1.
         -5    1    3    3    0  502  0.48723343589E+02  0.32330075136E+02 -0.41119843280E+02  0.71606646899E+02  0.41800000000E+01 0.  1.
        -11    1    4    4    0    0 -0.24269173596E+01 -0.19531805343E+02 -0.87519997604E+02  0.89705804319E+02  0.00000000000E+00 0.  1.
         11    1    4    4    0    0  0.28833903958E+02 -0.31987326882E+02  0.90296215811E+01  0.44001331393E+02  0.00000000000E+00 0. -1.
</event>
<event>
 8    1  0.3708258E-009  0.1075838E+03  0.7561462E-02  0.1265111E+00
         -2   -1    0    0    0  501 -0.00000000000E+00  0.00000000000E+00  0.20136925962E+02  0.20136925962E+02  0.00000000000E+00 0.  1.
          2   -1    0    0  501    0  0.00000000000E+00 -0.00000000000E+00 -0.79759552220E+03  0.79759552220E+03  0.00000000000E+00 0. -1.
         25    2    1    2    0    0  0.33801105802E+02  0.41420368254E+02 -0.30699807675E+03  0.33578858817E+03  0.12509194683E+03 0.  0.
         23    2    1    2    0    0 -0.33801105802E+02 -0.41420368254E+02 -0.47046051949E+03  0.48194385999E+03  0.89881155544E+02 0.  0.
          5    1    3    3  502    0  0.98090815010E+01  0.71747245139E+02 -0.27790952257E+03  0.28721953346E+03  0.41800000000E+01 0. -1.
         -5    1    3    3    0  502  0.23992024301E+02 -0.30326876885E+02 -0.29088554175E+02  0.48569054712E+02  0.41800000000E+01 0. -1.
        -11    1    4    4    0    0 -0.63956535461E+02 -0.20989232772E+02 -0.27500060152E+03  0.28311890992E+03  0.00000000000E+00 0. -1.
         11    1    4    4    0    0  0.30155429659E+02 -0.20431135482E+02 -0.19545991797E+03  0.19882495006E+03  0.00000000000E+00 0.  1.
</event>
<event>
 8    1  0.3708258E-009  0.8720107E+02  0.7561462E-02  0.1309775E+00
          1   -1    0    0  501    0  0.00000000000E+00  0.00000000000E+00  0.11268240548E+03  0.11268240548E+03  0.00000000000E+00 0. -1.
         -1   -1    0    0    0  501 -0.00000000000E+00 -0.00000000000E+00 -0.11492107875E+03  0.11492107875E+03  0.00000000000E+00 0.  1.
         25    2    1    2    0    0  0.58281821968E+01  0.38013886665E+02 -0.12148925639E+02  0.13143007734E+03  0.12508895055E+03 0.  0.
         23    2    1    2    0    0 -0.58281821968E+01 -0.38013886665E+02  0.99102523708E+01  0.96173406886E+02  0.87590454976E+02 0.  0.
          5    1    3    3  502    0  0.26820846295E+02 -0.31293363536E+02 -0.36195271339E+02  0.55010930411E+02  0.41800000000E+01 0. -1.
         -5    1    3    3    0  502 -0.20992664098E+02  0.69307250201E+02  0.24046345700E+02  0.76419146933E+02  0.41800000000E+01 0. -1.
        -11    1    4    4    0    0  0.10594636889E+02 -0.42184711200E+02 -0.29985056462E+02  0.52828967441E+02  0.00000000000E+00 0.  1.
         11    1    4    4    0    0 -0.16422819086E+02  0.41708245346E+01  0.39895308832E+02  0.43344439446E+02  0.00000000000E+00 0. -1.
</event>
<event>
 8    1  0.3708258E-009  0.1432971E+03  0.7561462E-02  0.1208960E+00
          1   -1    0    0  501    0  0.00000000000E+00  0.00000000000E+00  0.54283800097E+03  0.54283800097E+03  0.00000000000E+00 0. -1.
         -1   -1    0    0    0  501 -0.00000000000E+00 -0.00000000000E+00 -0.49295964021E+02  0.49295964021E+02  0.00000000000E+00 0.  1.
         25    2    1    2    0    0  0.11638013808E+03  0.37132379337E+01  0.31943493168E+03  0.36227593502E+03  0.12508818028E+03 0.  0.
         23    2    1    2    0    0 -0.11638013808E+03 -0.37132379337E+01  0.17410710527E+03  0.22985802997E+03  0.94674733483E+02 0.  0.
          5    1    3    3  502    0 -0.10535660652E+02  0.18948952232E+02  0.14112053163E+03  0.14283745931E+03  0.41800000000E+01 0. -1.
         -5    1    3    3    0  502  0.12691579873E+03 -0.15235714298E+02  0.17831440005E+03  0.21943847571E+03  0.41800000000E+01 0. -1.
        -11    1    4    4    0    0 -0.18224410445E+02  0.28051007561E+02  0.92354448994E+02  0.98225925347E+02  0.00000000000E+00 0. -1.
         11    1    4    4    0    0 -0.98155727631E+02 -0.31764245494E+02  0.81752656280E+02  0.13163210462E+03  0.00000000000E+00 0.  1.
</event>
<event>
 8    1  0.3708258E-009  0.1272195E+03  0.7561462E-02  0.1231641E+00
          3   -1    0    0  501    0  0.00000000000E+00  0.00000000000E+00  0.10983559270E+03  0.10983559270E+03  0.00000000000E+00 0. -1.
         -3   -1    0    0    0  501 -0.00000000000E+00 -0.00000000000E+00 -0.25443157485E+03  0.25443157485E+03  0.00000000000E+00 0.  1.
         25    2    1    2    0    0 -0.93309501773E+02  0.68432405863E+01 -0.16833195453E+03  0.22964240370E+03  0.12508594485E+03 0.  0.
         23    2    1    2    0    0  0.93309501773E+02 -0.68432405863E+01  0.23735972386E+02  0.13462476385E+03  0.93845285409E+02 0.  0.
          5    1    3    3  502    0 -0.12378746203E+03  0.12556702217E+02 -0.14102410454E+03  0.18811240519E+03  0.41800000000E+01 0.  1.
         -5    1    3    3    0  502  0.30477960257E+02 -0.57134616303E+01 -0.27307849990E+02  0.41529998511E+02  0.41800000000E+01 0.  1.
        -11    1    4    4    0    0  0.29624972405E+02 -0.17017127142E+02 -0.33901387283E+02  0.48130298835E+02  0.00000000000E+00 0.  1.
         11    1    4    4    0    0  0.63684529368E+02  0.10173886556E+02  0.57637359669E+02  0.86494465014E+02  0.00000000000E+00 0. -1.
</event>
<event>
 8    1  0.3708258E-009  0.7337381E+02  0.7561462E-02  0.1348982E+00
         -2   -1    0    0    0  501 -0.00000000000E+00  0.00000000000E+00  0.20100687276E+03  0.20100687276E+03  0.00000000000E+00 0. -1.
          2   -1    0    0  501    0  0.00000000000E+00 -0.00000000000E+00 -0.70943899273E+02  0.70943899273E+02  0.00000000000E+00 0.  1.
         25    2    1    2    0    0  0.31761899002E+01  0.24320963753E+02  0.22521562849E+02  0.12945700839E+03  0.12510115414E+03 0.  0.
         23    2    1    2    0    0 -0.31761899002E+01 -0.24320963753E+02  0.10754141064E+03  0.14249376364E+03  0.90209313349E+02 0.  0.
          5    1    3    3  502    0 -0.66845712754E+01 -0.24152598192E+02 -0.41368576477E+02  0.48547533534E+02  0.41800000000E+01 0. -1.
         -5    1    3    3    0  502  0.98607611756E+01  0.48473561945E+02  0.63890139326E+02  0.80909474857E+02  0.41800000000E+01 0. -1.
        -11    1    4    4    0    0  0.17048684162E+02  0.18000360351E+02  0.88437507477E+02  0.91846956037E+02  0.00000000000E+00 0. -1.
         11    1    4    4    0    0 -0.20224874063E+02 -0.42321324105E+02  0.19103903163E+02  0.50646807608E+02  0.00000000000E+00 0.  1.
</event>
<event>
 8    1  0.3708258E-009  0.1968645E+03  0.7561462E-02  0.1152412E+00
          1   -1    0    0  501    0  0.00000000000E+00  0.00000000000E+00  0.83222591946E+03  0.83222591946E+03  0.00000000000E+00 0. -1.
         -1   -1    0    0    0  501 -0.00000000000E+00 -0.00000000000E+00 -0.75147421698E+02  0.75147421698E+02  0.00000000000E+00 0.  1.
         25    2    1    2    0    0 -0.25170502117E+02  0.17628076122E+03  0.63820120923E+03  0.67428300996E+03  0.12509329760E+03 0.  0.
         23    2    1    2    0    0  0.25170502117E+02 -0.17628076122E+03  0.11887728853E+03  0.23309033120E+03  0.92145709705E+02 0.  0.
          5    1    3    3  502    0 -0.52516286206E+02  0.10395700432E+03  0.52054657632E+03  0.53343343501E+03  0.41800000000E+01 0. -1.
         -5    1    3    3    0  502  0.27345784090E+02  0.72323756894E+02  0.11765463291E+03  0.14084957495E+03  0.41800000000E+01 0. -1.
        -11    1    4    4    0    0  0.17268966034E+00  0.10903620351E+02  0.22534836705E+01  0.11135391647E+02  0.00000000000E+00 0. -1.
         11    1    4    4    0    0  0.24997812456E+02 -0.18718438157E+03  0.11662380486E+03  0.22195493955E+03  0.00000000000E+00 0.  1.
</event>
<event>
 8    1  0.3708258E-009  0.9788160E+02  0.7561462E-02  0.1284815E+00
          2   -1    0    0  501    0  0.00000000000E+00  0.00000000000E+00  0.44465043732E+02  0.44465043732E+02  0.00000000000E+00 0. -1.
         -2   -1    0    0    0  501 -0.00000000000E+00 -0.00000000000E+00 -0.30791761173E+03  0.30791761173E+03  0.00000000000E+00 0.  1.
         25    2    1    2    0    0 -0.48075168001E+02 -0.24936472922E+02 -0.15190361118E+03  0.20409527632E+03  0.12508846976E+03 0.  0.
         23    2    1    2    0    0  0.48075168001E+02  0.24936472922E+02 -0.11154895682E+03  0.14828737915E+03  0.81319908912E+02 0.  0.
          5    1    3    3  502    0 -0.38305161144E+02 -0.63489973402E+02 -0.14582058627E+03  0.16364405847E+03  0.41800000000E+01 0.  1.
         -5    1    3    3    0  502 -0.97700068572E+01  0.38553500480E+02 -0.60830249058E+01  0.40451217846E+02  0.41800000000E+01 0.  1.
        -11    1    4    4    0    0 -0.14115158005E+02  0.10680570816E+02 -0.69869717109E+02  0.72076970298E+02  0.00000000000E+00 0.  1.
         11    1    4    4    0    0  0.62190326006E+02  0.14255902107E+02 -0.41679239714E+02  0.76210408848E+02  0.00000000000E+00 0. -1.
</event>
<event>
 8    1  0.3708258E-009  0.2112145E+03  0.7561462E-02  0.1140608E+00
         -2   -1    0    0    0  501 -0.00000000000E+00  0.00000000000E+00  0.26931503969E+03  0.26931503969E+03  0.00000000000E+00 0.  1.
          2   -1    0    0  501    0  0.00000000000E+00 -0.00000000000E+00 -0.16874310441E+03  0.16874310441E+03  0.00000000000E+00 0. -1.
         25    2    1    2    0    0 -0.47526763571E+02  0.17631739465E+03  0.68227228942E+02  0.23162367527E+03  0.12509178736E+03 0.  0.
         23    2    1    2    0    0  0.47526763571E+02 -0.17631739465E+03  0.32344706341E+02  0.20643446884E+03  0.90677411653E+02 0.  0.
          5    1    3    3  502    0 -0.14744263986E+02 -0.16770784792E+02  0.19052502846E+02  0.29650005189E+02  0.41800000000E+01 0.  1.
         -5    1    3    3    0  502 -0.32782499585E+02  0.19308817944E+03  0.49174726096E+02  0.20197367008E+03  0.41800000000E+01 0.  1.
        -11    1    4    4    0    0  0.70426330283E+02 -0.16241150209E+03  0.26255784555E+02  0.17896013587E+03  0.00000000000E+00 0.  1.
         11    1    4    4    0    0 -0.22899566712E+02 -0.13905892563E+02  0.60889217859E+01  0.27474332969E+02  0.00000000000E+00 0. -1.
</event>
<event>
 8    1  0.3708258E-009  0.1928646E+03  0.7561462E-02  0.1155903E+00
         -1   -1    0    0    0  501 -0.00000000000E+00  0.00000000000E+00  0.38018938195E+02  0.38018938195E+02  0.00000000000E+00 0.  1.
          1   -1    0    0  501    0  0.00000000000E+00 -0.00000000000E+00 -0.13489069381E+04  0.13489069381E+04  0.00000000000E+00 0. -1.
         25    2    1    2    0    0 -0.15989297731E+03  0.10398993779E+03 -0.50596836909E+03  0.55500505178E+03  0.12508775171E+03 0.  0.
         23    2    1    2    0    0  0.15989297731E+03 -0.10398993779E+03 -0.80491963084E+03  0.83192082454E+03  0.88413657524E+02 0.  0.
          5    1    3    3  502    0 -0.17103137404E+01  0.91200933539E+01  0.52938488476E+01  0.11471639442E+02  0.41800000000E+01 0. -1.
         -5    1    3    3    0  502 -0.15818266357E+03  0.94869844437E+02 -0.51126221794E+03  0.54353341234E+03  0.41800000000E+01 0. -1.
        -11    1    4    4    0    0  0.89684591499E+02 -0.51764404976E+02 -0.60343890020E+03  0.61225924726E+03  0.00000000000E+00 0. -1.
         11    1    4    4    0    0  0.70208385810E+02 -0.52225532815E+02 -0.20148073064E+03  0.21966157728E+03  0.00000000000E+00 0.  1.
</event>
<event>
 8    1  0.3708258E-009  0.5327215E+02  0.7561462E-02  0.1428451E+00
         -3   -1    0    0    0  501 -0.00000000000E+00  0.00000000000E+00  0.24414776223E+03  0.24414776223E+03  0.00000000000E+00 0.  1.
          3   -1    0    0  501    0  0.00000000000E+00 -0.00000000000E+00 -0.58209564393E+02  0.58209564393E+02  0.00000000000E+00 0. -1.
         25    2    1    2    0    0 -0.14412077121E+02  0.18880406979E+02  0.47097447092E+02  0.13575466051E+03  0.12508789147E+03 0.  0.
         23    2    1    2    0    0  0.14412077121E+02 -0.18880406979E+02  0.13884075074E+03  0.16660266611E+03  0.88969188787E+02 0.  0.
          5    1    3    3  502    0 -0.27726720917E+02 -0.12200965694E+02 -0.35233196912E+02  0.46652815363E+02  0.41800000000E+01 0. -1.
         -5    1    3    3    0  502  0.13314643795E+02  0.31081372672E+02  0.82330644005E+02  0.89101845148E+02  0.41800000000E+01 0. -1.
        -11    1    4    4    0    0  0.25905106784E+02 -0.13173148713E+02  0.14800681483E+03  0.15083309863E+03  0.00000000000E+00 0.  1.
         11    1    4    4    0    0 -0.11493029663E+02 -0.57072582658E+01 -0.91660640888E+01  0.15769567484E+02  0.00000000000E+00 0. -1.
</event>
<event>
 8    1  0.3708258E-009  0.8550676E+02  0.7561462E-02  0.1314113E+00
         -2   -1    0    0    0  501 -0.00000000000E+00  0.00000000000E+00  0.13847991527E+02  0.13847991527E+02  0.00000000000E+00 0.  1.
          2   -1    0    0  501    0  0.00000000000E+00 -0.00000000000E+00 -0.11163875237E+04  0.11163875237E+04  0.00000000000E+00 0. -1.
         25    2    1    2    0    0 -0.47587073083E+02 -0.74049527567E+01 -0.78901010765E+03  0.80031506260E+03  0.12509151293E+03 0.  0.
         23    2    1    2    0    0  0.47587073083E+02  0.74049527567E+01 -0.31352942454E+03  0.32992045264E+03  0.90705248840E+02 0.  0.
          5    1    3    3  502    0 -0.49036759251E+02 -0.21610805338E+02 -0.12412074120E+03  0.13525923799E+03  0.41800000000E+01 0. -1.
         -5    1    3    3    0  502  0.14496861680E+01  0.14205852582E+02 -0.66488936645E+03  0.66505582461E+03  0.41800000000E+01 0. -1.
        -11    1    4    4    0    0  0.63097249186E+02  0.33941858368E+02 -0.23083252198E+03  0.24169601943E+03  0.00000000000E+00 0. -1.
         11    1    4    4    0    0 -0.15510176103E+02 -0.26536905611E+02 -0.82696902555E+02  0.88224433205E+02  0.00000000000E+00 0.  1.
</event>
<event>
 8    1  0.3708258E-009  0.7195674E+02  0.7561462E-02  0.1353563E+00
         -2   -1    0    0    0  501 -0.00000000000E+00  0.00000000000E+00  0.33407854701E+02  0.33407854701E+02  0.00000000000E+00 0.  1.
          2   -1    0    0  501    0  0.00000000000E+00 -0.00000000000E+00 -0.35262399837E+03  0.35262399837E+03  0.00000000000E+00 0. -1.
         25    2    1    2    0    0  0.84435390632E+01 -0.21764706402E+01 -0.18000625468E+03  0.21937635154E+03  0.12509077310E+03 0.  0.
         23    2    1    2    0    0 -0.84435390632E+01  0.21764706402E+01 -0.13920988899E+03  0.16665550153E+03  0.91206538262E+02 0.  0.
          5    1    3    3  502    0 -0.11279596122E+02  0.32980538462E+02 -0.24858475695E+00  0.35106685977E+02  0.41800000000E+01 0.  1.
         -5    1    3    3    0  502  0.19723135185E+02 -0.35157009103E+02 -0.17975766992E+03  0.18426966556E+03  0.41800000000E+01 0.  1.
        -11    1    4    4    0    0 -0.32997484935E+02 -0.17005462677E+02 -0.17535612670E+02  0.41055054312E+02  0.00000000000E+00 0.  1.
         11    1    4    4    0    0  0.24553945872E+02  0.19181933317E+02 -0.12167427632E+03  0.12560044722E+03  0.00000000000E+00 0. -1.
</event>
<event>
 8    1  0.3708258E-009  0.1699107E+03  0.7561462E-02  0.1177941E+00
         -2   -1    0    0    0  501 -0.00000000000E+00  0.00000000000E+00  0.65591508205E+02  0.65591508205E+02  0.00000000000E+00 0.  1.
          2   -1    0    0  501    0  0.00000000000E+00 -0.00000000000E+00 -0.50856961498E+03  0.50856961498E+03  0.00000000000E+00 0. -1.
         25    2    1    2    0    0  0.47580697545E+02  0.13789187549E+03 -0.22990892577E+03  0.29964048862E+03  0.12509283021E+03 0.  0.
         23    2    1    2    0    0 -0.47580697545E+02 -0.13789187549E+03 -0.21306918101E+03  0.27452063456E+03  0.93193405356E+02 0.  0.
          5    1    3    3  502    0  0.35667290018E+02  0.63839711839E+01 -0.23980218090E+01  0.36553160929E+02  0.41800000000E+01 0. -1.
         -5    1    3    3    0  502  0.11913407527E+02  0.13150790430E+03 -0.22751090396E+03  0.26308732770E+03  0.41800000000E+01 0. -1.
        -11    1    4    4    0    0  0.20263136365E+02 -0.78480247070E+02 -0.12103966847E+03  0.14567204680E+03  0.00000000000E+00 0. -1.
         11    1    4    4    0    0 -0.67843833910E+02 -0.59411628416E+02 -0.92029512536E+02  0.12884858776E+03  0.00000000000E+00 0.  1.
</event>
<event>
 8    1  0.3708258E-009  0.1190251E+03  0.7561462E-02  0.1244714E+00
          3   -1    0    0  501    0  0.00000000000E+00  0.00000000000E+00  0.37824894122E+03  0.37824894122E+03  0.00000000000E+00 0. -1.
         -3   -1    0    0    0  501 -0.00000000000E+00 -0.00000000000E+00 -0.53785581665E+02  0.53785581665E+02  0.00000000000E+00 0.  1.
         25    2    1    2    0    0  0.66581942053E+02  0.70621817317E+00  0.83360193901E+02  0.16440770885E+03  0.12508924434E+03 0.  0.
         23    2    1    2    0    0 -0.66581942053E+02 -0.70621817317E+00  0.24110316565E+03  0.26762681404E+03  0.95182568535E+02 0.  0.
          5    1    3    3  502    0  0.30218502893E+02 -0.50487516273E+02 -0.11981639812E+01  0.59000467909E+02  0.41800000000E+01 0.  1.
         -5    1    3    3    0  502  0.36363439160E+02  0.51193734446E+02  0.84558357882E+02  0.10540724094E+03  0.41800000000E+01 0.  1.
        -11    1    4    4    0    0 -0.64275049241E+02  0.39771952298E+02  0.15390577280E+03  0.17146450667E+03  0.00000000000E+00 0. -1.
         11    1    4    4    0    0 -0.23068928115E+01 -0.40478170471E+02  0.87197392849E+02  0.96162307370E+02  0.00000000000E+00 0.  1.
</event>
<event>
 8    1  0.3708258E-009  0.1144024E+03  0.7561462E-02  0.1252628E+00
         -2   -1    0    0    0  501 -0.00000000000E+00  0.00000000000E+00  0.12974951279E+02  0.12974951279E+02  0.00000000000E+00 0.  1.
          2   -1    0    0  501    0  0.00000000000E+00 -0.00000000000E+00 -0.10864690209E+04  0.10864690209E+04  0.00000000000E+00 0. -1.
         25    2    1    2    0    0  0.42827560218E+02  0.59068146358E+01 -0.57434536947E+03  0.58939723871E+03  0.12508961264E+03 0.  0.
         23    2    1    2    0    0 -0.42827560218E+02 -0.59068146358E+01 -0.49914870016E+03  0.51004673348E+03  0.95546612129E+02 0.  0.
          5    1    3    3  502    0 -0.28035782080E+02  0.36862745615E+02 -0.32478972016E+03  0.32810166384E+03  0.41800000000E+01 0. -1.
         -5    1    3    3    0  502  0.70863342298E+02 -0.30955930979E+02 -0.24955564931E+03  0.26129557487E+03  0.41800000000E+01 0. -1.
        -11    1    4    4    0    0  0.40046508333E+01 -0.44191053105E+02 -0.20753714094E+03  0.21222759310E+03  0.00000000000E+00 0.  1.
         11    1    4    4    0    0 -0.46832211051E+02  0.38284238469E+02 -0.29161155922E+03  0.29781914039E+03  0.00000000000E+00 0. -1.
</event>
<event>
 8    1  0.3708258E-009  0.1281681E+03  0.7561462E-02  0.1230200E+00
          4   -1    0    0  501    0  0.00000000000E+00  0.00000000000E+00  0.13005514803E+03  0.13005514803E+03  0.00000000000E+00 0. -1.
         -4   -1    0    0    0  501 -0.00000000000E+00 -0.00000000000E+00 -0.17945993713E+03  0.17945993713E+03  0.00000000000E+00 0.  1.
         25    2    1    2    0    0 -0.33539226118E+02  0.80418406643E+02 -0.90810521190E+02  0.17744639701E+03  0.12509465711E+03 0.  0.
         23    2    1    2    0    0  0.33539226118E+02 -0.80418406643E+02  0.41405732093E+02  0.13206868814E+03  0.90198137020E+02 0.  0.
          5    1    3    3  502    0  0.14831219478E+01  0.10094329859E+03 -0.32236473119E+02  0.10605852997E+03  0.41800000000E+01 0.  1.
         -5    1    3    3    0  502 -0.35022348066E+02 -0.20524891943E+02 -0.58574048072E+02  0.71387867042E+02  0.41800000000E+01 0.  1.
        -11    1    4    4    0    0 -0.23523920514E+02 -0.31576849334E+02  0.41153723232E+02  0.56957011738E+02  0.00000000000E+00 0. -1.
         11    1    4    4    0    0  0.57063146632E+02 -0.48841557309E+02  0.25200886061E+00  0.75111676405E+02  0.00000000000E+00 0.  1.
</event>
<event>
 8    1  0.3708258E-009  0.3109549E+03  0.7561462E-02  0.1079889E+00
          2   -1    0    0  501    0  0.00000000000E+00  0.00000000000E+00  0.77462696282E+03  0.77462696282E+03  0.00000000000E+00 0. -1.
         -2   -1    0    0    0  501 -0.00000000000E+00 -0.00000000000E+00 -0.13253808944E+03  0.13253808944E+03  0.00000000000E+00 0.  1.
         25    2    1    2    0    0  0.17397569328E+02  0.29872855679E+03  0.27300914244E+03  0.42393694374E+03  0.12508842613E+03 0.  0.
         23    2    1    2    0    0 -0.17397569328E+02 -0.29872855679E+03  0.36907973094E+03  0.48322810852E+03  0.88023468506E+02 0.  0.
          5    1    3    3  502    0 -0.52001691065E+02  0.11909346453E+03  0.13149139181E+03  0.18491859746E+03  0.41800000000E+01 0.  1.
         -5    1    3    3    0  502  0.69399260393E+02  0.17963509227E+03  0.14151775063E+03  0.23901834628E+03  0.41800000000E+01 0.  1.
        -11    1    4    4    0    0 -0.39491839252E+01 -0.10602618695E+03  0.69729929140E+02  0.12696224396E+03  0.00000000000E+00 0.  1.
         11    1    4    4    0    0 -0.13448385402E+02 -0.19270236984E+03  0.29934980180E+03  0.35626586456E+03  0.00000000000E+00 0. -1.
</event>
<event>
 8    1  0.3708258E-009  0.1274933E+03  0.7561462E-02  0.1231223E+00
          1   -1    0    0  501    0  0.00000000000E+00  0.00000000000E+00  0.58255697715E+03  0.58255697715E+03  0.00000000000E+00 0. -1.
         -1   -1    0    0    0  501 -0.00000000000E+00 -0.00000000000E+00 -0.32850244574E+02  0.32850244574E+02  0.00000000000E+00 0.  1.
         25    2    1    2    0    0  0.12563445079E+02  0.81319844886E+02  0.36923886674E+03  0.39844249207E+03  0.12509325101E+03 0.  0.
         23    2    1    2    0    0 -0.12563445079E+02 -0.81319844886E+02  0.18046786583E+03  0.21696472965E+03  0.87944789449E+02 0.  0.
          5    1    3    3  502    0 -0.48454731155E+02  0.57620491951E+02  0.12910029431E+03  0.14950699132E+03  0.41800000000E+01 0. -1.
         -5    1    3    3    0  502  0.61018176234E+02  0.23699352934E+02  0.24013857243E+03  0.24893550074E+03  0.41800000000E+01 0. -1.
        -11    1    4    4    0    0 -0.44443820660E+02 -0.30155902150E+02  0.50612944906E+02  0.73799063825E+02  0.00000000000E+00 0.  1.
         11    1    4    4    0    0  0.31880375582E+02 -0.51163942735E+02  0.12985492092E+03  0.14316566583E+03  0.00000000000E+00 0. -1.
</event>
<event>
 8    1  0.3708258E-009  0.1319681E+03  0.7561462E-02  0.1224564E+00
         -1   -1    0    0    0  501 -0.00000000000E+00  0.00000000000E+00  0.68960388967E+02  0.68960388967E+02  0.00000000000E+00 0.  1.
          1   -1    0    0  501    0  0.00000000000E+00 -0.00000000000E+00 -0.30281468640E+03  0.30281468640E+03  0.00000000000E+00 0. -1.
         25    2    1    2    0    0  0.86494892801E+02  0.37738375675E+02 -0.11410901306E+03  0.19383902815E+03  0.12508857060E+03 0.  0.
         23    2    1    2    0    0 -0.86494892801E+02 -0.37738375675E+02 -0.11974528437E+03  0.17793604721E+03  0.91742859607E+02 0.  0.
          5    1    3    3  502    0  0.38648055055E+02 -0.45674731095E+02 -0.36643713417E+02  0.70285754980E+02  0.41800000000E+01 0. -1.
         -5    1    3    3    0  502  0.47846837745E+02  0.83413106770E+02 -0.77465299644E+02  0.12355327317E+03  0.41800000000E+01 0. -1.
        -11    1    4    4    0    0 -0.50994200639E+02  0.60308460976E+01 -0.10910393751E+03  0.12058378325E+03  0.00000000000E+00 0. -1.
         11    1    4    4    0    0 -0.35500692162E+02 -0.43769221773E+02 -0.10641346867E+02  0.57352263963E+02  0.00000000000E+00 0.  1.
</event>
<event>
 8    1  0.3708258E-009  0.2277069E+03  0.7561462E-02  0.1128264E+00
          2   -1    0    0  501    0  0.00000000000E+00  0.00000000000E+00  0.29594365338E+03  0.29594365338E+03  0.00000000000E+00 0. -1.
         -2   -1    0    0    0  501 -0.00000000000E+00 -0.00000000000E+00 -0.18361857755E+03  0.18361857755E+03  0.00000000000E+00 0.  1.
         25    2    1    2    0    0 -0.37317889536E+02  0.19761311279E+03  0.19269030361E+02  0.23762128521E+03  0.12509601285E+03 0.  0.
         23    2    1    2    0    0  0.37317889536E+02 -0.19761311279E+03  0.93056045469E+02  0.24194094571E+03  0.97120679513E+02 0.  0.
          5    1    3    3  502    0  0.36941608913E+02  0.13267324530E+03  0.51565172017E+01  0.13788014562E+03  0.41800000000E+01 0. -1.
         -5    1    3    3    0  502 -0.74259498449E+02  0.64939867489E+02  0.14112513160E+02  0.99741139592E+02  0.41800000000E+01 0. -1.
        -11    1    4    4    0    0 -0.27328257985E+02 -0.39098057599E+02  0.13201104089E+01  0.47720378079E+02  0.00000000000E+00 0.  1.
         11    1    4    4    0    0  0.64646147521E+02 -0.15851505519E+03  0.91735935060E+02  0.19422056763E+03  0.00000000000E+00 0. -1.
</event>
<event>
 8    1  0.3708258E-009  0.9022314E+02  0.7561462E-02  0.1302312E+00
         -1   -1    0    0    0  501 -0.00000000000E+00  0.00000000000E+00  0.98473709852E+02  0.98473709852E+02  0.00000000000E+00 0.  1.
          1   -1    0    0  501    0  0.00000000000E+00 -0.00000000000E+00 -0.13659448496E+03  0.13659448496E+03  0.00000000000E+00 0. -1.
         25    2    1    2    0    0  0.51192018014E+02  0.13262646562E+01 -0.27767927427E+02  0.13800105664E+03  0.12510336587E+03 0.  0.
         23    2    1    2    0    0 -0.51192018014E+02 -0.13262646562E+01 -0.10352847681E+02  0.97067138175E+02  0.81807494596E+02 0.  0.
          5    1    3    3  502    0  0.17649747096E+02  0.50026539481E+02 -0.51586684590E+02  0.74113606389E+02  0.41800000000E+01 0. -1.
         -5    1    3    3    0  502  0.33542270918E+02 -0.48700274825E+02  0.23818757163E+02  0.63887450248E+02  0.41800000000E+01 0. -1.
        -11    1    4    4    0    0 -0.93041194537E+01  0.19177190372E+02  0.29037792646E+02  0.36021169764E+02  0.00000000000E+00 0. -1.
         11    1    4    4    0    0 -0.41887898560E+02 -0.20503455028E+02 -0.39390640327E+02  0.61045968411E+02  0.00000000000E+00 0.  1.
</event>
<event>
 8    1  0.3708258E-009  0.2395876E+03  0.7561462E-02  0.1120068E+00
          2   -1    0    0  501    0  0.00000000000E+00  0.00000000000E+00  0.76599839106E+02  0.76599839106E+02  0.00000000000E+00 0.  1.
         -2   -1    0    0    0  501 -0.00000000000E+00 -0.00000000000E+00 -0.78577750505E+03  0.78577750505E+03  0.00000000000E+00 0. -1.
         25    2    1    2    0    0 -0.54992092398E+02 -0.20912695777E+03 -0.43432788397E+03  0.50104538217E+03  0.12509016548E+03 0.  0.
         23    2    1    2    0    0  0.54992092398E+02  0.20912695777E+03 -0.27484978197E+03  0.36133196199E+03  0.90885474170E+02 0.  0.
          5    1    3    3  502    0 -0.35920258266E+02 -0.11204892753E+01 -0.34850688754E+02  0.50235080937E+02  0.41800000000E+01 0.  1.
         -5    1    3    3    0  502 -0.19071834132E+02 -0.20800646849E+03 -0.39947719522E+03  0.45081030123E+03  0.41800000000E+01 0.  1.
        -11    1    4    4    0    0  0.13216577688E+00  0.16128169848E+03 -0.19992153306E+03  0.25686654728E+03  0.00000000000E+00 0.  1.
         11    1    4    4    0    0  0.54859926621E+02  0.47845259292E+02 -0.74928248911E+02  0.10446541471E+03  0.00000000000E+00 0. -1.
</event>
<event>
 8    1  0.3708258E-009  0.6960772E+02  0.7561462E-02  0.1361432E+00
          2   -1    0    0  501    0  0.00000000000E+00  0.00000000000E+00  0.19117821705E+03  0.19117821705E+03  0.00000000000E+00 0. -1.
         -2   -1    0    0    0  501 -0.00000000000E+00 -0.00000000000E+00 -0.81414080322E+02  0.81414080322E+02  0.00000000000E+00 0.  1.
         25    2    1    2    0    0 -0.27864179300E+02 -0.17590136812E+02  0.48022823846E+01  0.12944822582E+03  0.12509178970E+03 0.  0.
         23    2    1    2    0    0  0.27864179300E+02  0.17590136812E+02  0.10496185434E+03  0.14314407155E+03  0.91582798342E+02 0.  0.
          5    1    3    3  502    0 -0.37549310632E+02 -0.42952559333E+02  0.50384270461E+02  0.76229391917E+02  0.41800000000E+01 0.  1.
         -5    1    3    3    0  502  0.96851313315E+01  0.25362422521E+02 -0.45581988076E+02  0.53218833904E+02  0.41800000000E+01 0.  1.
        -11    1    4    4    0    0  0.18068191666E+02  0.32217295902E+02  0.22564170611E+00  0.36938660229E+02  0.00000000000E+00 0.  1.
         11    1    4    4    0    0  0.97959876344E+01 -0.14627159090E+02  0.10473621264E+03  0.10620541132E+03  0.00000000000E+00 0. -1.
</event>
<event>
 8    1  0.3708258E-009  0.1280583E+03  0.7561462E-02  0.1230366E+00
         -1   -1    0    0    0  501 -0.00000000000E+00  0.00000000000E+00  0.26509841721E+02  0.26509841721E+02  0.00000000000E+00 0.  1.
          1   -1    0    0  501    0  0.00000000000E+00 -0.00000000000E+00 -0.66313055742E+03  0.66313055742E+03  0.00000000000E+00 0. -1.
         25    2    1    2    0    0  0.65567754676E+02  0.84191550142E+01 -0.26919460469E+03  0.30410624855E+03  0.12507942514E+03 0.  0.
         23    2    1    2    0    0 -0.65567754676E+02 -0.84191550142E+01 -0.36742611102E+03  0.38553415059E+03  0.96252904328E+02 0.  0.
          5    1    3    3  502    0 -0.32862775731E+02 -0.17991835163E+02 -0.95596823727E+02  0.10276134131E+03  0.41800000000E+01 0.  1.
         -5    1    3    3    0  502  0.98430530408E+02  0.26410990178E+02 -0.17359778096E+03  0.20134490724E+03  0.41800000000E+01 0.  1.
        -11    1    4    4    0    0 -0.16306275226E+02 -0.49601172865E+02 -0.15012942146E+03  0.15894972208E+03  0.00000000000E+00 0.  1.
         11    1    4    4    0    0 -0.49261479450E+02  0.41182017851E+02 -0.21729668955E+03  0.22658442851E+03  0.00000000000E+00 0. -1.
</event>
<event>
 8    1  0.3708258E-009  0.9763611E+02  0.7561462E-02  0.1285347E+00
         -1   -1    0    0    0  501 -0.00000000000E+00  0.00000000000E+00  0.60570296483E+02  0.60570296483E+02  0.00000000000E+00 0.  1.
          1   -1    0    0  501    0  0.00000000000E+00 -0.00000000000E+00 -0.35296432340E+03  0.35296432340E+03  0.00000000000E+00 0. -1.
         25    2    1    2    0    0 -0.62947928227E+02 -0.68333275725E+02 -0.10621850547E+03  0.18857889711E+03  0.12509097207E+03 0.  0.
         23    2    1    2    0    0  0.62947928227E+02  0.68333275725E+02 -0.18617552145E+03  0.22495572277E+03  0.85509497612E+02 0.  0.
          5    1    3    3  502    0 -0.64534027840E+02 -0.55106473807E+02 -0.13332026156E+03  0.15809215271E+03  0.41800000000E+01 0. -1.
         -5    1    3    3    0  502  0.15860996127E+01 -0.13226801918E+02  0.27101756094E+02  0.30486744403E+02  0.41800000000E+01 0. -1.
        -11    1    4    4    0    0  0.28996192501E+02  0.49901445452E+02 -0.31954980652E+02  0.65970101002E+02  0.00000000000E+00 0.  1.
         11    1    4    4    0    0  0.33951735726E+02  0.18431830273E+02 -0.15422054080E+03  0.15898562177E+03  0.00000000000E+00 0. -1.
</event>
<event>
 8    1  0.3708258E-009  0.1382408E+03  0.7561462E-02  0.1215716E+00
         -2   -1    0    0    0  501 -0.00000000000E+00  0.00000000000E+00  0.54380956870E+02  0.54380956870E+02  0.00000000000E+00 0. -1.
          2   -1    0    0  501    0  0.00000000000E+00 -0.00000000000E+00 -0.48933289945E+03  0.48933289945E+03  0.00000000000E+00 0.  1.
         25    2    1    2    0    0  0.29121459687E+02 -0.10954080853E+03 -0.15991745173E+03  0.23252566361E+03  0.12508934694E+03 0.  0.
         23    2    1    2    0    0 -0.29121459687E+02  0.10954080853E+03 -0.27503449085E+03  0.31118819271E+03  0.91361217040E+02 0.  0.
          5    1    3    3  502    0 -0.21057458278E+02 -0.34016447561E+02  0.85843884281E+01  0.41130273261E+02  0.41800000000E+01 0. -1.
         -5    1    3    3    0  502  0.50178917965E+02 -0.75524360973E+02 -0.16850184016E+03  0.19139539035E+03  0.41800000000E+01 0. -1.
        -11    1    4    4    0    0 -0.11416467995E+02 -0.15470846083E+02 -0.32657533922E+02  0.37897194380E+02  0.00000000000E+00 0. -1.
         11    1    4    4    0    0 -0.17704991692E+02  0.12501165462E+03 -0.24237695693E+03  0.27329099833E+03  0.00000000000E+00 0.  1.
</event>
<event>
 8    1  0.3708258E-009  0.1160699E+03  0.7561462E-02  0.1249725E+00
          2   -1    0    0  501    0  0.00000000000E+00  0.00000000000E+00  0.27665975922E+03  0.27665975922E+03  0.00000000000E+00 0. -1.
         -2   -1    0    0    0  501 -0.00000000000E+00 -0.00000000000E+00 -0.64782078573E+02  0.64782078573E+02  0.00000000000E+00 0.  1.
         25    2    1    2    0    0  0.38502837627E+02 -0.29618500912E+02  0.37833035432E+02  0.13942096248E+03  0.12508853708E+03 0.  0.
         23    2    1    2    0    0 -0.38502837627E+02  0.29618500912E+02  0.17404464522E+03  0.20202087531E+03  0.90339202076E+02 0.  0.
          5    1    3    3  502    0 -0.43590833990E+02 -0.23456075137E+02  0.25092933679E+01  0.49740498811E+02  0.41800000000E+01 0.  1.
         -5    1    3    3    0  502  0.82093671617E+02 -0.61624257752E+01  0.35323742064E+02  0.89680463672E+02  0.41800000000E+01 0.  1.
        -11    1    4    4    0    0 -0.31670425054E+02  0.60562073647E+02  0.13821240050E+03  0.15418640744E+03  0.00000000000E+00 0. -1.
         11    1    4    4    0    0 -0.68324125734E+01 -0.30943572735E+02  0.35832244720E+02  0.47834467875E+02  0.00000000000E+00 0.  1.
</event>
<event>
 8    1  0.3708258E-009  0.1030218E+03  0.7561462E-02  0.1274067E+00
         -2   -1    0    0    0  501 -0.00000000000E+00  0.00000000000E+00  0.10383639689E+03  0.10383639689E+03  0.00000000000E+00 0.  1.
          2   -1    0    0  501    0  0.00000000000E+00 -0.00000000000E+00 -0.15014996551E+03  0.15014996551E+03  0.00000000000E+00 0. -1.
         25    2    1    2    0    0  0.56888992297E+02  0.75821273489E+01 -0.44447067436E+02  0.14461919044E+03  0.12508126295E+03 0.  0.
         23    2    1    2    0    0 -0.56888992297E+02 -0.75821273489E+01 -0.18665011835E+01  0.10936717196E+03  0.93079795751E+02 0.  0.
          5    1    3    3  502    0  0.96114511209E+00  0.35068559416E+02 -0.68992195753E+02  0.77512083795E+02  0.41800000000E+01 0.  1.
         -5    1    3    3    0  502  0.55927847185E+02 -0.27486432067E+02  0.24545128317E+02  0.67107106648E+02  0.41800000000E+01 0.  1.
        -11    1    4    4    0    0 -0.59113956549E+02  0.32940871365E+02 -0.86399827358E+01  0.68221771942E+02  0.00000000000E+00 0.  1.
         11    1    4    4    0    0  0.22249642524E+01 -0.40522998713E+02  0.67734815523E+01  0.41145400022E+02  0.00000000000E+00 0. -1.
</event>
<event>
 8    1  0.3708258E-009  0.7845022E+02  0.7561462E-02  0.1333508E+00
          1   -1    0    0  501    0  0.00000000000E+00  0.00000000000E+00  0.55751017338E+02  0.55751017338E+02  0.00000000000E+00 0. -1.
         -1   -1    0    0    0  501 -0.00000000000E+00 -0.00000000000E+00 -0.33003550212E+03  0.33003550212E+03  0.00000000000E+00 0.  1.
         25    2    1    2    0    0 -0.52469351562E+02 -0.54781563382E+02 -0.11373693449E+03  0.18530422654E+03  0.12509002185E+03 0.  0.
         23    2    1    2    0    0  0.52469351562E+02  0.54781563382E+02 -0.16054755029E+03  0.20048229291E+03  0.93078361225E+02 0.  0.
          5    1    3    3  502    0 -0.20012888232E+02 -0.46650651581E+01 -0.12296698999E+03  0.12474226050E+03  0.41800000000E+01 0. -1.
         -5    1    3    3    0  502 -0.32456463331E+02 -0.50116498224E+02  0.92300554977E+01  0.60561966040E+02  0.41800000000E+01 0. -1.
        -11    1    4    4    0    0  0.36013703247E+02  0.33606400233E+02 -0.16596713356E+03  0.17312269170E+03  0.00000000000E+00 0.  1.
         11    1    4    4    0    0  0.16455648316E+02  0.21175163149E+02  0.54195832721E+01  0.27359601216E+02  0.00000000000E+00 0. -1.
</event>
<event>
 8    1  0.3708258E-009  0.1238887E+03  0.7561462E-02  0.1236816E+00
          1   -1    0    0  501    0  0.00000000000E+00  0.00000000000E+00  0.22268738130E+03  0.22268738130E+03  0.00000000000E+00 0. -1.
         -1   -1    0    0    0  501 -0.00000000000E+00 -0.00000000000E+00 -0.10268263467E+03  0.10268263467E+03  0.00000000000E+00 0.  1.
         25    2    1    2    0    0  0.98105782455E+02  0.29987688014E+02  0.39148916926E+02  0.16644388437E+03  0.12508766112E+03 0.  0.
         23    2    1    2    0    0 -0.98105782455E+02 -0.29987688014E+02  0.80855829701E+02  0.15892613160E+03  0.90530901491E+02 0.  0.
          5    1    3    3  502    0  0.82282744518E+02 -0.81594926912E-01  0.78836359920E+02  0.11403113938E+03  0.41800000000E+01 0. -1.
         -5    1    3    3    0  502  0.15823037937E+02  0.30069282941E+02 -0.39687442994E+02  0.52412744992E+02  0.41800000000E+01 0. -1.
        -11    1    4    4    0    0 -0.36464752224E+02  0.28423213663E+02  0.77619376767E+01  0.46880751980E+02  0.00000000000E+00 0.  1.
         11    1    4    4    0    0 -0.61641030232E+02 -0.58410901677E+02  0.73093892024E+02  0.11204537962E+03  0.00000000000E+00 0. -1.
</event>
<event>
 8    1  0.3708258E-009  0.1012874E+03  0.7561462E-02  0.1277612E+00
         -1   -1    0    0    0  501 -0.00000000000E+00  0.00000000000E+00  0.14932876091E+03  0.14932876091E+03  0.00000000000E+00 0.  1.
          1   -1    0    0  501    0  0.00000000000E+00 -0.00000000000E+00 -0.11236394280E+03  0.11236394280E+03  0.00000000000E+00 0. -1.
         25    2    1    2    0    0 -0.66375214139E+02  0.27339549960E+01  0.10894932675E+02  0.14205242625E+03  0.12508816364E+03 0.  0.
         23    2    1    2    0    0  0.66375214139E+02 -0.27339549960E+01  0.26069885430E+02  0.11964027746E+03  0.96026108444E+02 0.  0.
          5    1    3    3  502    0 -0.15244852795E+02  0.55495761744E+02 -0.21591047078E+02  0.61610314252E+02  0.41800000000E+01 0. -1.
         -5    1    3    3    0  502 -0.51130361344E+02 -0.52761806748E+02  0.32485979753E+02  0.80442111999E+02  0.41800000000E+01 0. -1.
        -11    1    4    4    0    0  0.44667647761E+02  0.10462918126E+02 -0.32216196323E+02  0.56058493716E+02  0.00000000000E+00 0. -1.
         11    1    4    4    0    0  0.21707566378E+02 -0.13196873122E+02  0.58286081753E+02  0.63581783746E+02  0.00000000000E+00 0.  1.
</event>
<event>
 8    1  0.3708258E-009  0.1142435E+03  0.7561462E-02  0.1252907E+00
          4   -1    0    0  501    0  0.00000000000E+00  0.00000000000E+00  0.70684589513E+03  0.70684589513E+03  0.00000000000E+00 0.  1.
         -4   -1    0    0    0  501 -0.00000000000E+00 -0.00000000000E+00 -0.21174073749E+02  0.21174073749E+02  0.00000000000E+00 0. -1.
         25    2    1    2    0    0 -0.10839205691E+02 -0.57600033283E+02  0.37989257546E+03  0.40422931874E+03  0.12509085110E+03 0.  0.
         23    2    1    2    0    0  0.10839205691E+02  0.57600033283E+02  0.30577924592E+03  0.32379065013E+03  0.88905487254E+02 0.  0.
          5    1    3    3  502    0  0.54129807652E+02 -0.35259570797E+02  0.13293957150E+03  0.14786370576E+03  0.41800000000E+01 0.  1.
         -5    1    3    3    0  502 -0.64969013343E+02 -0.22340462486E+02  0.24695300396E+03  0.25636561299E+03  0.41800000000E+01 0.  1.
        -11    1    4    4    0    0  0.31913002577E+02 -0.17297759430E+01  0.18341195170E+03  0.18617565868E+03  0.00000000000E+00 0.  1.
         11    1    4    4    0    0 -0.21073796886E+02  0.59329809226E+02  0.12236729422E+03  0.13761499145E+03  0.00000000000E+00 0. -1.
</event>
<event>
 8    1  0.3708258E-009  0.1746611E+03  0.7561462E-02  0.1173072E+00
         -3   -1    0    0    0  501 -0.00000000000E+00  0.00000000000E+00  0.98219226505E+02  0.98219226505E+02  0.00000000000E+00 0.  1.
          3   -1    0    0  501    0  0.00000000000E+00 -0.00000000000E+00 -0.38548725040E+03  0.38548725040E+03  0.00000000000E+00 0. -1.
         25    2    1    2    0    0  0.71933192773E+02 -0.14325813565E+03 -0.18220016094E+03  0.27302214448E+03  0.12508762959E+03 0.  0.
         23    2    1    2    0    0 -0.71933192773E+02  0.14325813565E+03 -0.10506786295E+03  0.21068433242E+03  0.87472020948E+02 0.  0.
          5    1    3    3  502    0  0.12376323474E+01 -0.49549555200E+02  0.70964146145E+01  0.50244618167E+02  0.41800000000E+01 0.  1.
         -5    1    3    3    0  502  0.70695560426E+02 -0.93708580453E+02 -0.18929657555E+03  0.22277752631E+03  0.41800000000E+01 0.  1.
        -11    1    4    4    0    0  0.19830147033E+02  0.17524643124E+02 -0.99964200391E+01  0.28289154487E+02  0.00000000000E+00 0. -1.
         11    1    4    4    0    0 -0.91763339806E+02  0.12573349253E+03 -0.95071442911E+02  0.18239517793E+03  0.00000000000E+00 0.  1.
</event>
<event>
 8    1  0.3708258E-009  0.1073816E+03  0.7561462E-02  0.1265497E+00
         -1   -1    0    0    0  501 -0.00000000000E+00  0.00000000000E+00  0.78148864022E+02  0.78148864022E+02  0.00000000000E+00 0.  1.
          1   -1    0    0  501    0  0.00000000000E+00 -0.00000000000E+00 -0.27721604916E+03  0.27721604916E+03  0.00000000000E+00 0. -1.
         25    2    1    2    0    0 -0.88914280694E+02  0.37603199528E+02 -0.12588715440E+03  0.20202734111E+03  0.12509085094E+03 0.  0.
         23    2    1    2    0    0  0.88914280694E+02 -0.37603199528E+02 -0.73180030734E+02  0.15333757206E+03  0.94007149635E+02 0.  0.
          5    1    3    3  502    0 -0.97228851799E+02  0.35976616498E+02 -0.14640289734E+03  0.17944092985E+03  0.41800000000E+01 0. -1.
         -5    1    3    3    0  502  0.83145711045E+01  0.16265830301E+01  0.20515742943E+02  0.22586411258E+02  0.41800000000E+01 0. -1.
        -11    1    4    4    0    0  0.41358983425E+02 -0.69800105617E+00 -0.82629374438E+02  0.92404903741E+02  0.00000000000E+00 0. -1.
         11    1    4    4    0    0  0.47555297269E+02 -0.36905198472E+02  0.94493437039E+01  0.60932668324E+02  0.00000000000E+00 0.  1.
</event>
<event>
 8    1  0.3708258E-009  0.7472596E+02  0.7561462E-02  0.1344722E+00
          2   -1    0    0  501    0  0.00000000000E+00  0.00000000000E+00  0.60468908846E+03  0.60468908846E+03  0.00000000000E+00 0. -1.
         -2   -1    0    0    0  501 -0.00000000000E+00 -0.00000000000E+00 -0.25651311219E+02  0.25651311219E+02  0.00000000000E+00 0.  1.
         25    2    1    2    0    0  0.18051844195E+02  0.33787622841E+02  0.42608499006E+03  0.44571679404E+03  0.12509024422E+03 0.  0.
         23    2    1    2    0    0 -0.18051844195E+02 -0.33787622841E+02  0.15295278718E+03  0.18462360564E+03  0.96040866909E+02 0.  0.
          5    1    3    3  502    0  0.12567688730E+02  0.56589757387E+02  0.80372177704E+02  0.99184206354E+02  0.41800000000E+01 0.  1.
         -5    1    3    3    0  502  0.54841554645E+01 -0.22802134546E+02  0.34571281236E+03  0.34653258768E+03  0.41800000000E+01 0.  1.
        -11    1    4    4    0    0  0.52973765106E+01  0.13648058876E+02 -0.69505619495E+01  0.16206233998E+02  0.00000000000E+00 0.  1.
         11    1    4    4    0    0 -0.23349220705E+02 -0.47435681717E+02  0.15990334913E+03  0.16841737164E+03  0.00000000000E+00 0. -1.
</event>
<event>
 8    1  0.3708258E-009  0.1322033E+03  0.7561462E-02  0.1224223E+00
          3   -1    0    0  501    0  0.00000000000E+00  0.00000000000E+00  0.49667715073E+02  0.49667715073E+02  0.00000000000E+00 0. -1.
         -3   -1    0    0    0  501 -0.00000000000E+00 -0.00000000000E+00 -0.38207898741E+03  0.38207898741E+03  0.00000000000E+00 0.  1.
         25    2    1    2    0    0  0.25876998550E+02  0.81632303515E+02 -0.18941027097E+03  0.24260538049E+03  0.12509063858E+03 0.  0.
         23    2    1    2    0    0 -0.25876998550E+02 -0.81632303515E+02 -0.14300100137E+03  0.18914132200E+03  0.89396315718E+02 0.  0.
          5    1    3    3  502    0 -0.50591778325E+02  0.29444804135E+02 -0.80093048694E+02  0.99291960268E+02  0.41800000000E+01 0.  1.
         -5    1    3    3    0  502  0.76468776875E+02  0.52187499380E+02 -0.10931722228E+03  0.14331342022E+03  0.41800000000E+01 0.  1.
        -11    1    4    4    0    0  0.13561979693E+02 -0.70883945185E+02 -0.50713918015E+02  0.88206362914E+02  0.00000000000E+00 0. -1.
         11    1    4    4    0    0 -0.39438978242E+02 -0.10748358330E+02 -0.92287083352E+02  0.10093495908E+03  0.00000000000E+00 0.  1.
</event>
<event>
 8    1  0.3708258E-009  0.1343714E+03  0.7561462E-02  0.1221110E+00
          1   -1    0    0  501    0  0.00000000000E+00  0.00000000000E+00  0.71002648024E+03  0.71002648024E+03  0.00000000000E+00 0. -1.
         -1   -1    0    0    0  501 -0.00000000000E+00 -0.00000000000E+00 -0.40519822460E+02  0.40519822460E+02  0.00000000000E+00 0.  1.
         25    2    1    2    0    0 -0.11565930630E+03  0.31583824967E+02  0.46864559005E+03  0.49965028709E+03  0.12508839748E+03 0.  0.
         23    2    1    2    0    0  0.11565930630E+03 -0.31583824967E+02  0.20086106773E+03  0.25089601561E+03  0.90713995525E+02 0.  0.
          5    1    3    3  502    0 -0.25279632821E+02  0.13324928846E+02  0.34050884330E+03  0.34173141256E+03  0.41800000000E+01 0. -1.
         -5    1    3    3    0  502 -0.90379673479E+02  0.18258896121E+02  0.12813674674E+03  0.15791887453E+03  0.41800000000E+01 0. -1.
        -11    1    4    4    0    0  0.32168266840E+02  0.29865938124E+02  0.39196246796E+02  0.58848257531E+02  0.00000000000E+00 0.  1.
         11    1    4    4    0    0  0.83491039460E+02 -0.61449763092E+02  0.16166482093E+03  0.19204775807E+03  0.00000000000E+00 0. -1.
</event>
<event>
 8    1  0.3708258E-009  0.9666221E+02  0.7561462E-02  0.1287476E+00
         -1   -1    0    0    0  501 -0.00000000000E+00  0.00000000000E+00  0.18011087436E+02  0.18011087436E+02  0.00000000000E+00 0.  1.
          1   -1    0    0  501    0  0.00000000000E+00 -0.00000000000E+00 -0.90113299873E+03  0.90113299873E+03  0.00000000000E+00 0. -1.
         25    2    1    2    0    0 -0.20278497851E+02  0.18734768964E+02 -0.71101463364E+03  0.72246192853E+03  0.12508884797E+03 0.  0.
         23    2    1    2    0    0  0.20278497851E+02 -0.18734768964E+02 -0.17210727766E+03  0.19668215764E+03  0.91108435761E+02 0.  0.
          5    1    3    3  502    0 -0.42840826130E+02  0.48048419824E+02 -0.20117126764E+03  0.21126130350E+03  0.41800000000E+01 0. -1.
         -5    1    3    3    0  502  0.22562328279E+02 -0.29313650860E+02 -0.50984336600E+03  0.51120062504E+03  0.41800000000E+01 0. -1.
        -11    1    4    4    0    0  0.32172109073E+02  0.28438200495E+02 -0.10786813317E+03  0.11610043068E+03  0.00000000000E+00 0.  1.
         11    1    4    4    0    0 -0.11893611222E+02 -0.47172969459E+02 -0.64239144486E+02  0.80581726959E+02  0.00000000000E+00 0. -1.
</event>
<event>
 8    1  0.3708258E-009  0.9889211E+02  0.7561462E-02  0.1282643E+00
          2   -1    0    0  501    0  0.00000000000E+00  0.00000000000E+00  0.39259374615E+03  0.39259374615E+03  0.00000000000E+00 0.  1.
         -2   -1    0    0    0  501 -0.00000000000E+00 -0.00000000000E+00 -0.40060468083E+02  0.40060468083E+02  0.00000000000E+00 0. -1.
         25    2    1    2    0    0 -0.19047838112E+02 -0.37639666042E+02  0.11468876754E+03  0.17487300769E+03  0.12508993094E+03 0.  0.
         23    2    1    2    0    0  0.19047838112E+02  0.37639666042E+02  0.23784451053E+03  0.25778120655E+03  0.90008747700E+02 0.  0.
          5    1    3    3  502    0  0.41802249667E+02 -0.85787006623E+01  0.95427948720E+02  0.10461829658E+03  0.41800000000E+01 0. -1.
         -5    1    3    3    0  502 -0.60850087778E+02 -0.29060965380E+02  0.19260818817E+02  0.70254711108E+02  0.41800000000E+01 0. -1.
        -11    1    4    4    0    0  0.14256124429E+02 -0.22704702162E+02  0.14135583785E+03  0.14387568759E+03  0.00000000000E+00 0.  1.
         11    1    4    4    0    0  0.47917136824E+01  0.60344368204E+02  0.96488672677E+02  0.11390551896E+03  0.00000000000E+00 0. -1.
</event>
<event>
 8    1  0.3708258E-009  0.1137585E+03  0.7561462E-02  0.1253764E+00
         -1   -1    0    0    0  501 -0.00000000000E+00  0.00000000000E+00  0.53267826130E+02  0.53267826130E+02  0.00000000000E+00 0.  1.
          1   -1    0    0  501    0  0.00000000000E+00 -0.00000000000E+00 -0.28140560166E+03  0.28140560166E+03  0.00000000000E+00 0. -1.
         25    2    1    2    0    0 -0.39939225275E+02  0.23526697979E+01 -0.17093264490E+03  0.21555923700E+03  0.12508852382E+03 0.  0.
         23    2    1    2    0    0  0.39939225275E+02 -0.23526697979E+01 -0.57205130636E+02  0.11911419080E+03  0.96514696847E+02 0.  0.
          5    1    3    3  502    0  0.32443034772E+02  0.34065188835E+02 -0.93972089053E+02  0.10517230394E+03  0.41800000000E+01 0. -1.
         -5    1    3    3    0  502 -0.72382260046E+02 -0.31712519037E+02 -0.76960555843E+02  0.11038693305E+03  0.41800000000E+01 0. -1.
        -11    1    4    4    0    0  0.27240780894E+02 -0.47225753740E+02 -0.45553525605E+02  0.71045447814E+02  0.00000000000E+00 0.  1.
         11    1    4    4    0    0  0.12698444381E+02  0.44873083942E+02 -0.11651605032E+02  0.48068742983E+02  0.00000000000E+00 0. -1.
</event>
<event>
 8    1  0.3708258E-009  0.1233944E+03  0.7561462E-02  0.1237600E+00
          2   -1    0    0  501    0  0.00000000000E+00  0.00000000000E+00  0.34538081999E+03  0.34538081999E+03  0.00000000000E+00 0.  1.
         -2   -1    0    0    0  501 -0.00000000000E+00 -0.00000000000E+00 -0.59210633472E+02  0.59210633472E+02  0.00000000000E+00 0. -1.
         25    2    1    2    0    0 -0.70933311701E+02  0.54706358051E+02  0.11874203015E+03  0.19434978200E+03  0.12509135749E+03 0.  0.
         23    2    1    2    0    0  0.70933311701E+02 -0.54706358051E+02  0.16742815636E+03  0.21024167146E+03  0.90249944909E+02 0.  0.
          5    1    3    3  502    0 -0.63878226798E+02 -0.28502394913E+02  0.58732697897E+02  0.91432032554E+02  0.41800000000E+01 0.  1.
         -5    1    3    3    0  502 -0.70550849029E+01  0.83208752965E+02  0.60009332257E+02  0.10291774944E+03  0.41800000000E+01 0.  1.
        -11    1    4    4    0    0  0.53070913757E+02 -0.25527339643E+02  0.16584730361E+03  0.17599288358E+03  0.00000000000E+00 0.  1.
         11    1    4    4    0    0  0.17862397944E+02 -0.29179018408E+02  0.15808527470E+01  0.34248787876E+02  0.00000000000E+00 0. -1.
</event>
<event>
 8    1  0.3708258E-009  0.1125456E+03  0.7561462E-02  0.1255927E+00
         -1   -1    0    0    0  501 -0.00000000000E+00  0.00000000000E+00  0.19117532036E+02  0.19117532036E+02  0.00000000000E+00 0.  1.
          1   -1    0    0  501    0  0.00000000000E+00 -0.00000000000E+00 -0.73578026549E+03  0.73578026549E+03  0.00000000000E+00 0. -1.
         25    2    1    2    0    0  0.51485607431E+02  0.68635758384E+01 -0.45398368034E+03  0.47375817256E+03  0.12509095734E+03 0.  0.
         23    2    1    2    0    0 -0.51485607431E+02 -0.68635758384E+01 -0.26267905312E+03  0.28113962497E+03  0.85681546058E+02 0.  0.
          5    1    3    3  502    0 -0.25581310984E+02 -0.38106489664E+02 -0.15954673950E+03  0.16606969173E+03  0.41800000000E+01 0. -1.
         -5    1    3    3    0  502  0.77066918415E+02  0.44970065502E+02 -0.29443694084E+03  0.30768848083E+03  0.41800000000E+01 0. -1.
        -11    1    4    4    0    0  0.51719190816E+01 -0.28548515035E+02 -0.15368682977E+03  0.15640143255E+03  0.00000000000E+00 0. -1.
         11    1    4    4    0    0 -0.56657526512E+02  0.21684939197E+02 -0.10899222334E+03  0.12473819242E+03  0.00000000000E+00 0.  1.
</event>
<event>
 8    1  0.3708258E-009  0.1032041E+03  0.7561462E-02  0.1273699E+00
         -4   -1    0    0    0  501 -0.00000000000E+00  0.00000000000E+00  0.24689252713E+03  0.24689252713E+03  0.00000000000E+00 0. -1.
          4   -1    0    0  501    0  0.00000000000E+00 -0.00000000000E+00 -0.67839019385E+02  0.67839019385E+02  0.00000000000E+00 0.  1.
         25    2    1    2    0    0 -0.57931807309E+02  0.26186263702E+02  0.12797825192E+03  0.18991586240E+03  0.12509111529E+03 0.  0.
         23    2    1    2    0    0  0.57931807309E+02 -0.26186263702E+02  0.51075255825E+02  0.12481568411E+03  0.94490520886E+02 0.  0.
          5    1    3    3  502    0  0.24095307204E+02  0.45330245687E+02  0.26357986746E+02  0.57858714717E+02  0.41800000000E+01 0. -1.
         -5    1    3    3    0  502 -0.82027114514E+02 -0.19143981985E+02  0.10162026517E+03  0.13205714769E+03  0.41800000000E+01 0. -1.
        -11    1    4    4    0    0  0.18308565438E+02 -0.24920912959E+02 -0.24514149111E+02  0.39461360566E+02  0.00000000000E+00 0.  1.
         11    1    4    4    0    0  0.39623241872E+02 -0.12653507431E+01  0.75589404936E+02  0.85354323543E+02  0.00000000000E+00 0. -1.
</event>
<event>
 8    1  0.3708258E-009  0.1155224E+03  0.7561462E-02  0.1250672E+00
         -1   -1    0    0    0  501 -0.00000000000E+00  0.00000000000E+00  0.25756932523E+02  0.25756932523E+02  0.00000000000E+00 0.  1.
          1   -1    0    0  501    0  0.00000000000E+00 -0.00000000000E+00 -0.80120965508E+03  0.80120965508E+03  0.00000000000E+00 0. -1.
         25    2    1    2    0    0 -0.78108919723E+02  0.14920171582E+02 -0.27158540959E+03  0.30940390656E+03  0.12509407592E+03 0.  0.
         23    2    1    2    0    0  0.78108919723E+02 -0.14920171582E+02 -0.50386731297E+03  0.51756268105E+03  0.87551384190E+02 0.  0.
          5    1    3    3  502    0 -0.10091092216E+03  0.21646653380E+02 -0.26494720626E+03  0.28436962974E+03  0.41800000000E+01 0.  1.
         -5    1    3    3    0  502  0.22802002436E+02 -0.67264817981E+01 -0.66382033350E+01  0.25034276822E+02  0.41800000000E+01 0.  1.
        -11    1    4    4    0    0  0.64159972074E+02 -0.39506685637E+02 -0.45426110362E+03  0.46046762154E+03  0.00000000000E+00 0. -1.
         11    1    4    4    0    0  0.13948947649E+02  0.24586514055E+02 -0.49606209349E+02  0.57095059505E+02  0.00000000000E+00 0.  1.
</event>
<event>
 8    1  0.3708258E-009  0.1333469E+03  0.7561462E-02  0.1222572E+00
         -2   -1    0    0    0  501 -0.00000000000E+00  0.00000000000E+00  0.28815606219E+02  0.28815606219E+02  0.00000000000E+00 0.  1.
          2   -1    0    0  501    0  0.00000000000E+00 -0.00000000000E+00 -0.89900478477E+03  0.89900478477E+03  0.00000000000E+00 0. -1.
         25    2    1    2    0    0  0.10706991693E+03  0.43172377484E+02 -0.53566890724E+03  0.56206506305E+03  0.12509250832E+03 0.  0.
         23    2    1    2    0    0 -0.10706991693E+03 -0.43172377484E+02 -0.33452027131E+03  0.36575532793E+03  0.92440936303E+02 0.  0.
          5    1    3    3  502    0  0.23018660439E+02 -0.31021336037E+01 -0.68185089932E+01  0.24565146573E+02  0.41800000000E+01 0. -1.
         -5    1    3    3    0  502  0.84051256490E+02  0.46274511088E+02 -0.52885039824E+03  0.53749991648E+03  0.41800000000E+01 0. -1.
        -11    1    4    4    0    0  0.38282551502E+01 -0.35700990696E+02 -0.65886666293E+02  0.75035118907E+02  0.00000000000E+00 0. -1.
         11    1    4    4    0    0 -0.11089817208E+03 -0.74713867875E+01 -0.26863360502E+03  0.29072020903E+03  0.00000000000E+00 0.  1.
</event>
<event>
 8    1  0.3708258E-009  0.1418588E+03  0.7561462E-02  0.1210849E+00
          1   -1    0    0  501    0  0.00000000000E+00  0.00000000000E+00  0.30515703710E+03  0.30515703710E+03  0.00000000000E+00 0. -1.
         -1   -1    0    0    0  501 -0.00000000000E+00 -0.00000000000E+00 -0.94594763333E+02  0.94594763333E+02  0.00000000000E+00 0.  1.
         25    2    1    2    0    0 -0.27794905183E+02 -0.12206569341E+03  0.15568125263E+03  0.23570405918E+03  0.12508861191E+03 0.  0.
         23    2    1    2    0    0  0.27794905183E+02  0.12206569341E+03  0.54881021138E+02  0.16404774126E+03  0.90703608912E+02 0.  0.
          5    1    3    3  502    0 -0.33130975847E+02 -0.11319153138E+03  0.17635963938E+03  0.21220315535E+03  0.41800000000E+01 0. -1.
         -5    1    3    3    0  502  0.53360706636E+01 -0.88741620318E+01 -0.20678386753E+02  0.23500903825E+02  0.41800000000E+01 0. -1.
        -11    1    4    4    0    0 -0.31689958498E+02  0.23657760771E+02  0.12072927669E+02  0.41348502957E+02  0.00000000000E+00 0.  1.
         11    1    4    4    0    0  0.59484863682E+02  0.98407932641E+02  0.42808093469E+02  0.12269923830E+03  0.00000000000E+00 0. -1.
</event>
<event>
 8    1  0.3708258E-009  0.2154005E+03  0.7561462E-02  0.1137359E+00
          1   -1    0    0  501    0  0.00000000000E+00  0.00000000000E+00  0.35898743435E+03  0.35898743435E+03  0.00000000000E+00 0.  1.
         -1   -1    0    0    0  501 -0.00000000000E+00 -0.00000000000E+00 -0.13567635849E+03  0.13567635849E+03  0.00000000000E+00 0. -1.
         25    2    1    2    0    0  0.19043615329E+03  0.17891418468E+02  0.10199843039E+03  0.25027492315E+03  0.12509127075E+03 0.  0.
         23    2    1    2    0    0 -0.19043615329E+03 -0.17891418468E+02  0.12131264547E+03  0.24438886969E+03  0.91777613515E+02 0.  0.
          5    1    3    3  502    0  0.20451204018E+03  0.33235442431E+02  0.94320664842E+02  0.22769196172E+03  0.41800000000E+01 0.  1.
         -5    1    3    3    0  502 -0.14075886891E+02 -0.15344023963E+02  0.76777655466E+01  0.22582961429E+02  0.41800000000E+01 0.  1.
        -11    1    4    4    0    0 -0.64283809348E+02 -0.37858239389E+02  0.10583426099E+02  0.75350271014E+02  0.00000000000E+00 0. -1.
         11    1    4    4    0    0 -0.12615234395E+03  0.19966820921E+02  0.11072921937E+03  0.16903859868E+03  0.00000000000E+00 0.  1.
</event>
<event>
 8    1  0.3708258E-009  0.1328120E+03  0.7561462E-02  0.1223342E+00
         -1   -1    0    0    0  501 -0.00000000000E+00  0.00000000000E+00  0.31433763960E+02  0.31433763960E+02  0.00000000000E+00 0.  1.
          1   -1    0    0  501    0  0.00000000000E+00 -0.00000000000E+00 -0.69454875041E+03  0.69454875041E+03  0.00000000000E+00 0. -1.
         25    2    1    2    0    0  0.71502552845E+02 -0.54705678762E+02 -0.46994323909E+03  0.49457009013E+03  0.12509036627E+03 0.  0.
         23    2    1    2    0    0 -0.71502552845E+02  0.54705678762E+02 -0.19317174736E+03  0.23141242424E+03  0.90172389134E+02 0.  0.
          5    1    3    3  502    0  0.84122915823E+02 -0.77592895344E+02 -0.27580057059E+03  0.29863146102E+03  0.41800000000E+01 0.  1.
         -5    1    3    3    0  502 -0.12620362979E+02  0.22887216581E+02 -0.19414266850E+03  0.19593862911E+03  0.41800000000E+01 0.  1.
        -11    1    4    4    0    0 -0.30263631778E+02 -0.22089998806E+02 -0.37579048309E+02  0.53066376619E+02  0.00000000000E+00 0.  1.
         11    1    4    4    0    0 -0.41238921067E+02  0.76795677568E+02 -0.15559269905E+03  0.17834604762E+03  0.00000000000E+00 0. -1.
</event>
<event>
 8    1  0.3708258E-009  0.1025647E+03  0.7561462E-02  0.1274993E+00
          2   -1    0    0  501    0  0.00000000000E+00  0.00000000000E+00  0.60133550637E+03  0.60133550637E+03  0.00000000000E+00 0. -1.
         -2   -1    0    0    0  501 -0.00000000000E+00 -0.00000000000E+00 -0.20409356834E+02  0.20409356834E+02  0.00000000000E+00 0.  1.
         25    2    1    2    0    0  0.18405083386E+02  0.15661914200E+02  0.31618414612E+03  0.34088860063E+03  0.12509428896E+03 0.  0.
         23    2    1    2    0    0 -0.18405083386E+02 -0.15661914200E+02  0.26474200341E+03  0.28085626257E+03  0.90597291377E+02 0.  0.
          5    1    3    3  502    0 -0.19684648190E+02 -0.48271912575E+02  0.11474504965E+03  0.12610139467E+03  0.41800000000E+01 0. -1.
         -5    1    3    3    0  502  0.38089731576E+02  0.63933826774E+02  0.20143909647E+03  0.21478720596E+03  0.41800000000E+01 0. -1.
        -11    1    4    4    0    0 -0.99303874744E+01  0.30129798034E+02  0.19116884533E+03  0.19378324166E+03  0.00000000000E+00 0. -1.
         11    1    4    4    0    0 -0.84746959112E+01 -0.45791712234E+02  0.73573158084E+02  0.87073020910E+02  0.00000000000E+00 0.  1.
</event>
<event>
 8    1  0.3708258E-009  0.1787585E+03  0.7561462E-02  0.1169010E+00
          1   -1    0    0  501    0  0.00000000000E+00  0.00000000000E+00  0.12617356188E+04  0.12617356188E+04  0.00000000000E+00 0. -1.
         -1   -1    0    0    0  501 -0.00000000000E+00 -0.00000000000E+00 -0.26492828423E+02  0.26492828423E+02  0.00000000000E+00 0.  1.
         25    2    1    2    0    0  0.10019979188E+03  0.10571916482E+03  0.70246489556E+03  0.72822892220E+03  0.12507555129E+03 0.  0.
         23    2    1    2    0    0 -0.10019979188E+03 -0.10571916482E+03  0.53277789479E+03  0.55999952500E+03  0.92361478543E+02 0.  0.
          5    1    3    3  502    0 -0.21628934136E+02 -0.42755812006E+01  0.15677251910E+03  0.15837040927E+03  0.41800000000E+01 0.  1.
         -5    1    3    3    0  502  0.12182872602E+03  0.10999474602E+03  0.54569237646E+03  0.56985851293E+03  0.41800000000E+01 0.  1.
        -11    1    4    4    0    0 -0.67644973705E+02 -0.82769066754E+01  0.17632604905E+03  0.18903762912E+03  0.00000000000E+00 0.  1.
         11    1    4    4    0    0 -0.32554818175E+02 -0.97442258140E+02  0.35645184575E+03  0.37096189588E+03  0.00000000000E+00 0. -1.
</event>
<event>
 8    1  0.3708258E-009  0.1206515E+03  0.7561462E-02  0.1242026E+00
         -2   -1    0    0    0  501 -0.00000000000E+00  0.00000000000E+00  0.24243368956E+02  0.24243368956E+02  0.00000000000E+00 0.  1.
          2   -1    0    0  501    0  0.00000000000E+00 -0.00000000000E+00 -0.75934957163E+03  0.75934957163E+03  0.00000000000E+00 0. -1.
         25    2    1    2    0    0  0.53706202358E+02 -0.41954784564E+02 -0.52559376790E+03  0.54455596783E+03  0.12509129916E+03 0.  0.
         23    2    1    2    0    0 -0.53706202358E+02  0.41954784564E+02 -0.20951243477E+03  0.23903697275E+03  0.92728926980E+02 0.  0.
          5    1    3    3  502    0  0.23760604807E+01 -0.70126204541E+02 -0.16701101128E+03  0.18120011180E+03  0.41800000000E+01 0. -1.
         -5    1    3    3    0  502  0.51330141878E+02  0.28171419977E+02 -0.35858275662E+03  0.36335585604E+03  0.41800000000E+01 0. -1.
        -11    1    4    4    0    0  0.16649930999E+02  0.38411900229E+02 -0.54123014731E+02  0.68425105079E+02  0.00000000000E+00 0.  1.
         11    1    4    4    0    0 -0.70356133357E+02  0.35428843350E+01 -0.15538942004E+03  0.17061186767E+03  0.00000000000E+00 0. -1.
</event>
<event>
 8    1  0.3708258E-009  0.1922376E+03  0.7561462E-02  0.1156458E+00
          3   -1    0    0  501    0  0.00000000000E+00  0.00000000000E+00  0.36773767911E+03  0.36773767911E+03  0.00000000000E+00 0. -1.
         -3   -1    0    0    0  501 -0.00000000000E+00 -0.00000000000E+00 -0.13208655273E+03  0.13208655273E+03  0.00000000000E+00 0.  1.
         25    2    1    2    0    0  0.69510410489E+00  0.16876998536E+03  0.19751592056E+02  0.21100115615E+03  0.12509025294E+03 0.  0.
         23    2    1    2    0    0 -0.69510410489E+00 -0.16876998536E+03  0.21589953433E+03  0.28882307569E+03  0.91227019019E+02 0.  0.
          5    1    3    3  502    0  0.20722352462E+02 -0.28811795450E+01  0.31154183160E+02  0.37759404332E+02  0.41800000000E+01 0. -1.
         -5    1    3    3    0  502 -0.20027248357E+02  0.17165116490E+03 -0.11402591104E+02  0.17324175182E+03  0.41800000000E+01 0. -1.
        -11    1    4    4    0    0  0.32393559121E+02 -0.20451390935E+02  0.29644568451E+02  0.48439679007E+02  0.00000000000E+00 0.  1.
         11    1    4    4    0    0 -0.33088663226E+02 -0.14831859442E+03  0.18625496588E+03  0.24038339668E+03  0.00000000000E+00 0. -1.
</event>
<event>
 8    1  0.3708258E-009  0.1264035E+03  0.7561462E-02  0.1232892E+00
          2   -1    0    0  501    0  0.00000000000E+00  0.00000000000E+00  0.13077778027E+04  0.13077778027E+04  0.00000000000E+00 0.  1.
         -2   -1    0    0    0  501 -0.00000000000E+00 -0.00000000000E+00 -0.27986569124E+02  0.27986569124E+02  0.00000000000E+00 0. -1.
         25    2    1    2    0    0  0.91685962755E+02 -0.63112062620E+02  0.10622412427E+04  0.10753593586E+04  0.12510733083E+03 0.  0.
         23    2    1    2    0    0 -0.91685962755E+02  0.63112062620E+02  0.21754999089E+03  0.26040501323E+03  0.89962904392E+02 0.  0.
          5    1    3    3  502    0  0.27812197061E+01 -0.34002082963E+02  0.63221525942E+02  0.71960479232E+02  0.41800000000E+01 0. -1.
         -5    1    3    3    0  502  0.88904743049E+02 -0.29109979657E+02  0.99901971672E+03  0.10033988793E+04  0.41800000000E+01 0. -1.
        -11    1    4    4    0    0 -0.63012170907E+02  0.91318689598E+01  0.46729761608E+02  0.78978448535E+02  0.00000000000E+00 0. -1.
         11    1    4    4    0    0 -0.28673791848E+02  0.53980193660E+02  0.17082022928E+03  0.18142656470E+03  0.00000000000E+00 0.  1.
</event>
<event>
 8    1  0.3708258E-009  0.1159792E+03  0.7561462E-02  0.1249881E+00
         -2   -1    0    0    0  501 -0.00000000000E+00  0.00000000000E+00  0.10227518496E+03  0.10227518496E+03  0.00000000000E+00 0.  1.
          2   -1    0    0  501    0  0.00000000000E+00 -0.00000000000E+00 -0.22951516487E+03  0.22951516487E+03  0.00000000000E+00 0. -1.
         25    2    1    2    0    0  0.23134989582E+02 -0.55677302270E+02 -0.16345008958E+03  0.21447157256E+03  0.12508770492E+03 0.  0.
         23    2    1    2    0    0 -0.23134989582E+02  0.55677302270E+02  0.36210109665E+02  0.11731877727E+03  0.93900658826E+02 0.  0.
          5    1    3    3  502    0  0.72330648113E+02 -0.13742751365E+02 -0.94460163213E+02  0.11983647485E+03  0.41800000000E+01 0. -1.
         -5    1    3    3    0  502 -0.49195658531E+02 -0.41934550905E+02 -0.68989926365E+02  0.94635097706E+02  0.41800000000E+01 0. -1.
        -11    1    4    4    0    0  0.19195807171E+02  0.46241407139E+02  0.51027088144E+02  0.71487834431E+02  0.00000000000E+00 0.  1.
         11    1    4    4    0    0 -0.42330796753E+02  0.94358951307E+01 -0.14816978478E+02  0.45830942843E+02  0.00000000000E+00 0. -1.
</event>
<event>
 8    1  0.3708258E-009  0.1125561E+03  0.7561462E-02  0.1255908E+00
         -1   -1    0    0    0  501 -0.00000000000E+00  0.00000000000E+00  0.10350606626E+02  0.10350606626E+02  0.00000000000E+00 0.  1.
          1   -1    0    0  501    0  0.00000000000E+00 -0.00000000000E+00 -0.19375702112E+04  0.19375702112E+04  0.00000000000E+00 0. -1.
         25    2    1    2    0    0 -0.55127596550E+02 -0.68228177669E+01 -0.15223972177E+04  0.15285373897E+04  0.12509060860E+03 0.  0.
         23    2    1    2    0    0  0.55127596550E+02  0.68228177669E+01 -0.40482238681E+03  0.41938342811E+03  0.94422943008E+02 0.  0.
          5    1    3    3  502    0 -0.80490372671E+02 -0.28168896209E+02 -0.13632262354E+04  0.13658972978E+04  0.41800000000E+01 0. -1.
         -5    1    3    3    0  502  0.25362776121E+02  0.21346078442E+02 -0.15917098235E+03  0.16264009192E+03  0.41800000000E+01 0. -1.
        -11    1    4    4    0    0 -0.10569978216E+02  0.33713907554E+02 -0.90679836706E+02  0.97320012263E+02  0.00000000000E+00 0.  1.
         11    1    4    4    0    0  0.65697574766E+02 -0.26891089787E+02 -0.31414255010E+03  0.32206341584E+03  0.00000000000E+00 0. -1.
</event>
<event>
 8    1  0.3708258E-009  0.9448786E+02  0.7561462E-02  0.1292334E+00
          2   -1    0    0  501    0  0.00000000000E+00  0.00000000000E+00  0.31031329129E+02  0.31031329129E+02  0.00000000000E+00 0. -1.
         -2   -1    0    0    0  501 -0.00000000000E+00 -0.00000000000E+00 -0.57397626260E+03  0.57397626260E+03  0.00000000000E+00 0.  1.
         25    2    1    2    0    0 -0.93152579796E+01 -0.74601639666E+02 -0.25633898747E+03  0.29497420602E+03  0.12509167456E+03 0.  0.
         23    2    1    2    0    0  0.93152579796E+01  0.74601639666E+02 -0.28660594600E+03  0.31003338571E+03  0.91244469978E+02 0.  0.
          5    1    3    3  502    0 -0.29999524791E+02 -0.59467641321E+02 -0.41535842582E+02  0.78607063747E+02  0.41800000000E+01 0. -1.
         -5    1    3    3    0  502  0.20684266811E+02 -0.15133998345E+02 -0.21480314489E+03  0.21636714227E+03  0.41800000000E+01 0. -1.
        -11    1    4    4    0    0  0.27861331134E+02  0.10889496053E+02 -0.21733217600E+02  0.36975230143E+02  0.00000000000E+00 0. -1.
         11    1    4    4    0    0 -0.18546073154E+02  0.63712143613E+02 -0.26487272840E+03  0.27305815557E+03  0.00000000000E+00 0.  1.
</event>
<event>
 8    1  0.3708258E-009  0.2626918E+03  0.7561462E-02  0.1105537E+00
          2   -1    0    0  501    0  0.00000000000E+00  0.00000000000E+00  0.98812398544E+03  0.98812398544E+03  0.00000000000E+00 0. -1.
         -2   -1    0    0    0  501 -0.00000000000E+00 -0.00000000000E+00 -0.78776281662E+02  0.78776281662E+02  0.00000000000E+00 0.  1.
         25    2    1    2    0    0  0.23810764114E+03  0.94537522547E+02  0.44156957002E+03  0.52560749659E+03  0.12508782264E+03 0.  0.
         23    2    1    2    0    0 -0.23810764114E+03 -0.94537522547E+02  0.46777813376E+03  0.54129277051E+03  0.92460202487E+02 0.  0.
          5    1    3    3  502    0  0.15174299941E+03  0.47857218529E+02  0.15304185820E+03  0.22080655333E+03  0.41800000000E+01 0. -1.
         -5    1    3    3    0  502  0.86364641733E+02  0.46680304018E+02  0.28852771182E+03  0.30480094326E+03  0.41800000000E+01 0. -1.
        -11    1    4    4    0    0 -0.12776779011E+02  0.13045486441E+02  0.63924573251E+02  0.66481439994E+02  0.00000000000E+00 0. -1.
         11    1    4    4    0    0 -0.22533086213E+03 -0.10758300899E+03  0.40385356051E+03  0.47481133052E+03  0.00000000000E+00 0.  1.
</event>
<event>
 8    1  0.3708258E-009  0.1138346E+03  0.7561462E-02  0.1253629E+00
          1   -1    0    0  501    0  0.00000000000E+00  0.00000000000E+00  0.32323089796E+03  0.32323089796E+03  0.00000000000E+00 0. -1.
         -1   -1    0    0    0  501 -0.00000000000E+00 -0.00000000000E+00 -0.62342350026E+02  0.62342350026E+02  0.00000000000E+00 0.  1.
         25    2    1    2    0    0  0.69279968114E+02  0.58023735973E+02  0.16022172892E+03  0.22245236235E+03  0.12509030010E+03 0.  0.
         23    2    1    2    0    0 -0.69279968114E+02 -0.58023735973E+02  0.10066681901E+03  0.16312088563E+03  0.91149037087E+02 0.  0.
          5    1    3    3  502    0  0.69944207350E+01  0.41442983392E+02  0.15149843095E+03  0.15727583977E+03  0.41800000000E+01 0.  1.
         -5    1    3    3    0  502  0.62285547379E+02  0.16580752580E+02  0.87232979676E+01  0.65176522582E+02  0.41800000000E+01 0.  1.
        -11    1    4    4    0    0 -0.60968328618E+02 -0.78120086157E+02  0.10082869197E+03  0.14137294677E+03  0.00000000000E+00 0. -1.
         11    1    4    4    0    0 -0.83116394964E+01  0.20096350184E+02 -0.16187295380E+00  0.21747938861E+02  0.00000000000E+00 0.  1.
</event>
<event>
 8    1  0.3708258E-009  0.1199477E+03  0.7561462E-02  0.1243183E+00
         -2   -1    0    0    0  501 -0.00000000000E+00  0.00000000000E+00  0.58959398997E+02  0.58959398997E+02  0.00000000000E+00 0.  1.
          2   -1    0    0  501    0  0.00000000000E+00 -0.00000000000E+00 -0.25394429927E+03  0.25394429927E+03  0.00000000000E+00 0. -1.
         25    2    1    2    0    0 -0.33798917585E+01  0.59504245297E+02 -0.13373374100E+03  0.19256996404E+03  0.12508516575E+03 0.  0.
         23    2    1    2    0    0  0.33798917585E+01 -0.59504245297E+02 -0.61251159268E+02  0.12033373423E+03  0.84713187904E+02 0.  0.
          5    1    3    3  502    0 -0.40268511226E+02 -0.22613894326E+02 -0.61787144096E+02  0.77253250989E+02  0.41800000000E+01 0. -1.
         -5    1    3    3    0  502  0.36888619467E+02  0.82118139623E+02 -0.71946596907E+02  0.11531671305E+03  0.41800000000E+01 0. -1.
        -11    1    4    4    0    0  0.31839399956E+02 -0.66820073904E+02 -0.40639266495E+02  0.84440627943E+02  0.00000000000E+00 0.  1.
         11    1    4    4    0    0 -0.28459508198E+02  0.73158286073E+01 -0.20611892772E+02  0.35893106284E+02  0.00000000000E+00 0. -1.
</event>
<event>
 8    1  0.3708258E-009  0.1071423E+03  0.7561462E-02  0.1265955E+00
         -2   -1    0    0    0  501 -0.00000000000E+00  0.00000000000E+00  0.59503156444E+02  0.59503156444E+02  0.00000000000E+00 0.  1.
          2   -1    0    0  501    0  0.00000000000E+00 -0.00000000000E+00 -0.19996174092E+03  0.19996174092E+03  0.00000000000E+00 0. -1.
         25    2    1    2    0    0  0.81441461598E+01  0.11827980136E+02 -0.68448369496E+02  0.14331543025E+03  0.12509158657E+03 0.  0.
         23    2    1    2    0    0 -0.81441461598E+01 -0.11827980136E+02 -0.72010214982E+02  0.11614946711E+03  0.89994441040E+02 0.  0.
          5    1    3    3  502    0  0.59666795403E+02 -0.21799470382E+02 -0.41657205990E+02  0.76079817254E+02  0.41800000000E+01 0. -1.
         -5    1    3    3    0  502 -0.51522649243E+02  0.33627450518E+02 -0.26791163505E+02  0.67235612999E+02  0.41800000000E+01 0. -1.
        -11    1    4    4    0    0 -0.92080596074E+01  0.38008372931E+02 -0.19332176443E+02  0.43625197085E+02  0.00000000000E+00 0.  1.
         11    1    4    4    0    0  0.10639134476E+01 -0.49836353068E+02 -0.52678038539E+02  0.72524270029E+02  0.00000000000E+00 0. -1.
</event>
<event>
 8    1  0.3708258E-009  0.1425621E+03  0.7561462E-02  0.1209923E+00
          2   -1    0    0  501    0  0.00000000000E+00  0.00000000000E+00  0.60017404714E+03  0.60017404714E+03  0.00000000000E+00 0. -1.
         -2   -1    0    0    0  501 -0.00000000000E+00 -0.00000000000E+00 -0.55934593514E+02  0.55934593514E+02  0.00000000000E+00 0.  1.
         25    2    1    2    0    0  0.58102292421E+02  0.98767266292E+02  0.12219669569E+03  0.20907024074E+03  0.12508990307E+03 0.  0.
         23    2    1    2    0    0 -0.58102292421E+02 -0.98767266292E+02  0.42204275794E+03  0.44703839992E+03  0.92695157359E+02 0.  0.
          5    1    3    3  502    0  0.28427450851E+02 -0.27513622174E+02  0.26114895993E+02  0.47587598802E+02  0.41800000000E+01 0. -1.
         -5    1    3    3    0  502  0.29674841570E+02  0.12628088847E+03  0.96081799696E+02  0.16148264194E+03  0.41800000000E+01 0. -1.
        -11    1    4    4    0    0 -0.51102488935E+02 -0.74829751449E+02  0.40895364541E+03  0.41887234353E+03  0.00000000000E+00 0. -1.
         11    1    4    4    0    0 -0.69998034859E+01 -0.23937514843E+02  0.13089112523E+02  0.28166056386E+02  0.00000000000E+00 0.  1.
</event>
<event>
 8    1  0.3708258E-009  0.1196448E+03  0.7561462E-02  0.1243684E+00
          2   -1    0    0  501    0  0.00000000000E+00  0.00000000000E+00  0.13456488942E+04  0.13456488942E+04  0.00000000000E+00 0. -1.
         -2   -1    0    0    0  501 -0.00000000000E+00 -0.00000000000E+00 -0.13147516958E+02  0.13147516958E+02  0.00000000000E+00 0.  1.
         25    2    1    2    0    0  0.55583400930E+02 -0.32910430933E+02  0.94633958451E+03  0.95675433028E+03  0.12509048079E+03 0.  0.
         23    2    1    2    0    0 -0.55583400930E+02  0.32910430933E+02  0.38616179274E+03  0.40204208088E+03  0.91347105611E+02 0.  0.
          5    1    3    3  502    0  0.16061946009E+02  0.46970601534E+02  0.41449554944E+03  0.41747845025E+03  0.41800000000E+01 0.  1.
         -5    1    3    3    0  502  0.39521454920E+02 -0.79881032467E+02  0.53184403507E+03  0.53927588004E+03  0.41800000000E+01 0.  1.
        -11    1    4    4    0    0 -0.93698452911E+01  0.50082208008E+02  0.28485743617E+03  0.28937826543E+03  0.00000000000E+00 0. -1.
         11    1    4    4    0    0 -0.46213555639E+02 -0.17171777074E+02  0.10130435657E+03  0.11266381545E+03  0.00000000000E+00 0.  1.
</event>
<event>
 8    1  0.3708258E-009  0.1493472E+03  0.7561462E-02  0.1201277E+00
          2   -1    0    0  501    0  0.00000000000E+00  0.00000000000E+00  0.19119125098E+04  0.19119125098E+04  0.00000000000E+00 0. -1.
         -2   -1    0    0    0  501 -0.00000000000E+00 -0.00000000000E+00 -0.20568416686E+02  0.20568416686E+02  0.00000000000E+00 0.  1.
         25    2    1    2    0    0 -0.77374579340E+02  0.10969922764E+03  0.14927265575E+04  0.15039615168E+04  0.12508765876E+03 0.  0.
         23    2    1    2    0    0  0.77374579340E+02 -0.10969922764E+03  0.39861753562E+03  0.42851940973E+03  0.81928009459E+02 0.  0.
          5    1    3    3  502    0 -0.85663013814E+02  0.12186960222E+03  0.14625732420E+04  0.14701456773E+04  0.41800000000E+01 0.  1.
         -5    1    3    3    0  502  0.82884344741E+01 -0.12170374571E+02  0.30153315545E+02  0.33815839508E+02  0.41800000000E+01 0.  1.
        -11    1    4    4    0    0  0.25698182198E+02 -0.41237118074E+02  0.26722823496E+03  0.27160969430E+03  0.00000000000E+00 0. -1.
         11    1    4    4    0    0  0.51676397142E+02 -0.68462109571E+02  0.13138930066E+03  0.15690971543E+03  0.00000000000E+00 0.  1.
</event>
<event>
 8    1  0.3708258E-009  0.1127712E+03  0.7561462E-02  0.1255522E+00
          2   -1    0    0  501    0  0.00000000000E+00  0.00000000000E+00  0.37936462015E+03  0.37936462015E+03  0.00000000000E+00 0. -1.
         -2   -1    0    0    0  501 -0.00000000000E+00 -0.00000000000E+00 -0.40185066522E+02  0.40185066522E+02  0.00000000000E+00 0.  1.
         25    2    1    2    0    0  0.41277311693E+02 -0.41083579364E+02  0.18265597262E+03  0.22891506477E+03  0.12508887077E+03 0.  0.
         23    2    1    2    0    0 -0.41277311693E+02  0.41083579364E+02  0.15652358101E+03  0.19063462191E+03  0.91925245185E+02 0.  0.
          5    1    3    3  502    0 -0.10437204147E+02  0.37811225522E+02  0.30595901793E+02  0.49921995277E+02  0.41800000000E+01 0.  1.
         -5    1    3    3    0  502  0.51714515840E+02 -0.78894804886E+02  0.15206007083E+03  0.17899306949E+03  0.41800000000E+01 0.  1.
        -11    1    4    4    0    0 -0.30474990747E+02  0.61463236733E+02  0.15250029085E+03  0.16722079189E+03  0.00000000000E+00 0. -1.
         11    1    4    4    0    0 -0.10802320945E+02 -0.20379657369E+02  0.40232901614E+01  0.23413830016E+02  0.00000000000E+00 0.  1.
</event>
<event>
 8    1  0.3708258E-009  0.1172607E+03  0.7561462E-02  0.1247686E+00
          2   -1    0    0  501    0  0.00000000000E+00  0.00000000000E+00  0.21633740094E+03  0.21633740094E+03  0.00000000000E+00 0. -1.
         -2   -1    0    0    0  501 -0.00000000000E+00 -0.00000000000E+00 -0.67581080134E+02  0.67581080134E+02  0.00000000000E+00 0.  1.
         25    2    1    2    0    0 -0.50357452069E+02 -0.16993910159E+02  0.72930655032E+02  0.15423928346E+03  0.12508481186E+03 0.  0.
         23    2    1    2    0    0  0.50357452069E+02  0.16993910159E+02  0.75825665777E+02  0.12967919762E+03  0.90788197158E+02 0.  0.
          5    1    3    3  502    0  0.26027312976E+02  0.34442157325E+02  0.28579100831E+02  0.51941511590E+02  0.41800000000E+01 0.  1.
         -5    1    3    3    0  502 -0.76384765045E+02 -0.51436067484E+02  0.44351554201E+02  0.10229777187E+03  0.41800000000E+01 0.  1.
        -11    1    4    4    0    0  0.51872658257E+02  0.46354227859E+02  0.31206577456E+02  0.76245246354E+02  0.00000000000E+00 0.  1.
         11    1    4    4    0    0 -0.15152061885E+01 -0.29360317700E+02  0.44619088321E+02  0.53433951265E+02  0.00000000000E+00 0. -1.
</event>
<event>
 8    1  0.3708258E-009  0.2223722E+03  0.7561462E-02  0.1132127E+00
         -2   -1    0    0    0  501 -0.00000000000E+00  0.00000000000E+00  0.43133555737E+02  0.43133555737E+02  0.00000000000E+00 0.  1.
          2   -1    0    0  501    0  0.00000000000E+00 -0.00000000000E+00 -0.15181145808E+04  0.15181145808E+04  0.00000000000E+00 0. -1.
         25    2    1    2    0    0  0.18626399761E+03  0.58828165454E+02 -0.11358298196E+04  0.11592704846E+04  0.12507456735E+03 0.  0.
         23    2    1    2    0    0 -0.18626399761E+03 -0.58828165454E+02 -0.33915120548E+03  0.40197765200E+03  0.91692217116E+02 0.  0.
          5    1    3    3  502    0  0.11666255179E+03 -0.27358594323E+02 -0.64840270287E+03  0.65939531478E+03  0.41800000000E+01 0.  1.
         -5    1    3    3    0  502  0.69601445820E+02  0.86186759777E+02 -0.48742711676E+03  0.49987516979E+03  0.41800000000E+01 0.  1.
        -11    1    4    4    0    0 -0.75793569345E+02  0.19861467653E+02 -0.14991344390E+03  0.16915431923E+03  0.00000000000E+00 0. -1.
         11    1    4    4    0    0 -0.11047042826E+03 -0.78689633107E+02 -0.18923776158E+03  0.23282333278E+03  0.00000000000E+00 0.  1.
</event>
<event>
 8    1  0.3708258E-009  0.8342056E+02  0.7561462E-02  0.1319615E+00
         -3   -1    0    0    0  501 -0.00000000000E+00  0.00000000000E+00  0.23766653775E+03  0.23766653775E+03  0.00000000000E+00 0.  1.
          3   -1    0    0  501    0  0.00000000000E+00 -0.00000000000E+00 -0.60609861363E+02  0.60609861363E+02  0.00000000000E+00 0. -1.
         25    2    1    2    0    0 -0.44517431182E+02  0.42478871869E+01  0.62938911046E+02  0.14699854074E+03  0.12508964078E+03 0.  0.
         23    2    1    2    0    0  0.44517431182E+02 -0.42478871869E+01  0.11411776535E+03  0.15127785838E+03  0.88669497826E+02 0.  0.
          5    1    3    3  502    0 -0.35448064242E+02 -0.35654508212E+02  0.86100560329E+02  0.99792725704E+02  0.41800000000E+01 0.  1.
         -5    1    3    3    0  502 -0.90693669395E+01  0.39902395399E+02 -0.23161649283E+02  0.47205815032E+02  0.41800000000E+01 0.  1.
        -11    1    4    4    0    0  0.17468351144E+02 -0.32029105968E+02  0.67222629699E+01  0.37097112289E+02  0.00000000000E+00 0. -1.
         11    1    4    4    0    0  0.27049080038E+02  0.27781218781E+02  0.10739550238E+03  0.11418074609E+03  0.00000000000E+00 0.  1.
</event>
<event>
 8    1  0.3708258E-009  0.1349773E+03  0.7561462E-02  0.1220252E+00
          1   -1    0    0  501    0  0.00000000000E+00  0.00000000000E+00  0.55582128129E+03  0.55582128129E+03  0.00000000000E+00 0. -1.
         -1   -1    0    0    0  501 -0.00000000000E+00 -0.00000000000E+00 -0.43200222640E+02  0.43200222640E+02  0.00000000000E+00 0.  1.
         25    2    1    2    0    0 -0.48900327906E+02 -0.77945501216E+02  0.15790310439E+03  0.22146681155E+03  0.12508962792E+03 0.  0.
         23    2    1    2    0    0  0.48900327906E+02  0.77945501216E+02  0.35471795426E+03  0.37755469238E+03  0.90862398346E+02 0.  0.
          5    1    3    3  502    0 -0.16792657111E+02 -0.10004565961E+03  0.15054076797E+03  0.18157952132E+03  0.41800000000E+01 0.  1.
         -5    1    3    3    0  502 -0.32107670796E+02  0.22100158390E+02  0.73623364150E+01  0.39887290235E+02  0.41800000000E+01 0.  1.
        -11    1    4    4    0    0 -0.26188605998E+02  0.31353321660E+02  0.11896207805E+03  0.12578095991E+03  0.00000000000E+00 0. -1.
         11    1    4    4    0    0  0.75088933905E+02  0.46592179557E+02  0.23575587621E+03  0.25177373247E+03  0.00000000000E+00 0.  1.
</event>
<event>
 8    1  0.3708258E-009  0.1610425E+03  0.7561462E-02  0.1187525E+00
         -1   -1    0    0    0  501 -0.00000000000E+00  0.00000000000E+00  0.55954411360E+02  0.55954411360E+02  0.00000000000E+00 0.  1.
          1   -1    0    0  501    0  0.00000000000E+00 -0.00000000000E+00 -0.53140645578E+03  0.53140645578E+03  0.00000000000E+00 0. -1.
         25    2    1    2    0    0 -0.48408098995E+02 -0.12370978649E+03 -0.22495801687E+03  0.28965736828E+03  0.12509127199E+03 0.  0.
         23    2    1    2    0    0  0.48408098995E+02  0.12370978649E+03 -0.25049402755E+03  0.29770349885E+03  0.90734007245E+02 0.  0.
          5    1    3    3  502    0 -0.52740325433E+02 -0.17528784042E+02 -0.14867070697E+03  0.15877421613E+03  0.41800000000E+01 0. -1.
         -5    1    3    3    0  502  0.43322264383E+01 -0.10618100244E+03 -0.76287309897E+02  0.13088315215E+03  0.41800000000E+01 0. -1.
        -11    1    4    4    0    0 -0.55765822478E+01  0.10145417030E+03 -0.17362948529E+03  0.20117466318E+03  0.00000000000E+00 0. -1.
         11    1    4    4    0    0  0.53984681242E+02  0.22255616183E+02 -0.76864542252E+02  0.96528835672E+02  0.00000000000E+00 0.  1.
</event>
<event>
 8    1  0.3708258E-009  0.1623279E+03  0.7561462E-02  0.1186093E+00
          1   -1    0    0  501    0  0.00000000000E+00  0.00000000000E+00  0.14316292519E+04  0.14316292519E+04  0.00000000000E+00 0. -1.
         -1   -1    0    0    0  501 -0.00000000000E+00 -0.00000000000E+00 -0.20883883953E+02  0.20883883953E+02  0.00000000000E+00 0.  1.
         25    2    1    2    0    0  0.10851891108E+03 -0.79415388456E+02  0.73483667865E+03  0.75743989792E+03  0.12508835547E+03 0.  0.
         23    2    1    2    0    0 -0.10851891108E+03  0.79415388456E+02  0.67590868926E+03  0.69507323790E+03  0.90504650981E+02 0.  0.
          5    1    3    3  502    0  0.58882517079E+01 -0.60992932354E+02  0.13138999726E+03  0.14503659223E+03  0.41800000000E+01 0. -1.
         -5    1    3    3    0  502  0.10263065937E+03 -0.18422456102E+02  0.60344668139E+03  0.61240330568E+03  0.41800000000E+01 0. -1.
        -11    1    4    4    0    0 -0.22973512073E+02  0.68977187323E+02  0.37900604562E+03  0.38591607539E+03  0.00000000000E+00 0. -1.
         11    1    4    4    0    0 -0.85545399004E+02  0.10438201133E+02  0.29690264364E+03  0.30915716251E+03  0.00000000000E+00 0.  1.
</event>
<event>
 8    1  0.3708258E-009  0.1313744E+03  0.7561462E-02  0.1225431E+00
         -1   -1    0    0    0  501 -0.00000000000E+00  0.00000000000E+00  0.10724281701E+04  0.10724281701E+04  0.00000000000E+00 0. -1.
          1   -1    0    0  501    0  0.00000000000E+00 -0.00000000000E+00 -0.58170583597E+02  0.58170583597E+02  0.00000000000E+00 0.  1.
         25    2    1    2    0    0  0.28944859761E+02 -0.92444827627E+02  0.97997018970E+03  0.99265922096E+03  0.12508759009E+03 0.  0.
         23    2    1    2    0    0 -0.28944859761E+02  0.92444827627E+02  0.34287396825E+02  0.13793953276E+03  0.92020856630E+02 0.  0.
          5    1    3    3  502    0  0.53843518262E+02 -0.11309648779E+03  0.79987437632E+03  0.80963351604E+03  0.41800000000E+01 0. -1.
         -5    1    3    3    0  502 -0.24898658501E+02  0.20651660165E+02  0.18009581338E+03  0.18302570492E+03  0.41800000000E+01 0. -1.
        -11    1    4    4    0    0  0.68265200687E+01  0.44299027701E+02 -0.26885767801E+02  0.52267099994E+02  0.00000000000E+00 0.  1.
         11    1    4    4    0    0 -0.35771379830E+02  0.48145799926E+02  0.61173164626E+02  0.85672432765E+02  0.00000000000E+00 0. -1.
</event>
<event>
 8    1  0.3708258E-009  0.1112334E+03  0.7561462E-02  0.1258303E+00
          1   -1    0    0  501    0  0.00000000000E+00  0.00000000000E+00  0.79084628346E+02  0.79084628346E+02  0.00000000000E+00 0. -1.
         -1   -1    0    0    0  501 -0.00000000000E+00 -0.00000000000E+00 -0.18569622952E+03  0.18569622952E+03  0.00000000000E+00 0.  1.
         25    2    1    2    0    0  0.19256793018E+02  0.35987917138E+02 -0.10195196198E+03  0.16645454962E+03  0.12508781027E+03 0.  0.
         23    2    1    2    0    0 -0.19256793018E+02 -0.35987917138E+02 -0.46596391892E+01  0.98326308244E+02  0.89333064418E+02 0.  0.
          5    1    3    3  502    0 -0.29052510633E+02 -0.33178962492E+02 -0.52033908383E+02  0.68336607670E+02  0.41800000000E+01 0.  1.
         -5    1    3    3    0  502  0.48309303652E+02  0.69166879630E+02 -0.49918053597E+02  0.98117941947E+02  0.41800000000E+01 0.  1.
        -11    1    4    4    0    0  0.16388120613E+02  0.20903457827E+02 -0.14835417598E+02  0.30423915949E+02  0.00000000000E+00 0.  1.
         11    1    4    4    0    0 -0.35644913632E+02 -0.56891374965E+02  0.10175778409E+02  0.67902392295E+02  0.00000000000E+00 0. -1.
</event>
<event>
 8    1  0.3708258E-009  0.1141392E+03  0.7561462E-02  0.1253091E+00
          1   -1    0    0  501    0  0.00000000000E+00  0.00000000000E+00  0.36340841527E+02  0.36340841527E+02  0.00000000000E+00 0. -1.
         -1   -1    0    0    0  501 -0.00000000000E+00 -0.00000000000E+00 -0.38513194644E+03  0.38513194644E+03  0.00000000000E+00 0.  1.
         25    2    1    2    0    0  0.94557322922E+01 -0.46741478049E+02 -0.17733347575E+03  0.22219192650E+03  0.12509162218E+03 0.  0.
         23    2    1    2    0    0 -0.94557322922E+01  0.46741478049E+02 -0.17145762917E+03  0.19928086147E+03  0.89671436391E+02 0.  0.
          5    1    3    3  502    0  0.35540318376E+02 -0.80098273057E+02 -0.14185551894E+03  0.16679121149E+03  0.41800000000E+01 0.  1.
         -5    1    3    3    0  502 -0.26084586084E+02  0.33356795008E+02 -0.35477956805E+02  0.55400715008E+02  0.41800000000E+01 0.  1.
        -11    1    4    4    0    0  0.36829439984E+02  0.81129951827E+01 -0.41831698081E+02  0.56321570510E+02  0.00000000000E+00 0.  1.
         11    1    4    4    0    0 -0.46285172277E+02  0.38628482866E+02 -0.12962593109E+03  0.14295929096E+03  0.00000000000E+00 0. -1.
</event>
<event>
 8    1  0.3708258E-009  0.1922909E+03  0.7561462E-02  0.1156411E+00
         -2   -1    0    0    0  501 -0.00000000000E+00  0.00000000000E+00  0.10817462537E+03  0.10817462537E+03  0.00000000000E+00 0.  1.
          2   -1    0    0  501    0  0.00000000000E+00 -0.00000000000E+00 -0.38485041290E+03  0.38485041290E+03  0.00000000000E+00 0. -1.
         25    2    1    2    0    0 -0.11704335927E+03  0.12255341724E+03 -0.10145242868E+03  0.23379644535E+03  0.12509873919E+03 0.  0.
         23    2    1    2    0    0  0.11704335927E+03 -0.12255341724E+03 -0.17522335885E+03  0.25922859293E+03  0.88191552208E+02 0.  0.
          5    1    3    3  502    0 -0.13954441825E+03  0.88090458691E+02 -0.61142846306E+02  0.17603548969E+03  0.41800000000E+01 0. -1.
         -5    1    3    3    0  502  0.22501058983E+02  0.34462958548E+02 -0.40309582372E+02  0.57760955656E+02  0.41800000000E+01 0. -1.
        -11    1    4    4    0    0  0.55199167131E+02 -0.20651537070E+02 -0.17404089159E+02  0.61451902776E+02  0.00000000000E+00 0.  1.
         11    1    4    4    0    0  0.61844192134E+02 -0.10190188017E+03 -0.15781926969E+03  0.19777669016E+03  0.00000000000E+00 0. -1.
</event>
<event>
 8    1  0.3708258E-009  0.1713473E+03  0.7561462E-02  0.1176450E+00
          2   -1    0    0  501    0  0.00000000000E+00  0.00000000000E+00  0.34224280896E+03  0.34224280896E+03  0.00000000000E+00 0. -1.
         -2   -1    0    0    0  501 -0.00000000000E+00 -0.00000000000E+00 -0.92748648877E+02  0.92748648877E+02  0.00000000000E+00 0.  1.
         25    2    1    2    0    0 -0.54990612605E+02  0.12692569469E+03  0.15989955189E+03  0.24566076254E+03  0.12508894479E+03 0.  0.
         23    2    1    2    0    0  0.54990612605E+02 -0.12692569469E+03  0.89594608194E+02  0.18933069530E+03  0.93192375845E+02 0.  0.
          5    1    3    3  502    0 -0.63473148184E+02  0.60055949480E+01  0.41665537738E+02  0.76278418613E+02  0.41800000000E+01 0.  1.
         -5    1    3    3    0  502  0.84825355788E+01  0.12092009975E+03  0.11823401415E+03  0.16938234393E+03  0.41800000000E+01 0.  1.
        -11    1    4    4    0    0  0.72819734466E+02 -0.11480814672E+03  0.51156898681E+02  0.14526063666E+03  0.00000000000E+00 0.  1.
         11    1    4    4    0    0 -0.17829121861E+02 -0.12117547971E+02  0.38437709513E+02  0.44070058631E+02  0.00000000000E+00 0. -1.
</event>
<event>
 8    1  0.3708258E-009  0.1192535E+03  0.7561462E-02  0.1244334E+00
         -1   -1    0    0    0  501 -0.00000000000E+00  0.00000000000E+00  0.47735696259E+02  0.47735696259E+02  0.00000000000E+00 0.  1.
          1   -1    0    0  501    0  0.00000000000E+00 -0.00000000000E+00 -0.44216073935E+03  0.44216073935E+03  0.00000000000E+00 0. -1.
         25    2    1    2    0    0 -0.47846669035E+02  0.55430556698E+02 -0.32281629771E+03  0.35386852086E+03  0.12510282826E+03 0.  0.
         23    2    1    2    0    0  0.47846669035E+02 -0.55430556698E+02 -0.71608745388E+02  0.13602791475E+03  0.89520560890E+02 0.  0.
          5    1    3    3  502    0 -0.54042223671E+02 -0.26021517740E+02 -0.10216450735E+03  0.11854425455E+03  0.41800000000E+01 0.  1.
         -5    1    3    3    0  502  0.61955546359E+01  0.81452074438E+02 -0.22065179036E+03  0.23532426631E+03  0.41800000000E+01 0.  1.
        -11    1    4    4    0    0  0.44219750887E+02 -0.69324597827E+02 -0.83643165445E+02  0.11729222207E+03  0.00000000000E+00 0. -1.
         11    1    4    4    0    0  0.36269181479E+01  0.13894041129E+02  0.12034420057E+02  0.18735692682E+02  0.00000000000E+00 0.  1.
</event>
<event>
 8    1  0.3708258E-009  0.8786040E+02  0.7561462E-02  0.1308117E+00
          1   -1    0    0  501    0  0.00000000000E+00  0.00000000000E+00  0.21360610061E+03  0.21360610061E+03  0.00000000000E+00 0. -1.
         -1   -1    0    0    0  501 -0.00000000000E+00 -0.00000000000E+00 -0.58963991684E+02  0.58963991684E+02  0.00000000000E+00 0.  1.
         25    2    1    2    0    0 -0.20818986565E+02 -0.12162134416E+01  0.11607869189E+03  0.17192012592E+03  0.12508939846E+03 0.  0.
         23    2    1    2    0    0  0.20818986565E+02  0.12162134416E+01  0.38563417040E+02  0.10064996638E+03  0.90600050891E+02 0.  0.
          5    1    3    3  502    0 -0.52650929890E+02 -0.21667223960E+01  0.14547106353E+01  0.52881033341E+02  0.41800000000E+01 0.  1.
         -5    1    3    3    0  502  0.31831943324E+02  0.95050895434E+00  0.11462398125E+03  0.11903909258E+03  0.41800000000E+01 0.  1.
        -11    1    4    4    0    0 -0.29699181682E+02 -0.20150195585E+02  0.26166415409E+02  0.44415684955E+02  0.00000000000E+00 0.  1.
         11    1    4    4    0    0  0.50518168247E+02  0.21366409026E+02  0.12397001631E+02  0.56234281423E+02  0.00000000000E+00 0. -1.
</event>
<event>
 8    1  0.3708258E-009  0.9165522E+02  0.7561462E-02  0.1298892E+00
          2   -1    0    0  501    0  0.00000000000E+00  0.00000000000E+00  0.37735683616E+03  0.37735683616E+03  0.00000000000E+00 0. -1.
         -2   -1    0    0    0  501 -0.00000000000E+00 -0.00000000000E+00 -0.32502105120E+02  0.32502105120E+02  0.00000000000E+00 0.  1.
         25    2    1    2    0    0 -0.23254852119E+02  0.26390949427E+02  0.20031501790E+03  0.23877120713E+03  0.12509321565E+03 0.  0.
         23    2    1    2    0    0  0.23254852119E+02 -0.26390949427E+02  0.14453971314E+03  0.17108773415E+03  0.84510435700E+02 0.  0.
          5    1    3    3  502    0 -0.60625831536E+02  0.25198943343E+01  0.17965629261E+03  0.18967260527E+03  0.41800000000E+01 0. -1.
         -5    1    3    3    0  502  0.37370979417E+02  0.23871055093E+02  0.20658725287E+02  0.49098601857E+02  0.41800000000E+01 0. -1.
        -11    1    4    4    0    0  0.47818128604E+02 -0.11355551723E+02  0.42220538927E+02  0.64792714756E+02  0.00000000000E+00 0.  1.
         11    1    4    4    0    0 -0.24563276485E+02 -0.15035397704E+02  0.10231917421E+03  0.10629501939E+03  0.00000000000E+00 0. -1.
</event>
<event>
 8    1  0.3708258E-009  0.1477609E+03  0.7561462E-02  0.1203252E+00
          1   -1    0    0  501    0  0.00000000000E+00  0.00000000000E+00  0.20706943661E+03  0.20706943661E+03  0.00000000000E+00 0. -1.
         -1   -1    0    0    0  501 -0.00000000000E+00 -0.00000000000E+00 -0.11664494539E+03  0.11664494539E+03  0.00000000000E+00 0.  1.
         25    2    1    2    0    0 -0.32051802358E+02  0.10418238365E+03  0.25525945261E+02  0.16786415630E+03  0.12508202905E+03 0.  0.
         23    2    1    2    0    0  0.32051802358E+02 -0.10418238365E+03  0.64898545956E+02  0.15585022569E+03  0.90532781262E+02 0.  0.
          5    1    3    3  502    0  0.37499895259E+02  0.68890828010E+02 -0.14852448774E+02  0.79939076571E+02  0.41800000000E+01 0. -1.
         -5    1    3    3    0  502 -0.69551697616E+02  0.35291555644E+02  0.40378394034E+02  0.87925079732E+02  0.41800000000E+01 0. -1.
        -11    1    4    4    0    0 -0.27841413456E+02 -0.15525237751E+02  0.28719808462E+02  0.42906930775E+02  0.00000000000E+00 0. -1.
         11    1    4    4    0    0  0.59893215814E+02 -0.88657145903E+02  0.36178737494E+02  0.11294329492E+03  0.00000000000E+00 0.  1.
</event>
<event>
 8    1  0.3708258E-009  0.8949317E+02  0.7561462E-02  0.1304084E+00
          1   -1    0    0  501    0  0.00000000000E+00  0.00000000000E+00  0.42547108460E+03  0.42547108460E+03  0.00000000000E+00 0. -1.
         -1   -1    0    0    0  501 -0.00000000000E+00 -0.00000000000E+00 -0.33077242547E+02  0.33077242547E+02  0.00000000000E+00 0.  1.
         25    2    1    2    0    0  0.31915133215E+02 -0.45560437858E+01  0.27842266169E+03  0.30692851328E+03  0.12508637201E+03 0.  0.
         23    2    1    2    0    0 -0.31915133215E+02  0.45560437858E+01  0.11397118036E+03  0.15161981386E+03  0.94656245112E+02 0.  0.
          5    1    3    3  502    0  0.74672562887E+02 -0.65486360107E+01  0.11053716869E+03  0.13362190817E+03  0.41800000000E+01 0.  1.
         -5    1    3    3    0  502 -0.42757429672E+02  0.19925922248E+01  0.16788549299E+03  0.17330660511E+03  0.41800000000E+01 0.  1.
        -11    1    4    4    0    0 -0.22821404603E+02 -0.22688888027E+02  0.11827668052E+03  0.12257640598E+03  0.00000000000E+00 0. -1.
         11    1    4    4    0    0 -0.90937286123E+01  0.27244931813E+02 -0.43055001603E+01  0.29043407878E+02  0.00000000000E+00 0.  1.
</event>
<event>
 8    1  0.3708258E-009  0.1755283E+03  0.7561462E-02  0.1172202E+00
         -2   -1    0    0    0  501 -0.00000000000E+00  0.00000000000E+00  0.53973564025E+02  0.53973564025E+02  0.00000000000E+00 0. -1.
          2   -1    0    0  501    0  0.00000000000E+00 -0.00000000000E+00 -0.65541651264E+03  0.65541651264E+03  0.00000000000E+00 0.  1.
         25    2    1    2    0    0 -0.37316861957E+02 -0.13786023108E+03 -0.42464829483E+03  0.46515719948E+03  0.12508818661E+03 0.  0.
         23    2    1    2    0    0  0.37316861957E+02  0.13786023108E+03 -0.17679465379E+03  0.24423287718E+03  0.89416761231E+02 0.  0.
          5    1    3    3  502    0 -0.53648317287E+02 -0.62914584294E+01 -0.88265419615E+02  0.10356631256E+03  0.41800000000E+01 0.  1.
         -5    1    3    3    0  502  0.16331455329E+02 -0.13156877265E+03 -0.33638287521E+03  0.36159088693E+03  0.41800000000E+01 0.  1.
        -11    1    4    4    0    0  0.44791720977E+02  0.25332659570E+02 -0.82485217162E+02  0.97220640603E+02  0.00000000000E+00 0.  1.
         11    1    4    4    0    0 -0.74748590195E+01  0.11252757151E+03 -0.94309436625E+02  0.14701223658E+03  0.00000000000E+00 0. -1.
</event>
<event>
 8    1  0.3708258E-009  0.8888651E+02  0.7561462E-02  0.1305571E+00
          2   -1    0    0  501    0  0.00000000000E+00  0.00000000000E+00  0.47478180372E+03  0.47478180372E+03  0.00000000000E+00 0. -1.
         -2   -1    0    0    0  501 -0.00000000000E+00 -0.00000000000E+00 -0.23521890100E+02  0.23521890100E+02  0.00000000000E+00 0.  1.
         25    2    1    2    0    0 -0.19667137517E+02 -0.47033708705E+01  0.27627588272E+03  0.30394915661E+03  0.12509120047E+03 0.  0.
         23    2    1    2    0    0  0.19667137517E+02  0.47033708705E+01  0.17498403089E+03  0.19435453720E+03  0.82130122779E+02 0.  0.
          5    1    3    3  502    0 -0.30219730750E+02  0.43142993239E+02  0.51243065237E+02  0.73606209841E+02  0.41800000000E+01 0. -1.
         -5    1    3    3    0  502  0.10552593233E+02 -0.47846364109E+02  0.22503281749E+03  0.23034294677E+03  0.41800000000E+01 0. -1.
        -11    1    4    4    0    0 -0.81241437709E+01  0.34247555774E+02  0.39395224490E+02  0.52828784778E+02  0.00000000000E+00 0.  1.
         11    1    4    4    0    0  0.27791281288E+02 -0.29544184904E+02  0.13558880640E+03  0.14152575242E+03  0.00000000000E+00 0. -1.
</event>
<event>
 8    1  0.3708258E-009  0.1157044E+03  0.7561462E-02  0.1250356E+00
         -1   -1    0    0    0  501 -0.00000000000E+00  0.00000000000E+00  0.57218410765E+02  0.57218410765E+02  0.00000000000E+00 0.  1.
          1   -1    0    0  501    0  0.00000000000E+00 -0.00000000000E+00 -0.33941181399E+03  0.33941181399E+03  0.00000000000E+00 0. -1.
         25    2    1    2    0    0  0.58593908063E+02  0.39746475472E+01 -0.58704656752E+02  0.15014469620E+03  0.12509256248E+03 0.  0.
         23    2    1    2    0    0 -0.58593908063E+02 -0.39746475472E+01 -0.22348874647E+03  0.24648552855E+03  0.85783751963E+02 0.  0.
          5    1    3    3  502    0  0.94940289824E+02  0.83731919822E+01 -0.60980901461E+02  0.11322504899E+03  0.41800000000E+01 0.  1.
         -5    1    3    3    0  502 -0.36346381761E+02 -0.43985444350E+01  0.22762447089E+01  0.36919647212E+02  0.41800000000E+01 0.  1.
        -11    1    4    4    0    0 -0.63013897462E+02 -0.32078900651E+02 -0.12124297409E+03  0.14035549831E+03  0.00000000000E+00 0.  1.
         11    1    4    4    0    0  0.44199893984E+01  0.28104253104E+02 -0.10224577238E+03  0.10613003024E+03  0.00000000000E+00 0. -1.
</event>
<event>
 8    1  0.3708258E-009  0.1332225E+03  0.7561462E-02  0.1222751E+00
         -3   -1    0    0    0  501 -0.00000000000E+00  0.00000000000E+00  0.28316131729E+03  0.28316131729E+03  0.00000000000E+00 0.  1.
          3   -1    0    0  501    0  0.00000000000E+00 -0.00000000000E+00 -0.69710262896E+02  0.69710262896E+02  0.00000000000E+00 0. -1.
         25    2    1    2    0    0  0.85451855922E+02  0.25808622353E+02  0.10441601556E+03  0.18578846410E+03  0.12508614800E+03 0.  0.
         23    2    1    2    0    0 -0.85451855922E+02 -0.25808622353E+02  0.10903503883E+03  0.16708311608E+03  0.89777632611E+02 0.  0.
          5    1    3    3  502    0  0.45955281571E+02 -0.42384728806E+02  0.11193704215E+02  0.63648445026E+02  0.41800000000E+01 0.  1.
         -5    1    3    3    0  502  0.39496574351E+02  0.68193351159E+02  0.93222311343E+02  0.12214001908E+03  0.41800000000E+01 0.  1.
        -11    1    4    4    0    0 -0.81412713210E+02  0.15914979068E+02  0.84966716487E+02  0.11874619717E+03  0.00000000000E+00 0.  1.
         11    1    4    4    0    0 -0.40391427119E+01 -0.41723601421E+02  0.24068322344E+02  0.48336918911E+02  0.00000000000E+00 0. -1.
</event>
<event>
 8    1  0.3708258E-009  0.4871757E+02  0.7561462E-02  0.1452384E+00
          2   -1    0    0  501    0  0.00000000000E+00  0.00000000000E+00  0.82395316171E+02  0.82395316171E+02  0.00000000000E+00 0. -1.
         -2   -1    0    0    0  501 -0.00000000000E+00 -0.00000000000E+00 -0.14953965654E+03  0.14953965654E+03  0.00000000000E+00 0.  1.
         25    2    1    2    0    0  0.11601394954E+02 -0.12689946052E+02 -0.58563966578E+02  0.13918383157E+03  0.12508706445E+03 0.  0.
         23    2    1    2    0    0 -0.11601394954E+02  0.12689946052E+02 -0.85803737932E+01  0.92751141144E+02  0.90738769407E+02 0.  0.
          5    1    3    3  502    0 -0.23255875738E+02  0.11066922519E+02 -0.85209735226E+02  0.89115003830E+02  0.41800000000E+01 0. -1.
         -5    1    3    3    0  502  0.34857270692E+02 -0.23756868570E+02  0.26645768648E+02  0.50068827739E+02  0.41800000000E+01 0. -1.
        -11    1    4    4    0    0  0.20637708067E+01  0.14959503599E+02 -0.48341918782E+02  0.50645700799E+02  0.00000000000E+00 0.  1.
         11    1    4    4    0    0 -0.13665165760E+02 -0.22695575470E+01  0.39761544989E+02  0.42105440345E+02  0.00000000000E+00 0. -1.
</event>
<event>
 8    1  0.3708258E-009  0.2488870E+03  0.7561462E-02  0.1114010E+00
          2   -1    0    0  501    0  0.00000000000E+00  0.00000000000E+00  0.95954022757E+03  0.95954022757E+03  0.00000000000E+00 0. -1.
         -2   -1    0    0    0  501 -0.00000000000E+00 -0.00000000000E+00 -0.72039558127E+02  0.72039558127E+02  0.00000000000E+00 0.  1.
         25    2    1    2    0    0 -0.10900204385E+03 -0.20694337088E+03  0.37153538177E+03  0.45650077035E+03  0.12508960433E+03 0.  0.
         23    2    1    2    0    0  0.10900204385E+03  0.20694337088E+03  0.51596528767E+03  0.57507901534E+03  0.98937816273E+02 0.  0.
          5    1    3    3  502    0 -0.11619810995E+03 -0.21963192721E+03  0.35997860065E+03  0.43742685049E+03  0.41800000000E+01 0.  1.
         -5    1    3    3    0  502  0.71960661024E+01  0.12688556326E+02  0.11556781122E+02  0.19073919862E+02  0.41800000000E+01 0.  1.
        -11    1    4    4    0    0  0.63083626226E+02  0.12970210016E+03  0.41780697442E+03  0.44200095765E+03  0.00000000000E+00 0. -1.
         11    1    4    4    0    0  0.45918417626E+02  0.77241270725E+02  0.98158313248E+02  0.13307805770E+03  0.00000000000E+00 0.  1.
</event>
<event>
 8    1  0.3708258E-009  0.9278292E+02  0.7561462E-02  0.1296249E+00
          2   -1    0    0  501    0  0.00000000000E+00  0.00000000000E+00  0.60090988581E+02  0.60090988581E+02  0.00000000000E+00 0. -1.
         -2   -1    0    0    0  501 -0.00000000000E+00 -0.00000000000E+00 -0.29555512681E+03  0.29555512681E+03  0.00000000000E+00 0.  1.
         25    2    1    2    0    0  0.59706555114E+02 -0.44048637368E+02 -0.15352503065E+03  0.21147971391E+03  0.12509428118E+03 0.  0.
         23    2    1    2    0    0 -0.59706555114E+02  0.44048637368E+02 -0.81939107586E+02  0.14416640148E+03  0.92546090070E+02 0.  0.
          5    1    3    3  502    0  0.44875647687E+02  0.11208762567E+02  0.12044889794E+01  0.46458404055E+02  0.41800000000E+01 0.  1.
         -5    1    3    3    0  502  0.14830907427E+02 -0.55257399936E+02 -0.15472951963E+03  0.16502130985E+03  0.41800000000E+01 0.  1.
        -11    1    4    4    0    0 -0.54113873834E+02  0.21009429547E+02  0.84395731055E+00  0.58055316166E+02  0.00000000000E+00 0. -1.
         11    1    4    4    0    0 -0.55926812804E+01  0.23039207821E+02 -0.82783064897E+02  0.86111085318E+02  0.00000000000E+00 0.  1.
</event>
<event>
 8    1  0.3708258E-009  0.1163165E+03  0.7561462E-02  0.1249300E+00
         -3   -1    0    0    0  501 -0.00000000000E+00  0.00000000000E+00  0.31954898730E+03  0.31954898730E+03  0.00000000000E+00 0.  1.
          3   -1    0    0  501    0  0.00000000000E+00 -0.00000000000E+00 -0.76691973245E+02  0.76691973245E+02  0.00000000000E+00 0. -1.
         25    2    1    2    0    0  0.96238647890E+02 -0.46019282788E+02  0.17585770859E+03  0.24072651870E+03  0.12507466330E+03 0.  0.
         23    2    1    2    0    0 -0.96238647890E+02  0.46019282788E+02  0.66999305465E+02  0.15551444184E+03  0.91193108038E+02 0.  0.
          5    1    3    3  502    0  0.50273648189E+01 -0.32709639441E+02  0.13631786214E+03  0.14033968379E+03  0.41800000000E+01 0.  1.
         -5    1    3    3    0  502  0.91211283071E+02 -0.13309643347E+02  0.39539846454E+02  0.10038683491E+03  0.41800000000E+01 0.  1.
        -11    1    4    4    0    0 -0.49193915130E+02  0.18877936172E+02  0.83513434917E+02  0.98746704105E+02  0.00000000000E+00 0.  1.
         11    1    4    4    0    0 -0.47044732760E+02  0.27141346616E+02 -0.16514129452E+02  0.56767737740E+02  0.00000000000E+00 0. -1.
</event>
<event>
 8    1  0.3708258E-009  0.9920253E+02  0.7561462E-02  0.1281982E+00
          2   -1    0    0  501    0  0.00000000000E+00  0.00000000000E+00  0.58848660187E+02  0.58848660187E+02  0.00000000000E+00 0. -1.
         -2   -1    0    0    0  501 -0.00000000000E+00 -0.00000000000E+00 -0.27256535864E+03  0.27256535864E+03  0.00000000000E+00 0.  1.
         25    2    1    2    0    0  0.34616940614E+02  0.13202485767E+02 -0.18744022832E+03  0.22837235196E+03  0.12508978272E+03 0.  0.
         23    2    1    2    0    0 -0.34616940614E+02 -0.13202485767E+02 -0.26276470133E+02  0.10304166686E+03  0.92490507725E+02 0.  0.
          5    1    3    3  502    0 -0.27088629350E+02  0.51023905409E+02 -0.80228520807E+02  0.98951102642E+02  0.41800000000E+01 0. -1.
         -5    1    3    3    0  502  0.61705569964E+02 -0.37821419642E+02 -0.10721170751E+03  0.12942124932E+03  0.41800000000E+01 0. -1.
        -11    1    4    4    0    0 -0.48253498043E+02 -0.20611232996E+02 -0.51438356121E+02  0.73478755293E+02  0.00000000000E+00 0.  1.
         11    1    4    4    0    0  0.13636557429E+02  0.74087472294E+01  0.25161885987E+02  0.29562911570E+02  0.00000000000E+00 0. -1.
</event>
<event>
 8    1  0.3708258E-009  0.1038176E+03  0.7561462E-02  0.1272467E+00
         -2   -1    0    0    0  501 -0.00000000000E+00  0.00000000000E+00  0.57605979640E+03  0.57605979640E+03  0.00000000000E+00 0.  1.
          2   -1    0    0  501    0  0.00000000000E+00 -0.00000000000E+00 -0.34389238981E+02  0.34389238981E+02  0.00000000000E+00 0. -1.
         25    2    1    2    0    0  0.28201780584E+02 -0.47376713274E+02  0.44930415170E+03  0.46964092011E+03  0.12509388361E+03 0.  0.
         23    2    1    2    0    0 -0.28201780584E+02  0.47376713274E+02  0.92366405723E+02  0.14080811528E+03  0.90859666700E+02 0.  0.
          5    1    3    3  502    0  0.62487748276E+02  0.10819097506E+02  0.28392332757E+03  0.29094965182E+03  0.41800000000E+01 0.  1.
         -5    1    3    3    0  502 -0.34285967691E+02 -0.58195810780E+02  0.16538082413E+03  0.17869126829E+03  0.41800000000E+01 0.  1.
        -11    1    4    4    0    0 -0.51052609715E+01 -0.11813468332E+02  0.73373083419E+02  0.74493161391E+02  0.00000000000E+00 0.  1.
         11    1    4    4    0    0 -0.23096519613E+02  0.59190181606E+02  0.18993322304E+02  0.66314953886E+02  0.00000000000E+00 0. -1.
</event>
<event>
 8    1  0.3708258E-009  0.9442895E+02  0.7561462E-02  0.1292467E+00
          1   -1    0    0  501    0  0.00000000000E+00  0.00000000000E+00  0.34288611245E+03  0.34288611245E+03  0.00000000000E+00 0. -1.
         -1   -1    0    0    0  501 -0.00000000000E+00 -0.00000000000E+00 -0.34119022993E+02  0.34119022993E+02  0.00000000000E+00 0.  1.
         25    2    1    2    0    0  0.56296521124E+01 -0.38468857627E+01  0.17988142635E+03  0.21920520285E+03  0.12508837634E+03 0.  0.
         23    2    1    2    0    0 -0.56296521124E+01  0.38468857627E+01  0.12888566310E+03  0.15779993259E+03  0.90789939201E+02 0.  0.
          5    1    3    3  502    0  0.52756209108E+01  0.58953332039E+02  0.11123825809E+03  0.12607438280E+03  0.41800000000E+01 0. -1.
         -5    1    3    3    0  502  0.35403120161E+00 -0.62800217802E+02  0.68643168258E+02  0.93130820047E+02  0.41800000000E+01 0. -1.
        -11    1    4    4    0    0  0.28756520170E+02 -0.85949979987E+01  0.73753705345E+01  0.30906431910E+02  0.00000000000E+00 0.  1.
         11    1    4    4    0    0 -0.34386172282E+02  0.12441883761E+02  0.12151029257E+03  0.12689350068E+03  0.00000000000E+00 0. -1.
</event>
<event>
 8    1  0.3708258E-009  0.1011180E+03  0.7561462E-02  0.1277962E+00
         -2   -1    0    0    0  501 -0.00000000000E+00  0.00000000000E+00  0.26246305936E+02  0.26246305936E+02  0.00000000000E+00 0.  1.
          2   -1    0    0  501    0  0.00000000000E+00 -0.00000000000E+00 -0.47317361929E+03  0.47317361929E+03  0.00000000000E+00 0. -1.
         25    2    1    2    0    0  0.10272859400E+02  0.19892541173E+02 -0.22508712479E+03  0.25848332052E+03  0.12509263929E+03 0.  0.
         23    2    1    2    0    0 -0.10272859400E+02 -0.19892541173E+02 -0.22184018856E+03  0.24093660471E+03  0.91302428178E+02 0.  0.
          5    1    3    3  502    0  0.52934432111E+02 -0.14292355329E+02 -0.47628899795E+02  0.72748264718E+02  0.41800000000E+01 0.  1.
         -5    1    3    3    0  502 -0.42661572710E+02  0.34184896502E+02 -0.17745822500E+03  0.18573505580E+03  0.41800000000E+01 0.  1.
        -11    1    4    4    0    0 -0.17516239538E+02 -0.54404734300E+02 -0.15775733435E+03  0.16779174682E+03  0.00000000000E+00 0. -1.
         11    1    4    4    0    0  0.72433801379E+01  0.34512193127E+02 -0.64082854216E+02  0.73144857883E+02  0.00000000000E+00 0.  1.
</event>
<event>
 8    1  0.3708258E-009  0.1599033E+03  0.7561462E-02  0.1188806E+00
          1   -1    0    0  501    0  0.00000000000E+00  0.00000000000E+00  0.93424555245E+02  0.93424555245E+02  0.00000000000E+00 0. -1.
         -1   -1    0    0    0  501 -0.00000000000E+00 -0.00000000000E+00 -0.48887222019E+03  0.48887222019E+03  0.00000000000E+00 0.  1.
         25    2    1    2    0    0 -0.55319170323E+02  0.11451932509E+03 -0.38679237549E+03  0.42594674921E+03  0.12508958789E+03 0.  0.
         23    2    1    2    0    0  0.55319170323E+02 -0.11451932509E+03 -0.86552894596E+01  0.15635002623E+03  0.90529167912E+02 0.  0.
          5    1    3    3  502    0  0.20436306902E+02  0.96265018340E+02 -0.18493425818E+03  0.20952982758E+03  0.41800000000E+01 0.  1.
         -5    1    3    3    0  502 -0.75755477225E+02  0.18254306749E+02 -0.20185811731E+03  0.21641692163E+03  0.41800000000E+01 0.  1.
        -11    1    4    4    0    0 -0.62038232766E+00 -0.74472269218E+02 -0.35497754413E+02  0.82502086792E+02  0.00000000000E+00 0.  1.
         11    1    4    4    0    0  0.55939552651E+02 -0.40047055871E+02  0.26842464953E+02  0.73847939439E+02  0.00000000000E+00 0. -1.
</event>
<event>
 8    1  0.3708258E-009  0.1195643E+03  0.7561462E-02  0.1243818E+00
          1   -1    0    0  501    0  0.00000000000E+00  0.00000000000E+00  0.19337893382E+03  0.19337893382E+03  0.00000000000E+00 0. -1.
         -1   -1    0    0    0  501 -0.00000000000E+00 -0.00000000000E+00 -0.80880492062E+02  0.80880492062E+02  0.00000000000E+00 0.  1.
         25    2    1    2    0    0  0.26137439367E+02  0.55393803814E+02  0.74834184560E+02  0.15811577556E+03  0.12509518002E+03 0.  0.
         23    2    1    2    0    0 -0.26137439367E+02 -0.55393803814E+02  0.37664257194E+02  0.11614365032E+03  0.91209166214E+02 0.  0.
          5    1    3    3  502    0  0.72567002262E+02  0.27029013165E+02  0.18583351995E+02  0.79745537439E+02  0.41800000000E+01 0.  1.
         -5    1    3    3    0  502 -0.46429562896E+02  0.28364790649E+02  0.56250832565E+02  0.78370238123E+02  0.41800000000E+01 0.  1.
        -11    1    4    4    0    0 -0.30303361396E+02  0.16831910162E+02  0.24900225742E+02  0.42680536004E+02  0.00000000000E+00 0.  1.
         11    1    4    4    0    0  0.41659220288E+01 -0.72225713976E+02  0.12764031452E+02  0.73463114313E+02  0.00000000000E+00 0. -1.
</event>
<event>
 8    1  0.3708258E-009  0.1023585E+03  0.7561462E-02  0.1275413E+00
          1   -1    0    0  501    0  0.00000000000E+00  0.00000000000E+00  0.39245467732E+03  0.39245467732E+03  0.00000000000E+00 0. -1.
         -1   -1    0    0    0  501 -0.00000000000E+00 -0.00000000000E+00 -0.46061944225E+02  0.46061944225E+02  0.00000000000E+00 0.  1.
         25    2    1    2    0    0 -0.14801308085E+02 -0.71097398021E+02  0.16646970462E+03  0.22052931733E+03  0.12508836284E+03 0.  0.
         23    2    1    2    0    0  0.14801308085E+02  0.71097398021E+02  0.17992302847E+03  0.21798730421E+03  0.99359196341E+02 0.  0.
          5    1    3    3  502    0 -0.34872214400E+02 -0.47503938984E+02  0.17774157212E+03  0.18730252112E+03  0.41800000000E+01 0. -1.
         -5    1    3    3    0  502  0.20070906316E+02 -0.23593459037E+02 -0.11271867500E+02  0.33226796214E+02  0.41800000000E+01 0. -1.
        -11    1    4    4    0    0  0.19447382677E+02 -0.17200605856E+02  0.12870907489E+02  0.28977953592E+02  0.00000000000E+00 0.  1.
         11    1    4    4    0    0 -0.46460745921E+01  0.88298003877E+02  0.16705212098E+03  0.18900935062E+03  0.00000000000E+00 0. -1.
</event>
<event>
 8    1  0.3708258E-009  0.9660599E+02  0.7561462E-02  0.1287599E+00
         -1   -1    0    0    0  501 -0.00000000000E+00  0.00000000000E+00  0.48469338833E+02  0.48469338833E+02  0.00000000000E+00 0.  1.
          1   -1    0    0  501    0  0.00000000000E+00 -0.00000000000E+00 -0.31729871018E+03  0.31729871018E+03  0.00000000000E+00 0. -1.
         25    2    1    2    0    0 -0.57503295821E+02 -0.25676544568E+02 -0.13622758132E+03  0.19537471396E+03  0.12508961177E+03 0.  0.
         23    2    1    2    0    0  0.57503295821E+02  0.25676544568E+02 -0.13260179002E+03  0.17039333505E+03  0.86514391518E+02 0.  0.
          5    1    3    3  502    0  0.16858020156E+02 -0.80165172908E+01 -0.11410603331E+03  0.11569838646E+03  0.41800000000E+01 0. -1.
         -5    1    3    3    0  502 -0.74361315978E+02 -0.17660027277E+02 -0.22121548014E+02  0.79676327500E+02  0.41800000000E+01 0. -1.
        -11    1    4    4    0    0  0.75795104855E+02  0.20074245766E+02 -0.12895044367E+03  0.15091749464E+03  0.00000000000E+00 0.  1.
         11    1    4    4    0    0 -0.18291809034E+02  0.56022988024E+01 -0.36513463498E+01  0.19475840412E+02  0.00000000000E+00 0. -1.
</event>
<event>
 8    1  0.3708258E-009  0.1073725E+03  0.7561462E-02  0.1265514E+00
         -2   -1    0    0    0  501 -0.00000000000E+00  0.00000000000E+00  0.27667843516E+03  0.27667843516E+03  0.00000000000E+00 0.  1.
          2   -1    0    0  501    0  0.00000000000E+00 -0.00000000000E+00 -0.47469432218E+02  0.47469432218E+02  0.00000000000E+00 0. -1.
         25    2    1    2    0    0  0.35416771308E+02  0.27345570686E+00  0.10689270496E+03  0.16830871656E+03  0.12508937297E+03 0.  0.
         23    2    1    2    0    0 -0.35416771308E+02 -0.27345570686E+00  0.12231629798E+03  0.15583915082E+03  0.89833967445E+02 0.  0.
          5    1    3    3  502    0  0.36151654140E+02 -0.59678934345E+02  0.58175390147E+02  0.90941551121E+02  0.41800000000E+01 0. -1.
         -5    1    3    3    0  502 -0.73488283164E+00  0.59952390051E+02  0.48717314810E+02  0.77367165438E+02  0.41800000000E+01 0. -1.
        -11    1    4    4    0    0 -0.44315847478E+02  0.29784678416E+02  0.10978205896E+03  0.12207834319E+03  0.00000000000E+00 0.  1.
         11    1    4    4    0    0  0.88990761703E+01 -0.30058134123E+02  0.12534239018E+02  0.33760807623E+02  0.00000000000E+00 0. -1.
</event>
<event>
 8    1  0.3708258E-009  0.7810877E+02  0.7561462E-02  0.1334506E+00
          2   -1    0    0  501    0  0.00000000000E+00  0.00000000000E+00  0.32180446832E+03  0.32180446832E+03  0.00000000000E+00 0. -1.
         -2   -1    0    0    0  501 -0.00000000000E+00 -0.00000000000E+00 -0.59403514840E+02  0.59403514840E+02  0.00000000000E+00 0.  1.
         25    2    1    2    0    0  0.23866372413E+02 -0.56272766868E+02  0.61537821166E+02  0.15221883794E+03  0.12508974046E+03 0.  0.
         23    2    1    2    0    0 -0.23866372413E+02  0.56272766868E+02  0.20086313231E+03  0.22898914522E+03  0.91399139394E+02 0.  0.
          5    1    3    3  502    0  0.40585018597E+02 -0.54570588746E+02 -0.18278522681E+02  0.70545514967E+02  0.41800000000E+01 0. -1.
         -5    1    3    3    0  502 -0.16718646183E+02 -0.17021781224E+01  0.79816343847E+02  0.81673322975E+02  0.41800000000E+01 0. -1.
        -11    1    4    4    0    0 -0.23123473915E+02  0.11214097159E+02  0.27854254550E+01  0.25849750791E+02  0.00000000000E+00 0.  1.
         11    1    4    4    0    0 -0.74289849785E+00  0.45058669709E+02  0.19807770686E+03  0.20313939442E+03  0.00000000000E+00 0. -1.
</event>
<event>
 8    1  0.3708258E-009  0.1102552E+03  0.7561462E-02  0.1260098E+00
          1   -1    0    0  501    0  0.00000000000E+00  0.00000000000E+00  0.26655913305E+03  0.26655913305E+03  0.00000000000E+00 0. -1.
         -1   -1    0    0    0  501 -0.00000000000E+00 -0.00000000000E+00 -0.48405322443E+02  0.48405322443E+02  0.00000000000E+00 0.  1.
         25    2    1    2    0    0 -0.19099311444E+02 -0.29590345420E+02  0.10607601074E+03  0.16775178179E+03  0.12509263767E+03 0.  0.
         23    2    1    2    0    0  0.19099311444E+02  0.29590345420E+02  0.11207779987E+03  0.14721267371E+03  0.88711700678E+02 0.  0.
          5    1    3    3  502    0 -0.62487827353E+02  0.13278378396E+02  0.31593417228E+02  0.71390897966E+02  0.41800000000E+01 0.  1.
         -5    1    3    3    0  502  0.43388515910E+02 -0.42868723816E+02  0.74482593513E+02  0.96360883821E+02  0.41800000000E+01 0.  1.
        -11    1    4    4    0    0  0.46934467483E+02 -0.89822217466E+01  0.52908381023E+02  0.71293908070E+02  0.00000000000E+00 0.  1.
         11    1    4    4    0    0 -0.27835156039E+02  0.38572567167E+02  0.59169418843E+02  0.75918765637E+02  0.00000000000E+00 0. -1.
</event>
<event>
 8    1  0.3708258E-009  0.9011471E+02  0.7561462E-02  0.1302574E+00
         -1   -1    0    0    0  501 -0.00000000000E+00  0.00000000000E+00  0.71146299821E+02  0.71146299821E+02  0.00000000000E+00 0.  1.
          1   -1    0    0  501    0  0.00000000000E+00 -0.00000000000E+00 -0.27202479091E+03  0.27202479091E+03  0.00000000000E+00 0. -1.
         25    2    1    2    0    0  0.73718213774E+02  0.38803687265E+02 -0.77720954478E+02  0.16920120967E+03  0.12509357058E+03 0.  0.
         23    2    1    2    0    0 -0.73718213774E+02 -0.38803687265E+02 -0.12315753661E+03  0.17396988106E+03  0.90319651820E+02 0.  0.
          5    1    3    3  502    0  0.33926223256E+02  0.21892621370E+02  0.31680433470E+02  0.51491725158E+02  0.41800000000E+01 0.  1.
         -5    1    3    3    0  502  0.39791990518E+02  0.16911065895E+02 -0.10940138795E+03  0.11770948451E+03  0.41800000000E+01 0.  1.
        -11    1    4    4    0    0 -0.13845999374E+02  0.11500506157E+02  0.92175452053E+01  0.20222177928E+02  0.00000000000E+00 0.  1.
         11    1    4    4    0    0 -0.59872214400E+02 -0.50304193422E+02 -0.13237508181E+03  0.15374770313E+03  0.00000000000E+00 0. -1.
</event>
<event>
 8    1  0.3708258E-009  0.1135871E+03  0.7561462E-02  0.1254068E+00
         -1   -1    0    0    0  501 -0.00000000000E+00  0.00000000000E+00  0.50494021987E+02  0.50494021987E+02  0.00000000000E+00 0.  1.
          1   -1    0    0  501    0  0.00000000000E+00 -0.00000000000E+00 -0.25764197157E+03  0.25764197157E+03  0.00000000000E+00 0. -1.
         25    2    1    2    0    0 -0.12262585379E+02  0.29816631984E+02 -0.10806528461E+03  0.16841556428E+03  0.12508514705E+03 0.  0.
         23    2    1    2    0    0  0.12262585379E+02 -0.29816631984E+02 -0.99082664970E+02  0.13972042927E+03  0.93086096250E+02 0.  0.
          5    1    3    3  502    0 -0.66288246957E+02 -0.10464237526E+01 -0.49236260984E+02  0.82685600215E+02  0.41800000000E+01 0. -1.
         -5    1    3    3    0  502  0.54025661578E+02  0.30863055737E+02 -0.58829023627E+02  0.85729964069E+02  0.41800000000E+01 0. -1.
        -11    1    4    4    0    0 -0.79151001553E+01  0.32205679149E+02 -0.36766553086E+02  0.49513977883E+02  0.00000000000E+00 0.  1.
         11    1    4    4    0    0  0.20177685534E+02 -0.62022311133E+02 -0.62316111884E+02  0.90206451389E+02  0.00000000000E+00 0. -1.
</event>
<event>
 8    1  0.3708258E-009  0.1158256E+03  0.7561462E-02  0.1250147E+00
         -1   -1    0    0    0  501 -0.00000000000E+00  0.00000000000E+00  0.19215845972E+02  0.19215845972E+02  0.00000000000E+00 0.  1.
          1   -1    0    0  501    0  0.00000000000E+00 -0.00000000000E+00 -0.84066312544E+03  0.84066312544E+03  0.00000000000E+00 0. -1.
         25    2    1    2    0    0 -0.47640644129E+02  0.49450170124E+02 -0.43979558982E+03  0.46236549339E+03  0.12508692321E+03 0.  0.
         23    2    1    2    0    0  0.47640644129E+02 -0.49450170124E+02 -0.38165168965E+03  0.39751347802E+03  0.87429987392E+02 0.  0.
          5    1    3    3  502    0  0.77799055183E+01 -0.35228008889E+02 -0.17781987356E+03  0.18149082449E+03  0.41800000000E+01 0. -1.
         -5    1    3    3    0  502 -0.55420549647E+02  0.84678179013E+02 -0.26197571626E+03  0.28087466890E+03  0.41800000000E+01 0. -1.
        -11    1    4    4    0    0 -0.89303675593E+01  0.90160395068E+01 -0.77633645173E+01  0.14876500320E+02  0.00000000000E+00 0.  1.
         11    1    4    4    0    0  0.56571011688E+02 -0.58466209630E+02 -0.37388832513E+03  0.38263697770E+03  0.00000000000E+00 0. -1.
</event>
<event>
 8    1  0.3708258E-009  0.1004822E+03  0.7561462E-02  0.1279285E+00
          2   -1    0    0  501    0  0.00000000000E+00  0.00000000000E+00  0.10065208833E+03  0.10065208833E+03  0.00000000000E+00 0. -1.
         -2   -1    0    0    0  501 -0.00000000000E+00 -0.00000000000E+00 -0.12620428257E+03  0.12620428257E+03  0.00000000000E+00 0.  1.
         25    2    1    2    0    0 -0.15835426845E+02 -0.17631004720E+02  0.34864960159E+01  0.12736461831E+03  0.12509187532E+03 0.  0.
         23    2    1    2    0    0  0.15835426845E+02  0.17631004720E+02 -0.29038690256E+02  0.99491752589E+02  0.92161544207E+02 0.  0.
          5    1    3    3  502    0  0.35031702525E+02  0.31810447861E+02  0.24248298671E+02  0.53334577559E+02  0.41800000000E+01 0.  1.
         -5    1    3    3    0  502 -0.50867129370E+02 -0.49441452581E+02 -0.20761802655E+02  0.74030040748E+02  0.41800000000E+01 0.  1.
        -11    1    4    4    0    0 -0.25236058375E+02  0.30288486710E+02 -0.38913600102E+02  0.55394217590E+02  0.00000000000E+00 0.  1.
         11    1    4    4    0    0  0.41071485220E+02 -0.12657481990E+02  0.98749098460E+01  0.44097534999E+02  0.00000000000E+00 0. -1.
</event>
<event>
 8    1  0.3708258E-009  0.1152139E+03  0.7561462E-02  0.1251208E+00
          1   -1    0    0  501    0  0.00000000000E+00  0.00000000000E+00  0.76399440262E+03  0.76399440262E+03  0.00000000000E+00 0. -1.
         -1   -1    0    0    0  501 -0.00000000000E+00 -0.00000000000E+00 -0.30190879974E+02  0.30190879974E+02  0.00000000000E+00 0.  1.
         25    2    1    2    0    0  0.12359873880E+02  0.79344488462E+02  0.58106323382E+03  0.59977498033E+03  0.12508889240E+03 0.  0.
         23    2    1    2    0    0 -0.12359873880E+02 -0.79344488462E+02  0.15274028883E+03  0.19441030227E+03  0.89540244943E+02 0.  0.
          5    1    3    3  502    0  0.62093150123E+02  0.11530699842E+02  0.28689735322E+03  0.29379598366E+03  0.41800000000E+01 0. -1.
         -5    1    3    3    0  502 -0.49733276243E+02  0.67813788620E+02  0.29416588060E+03  0.30597899667E+03  0.41800000000E+01 0. -1.
        -11    1    4    4    0    0 -0.13120411756E+02 -0.22212123945E+02 -0.53191973618E+01  0.26340416006E+02  0.00000000000E+00 0.  1.
         11    1    4    4    0    0  0.76053787593E+00 -0.57132364518E+02  0.15805948619E+03  0.16806988626E+03  0.00000000000E+00 0. -1.
</event>
<event>
 8    1  0.3708258E-009  0.1968399E+03  0.7561462E-02  0.1152433E+00
          1   -1    0    0  501    0  0.00000000000E+00  0.00000000000E+00  0.63029698434E+03  0.63029698434E+03  0.00000000000E+00 0. -1.
         -1   -1    0    0    0  501 -0.00000000000E+00 -0.00000000000E+00 -0.70140065602E+02  0.70140065602E+02  0.00000000000E+00 0.  1.
         25    2    1    2    0    0 -0.10754920684E+03  0.14080081077E+03  0.34423681090E+03  0.40686493097E+03  0.12509352449E+03 0.  0.
         23    2    1    2    0    0  0.10754920684E+03 -0.14080081077E+03  0.21592010784E+03  0.29357211897E+03  0.90395773488E+02 0.  0.
          5    1    3    3  502    0 -0.13503163452E+03  0.10468160437E+03  0.26128754324E+03  0.31221856650E+03  0.41800000000E+01 0. -1.
         -5    1    3    3    0  502  0.27482427679E+02  0.36119206399E+02  0.82949267664E+02  0.94646364473E+02  0.41800000000E+01 0. -1.
        -11    1    4    4    0    0  0.54292976435E+02 -0.69022991045E+02  0.40523835686E+02  0.96716502427E+02  0.00000000000E+00 0.  1.
         11    1    4    4    0    0  0.53256230406E+02 -0.71777819725E+02  0.17539627215E+03  0.19685561655E+03  0.00000000000E+00 0. -1.
</event>
<event>
 8    1  0.3708258E-009  0.2200758E+03  0.7561462E-02  0.1133827E+00
         -2   -1    0    0    0  501 -0.00000000000E+00  0.00000000000E+00  0.17614178373E+03  0.17614178373E+03  0.00000000000E+00 0.  1.
          2   -1    0    0  501    0  0.00000000000E+00 -0.00000000000E+00 -0.29910994652E+03  0.29910994652E+03  0.00000000000E+00 0. -1.
         25    2    1    2    0    0 -0.19002549386E+03  0.59221044706E+02 -0.27910939060E+02  0.23672576348E+03  0.12507296319E+03 0.  0.
         23    2    1    2    0    0  0.19002549386E+03 -0.59221044706E+02 -0.95057223736E+02  0.23852596677E+03  0.90785134165E+02 0.  0.
          5    1    3    3  502    0 -0.20429143083E+03  0.50515661330E+02 -0.41801046312E+02  0.21459641335E+03  0.41800000000E+01 0. -1.
         -5    1    3    3    0  502  0.14265936973E+02  0.87053833760E+01  0.13890107252E+02  0.22129350124E+02  0.41800000000E+01 0. -1.
        -11    1    4    4    0    0  0.10570352818E+03 -0.70946611945E+02 -0.28483064953E+02  0.13045283671E+03  0.00000000000E+00 0.  1.
         11    1    4    4    0    0  0.84321965679E+02  0.11725567238E+02 -0.66574158783E+02  0.10807313006E+03  0.00000000000E+00 0. -1.
</event>
<event>
 8    1  0.3708258E-009  0.1102585E+03  0.7561462E-02  0.1260092E+00
          1   -1    0    0  501    0  0.00000000000E+00  0.00000000000E+00  0.11091420634E+03  0.11091420634E+03  0.00000000000E+00 0. -1.
         -1   -1    0    0    0  501 -0.00000000000E+00 -0.00000000000E+00 -0.13186013500E+03  0.13186013500E+03  0.00000000000E+00 0.  1.
         25    2    1    2    0    0 -0.95038457436E+01 -0.42092457341E+02  0.17708785992E+02  0.13349951069E+03  0.12508565147E+03 0.  0.
         23    2    1    2    0    0  0.95038457436E+01  0.42092457341E+02 -0.38654714648E+02  0.10927483065E+03  0.92653675595E+02 0.  0.
          5    1    3    3  502    0  0.56716508008E+01 -0.85627609159E+02  0.14092810697E+02  0.87065118081E+02  0.41800000000E+01 0. -1.
         -5    1    3    3    0  502 -0.15175496544E+02  0.43535151819E+02  0.36159752956E+01  0.46434392605E+02  0.41800000000E+01 0. -1.
        -11    1    4    4    0    0  0.41841045348E+02  0.10588050313E+02 -0.46509347803E+02  0.63449974927E+02  0.00000000000E+00 0.  1.
         11    1    4    4    0    0 -0.32337199605E+02  0.31504407028E+02  0.78546331544E+01  0.45824855727E+02  0.00000000000E+00 0. -1.
</event>
<event>
 8    1  0.3708258E-009  0.2363908E+03  0.7561462E-02  0.1122221E+00
         -2   -1    0    0    0  501 -0.00000000000E+00  0.00000000000E+00  0.14711048719E+03  0.14711048719E+03  0.00000000000E+00 0.  1.
          2   -1    0    0  501    0  0.00000000000E+00 -0.00000000000E+00 -0.40011313708E+03  0.40011313708E+03  0.00000000000E+00 0. -1.
         25    2    1    2    0    0 -0.13417014893E+03  0.16825805150E+03 -0.16806730517E+03  0.30034639555E+03  0.12509571334E+03 0.  0.
         23    2    1    2    0    0  0.13417014893E+03 -0.16825805150E+03 -0.84935344715E+02  0.24687722872E+03  0.86150754630E+02 0.  0.
          5    1    3    3  502    0 -0.11954040847E+02  0.11028950749E+03 -0.97349688517E+02  0.14765198546E+03  0.41800000000E+01 0. -1.
         -5    1    3    3    0  502 -0.12221610808E+03  0.57968544005E+02 -0.70717616656E+02  0.15269441010E+03  0.41800000000E+01 0. -1.
        -11    1    4    4    0    0  0.71068493935E+02 -0.14059663523E+03 -0.33920837054E+02  0.16114827909E+03  0.00000000000E+00 0.  1.
         11    1    4    4    0    0  0.63101654997E+02 -0.27661416267E+02 -0.51014507661E+02  0.85728949633E+02  0.00000000000E+00 0. -1.
</event>
<event>
 8    1  0.3708258E-009  0.1023722E+03  0.7561462E-02  0.1275385E+00
         -4   -1    0    0    0  501 -0.00000000000E+00  0.00000000000E+00  0.21114068473E+03  0.21114068473E+03  0.00000000000E+00 0.  1.
          4   -1    0    0  501    0  0.00000000000E+00 -0.00000000000E+00 -0.62170863188E+02  0.62170863188E+02  0.00000000000E+00 0. -1.
         25    2    1    2    0    0  0.21117184469E+02  0.41994474771E+01  0.11644339601E+03  0.17224825171E+03  0.12508726915E+03 0.  0.
         23    2    1    2    0    0 -0.21117184469E+02 -0.41994474771E+01  0.32526425527E+02  0.10106329620E+03  0.93232240363E+02 0.  0.
          5    1    3    3  502    0  0.56642647939E+02  0.31566528616E+02  0.23734570274E+02  0.69178302382E+02  0.41800000000E+01 0. -1.
         -5    1    3    3    0  502 -0.35525463470E+02 -0.27367081139E+02  0.92708825738E+02  0.10306994933E+03  0.41800000000E+01 0. -1.
        -11    1    4    4    0    0 -0.41286234622E+02  0.32704823116E+02  0.25143872419E+02  0.58364140914E+02  0.00000000000E+00 0.  1.
         11    1    4    4    0    0  0.20169050154E+02 -0.36904270594E+02  0.73825531073E+01  0.42699155291E+02  0.00000000000E+00 0. -1.
</event>
<event>
 8    1  0.3708258E-009  0.9044516E+02  0.7561462E-02  0.1301777E+00
         -4   -1    0    0    0  501 -0.00000000000E+00  0.00000000000E+00  0.48331647674E+02  0.48331647674E+02  0.00000000000E+00 0.  1.
          4   -1    0    0  501    0  0.00000000000E+00 -0.00000000000E+00 -0.31687346505E+03  0.31687346505E+03  0.00000000000E+00 0. -1.
         25    2    1    2    0    0  0.51583444617E+02 -0.28241428897E+01 -0.11062030064E+03  0.17479481173E+03  0.12509015850E+03 0.  0.
         23    2    1    2    0    0 -0.51583444617E+02  0.28241428897E+01 -0.15792151674E+03  0.19041030100E+03  0.92994890903E+02 0.  0.
          5    1    3    3  502    0 -0.23093999012E+02 -0.74604813395E-01  0.15508975145E+02  0.28130749480E+02  0.41800000000E+01 0.  1.
         -5    1    3    3    0  502  0.74677443629E+02 -0.27495380763E+01 -0.12612927578E+03  0.14666406225E+03  0.41800000000E+01 0.  1.
        -11    1    4    4    0    0  0.11823532159E+02  0.13857751233E+02 -0.10645648635E+03  0.10800378081E+03  0.00000000000E+00 0. -1.
         11    1    4    4    0    0 -0.63406976776E+02 -0.11033608344E+02 -0.51465030390E+02  0.82406520191E+02  0.00000000000E+00 0.  1.
</event>
<event>
 8    1  0.3708258E-009  0.1210012E+03  0.7561462E-02  0.1241454E+00
         -2   -1    0    0    0  501 -0.00000000000E+00  0.00000000000E+00  0.27293547449E+03  0.27293547449E+03  0.00000000000E+00 0.  1.
          2   -1    0    0  501    0  0.00000000000E+00 -0.00000000000E+00 -0.78126413731E+02  0.78126413731E+02  0.00000000000E+00 0. -1.
         25    2    1    2    0    0 -0.42407913570E+02  0.85428511177E+02  0.10287657389E+03  0.18795930468E+03  0.12509456065E+03 0.  0.
         23    2    1    2    0    0  0.42407913570E+02 -0.85428511177E+02  0.91932486873E+02  0.16310258354E+03  0.95154658112E+02 0.  0.
          5    1    3    3  502    0  0.23157572514E+02  0.48299037597E+02 -0.75036943173E+01  0.54248023245E+02  0.41800000000E+01 0. -1.
         -5    1    3    3    0  502 -0.65565486084E+02  0.37129473579E+02  0.11038026820E+03  0.13371128143E+03  0.41800000000E+01 0. -1.
        -11    1    4    4    0    0  0.23203495462E+02 -0.90105870100E+02  0.10431201172E+03  0.13978006231E+03  0.00000000000E+00 0.  1.
         11    1    4    4    0    0  0.19204418108E+02  0.46773589232E+01 -0.12379524851E+02  0.23322521238E+02  0.00000000000E+00 0. -1.
</event>
<event>
 8    1  0.3708258E-009  0.1669770E+03  0.7561462E-02  0.1181038E+00
         -2   -1    0    0    0  501 -0.00000000000E+00  0.00000000000E+00  0.39301149421E+03  0.39301149421E+03  0.00000000000E+00 0.  1.
          2   -1    0    0  501    0  0.00000000000E+00 -0.00000000000E+00 -0.84213285425E+02  0.84213285425E+02  0.00000000000E+00 0. -1.
         25    2    1    2    0    0 -0.13928408534E+03  0.37301440675E+02  0.19124023706E+03  0.27019986604E+03  0.12507471938E+03 0.  0.
         23    2    1    2    0    0  0.13928408534E+03 -0.37301440675E+02  0.11755797172E+03  0.20702491360E+03  0.90818413481E+02 0.  0.
          5    1    3    3  502    0 -0.12596398255E+03 -0.21119092064E+02  0.15140331989E+03  0.19812465425E+03  0.41800000000E+01 0.  1.
         -5    1    3    3    0  502 -0.13320102795E+02  0.58420532740E+02  0.39836917169E+02  0.72075211783E+02  0.41800000000E+01 0.  1.
        -11    1    4    4    0    0  0.88732333131E+02 -0.11911051386E+02  0.12080329707E+03  0.15036201871E+03  0.00000000000E+00 0.  1.
         11    1    4    4    0    0  0.50551752212E+02 -0.25390389289E+02 -0.32453253470E+01  0.56662894884E+02  0.00000000000E+00 0. -1.
</event>
<event>
 8    1  0.3708258E-009  0.1900065E+03  0.7561462E-02  0.1158455E+00
          2   -1    0    0  501    0  0.00000000000E+00  0.00000000000E+00  0.54546420078E+03  0.54546420078E+03  0.00000000000E+00 0. -1.
         -2   -1    0    0    0  501 -0.00000000000E+00 -0.00000000000E+00 -0.77186785242E+02  0.77186785242E+02  0.00000000000E+00 0.  1.
         25    2    1    2    0    0 -0.36727805574E+02  0.15573020872E+03  0.14124612515E+03  0.24738069082E+03  0.12508360687E+03 0.  0.
         23    2    1    2    0    0  0.36727805574E+02 -0.15573020872E+03  0.32703129038E+03  0.37527029520E+03  0.90980766988E+02 0.  0.
          5    1    3    3  502    0 -0.76766973379E+02  0.13848172497E+03  0.10066347157E+03  0.18767248935E+03  0.41800000000E+01 0.  1.
         -5    1    3    3    0  502  0.40039167805E+02  0.17248483752E+02  0.40582653580E+02  0.59708201463E+02  0.41800000000E+01 0.  1.
        -11    1    4    4    0    0 -0.15925080756E+02 -0.29098202250E+01  0.90040111940E+01  0.18524240022E+02  0.00000000000E+00 0.  1.
         11    1    4    4    0    0  0.52652886330E+02 -0.15282038849E+03  0.31802727919E+03  0.35674605518E+03  0.00000000000E+00 0. -1.
</event>
<event>
 8    1  0.3708258E-009  0.1073011E+03  0.7561462E-02  0.1265651E+00
          2   -1    0    0  501    0  0.00000000000E+00  0.00000000000E+00  0.26351036329E+03  0.26351036329E+03  0.00000000000E+00 0. -1.
         -2   -1    0    0    0  501 -0.00000000000E+00 -0.00000000000E+00 -0.48007961582E+02  0.48007961582E+02  0.00000000000E+00 0.  1.
         25    2    1    2    0    0 -0.13688447624E+02 -0.33494545321E+01  0.84926631651E+02  0.15184989596E+03  0.12508903108E+03 0.  0.
         23    2    1    2    0    0  0.13688447624E+02  0.33494545321E+01  0.13057577005E+03  0.15966842890E+03  0.90804091425E+02 0.  0.
          5    1    3    3  502    0  0.39943952677E+02  0.39251812743E+02  0.48271385524E+02  0.74052840725E+02  0.41800000000E+01 0.  1.
         -5    1    3    3    0  502 -0.53632400300E+02 -0.42601267275E+02  0.36655246127E+02  0.77797055240E+02  0.41800000000E+01 0.  1.
        -11    1    4    4    0    0 -0.98453934261E+01  0.42783243682E+02  0.47049679574E+02  0.64350680336E+02  0.00000000000E+00 0. -1.
         11    1    4    4    0    0  0.23533841050E+02 -0.39433789150E+02  0.83526090480E+02  0.95317748569E+02  0.00000000000E+00 0.  1.
</event>
<event>
 8    1  0.3708258E-009  0.1119694E+03  0.7561462E-02  0.1256966E+00
         -1   -1    0    0    0  501 -0.00000000000E+00  0.00000000000E+00  0.23453378102E+02  0.23453378102E+02  0.00000000000E+00 0.  1.
          1   -1    0    0  501    0  0.00000000000E+00 -0.00000000000E+00 -0.84607448909E+03  0.84607448909E+03  0.00000000000E+00 0. -1.
         25    2    1    2    0    0 -0.79159890686E+01 -0.87597265983E+02 -0.51195645327E+03  0.53430540116E+03  0.12508760039E+03 0.  0.
         23    2    1    2    0    0  0.79159890686E+01  0.87597265983E+02 -0.31066465772E+03  0.33522246603E+03  0.90142266939E+02 0.  0.
          5    1    3    3  502    0  0.22382696890E+02 -0.33342140828E+02 -0.42731606099E+03  0.42921925849E+03  0.41800000000E+01 0.  1.
         -5    1    3    3    0  502 -0.30298685959E+02 -0.54255125154E+02 -0.84640392279E+02  0.10508614267E+03  0.41800000000E+01 0.  1.
        -11    1    4    4    0    0 -0.34098606606E+02  0.14677402479E+02 -0.14138008821E+03  0.14617274184E+03  0.00000000000E+00 0.  1.
         11    1    4    4    0    0  0.42014595675E+02  0.72919863504E+02 -0.16928456951E+03  0.18904972419E+03  0.00000000000E+00 0. -1.
</event>
<event>
 8    1  0.3708258E-009  0.1042305E+03  0.7561462E-02  0.1271643E+00
         -2   -1    0    0    0  501 -0.00000000000E+00  0.00000000000E+00  0.25898776286E+02  0.25898776286E+02  0.00000000000E+00 0.  1.
          2   -1    0    0  501    0  0.00000000000E+00 -0.00000000000E+00 -0.60069463142E+03  0.60069463142E+03  0.00000000000E+00 0. -1.
         25    2    1    2    0    0  0.84293928169E+01 -0.47124762749E+02 -0.43886455992E+03  0.45884788055E+03  0.12508987809E+03 0.  0.
         23    2    1    2    0    0 -0.84293928169E+01  0.47124762749E+02 -0.13593129522E+03  0.16774552716E+03  0.85845482910E+02 0.  0.
          5    1    3    3  502    0 -0.39458398491E+02 -0.69911778097E+02 -0.24756003371E+03  0.26028458390E+03  0.41800000000E+01 0.  1.
         -5    1    3    3    0  502  0.47887791308E+02  0.22787015349E+02 -0.19130452621E+03  0.19856329664E+03  0.41800000000E+01 0.  1.
        -11    1    4    4    0    0  0.14192227943E+02  0.50089633434E+02 -0.13524591915E+03  0.14492014821E+03  0.00000000000E+00 0. -1.
         11    1    4    4    0    0 -0.22621620760E+02 -0.29648706854E+01 -0.68537607228E+00  0.22825378953E+02  0.00000000000E+00 0.  1.
</event>
<event>
 8    1  0.3708258E-009  0.1359449E+03  0.7561462E-02  0.1218892E+00
         -3   -1    0    0    0  501 -0.00000000000E+00  0.00000000000E+00  0.19336301991E+03  0.19336301991E+03  0.00000000000E+00 0.  1.
          3   -1    0    0  501    0  0.00000000000E+00 -0.00000000000E+00 -0.97190152320E+02  0.97190152320E+02  0.00000000000E+00 0. -1.
         25    2    1    2    0    0 -0.85431694556E+02  0.54383042125E+01  0.35369020043E+02  0.15564887431E+03  0.12508978739E+03 0.  0.
         23    2    1    2    0    0  0.85431694556E+02 -0.54383042125E+01  0.60803847549E+02  0.13490429792E+03  0.84698950009E+02 0.  0.
          5    1    3    3  502    0 -0.63055426168E+02 -0.57007129597E+02  0.20461159652E+02  0.87532457114E+02  0.41800000000E+01 0.  1.
         -5    1    3    3    0  502 -0.22376268387E+02  0.62445433810E+02  0.14907860390E+02  0.68116417199E+02  0.41800000000E+01 0.  1.
        -11    1    4    4    0    0  0.52317587345E+02  0.38744933037E+02  0.35731952293E+02  0.74263532076E+02  0.00000000000E+00 0.  1.
         11    1    4    4    0    0  0.33114107211E+02 -0.44183237250E+02  0.25071895256E+02  0.60640765842E+02  0.00000000000E+00 0. -1.
</event>
<event>
 8    1  0.3708258E-009  0.9934558E+02  0.7561462E-02  0.1281678E+00
         -2   -1    0    0    0  501 -0.00000000000E+00  0.00000000000E+00  0.20856011822E+02  0.20856011822E+02  0.00000000000E+00 0. -1.
          2   -1    0    0  501    0  0.00000000000E+00 -0.00000000000E+00 -0.74605750096E+03  0.74605750096E+03  0.00000000000E+00 0.  1.
         25    2    1    2    0    0  0.28675180297E+02  0.55215849762E+02 -0.41278613111E+03  0.43578654757E+03  0.12508584642E+03 0.  0.
         23    2    1    2    0    0 -0.28675180297E+02 -0.55215849762E+02 -0.31241535803E+03  0.33112696521E+03  0.90391676216E+02 0.  0.
          5    1    3    3  502    0 -0.12889783776E+02 -0.64019072821E+01  0.13176397305E+01  0.15044584312E+02  0.41800000000E+01 0.  1.
         -5    1    3    3    0  502  0.41564964073E+02  0.61617757044E+02 -0.41410377084E+03  0.42074196326E+03  0.41800000000E+01 0.  1.
        -11    1    4    4    0    0  0.20117028282E+02 -0.56989842104E+02 -0.18795223475E+03  0.19742993562E+03  0.00000000000E+00 0.  1.
         11    1    4    4    0    0 -0.48792208578E+02  0.17739923417E+01 -0.12446312328E+03  0.13369702959E+03  0.00000000000E+00 0. -1.
</event>
<event>
 8    1  0.3708258E-009  0.7804970E+02  0.7561462E-02  0.1334679E+00
          1   -1    0    0  501    0  0.00000000000E+00  0.00000000000E+00  0.15274693340E+03  0.15274693340E+03  0.00000000000E+00 0. -1.
         -1   -1    0    0    0  501 -0.00000000000E+00 -0.00000000000E+00 -0.11807169586E+03  0.11807169586E+03  0.00000000000E+00 0.  1.
         25    2    1    2    0    0 -0.15188740548E+02 -0.56067484807E+02  0.72495964235E+02  0.15580862734E+03  0.12508558202E+03 0.  0.
         23    2    1    2    0    0  0.15188740548E+02  0.56067484807E+02 -0.37820726695E+02  0.11501000192E+03  0.91774901156E+02 0.  0.
          5    1    3    3  502    0 -0.87006196539E+01 -0.29744245412E+02 -0.33790058778E+02  0.46039780513E+02  0.41800000000E+01 0. -1.
         -5    1    3    3    0  502 -0.64881208937E+01 -0.26323239395E+02  0.10628602301E+03  0.10976884682E+03  0.41800000000E+01 0. -1.
        -11    1    4    4    0    0  0.47349318233E+02  0.36104873945E+02  0.26409674237E+01  0.59602806717E+02  0.00000000000E+00 0. -1.
         11    1    4    4    0    0 -0.32160577685E+02  0.19962610862E+02 -0.40461694118E+02  0.55407195204E+02  0.00000000000E+00 0.  1.
</event>
<event>
 8    1  0.3708258E-009  0.1257910E+03  0.7561462E-02  0.1233838E+00
         -1   -1    0    0    0  501 -0.00000000000E+00  0.00000000000E+00  0.15696712382E+03  0.15696712382E+03  0.00000000000E+00 0.  1.
          1   -1    0    0  501    0  0.00000000000E+00 -0.00000000000E+00 -0.16033322800E+03  0.16033322800E+03  0.00000000000E+00 0. -1.
         25    2    1    2    0    0 -0.49662294627E+02  0.85516630033E+02  0.56829021707E+02  0.16928222502E+03  0.12508995355E+03 0.  0.
         23    2    1    2    0    0  0.49662294627E+02 -0.85516630033E+02 -0.60195125886E+02  0.14801812681E+03  0.92230554396E+02 0.  0.
          5    1    3    3  502    0  0.99728813904E+01  0.64085934458E+02  0.78743919633E+02  0.10210064955E+03  0.41800000000E+01 0. -1.
         -5    1    3    3    0  502 -0.59635176018E+02  0.21430695575E+02 -0.21914897925E+02  0.67181575470E+02  0.41800000000E+01 0. -1.
        -11    1    4    4    0    0  0.51388307135E+02 -0.16395034677E+02  0.34387735111E+01  0.54049795888E+02  0.00000000000E+00 0.  1.
         11    1    4    4    0    0 -0.17260125080E+01 -0.69121595356E+02 -0.63633899398E+02  0.93968330922E+02  0.00000000000E+00 0. -1.
</event>
<event>
 8    1  0.3708258E-009  0.9766537E+02  0.7561462E-02  0.1285283E+00
         -1   -1    0    0    0  501 -0.00000000000E+00  0.00000000000E+00  0.17809438755E+03  0.17809438755E+03  0.00000000000E+00 0.  1.
          1   -1    0    0  501    0  0.00000000000E+00 -0.00000000000E+00 -0.77964255899E+02  0.77964255899E+02  0.00000000000E+00 0. -1.
         25    2    1    2    0    0  0.29793107292E+02 -0.30018399022E+02  0.73872547490E+02  0.15130553968E+03  0.12508988585E+03 0.  0.
         23    2    1    2    0    0 -0.29793107292E+02  0.30018399022E+02  0.26257584163E+02  0.10475310377E+03  0.92168424648E+02 0.  0.
          5    1    3    3  502    0  0.15983898426E+02 -0.72968660010E+02  0.75063948542E+02  0.10598103190E+03  0.41800000000E+01 0.  1.
         -5    1    3    3    0  502  0.13809208867E+02  0.42950260988E+02 -0.11914010522E+01  0.45324507773E+02  0.41800000000E+01 0.  1.
        -11    1    4    4    0    0 -0.15905779253E+02 -0.18698583718E+02 -0.23329094822E+02  0.33865580047E+02  0.00000000000E+00 0.  1.
         11    1    4    4    0    0 -0.13887328040E+02  0.48716982740E+02  0.49586678985E+02  0.70887523727E+02  0.00000000000E+00 0. -1.
</event>
<event>
 8    1  0.3708258E-009  0.8805730E+02  0.7561462E-02  0.1307626E+00
         -1   -1    0    0    0  501 -0.00000000000E+00  0.00000000000E+00  0.78930147220E+02  0.78930147220E+02  0.00000000000E+00 0.  1.
          1   -1    0    0  501    0  0.00000000000E+00 -0.00000000000E+00 -0.16988254478E+03  0.16988254478E+03  0.00000000000E+00 0. -1.
         25    2    1    2    0    0 -0.20512395252E+02  0.19541907781E+01 -0.97195372824E+02  0.15974683632E+03  0.12509010351E+03 0.  0.
         23    2    1    2    0    0  0.20512395252E+02 -0.19541907781E+01  0.62429752636E+01  0.89065855681E+02  0.86424387111E+02 0.  0.
          5    1    3    3  502    0 -0.50262455194E+02 -0.43421583809E+02 -0.29254778457E+02  0.72698437433E+02  0.41800000000E+01 0.  1.
         -5    1    3    3    0  502  0.29750059942E+02  0.45375774587E+02 -0.67940594367E+02  0.87048398888E+02  0.41800000000E+01 0.  1.
        -11    1    4    4    0    0 -0.16881134298E+02  0.38143453519E+01 -0.31299048895E+02  0.35765239932E+02  0.00000000000E+00 0. -1.
         11    1    4    4    0    0  0.37393529550E+02 -0.57685361300E+01  0.37542024159E+02  0.53300615749E+02  0.00000000000E+00 0.  1.
</event>
<event>
 8    1  0.3708258E-009  0.1112692E+03  0.7561462E-02  0.1258237E+00
          1   -1    0    0  501    0  0.00000000000E+00  0.00000000000E+00  0.41404956364E+03  0.41404956364E+03  0.00000000000E+00 0. -1.
         -1   -1    0    0    0  501 -0.00000000000E+00 -0.00000000000E+00 -0.51137198360E+02  0.51137198360E+02  0.00000000000E+00 0.  1.
         25    2    1    2    0    0 -0.83848449193E+02 -0.34409225154E+02  0.14247909845E+03  0.21015012720E+03  0.12509286654E+03 0.  0.
         23    2    1    2    0    0  0.83848449193E+02  0.34409225154E+02  0.22043326682E+03  0.25503663479E+03  0.90765096569E+02 0.  0.
          5    1    3    3  502    0 -0.35473068780E+02  0.32287280652E+00 -0.17222442740E+02  0.39655110508E+02  0.41800000000E+01 0.  1.
         -5    1    3    3    0  502 -0.48375380414E+02 -0.34732097961E+02  0.15970154119E+03  0.17049501670E+03  0.41800000000E+01 0.  1.
        -11    1    4    4    0    0  0.35817525054E+02  0.62092027762E+02  0.14094456105E+03  0.15812553337E+03  0.00000000000E+00 0. -1.
         11    1    4    4    0    0  0.48030924140E+02 -0.27682802607E+02  0.79488705770E+02  0.96911101422E+02  0.00000000000E+00 0.  1.
</event>
<event>
 8    1  0.3708258E-009  0.1136068E+03  0.7561462E-02  0.1254033E+00
          1   -1    0    0  501    0  0.00000000000E+00  0.00000000000E+00  0.61123572224E+03  0.61123572224E+03  0.00000000000E+00 0. -1.
         -1   -1    0    0    0  501 -0.00000000000E+00 -0.00000000000E+00 -0.39288089863E+02  0.39288089863E+02  0.00000000000E+00 0.  1.
         25    2    1    2    0    0  0.46916637826E+02 -0.35539673837E+02  0.50481323123E+03  0.52340059100E+03  0.12509013114E+03 0.  0.
         23    2    1    2    0    0 -0.46916637826E+02  0.35539673837E+02  0.67134401151E+02  0.12712322111E+03  0.90493348961E+02 0.  0.
          5    1    3    3  502    0 -0.22294210853E+02  0.33321999780E+02  0.13450396310E+03  0.14041430125E+03  0.41800000000E+01 0.  1.
         -5    1    3    3    0  502  0.69210848679E+02 -0.68861673618E+02  0.37030926813E+03  0.38298628974E+03  0.41800000000E+01 0.  1.
        -11    1    4    4    0    0 -0.16458821363E+01  0.43231483220E+02 -0.29189853231E+01  0.43361164015E+02  0.00000000000E+00 0.  1.
         11    1    4    4    0    0 -0.45270755690E+02 -0.76918093828E+01  0.70053386474E+02  0.83762057095E+02  0.00000000000E+00 0. -1.
</event>
<event>
 8    1  0.3708258E-009  0.1060305E+03  0.7561462E-02  0.1268103E+00
         -2   -1    0    0    0  501 -0.00000000000E+00  0.00000000000E+00  0.37825256737E+02  0.37825256737E+02  0.00000000000E+00 0.  1.
          2   -1    0    0  501    0  0.00000000000E+00 -0.00000000000E+00 -0.40491193901E+03  0.40491193901E+03  0.00000000000E+00 0. -1.
         25    2    1    2    0    0  0.48383916179E+02 -0.34777215777E+02 -0.22301864149E+03  0.26255468047E+03  0.12508871932E+03 0.  0.
         23    2    1    2    0    0 -0.48383916179E+02  0.34777215777E+02 -0.14406804079E+03  0.18018251528E+03  0.90330949042E+02 0.  0.
          5    1    3    3  502    0 -0.24733680008E+02 -0.22408164293E+02 -0.73153354329E+01  0.34421901258E+02  0.41800000000E+01 0. -1.
         -5    1    3    3    0  502  0.73117596187E+02 -0.12369051485E+02 -0.21570330605E+03  0.22813277921E+03  0.41800000000E+01 0. -1.
        -11    1    4    4    0    0 -0.48923907991E+02 -0.17433855527E+02 -0.47404492976E+02  0.70318376303E+02  0.00000000000E+00 0.  1.
         11    1    4    4    0    0  0.53999181137E+00  0.52211071304E+02 -0.96663547812E+02  0.10986413898E+03  0.00000000000E+00 0. -1.
</event>
<event>
 8    1  0.3708258E-009  0.1020002E+03  0.7561462E-02  0.1276145E+00
          1   -1    0    0  501    0  0.00000000000E+00  0.00000000000E+00  0.84416472096E+02  0.84416472096E+02  0.00000000000E+00 0. -1.
         -1   -1    0    0    0  501 -0.00000000000E+00 -0.00000000000E+00 -0.15058913384E+03  0.15058913384E+03  0.00000000000E+00 0.  1.
         25    2    1    2    0    0  0.25929855281E+02  0.36936122677E+01 -0.60441746681E+02  0.14137405835E+03  0.12508964571E+03 0.  0.
         23    2    1    2    0    0 -0.25929855281E+02 -0.36936122677E+01 -0.57309150681E+01  0.93631547595E+02  0.89710774999E+02 0.  0.
          5    1    3    3  502    0  0.89883924897E+01 -0.51621860910E+02  0.63105037660E+01  0.52942445931E+02  0.41800000000E+01 0. -1.
         -5    1    3    3    0  502  0.16941462792E+02  0.55315473178E+02 -0.66752250447E+02  0.88431612414E+02  0.41800000000E+01 0. -1.
        -11    1    4    4    0    0 -0.81920240647E+01 -0.46437600426E+02 -0.18520303946E+01  0.47190994990E+02  0.00000000000E+00 0.  1.
         11    1    4    4    0    0 -0.17737831217E+02  0.42743988158E+02 -0.38788846735E+01  0.46440552605E+02  0.00000000000E+00 0. -1.
</event>
<event>
 8    1  0.3708258E-009  0.1346029E+03  0.7561462E-02  0.1220781E+00
          2   -1    0    0  501    0  0.00000000000E+00  0.00000000000E+00  0.49579508855E+03  0.49579508855E+03  0.00000000000E+00 0. -1.
         -2   -1    0    0    0  501 -0.00000000000E+00 -0.00000000000E+00 -0.58572758827E+02  0.58572758827E+02  0.00000000000E+00 0.  1.
         25    2    1    2    0    0 -0.93397930004E+02  0.31604818616E+02  0.37104561573E+03  0.40378740907E+03  0.12508950748E+03 0.  0.
         23    2    1    2    0    0  0.93397930004E+02 -0.31604818616E+02  0.66176713995E+02  0.15058043831E+03  0.92590890683E+02 0.  0.
          5    1    3    3  502    0 -0.56389051898E+02 -0.34068179223E+02  0.26820084187E+03  0.27620559369E+03  0.41800000000E+01 0.  1.
         -5    1    3    3    0  502 -0.37008878106E+02  0.65672997839E+02  0.10284477386E+03  0.12758181538E+03  0.41800000000E+01 0.  1.
        -11    1    4    4    0    0  0.31447072497E+02 -0.53440663335E+02  0.57057904602E+02  0.84264033513E+02  0.00000000000E+00 0. -1.
         11    1    4    4    0    0  0.61950857507E+02  0.21835844718E+02  0.91188093927E+01  0.66316404797E+02  0.00000000000E+00 0.  1.
</event>
<event>
 8    1  0.3708258E-009  0.1090261E+03  0.7561462E-02  0.1262384E+00
         -3   -1    0    0    0  501 -0.00000000000E+00  0.00000000000E+00  0.21036103151E+03  0.21036103151E+03  0.00000000000E+00 0.  1.
          3   -1    0    0  501    0  0.00000000000E+00 -0.00000000000E+00 -0.79736085723E+02  0.79736085723E+02  0.00000000000E+00 0. -1.
         25    2    1    2    0    0 -0.22967505890E+02  0.63035255996E+01 -0.20119129910E+01  0.12735431057E+03  0.12509129412E+03 0.  0.
         23    2    1    2    0    0  0.22967505890E+02 -0.63035255996E+01  0.13263685878E+03  0.16274280667E+03  0.91243871318E+02 0.  0.
          5    1    3    3  502    0 -0.67864580124E+02 -0.21342784531E+02 -0.15146591883E+02  0.72856072723E+02  0.41800000000E+01 0.  1.
         -5    1    3    3    0  502  0.44897074234E+02  0.27646310130E+02  0.13134678892E+02  0.54498237845E+02  0.41800000000E+01 0.  1.
        -11    1    4    4    0    0 -0.23950870072E+02  0.27201173843E+02  0.58661376913E+02  0.68954370253E+02  0.00000000000E+00 0.  1.
         11    1    4    4    0    0  0.46918375962E+02 -0.33504699442E+02  0.73975481868E+02  0.93788436416E+02  0.00000000000E+00 0. -1.
</event>
<event>
 8    1  0.3708258E-009  0.1437561E+03  0.7561462E-02  0.1208362E+00
         -1   -1    0    0    0  501 -0.00000000000E+00  0.00000000000E+00  0.21272613314E+03  0.21272613314E+03  0.00000000000E+00 0.  1.
          1   -1    0    0  501    0  0.00000000000E+00 -0.00000000000E+00 -0.11299849629E+03  0.11299849629E+03  0.00000000000E+00 0. -1.
         25    2    1    2    0    0  0.91122653316E+02 -0.29864701644E+02 -0.33474360692E+01  0.15764822563E+03  0.12508604784E+03 0.  0.
         23    2    1    2    0    0 -0.91122653316E+02  0.29864701644E+02  0.10307507292E+03  0.16807640380E+03  0.91814859942E+02 0.  0.
          5    1    3    3  502    0  0.11563282535E+02  0.44259530408E+02 -0.14720092883E+02  0.48236594712E+02  0.41800000000E+01 0.  1.
         -5    1    3    3    0  502  0.79559370781E+02 -0.74124232052E+02  0.11372656814E+02  0.10941163091E+03  0.41800000000E+01 0.  1.
        -11    1    4    4    0    0  0.19091847962E+02  0.31271428895E+01  0.15375356221E+02  0.24711925464E+02  0.00000000000E+00 0.  1.
         11    1    4    4    0    0 -0.11021450128E+03  0.26737558755E+02  0.87699716697E+02  0.14336447834E+03  0.00000000000E+00 0. -1.
</event>
<event>
 8    1  0.3708258E-009  0.9480542E+02  0.7561462E-02  0.1291615E+00
          3   -1    0    0  501    0  0.00000000000E+00  0.00000000000E+00  0.71664268448E+02  0.71664268448E+02  0.00000000000E+00 0. -1.
         -3   -1    0    0    0  501 -0.00000000000E+00 -0.00000000000E+00 -0.19499972047E+03  0.19499972047E+03  0.00000000000E+00 0.  1.
         25    2    1    2    0    0  0.74412795828E+01  0.32731183996E+02 -0.37813819939E+02  0.13492290310E+03  0.12509037435E+03 0.  0.
         23    2    1    2    0    0 -0.74412795828E+01 -0.32731183996E+02 -0.85521632085E+02  0.13174108582E+03  0.94419601200E+02 0.  0.
          5    1    3    3  502    0  0.16939945809E+02 -0.42048248082E+02 -0.38196086712E+02  0.59425839252E+02  0.41800000000E+01 0.  1.
         -5    1    3    3    0  502 -0.94986662257E+01  0.74779432078E+02  0.38226677262E+00  0.75497063849E+02  0.41800000000E+01 0.  1.
        -11    1    4    4    0    0  0.26390137182E+02 -0.15802039493E+02 -0.88597869885E+02  0.93785533750E+02  0.00000000000E+00 0.  1.
         11    1    4    4    0    0 -0.33831416765E+02 -0.16929144503E+02  0.30762377999E+01  0.37955552070E+02  0.00000000000E+00 0. -1.
</event>
<event>
 8    1  0.3708258E-009  0.2365928E+03  0.7561462E-02  0.1122084E+00
         -2   -1    0    0    0  501 -0.00000000000E+00  0.00000000000E+00  0.48187703623E+02  0.48187703623E+02  0.00000000000E+00 0.  1.
          2   -1    0    0  501    0  0.00000000000E+00 -0.00000000000E+00 -0.12295053315E+04  0.12295053315E+04  0.00000000000E+00 0. -1.
         25    2    1    2    0    0 -0.10921369224E+03 -0.18693816183E+03 -0.55093373729E+03  0.60501971890E+03  0.12508944977E+03 0.  0.
         23    2    1    2    0    0  0.10921369224E+03  0.18693816183E+03 -0.63038389058E+03  0.67267331622E+03  0.90730556766E+02 0.  0.
          5    1    3    3  502    0  0.10564609469E+02 -0.73808942504E+02 -0.26147095702E+03  0.27192628547E+03  0.41800000000E+01 0. -1.
         -5    1    3    3    0  502 -0.11977830171E+03 -0.11312921933E+03 -0.28946278027E+03  0.33309343342E+03  0.41800000000E+01 0. -1.
        -11    1    4    4    0    0  0.86108868880E+02  0.19165938680E+03 -0.54524559188E+03  0.58432937057E+03  0.00000000000E+00 0. -1.
         11    1    4    4    0    0  0.23104823360E+02 -0.47212249619E+01 -0.85138298703E+02  0.88343945653E+02  0.00000000000E+00 0.  1.
</event>
<event>
 8    1  0.3708258E-009  0.3788088E+02  0.7561462E-02  0.1524411E+00
          3   -1    0    0  501    0  0.00000000000E+00  0.00000000000E+00  0.14454570592E+03  0.14454570592E+03  0.00000000000E+00 0.  1.
         -3   -1    0    0    0  501 -0.00000000000E+00 -0.00000000000E+00 -0.10761092964E+03  0.10761092964E+03  0.00000000000E+00 0. -1.
         25    2    1    2    0    0 -0.28938033532E+02 -0.74507820600E+01  0.73280744248E+02  0.14802294430E+03  0.12509116925E+03 0.  0.
         23    2    1    2    0    0  0.28938033532E+02  0.74507820600E+01 -0.36345967977E+02  0.10413369126E+03  0.92897106138E+02 0.  0.
          5    1    3    3  502    0 -0.18202367337E+02 -0.19012816428E+02  0.10715600582E+03  0.11042053861E+03  0.41800000000E+01 0.  1.
         -5    1    3    3    0  502 -0.10735666195E+02  0.11562034368E+02 -0.33875261567E+02  0.37602405689E+02  0.41800000000E+01 0.  1.
        -11    1    4    4    0    0  0.14131818766E+02 -0.32741273946E+01 -0.66939724632E+02  0.68493466445E+02  0.00000000000E+00 0. -1.
         11    1    4    4    0    0  0.14806214766E+02  0.10724909455E+02  0.30593756655E+02  0.35640224814E+02  0.00000000000E+00 0.  1.
</event>
<event>
 8    1  0.3708258E-009  0.8900727E+02  0.7561462E-02  0.1305274E+00
          1   -1    0    0  501    0  0.00000000000E+00  0.00000000000E+00  0.14477646366E+03  0.14477646366E+03  0.00000000000E+00 0. -1.
         -1   -1    0    0    0  501 -0.00000000000E+00 -0.00000000000E+00 -0.10460671056E+03  0.10460671056E+03  0.00000000000E+00 0.  1.
         25    2    1    2    0    0 -0.10802432398E+02 -0.43413377619E+02  0.85927742159E+01  0.13312347127E+03  0.12508640586E+03 0.  0.
         23    2    1    2    0    0  0.10802432398E+02  0.43413377619E+02  0.31576978885E+02  0.11625970295E+03  0.10255632127E+03 0.  0.
          5    1    3    3  502    0 -0.27789047123E+02  0.25998347627E+02  0.39630820185E+02  0.55101901309E+02  0.41800000000E+01 0.  1.
         -5    1    3    3    0  502  0.16986614725E+02 -0.69411725246E+02 -0.31038045969E+02  0.78021569960E+02  0.41800000000E+01 0.  1.
        -11    1    4    4    0    0  0.10429299305E+02  0.55290746960E+02 -0.22718369502E+02  0.60679166904E+02  0.00000000000E+00 0.  1.
         11    1    4    4    0    0  0.37313309344E+00 -0.11877369341E+02  0.54295348387E+02  0.55580536047E+02  0.00000000000E+00 0. -1.
</event>
<event>
 8    1  0.3708258E-009  0.1398439E+03  0.7561462E-02  0.1213539E+00
         -2   -1    0    0    0  501 -0.00000000000E+00  0.00000000000E+00  0.22250441480E+03  0.22250441480E+03  0.00000000000E+00 0.  1.
          2   -1    0    0  501    0  0.00000000000E+00 -0.00000000000E+00 -0.11839770216E+03  0.11839770216E+03  0.00000000000E+00 0. -1.
         25    2    1    2    0    0  0.55079459089E+02 -0.10768236323E+03  0.56184822066E+02  0.18284680031E+03  0.12508788906E+03 0.  0.
         23    2    1    2    0    0 -0.55079459089E+02  0.10768236323E+03  0.47921890574E+02  0.15805531665E+03  0.89753759595E+02 0.  0.
          5    1    3    3  502    0  0.83413217562E+02 -0.97364044236E+02  0.73482449641E+02  0.14783323300E+03  0.41800000000E+01 0. -1.
         -5    1    3    3    0  502 -0.28333758473E+02 -0.10318318992E+02 -0.17297627574E+02  0.35013567309E+02  0.41800000000E+01 0. -1.
        -11    1    4    4    0    0 -0.15436645491E+02  0.28215833695E+02 -0.26901826795E+02  0.41930079657E+02  0.00000000000E+00 0. -1.
         11    1    4    4    0    0 -0.39642813598E+02  0.79466529533E+02  0.74823717369E+02  0.11612523699E+03  0.00000000000E+00 0.  1.
</event>
<event>
 8    1  0.3708258E-009  0.1034511E+03  0.7561462E-02  0.1273202E+00
          2   -1    0    0  501    0  0.00000000000E+00  0.00000000000E+00  0.29615023815E+03  0.29615023815E+03  0.00000000000E+00 0. -1.
         -2   -1    0    0    0  501 -0.00000000000E+00 -0.00000000000E+00 -0.48284130180E+02  0.48284130180E+02  0.00000000000E+00 0.  1.
         25    2    1    2    0    0 -0.22233305255E+02 -0.30170816461E+02  0.13427248508E+03  0.18729975940E+03  0.12508997400E+03 0.  0.
         23    2    1    2    0    0  0.22233305255E+02  0.30170816461E+02  0.11359362289E+03  0.15713460893E+03  0.10189787109E+03 0.  0.
          5    1    3    3  502    0  0.43222074412E+02 -0.18623724115E+02  0.10382846734E+03  0.11407372110E+03  0.41800000000E+01 0. -1.
         -5    1    3    3    0  502 -0.65455379667E+02 -0.11547092347E+02  0.30444017742E+02  0.73226038301E+02  0.41800000000E+01 0. -1.
        -11    1    4    4    0    0 -0.23229793969E+02  0.40265174843E+02  0.97233760647E+02  0.10777435615E+03  0.00000000000E+00 0. -1.
         11    1    4    4    0    0  0.45463099223E+02 -0.10094358382E+02  0.16359862245E+02  0.49360252783E+02  0.00000000000E+00 0.  1.
</event>
<event>
 8    1  0.3708258E-009  0.1780532E+03  0.7561462E-02  0.1169701E+00
          1   -1    0    0  501    0  0.00000000000E+00  0.00000000000E+00  0.17787781681E+03  0.17787781681E+03  0.00000000000E+00 0. -1.
         -1   -1    0    0    0  501 -0.00000000000E+00 -0.00000000000E+00 -0.25889442693E+03  0.25889442693E+03  0.00000000000E+00 0.  1.
         25    2    1    2    0    0  0.15275751636E+03  0.63354232437E+02  0.44808804123E+02  0.21214196438E+03  0.12509103306E+03 0.  0.
         23    2    1    2    0    0 -0.15275751636E+03 -0.63354232437E+02 -0.12582541424E+03  0.22463027935E+03  0.85311839510E+02 0.  0.
          5    1    3    3  502    0  0.80401165605E+02 -0.10601522418E+02 -0.27623157122E+02  0.85774418783E+02  0.41800000000E+01 0.  1.
         -5    1    3    3    0  502  0.72356350755E+02  0.73955754855E+02  0.72431961244E+02  0.12636754560E+03  0.41800000000E+01 0.  1.
        -11    1    4    4    0    0 -0.12093703369E+03 -0.28680978080E+02 -0.12680195530E+03  0.17755872406E+03  0.00000000000E+00 0.  1.
         11    1    4    4    0    0 -0.31820482668E+02 -0.34673254357E+02  0.97654106164E+00  0.47071555290E+02  0.00000000000E+00 0. -1.
</event>
<event>
 8    1  0.3708258E-009  0.1025136E+03  0.7561462E-02  0.1275097E+00
         -3   -1    0    0    0  501 -0.00000000000E+00  0.00000000000E+00  0.10628211532E+03  0.10628211532E+03  0.00000000000E+00 0.  1.
          3   -1    0    0  501    0  0.00000000000E+00 -0.00000000000E+00 -0.14512422071E+03  0.14512422071E+03  0.00000000000E+00 0. -1.
         25    2    1    2    0    0 -0.56211860177E+02  0.13489083253E+02 -0.30244355553E+01  0.13784062815E+03  0.12509661453E+03 0.  0.
         23    2    1    2    0    0  0.56211860177E+02 -0.13489083253E+02 -0.35817669835E+02  0.11356570788E+03  0.90953482294E+02 0.  0.
          5    1    3    3  502    0  0.32055926588E+02 -0.46442067513E+01  0.27409701952E+02  0.42637017331E+02  0.41800000000E+01 0.  1.
         -5    1    3    3    0  502 -0.88267786764E+02  0.18133290004E+02 -0.30434137508E+02  0.95203610816E+02  0.41800000000E+01 0.  1.
        -11    1    4    4    0    0 -0.12396265445E+02 -0.30060827902E+01  0.20528410722E+02  0.24168565896E+02  0.00000000000E+00 0.  1.
         11    1    4    4    0    0  0.68608125622E+02 -0.10483000463E+02 -0.56346080557E+02  0.89397141980E+02  0.00000000000E+00 0. -1.
</event>
<event>
 8    1  0.3708258E-009  0.1167002E+03  0.7561462E-02  0.1248642E+00
          1   -1    0    0  501    0  0.00000000000E+00  0.00000000000E+00  0.21764982957E+04  0.21764982957E+04  0.00000000000E+00 0. -1.
         -1   -1    0    0    0  501 -0.00000000000E+00 -0.00000000000E+00 -0.97427364362E+01  0.97427364362E+01  0.00000000000E+00 0.  1.
         25    2    1    2    0    0 -0.33687242415E+02 -0.58671639521E+02  0.17096283583E+04  0.17155333843E+04  0.12509387408E+03 0.  0.
         23    2    1    2    0    0  0.33687242415E+02  0.58671639521E+02  0.45712720094E+03  0.47070764788E+03  0.89572430728E+02 0.  0.
          5    1    3    3  502    0 -0.10641321694E+02 -0.95706449265E+02  0.10327705605E+04  0.10372586298E+04  0.41800000000E+01 0. -1.
         -5    1    3    3    0  502 -0.23045920721E+02  0.37034809745E+02  0.67685779784E+03  0.67827475442E+03  0.41800000000E+01 0. -1.
        -11    1    4    4    0    0  0.17019012874E+02  0.70648031649E+02  0.43289194857E+03  0.43894900650E+03  0.00000000000E+00 0. -1.
         11    1    4    4    0    0  0.16668229541E+02 -0.11976392128E+02  0.24235252370E+02  0.31758641374E+02  0.00000000000E+00 0.  1.
</event>
<event>
 8    1  0.3708258E-009  0.1292963E+03  0.7561462E-02  0.1228504E+00
          2   -1    0    0  501    0  0.00000000000E+00  0.00000000000E+00  0.41453254206E+03  0.41453254206E+03  0.00000000000E+00 0. -1.
         -2   -1    0    0    0  501 -0.00000000000E+00 -0.00000000000E+00 -0.55355883853E+02  0.55355883853E+02  0.00000000000E+00 0.  1.
         25    2    1    2    0    0  0.80368707427E+01  0.96611329318E+02  0.12779188690E+03  0.20341211923E+03  0.12508950256E+03 0.  0.
         23    2    1    2    0    0 -0.80368707427E+01 -0.96611329318E+02  0.23138477131E+03  0.26647630668E+03  0.89846365442E+02 0.  0.
          5    1    3    3  502    0 -0.25230864870E+02 -0.20265481128E+02  0.10017675888E+02  0.34133744267E+02  0.41800000000E+01 0.  1.
         -5    1    3    3    0  502  0.33267735613E+02  0.11687681045E+03  0.11777421101E+03  0.16927837497E+03  0.41800000000E+01 0.  1.
        -11    1    4    4    0    0 -0.23763412744E+02 -0.58444388237E+02  0.50134944060E+02  0.80585103571E+02  0.00000000000E+00 0.  1.
         11    1    4    4    0    0  0.15726542001E+02 -0.38166941082E+02  0.18124982725E+03  0.18589120311E+03  0.00000000000E+00 0. -1.
</event>
<event>
 8    1  0.3708258E-009  0.1034797E+03  0.7561462E-02  0.1273144E+00
         -2   -1    0    0    0  501 -0.00000000000E+00  0.00000000000E+00  0.28641503748E+02  0.28641503748E+02  0.00000000000E+00 0.  1.
          2   -1    0    0  501    0  0.00000000000E+00 -0.00000000000E+00 -0.59022405086E+03  0.59022405086E+03  0.00000000000E+00 0. -1.
         25    2    1    2    0    0  0.93543130851E+01  0.28299751978E+02 -0.46859205428E+03  0.48591676403E+03  0.12509280193E+03 0.  0.
         23    2    1    2    0    0 -0.93543130851E+01 -0.28299751978E+02 -0.92990492825E+02  0.13294879057E+03  0.90220674034E+02 0.  0.
          5    1    3    3  502    0 -0.49325114323E+02  0.15870393005E+02 -0.34013272088E+03  0.34408222345E+03  0.41800000000E+01 0. -1.
         -5    1    3    3    0  502  0.58679427408E+02  0.12429358974E+02 -0.12845933340E+03  0.14183454059E+03  0.41800000000E+01 0. -1.
        -11    1    4    4    0    0  0.17820087846E+02  0.27508585165E+02 -0.28429185419E+02  0.43387744493E+02  0.00000000000E+00 0.  1.
         11    1    4    4    0    0 -0.27174400931E+02 -0.55808337143E+02 -0.64561307407E+02  0.89561046079E+02  0.00000000000E+00 0. -1.
</event>
<event>
 8    1  0.3708258E-009  0.9965632E+02  0.7561462E-02  0.1281020E+00
          1   -1    0    0  501    0  0.00000000000E+00  0.00000000000E+00  0.72241226263E+03  0.72241226263E+03  0.00000000000E+00 0. -1.
         -1   -1    0    0    0  501 -0.00000000000E+00 -0.00000000000E+00 -0.22573137162E+02  0.22573137162E+02  0.00000000000E+00 0.  1.
         25    2    1    2    0    0  0.42173934850E+02  0.48897358842E+02  0.45090542411E+03  0.47236647802E+03  0.12507915727E+03 0.  0.
         23    2    1    2    0    0 -0.42173934850E+02 -0.48897358842E+02  0.24893370136E+03  0.27261892177E+03  0.90462679347E+02 0.  0.
          5    1    3    3  502    0 -0.11268648177E+02  0.60590463829E+02  0.36668054961E+03  0.37184712531E+03  0.41800000000E+01 0.  1.
         -5    1    3    3    0  502  0.53442583027E+02 -0.11693104987E+02  0.84224874506E+02  0.10051935272E+03  0.41800000000E+01 0.  1.
        -11    1    4    4    0    0 -0.48801477294E+02 -0.19521551412E+02  0.23238955471E+03  0.23825948101E+03  0.00000000000E+00 0. -1.
         11    1    4    4    0    0  0.66275424437E+01 -0.29375807430E+02  0.16544146652E+02  0.34359440762E+02  0.00000000000E+00 0.  1.
</event>
<event>
 8    1  0.3708258E-009  0.1162901E+03  0.7561462E-02  0.1249346E+00
          2   -1    0    0  501    0  0.00000000000E+00  0.00000000000E+00  0.17097854231E+02  0.17097854231E+02  0.00000000000E+00 0. -1.
         -2   -1    0    0    0  501 -0.00000000000E+00 -0.00000000000E+00 -0.10343357938E+04  0.10343357938E+04  0.00000000000E+00 0.  1.
         25    2    1    2    0    0  0.75378091111E+02  0.98353646355E+01 -0.62053879050E+03  0.63757000392E+03  0.12509407804E+03 0.  0.
         23    2    1    2    0    0 -0.75378091111E+02 -0.98353646355E+01 -0.39669914904E+03  0.41386364409E+03  0.90190409858E+02 0.  0.
          5    1    3    3  502    0  0.29389616356E+02  0.65778882002E+02 -0.35754258261E+03  0.36475304200E+03  0.41800000000E+01 0. -1.
         -5    1    3    3    0  502  0.45988474755E+02 -0.55943517367E+02 -0.26299620789E+03  0.27281696192E+03  0.41800000000E+01 0. -1.
        -11    1    4    4    0    0 -0.66348124677E+02  0.90280883271E+01 -0.38312242812E+03  0.38892978152E+03  0.00000000000E+00 0.  1.
         11    1    4    4    0    0 -0.90299664340E+01 -0.18863452963E+02 -0.13576720924E+02  0.24933862567E+02  0.00000000000E+00 0. -1.
</event>
<event>
 8    1  0.3708258E-009  0.1053337E+03  0.7561462E-02  0.1269464E+00
         -1   -1    0    0    0  501 -0.00000000000E+00  0.00000000000E+00  0.77424755064E+02  0.77424755064E+02  0.00000000000E+00 0.  1.
          1   -1    0    0  501    0  0.00000000000E+00 -0.00000000000E+00 -0.18839663101E+03  0.18839663101E+03  0.00000000000E+00 0. -1.
         25    2    1    2    0    0  0.65996654058E+01 -0.10416274243E+02 -0.66551921849E+00  0.12569918985E+03  0.12509112303E+03 0.  0.
         23    2    1    2    0    0 -0.65996654058E+01  0.10416274243E+02 -0.11030635672E+03  0.14012219622E+03  0.85525921141E+02 0.  0.
          5    1    3    3  502    0 -0.35758628400E+02  0.43253795231E+02 -0.78609796687E+01  0.56822862549E+02  0.41800000000E+01 0.  1.
         -5    1    3    3    0  502  0.42358293805E+02 -0.53670069474E+02  0.71954604502E+01  0.68876327302E+02  0.41800000000E+01 0.  1.
        -11    1    4    4    0    0 -0.31723295851E+02 -0.26433009973E+02 -0.60715772801E+02  0.73426674871E+02  0.00000000000E+00 0.  1.
         11    1    4    4    0    0  0.25123630445E+02  0.36849284216E+02 -0.49590583923E+02  0.66695521347E+02  0.00000000000E+00 0. -1.
</event>
<event>
 8    1  0.3708258E-009  0.9848444E+02  0.7561462E-02  0.1283516E+00
         -2   -1    0    0    0  501 -0.00000000000E+00  0.00000000000E+00  0.12963182247E+03  0.12963182247E+03  0.00000000000E+00 0.  1.
          2   -1    0    0  501    0  0.00000000000E+00 -0.00000000000E+00 -0.13054555448E+03  0.13054555448E+03  0.00000000000E+00 0. -1.
         25    2    1    2    0    0  0.69335365978E+02  0.64372455042E+01  0.18788638054E+02  0.14439508773E+03  0.12509235522E+03 0.  0.
         23    2    1    2    0    0 -0.69335365978E+02 -0.64372455042E+01 -0.19702370063E+02  0.11578228922E+03  0.90379887180E+02 0.  0.
          5    1    3    3  502    0  0.77053740448E+02  0.32409742165E+02 -0.29602452555E+02  0.88777519122E+02  0.41800000000E+01 0.  1.
         -5    1    3    3    0  502 -0.77183744702E+01 -0.25972496661E+02  0.48391090609E+02  0.55617568606E+02  0.41800000000E+01 0.  1.
        -11    1    4    4    0    0 -0.47679891841E+02 -0.28002506313E+02  0.25761248017E+02  0.61001265111E+02  0.00000000000E+00 0.  1.
         11    1    4    4    0    0 -0.21655474137E+02  0.21565260809E+02 -0.45463618080E+02  0.54781024112E+02  0.00000000000E+00 0. -1.
</event>
<event>
 8    1  0.3708258E-009  0.1187361E+03  0.7561462E-02  0.1245197E+00
         -1   -1    0    0    0  501 -0.00000000000E+00  0.00000000000E+00  0.15493636935E+02  0.15493636935E+02  0.00000000000E+00 0.  1.
          1   -1    0    0  501    0  0.00000000000E+00 -0.00000000000E+00 -0.10029022421E+04  0.10029022421E+04  0.00000000000E+00 0. -1.
         25    2    1    2    0    0 -0.43872571461E+02 -0.13425138746E+02 -0.69631793302E+03  0.70895295426E+03  0.12510232066E+03 0.  0.
         23    2    1    2    0    0  0.43872571461E+02  0.13425138746E+02 -0.29109067212E+03  0.30944292475E+03  0.94425141804E+02 0.  0.
          5    1    3    3  502    0 -0.50026847238E+02  0.48688102143E+02 -0.40505936411E+03  0.41105203757E+03  0.41800000000E+01 0. -1.
         -5    1    3    3    0  502  0.61542757769E+01 -0.62113240889E+02 -0.29125856891E+03  0.29790091669E+03  0.41800000000E+01 0. -1.
        -11    1    4    4    0    0 -0.58827928990E+01  0.45437990392E+02 -0.12686004371E+03  0.13488027622E+03  0.00000000000E+00 0.  1.
         11    1    4    4    0    0  0.49755364360E+02 -0.32012851647E+02 -0.16423062841E+03  0.17456264853E+03  0.00000000000E+00 0. -1.
</event>
<event>
 8    1  0.3708258E-009  0.1266677E+03  0.7561462E-02  0.1232486E+00
          2   -1    0    0  501    0  0.00000000000E+00  0.00000000000E+00  0.46909095484E+03  0.46909095484E+03  0.00000000000E+00 0. -1.
         -2   -1    0    0    0  501 -0.00000000000E+00 -0.00000000000E+00 -0.53724609767E+02  0.53724609767E+02  0.00000000000E+00 0.  1.
         25    2    1    2    0    0  0.51528611126E+02  0.51948131243E+02  0.75217925987E+02  0.16327782721E+03  0.12509239132E+03 0.  0.
         23    2    1    2    0    0 -0.51528611126E+02 -0.51948131243E+02  0.34014841909E+03  0.35953773740E+03  0.90623570326E+02 0.  0.
          5    1    3    3  502    0 -0.37685636137E+02 -0.18419571424E+00  0.49249714246E+01  0.38235701153E+02  0.41800000000E+01 0.  1.
         -5    1    3    3    0  502  0.89214247264E+02  0.52132326957E+02  0.70292954562E+02  0.12504212606E+03  0.41800000000E+01 0.  1.
        -11    1    4    4    0    0  0.10548337396E+02 -0.48714231051E+02  0.20182970573E+03  0.20789317892E+03  0.00000000000E+00 0. -1.
         11    1    4    4    0    0 -0.62076948523E+02 -0.32339001924E+01  0.13831871336E+03  0.15164455847E+03  0.00000000000E+00 0.  1.
</event>
<event>
 8    1  0.3708258E-009  0.1161578E+03  0.7561462E-02  0.1249574E+00
         -1   -1    0    0    0  501 -0.00000000000E+00  0.00000000000E+00  0.27339825998E+03  0.27339825998E+03  0.00000000000E+00 0.  1.
          1   -1    0    0  501    0  0.00000000000E+00 -0.00000000000E+00 -0.50212311738E+02  0.50212311738E+02  0.00000000000E+00 0. -1.
         25    2    1    2    0    0 -0.74774516537E+01 -0.42991796483E+02  0.11414594124E+03  0.17487686870E+03  0.12509363077E+03 0.  0.
         23    2    1    2    0    0  0.74774516537E+01  0.42991796483E+02  0.10904000700E+03  0.14873370301E+03  0.91256695297E+02 0.  0.
          5    1    3    3  502    0 -0.20682407057E+02 -0.85349289572E+02  0.75208538461E+02  0.11569814108E+03  0.41800000000E+01 0. -1.
         -5    1    3    3    0  502  0.13204955403E+02  0.42357493089E+02  0.38937402776E+02  0.59178727622E+02  0.41800000000E+01 0. -1.
        -11    1    4    4    0    0  0.27665356054E+02 -0.19704826085E+02  0.26181548238E+02  0.42885027280E+02  0.00000000000E+00 0. -1.
         11    1    4    4    0    0 -0.20187904401E+02  0.62696622567E+02  0.82858458763E+02  0.10584867573E+03  0.00000000000E+00 0.  1.
</event>
<event>
 8    1  0.3708258E-009  0.1412483E+03  0.7561462E-02  0.1211659E+00
         -1   -1    0    0    0  501 -0.00000000000E+00  0.00000000000E+00  0.22178499642E+03  0.22178499642E+03  0.00000000000E+00 0.  1.
          1   -1    0    0  501    0  0.00000000000E+00 -0.00000000000E+00 -0.13405915085E+03  0.13405915085E+03  0.00000000000E+00 0. -1.
         25    2    1    2    0    0 -0.66133672525E+02 -0.63686099649E+02 -0.53604983003E+02  0.16415411582E+03  0.12507396855E+03 0.  0.
         23    2    1    2    0    0  0.66133672525E+02  0.63686099649E+02  0.14133082857E+03  0.19169003145E+03  0.91329530395E+02 0.  0.
          5    1    3    3  502    0 -0.20567845074E+02  0.38104807633E+02 -0.16911992417E+02  0.46674409511E+02  0.41800000000E+01 0.  1.
         -5    1    3    3    0  502 -0.45565827451E+02 -0.10179090728E+03 -0.36692990586E+02  0.11747970631E+03  0.41800000000E+01 0.  1.
        -11    1    4    4    0    0 -0.18740264707E+02  0.31433745235E+02  0.57221975522E+02  0.67923724452E+02  0.00000000000E+00 0.  1.
         11    1    4    4    0    0  0.84873937232E+02  0.32252354414E+02  0.84108853051E+02  0.12376630700E+03  0.00000000000E+00 0. -1.
</event>
<event>
 8    1  0.3708258E-009  0.9355184E+02  0.7561462E-02  0.1294471E+00
          1   -1    0    0  501    0  0.00000000000E+00  0.00000000000E+00  0.20051947329E+03  0.20051947329E+03  0.00000000000E+00 0. -1.
         -1   -1    0    0    0  501 -0.00000000000E+00 -0.00000000000E+00 -0.75059570838E+02  0.75059570838E+02  0.00000000000E+00 0.  1.
         25    2    1    2    0    0 -0.39315427616E+02 -0.33775817669E+02  0.10112918374E+03  0.16900114698E+03  0.12509103552E+03 0.  0.
         23    2    1    2    0    0  0.39315427616E+02  0.33775817669E+02  0.24330718704E+02  0.10657789715E+03  0.89890798080E+02 0.  0.
          5    1    3    3  502    0 -0.39939338724E+02 -0.52123610933E+02  0.12339477901E+03  0.13984193034E+03  0.41800000000E+01 0.  1.
         -5    1    3    3    0  502  0.62391110897E+00  0.18347793265E+02 -0.22265595263E+02  0.29159216642E+02  0.41800000000E+01 0.  1.
        -11    1    4    4    0    0  0.68013667873E+02  0.25067651042E+02  0.94528079973E+01  0.73099943402E+02  0.00000000000E+00 0. -1.
         11    1    4    4    0    0 -0.28698240257E+02  0.87081666268E+01  0.14877910706E+02  0.33477953744E+02  0.00000000000E+00 0.  1.
</event>
<event>
 8    1  0.3708258E-009  0.9735465E+02  0.7561462E-02  0.1285959E+00
          1   -1    0    0  501    0  0.00000000000E+00  0.00000000000E+00  0.40085935042E+02  0.40085935042E+02  0.00000000000E+00 0. -1.
         -1   -1    0    0    0  501 -0.00000000000E+00 -0.00000000000E+00 -0.86601391806E+03  0.86601391806E+03  0.00000000000E+00 0.  1.
         25    2    1    2    0    0 -0.60998542738E+02  0.81595243649E+01 -0.76930309117E+03  0.78183230485E+03  0.12508839584E+03 0.  0.
         23    2    1    2    0    0  0.60998542738E+02 -0.81595243649E+01 -0.56624891851E+02  0.12426754825E+03  0.91916511668E+02 0.  0.
          5    1    3    3  502    0 -0.17197608433E+02  0.30111292465E+02 -0.50800466470E+02  0.61649067010E+02  0.41800000000E+01 0.  1.
         -5    1    3    3    0  502 -0.43800934305E+02 -0.21951768100E+02 -0.71850262470E+03  0.72018323784E+03  0.41800000000E+01 0.  1.
        -11    1    4    4    0    0  0.38582988001E+02 -0.49992639349E+02 -0.32999477105E+02  0.71252203064E+02  0.00000000000E+00 0. -1.
         11    1    4    4    0    0  0.22415554737E+02  0.41833114984E+02 -0.23625414746E+02  0.53015345187E+02  0.00000000000E+00 0.  1.
</event>
<event>
 8    1  0.3708258E-009  0.1573567E+03  0.7561462E-02  0.1191714E+00
         -2   -1    0    0    0  501 -0.00000000000E+00  0.00000000000E+00  0.37168206447E+03  0.37168206447E+03  0.00000000000E+00 0.  1.
          2   -1    0    0  501    0  0.00000000000E+00 -0.00000000000E+00 -0.10581911980E+03  0.10581911980E+03  0.00000000000E+00 0. -1.
         25    2    1    2    0    0  0.62024781824E+02 -0.12579455776E+03  0.24617921491E+03  0.30971361530E+03  0.12508786242E+03 0.  0.
         23    2    1    2    0    0 -0.62024781824E+02  0.12579455776E+03  0.19683729764E+02  0.16778756896E+03  0.89965964443E+02 0.  0.
          5    1    3    3  502    0  0.36470233192E+02  0.81927736270E+01  0.11274350888E+03  0.11885188531E+03  0.41800000000E+01 0. -1.
         -5    1    3    3    0  502  0.25554548632E+02 -0.13398733139E+03  0.13343570603E+03  0.19086172998E+03  0.41800000000E+01 0. -1.
        -11    1    4    4    0    0 -0.33929978758E+02  0.57149358137E+02 -0.35490259756E+02  0.75344881257E+02  0.00000000000E+00 0. -1.
         11    1    4    4    0    0 -0.28094803066E+02  0.68645199626E+02  0.55173989520E+02  0.92442687708E+02  0.00000000000E+00 0.  1.
</event>
<event>
 8    1  0.3708258E-009  0.2116662E+03  0.7561462E-02  0.1140253E+00
          1   -1    0    0  501    0  0.00000000000E+00  0.00000000000E+00  0.23512226285E+03  0.23512226285E+03  0.00000000000E+00 0. -1.
         -1   -1    0    0    0  501 -0.00000000000E+00 -0.00000000000E+00 -0.21267017196E+03  0.21267017196E+03  0.00000000000E+00 0.  1.
         25    2    1    2    0    0 -0.17781342850E+02 -0.19161302342E+03 -0.19383803949E+02  0.23033520528E+03  0.12508736162E+03 0.  0.
         23    2    1    2    0    0  0.17781342850E+02  0.19161302342E+03  0.41835894841E+02  0.21745722954E+03  0.92226230995E+02 0.  0.
          5    1    3    3  502    0  0.31362486225E+02 -0.12382885110E+03 -0.55145968712E+02  0.13919676782E+03  0.41800000000E+01 0. -1.
         -5    1    3    3    0  502 -0.49143829074E+02 -0.67784172323E+02  0.35762164763E+02  0.91138437457E+02  0.41800000000E+01 0. -1.
        -11    1    4    4    0    0  0.52454006756E+02  0.14013664063E+03  0.16948269357E+02  0.15058866062E+03  0.00000000000E+00 0.  1.
         11    1    4    4    0    0 -0.34672663906E+02  0.51476382788E+02  0.24887625484E+02  0.66868568921E+02  0.00000000000E+00 0. -1.
</event>
<event>
 8    1  0.3708258E-009  0.1364016E+03  0.7561462E-02  0.1218255E+00
         -4   -1    0    0    0  501 -0.00000000000E+00  0.00000000000E+00  0.88675754094E+02  0.88675754094E+02  0.00000000000E+00 0.  1.
          4   -1    0    0  501    0  0.00000000000E+00 -0.00000000000E+00 -0.22724790998E+03  0.22724790998E+03  0.00000000000E+00 0. -1.
         25    2    1    2    0    0  0.71990213591E+02 -0.46285286240E+02 -0.10791189703E+03  0.18605245990E+03  0.12508245976E+03 0.  0.
         23    2    1    2    0    0 -0.71990213591E+02  0.46285286240E+02 -0.30660258858E+02  0.12987120417E+03  0.92744593507E+02 0.  0.
          5    1    3    3  502    0  0.25762259895E+02  0.40973989650E+02 -0.56934911107E+02  0.74843960114E+02  0.41800000000E+01 0.  1.
         -5    1    3    3    0  502  0.46227953696E+02 -0.87259275890E+02 -0.50976985923E+02  0.11120849979E+03  0.41800000000E+01 0.  1.
        -11    1    4    4    0    0  0.21027045880E+02 -0.97880311751E+00 -0.10809750707E+02  0.23663165983E+02  0.00000000000E+00 0.  1.
         11    1    4    4    0    0 -0.93017259471E+02  0.47264089357E+02 -0.19850508150E+02  0.10620803819E+03  0.00000000000E+00 0. -1.
</event>
<event>
 8    1  0.3708258E-009  0.1044650E+03  0.7561462E-02  0.1271177E+00
         -1   -1    0    0    0  501 -0.00000000000E+00  0.00000000000E+00  0.30086776507E+03  0.30086776507E+03  0.00000000000E+00 0.  1.
          1   -1    0    0  501    0  0.00000000000E+00 -0.00000000000E+00 -0.61456490063E+02  0.61456490063E+02  0.00000000000E+00 0. -1.
         25    2    1    2    0    0  0.17577671323E+02  0.63689893097E+02  0.69339371806E+02  0.15754840647E+03  0.12509266520E+03 0.  0.
         23    2    1    2    0    0 -0.17577671323E+02 -0.63689893097E+02  0.17007190320E+03  0.20477584867E+03  0.92969451578E+02 0.  0.
          5    1    3    3  502    0  0.85892316159E+01 -0.13814322553E+02  0.77211685159E+02  0.79017258447E+02  0.41800000000E+01 0.  1.
         -5    1    3    3    0  502  0.89884397071E+01  0.77504215650E+02 -0.78723133536E+01  0.78531148021E+02  0.41800000000E+01 0.  1.
        -11    1    4    4    0    0 -0.29528519232E+02  0.15886175400E+02  0.47119557409E+02  0.57832142510E+02  0.00000000000E+00 0.  1.
         11    1    4    4    0    0  0.11950847909E+02 -0.79576068497E+02  0.12295234580E+03  0.14694370616E+03  0.00000000000E+00 0. -1.
</event>
<event>
 8    1  0.3708258E-009  0.1478917E+03  0.7561462E-02  0.1203088E+00
         -1   -1    0    0    0  501 -0.00000000000E+00  0.00000000000E+00  0.27646965865E+03  0.27646965865E+03  0.00000000000E+00 0.  1.
          1   -1    0    0  501    0  0.00000000000E+00 -0.00000000000E+00 -0.92380878545E+02  0.92380878545E+02  0.00000000000E+00 0. -1.
         25    2    1    2    0    0  0.58483847861E+02 -0.95188663813E+02  0.11505144600E+03  0.20338682796E+03  0.12509246333E+03 0.  0.
         23    2    1    2    0    0 -0.58483847861E+02  0.95188663813E+02  0.69037334103E+02  0.16546370923E+03  0.10065209086E+03 0.  0.
          5    1    3    3  502    0 -0.36194210564E+02 -0.12254408227E+02  0.45350750606E+02  0.59450436330E+02  0.41800000000E+01 0.  1.
         -5    1    3    3    0  502  0.94678058425E+02 -0.82934255586E+02  0.69700695393E+02  0.14393639163E+03  0.41800000000E+01 0.  1.
        -11    1    4    4    0    0 -0.29920787720E+02  0.98228220918E+02  0.84373275339E+02  0.13290179274E+03  0.00000000000E+00 0.  1.
         11    1    4    4    0    0 -0.28563060141E+02 -0.30395571051E+01 -0.15335941236E+02  0.32561916491E+02  0.00000000000E+00 0. -1.
</event>
<event>
 8    1  0.3708258E-009  0.8955693E+02  0.7561462E-02  0.1303928E+00
         -1   -1    0    0    0  501 -0.00000000000E+00  0.00000000000E+00  0.10892235630E+03  0.10892235630E+03  0.00000000000E+00 0.  1.
          1   -1    0    0  501    0  0.00000000000E+00 -0.00000000000E+00 -0.16883675439E+03  0.16883675439E+03  0.00000000000E+00 0. -1.
         25    2    1    2    0    0  0.14190430450E+02 -0.57762776158E+02  0.24386066489E+02  0.14063952031E+03  0.12508752059E+03 0.  0.
         23    2    1    2    0    0 -0.14190430450E+02  0.57762776158E+02 -0.84300464577E+02  0.13711959038E+03  0.90317811719E+02 0.  0.
          5    1    3    3  502    0 -0.14099749701E+02 -0.24603032438E+02 -0.48077480993E+02  0.55973464476E+02  0.41800000000E+01 0.  1.
         -5    1    3    3    0  502  0.28290180151E+02 -0.33159743720E+02  0.72463547482E+02  0.84666055833E+02  0.41800000000E+01 0.  1.
        -11    1    4    4    0    0 -0.48593658521E+02  0.13180166399E+02 -0.51150548088E+02  0.71773525791E+02  0.00000000000E+00 0.  1.
         11    1    4    4    0    0  0.34403228071E+02  0.44582609760E+02 -0.33149916488E+02  0.65346064594E+02  0.00000000000E+00 0. -1.
</event>
<event>
 8    1  0.3708258E-009  0.1078454E+03  0.7561462E-02  0.1264613E+00
         -1   -1    0    0    0  501 -0.00000000000E+00  0.00000000000E+00  0.31190318166E+03  0.31190318166E+03  0.00000000000E+00 0.  1.
          1   -1    0    0  501    0  0.00000000000E+00 -0.00000000000E+00 -0.45412319959E+02  0.45412319959E+02  0.00000000000E+00 0. -1.
         25    2    1    2    0    0 -0.38091675485E+02 -0.25213611824E+02  0.19142625250E+03  0.23319181477E+03  0.12509080849E+03 0.  0.
         23    2    1    2    0    0  0.38091675485E+02  0.25213611824E+02  0.75064609206E+02  0.12412368685E+03  0.87665797888E+02 0.  0.
          5    1    3    3  502    0 -0.30242388056E+02  0.47235997246E+02  0.56123129507E+02  0.79455141664E+02  0.41800000000E+01 0. -1.
         -5    1    3    3    0  502 -0.78492874289E+01 -0.72449609070E+02  0.13530312299E+03  0.15373667311E+03  0.41800000000E+01 0. -1.
        -11    1    4    4    0    0  0.58880150539E+02  0.28487311119E+02  0.79156698342E+02  0.10268486702E+03  0.00000000000E+00 0.  1.
         11    1    4    4    0    0 -0.20788475055E+02 -0.32736992951E+01 -0.40920891364E+01  0.21438819829E+02  0.00000000000E+00 0. -1.
</event>
<event>
 8    1  0.3708258E-009  0.3502775E+03  0.7561462E-02  0.1062501E+00
         -1   -1    0    0    0  501 -0.00000000000E+00  0.00000000000E+00  0.30992385946E+03  0.30992385946E+03  0.00000000000E+00 0.  1.
          1   -1    0    0  501    0  0.00000000000E+00 -0.00000000000E+00 -0.41678240558E+03  0.41678240558E+03  0.00000000000E+00 0. -1.
         25    2    1    2    0    0 -0.70994447004E+02 -0.33575847886E+03 -0.63822418212E+02  0.37080232854E+03  0.12508836138E+03 0.  0.
         23    2    1    2    0    0  0.70994447004E+02  0.33575847886E+03 -0.43036127905E+02  0.35590393650E+03  0.83913861043E+02 0.  0.
          5    1    3    3  502    0 -0.74431369609E+02 -0.22698585815E+03  0.10181067313E+02  0.23913120899E+03  0.41800000000E+01 0. -1.
         -5    1    3    3    0  502  0.34369226048E+01 -0.10877262071E+03 -0.74003485525E+02  0.13167111955E+03  0.41800000000E+01 0. -1.
        -11    1    4    4    0    0 -0.73226721522E+01  0.16171747635E+03 -0.29728393098E+02  0.16459022158E+03  0.00000000000E+00 0.  1.
         11    1    4    4    0    0  0.78317119157E+02  0.17404100251E+03 -0.13307734808E+02  0.19131371492E+03  0.00000000000E+00 0. -1.
</event>
<event>
 8    1  0.3708258E-009  0.6590736E+02  0.7561462E-02  0.1374591E+00
          4   -1    0    0  501    0  0.00000000000E+00  0.00000000000E+00  0.35965142998E+03  0.35965142998E+03  0.00000000000E+00 0. -1.
         -4   -1    0    0    0  501 -0.00000000000E+00 -0.00000000000E+00 -0.36562763880E+02  0.36562763880E+02  0.00000000000E+00 0.  1.
         25    2    1    2    0    0  0.27758804320E+02 -0.13542953933E+02  0.14820640450E+03  0.19638838382E+03  0.12509714684E+03 0.  0.
         23    2    1    2    0    0 -0.27758804320E+02  0.13542953933E+02  0.17488226161E+03  0.19982581004E+03  0.91611058920E+02 0.  0.
          5    1    3    3  502    0  0.43986817409E+01  0.78339543631E+01 -0.21515273826E+02  0.23687520973E+02  0.41800000000E+01 0.  1.
         -5    1    3    3    0  502  0.23360122579E+02 -0.21376908296E+02  0.16972167832E+03  0.17270086285E+03  0.41800000000E+01 0.  1.
        -11    1    4    4    0    0 -0.26182114807E+02  0.48424168352E+02  0.68610082869E+02  0.87964462641E+02  0.00000000000E+00 0.  1.
         11    1    4    4    0    0 -0.15766895131E+01 -0.34881214419E+02  0.10627217874E+03  0.11186134740E+03  0.00000000000E+00 0. -1.
</event>
<event>
 8    1  0.3708258E-009  0.3667309E+03  0.7561462E-02  0.1055950E+00
          1   -1    0    0  501    0  0.00000000000E+00  0.00000000000E+00  0.13699675889E+04  0.13699675889E+04  0.00000000000E+00 0. -1.
         -1   -1    0    0    0  501 -0.00000000000E+00 -0.00000000000E+00 -0.10338433509E+03  0.10338433509E+03  0.00000000000E+00 0.  1.
         25    2    1    2    0    0  0.19704817724E+02  0.35537359192E+03  0.53230496825E+03  0.65243633173E+03  0.12508364428E+03 0.  0.
         23    2    1    2    0    0 -0.19704817724E+02 -0.35537359192E+03  0.73427828553E+03  0.82091559222E+03  0.89772709000E+02 0.  0.
          5    1    3    3  502    0 -0.18055607937E+02  0.33207122625E+03  0.47421816880E+03  0.57922158826E+03  0.41800000000E+01 0.  1.
         -5    1    3    3    0  502  0.37760425662E+02  0.23302365665E+02  0.58086799446E+02  0.73214743472E+02  0.41800000000E+01 0.  1.
        -11    1    4    4    0    0 -0.60507668667E+01 -0.24715783163E+03  0.59267572703E+03  0.64217452684E+03  0.00000000000E+00 0. -1.
         11    1    4    4    0    0 -0.13654050858E+02 -0.10821576029E+03  0.14160255850E+03  0.17874106538E+03  0.00000000000E+00 0.  1.
</event>
<event>
 8    1  0.3708258E-009  0.1309129E+03  0.7561462E-02  0.1226107E+00
          1   -1    0    0  501    0  0.00000000000E+00  0.00000000000E+00  0.15400240459E+04  0.15400240459E+04  0.00000000000E+00 0. -1.
         -1   -1    0    0    0  501 -0.00000000000E+00 -0.00000000000E+00 -0.12762437110E+02  0.12762437110E+02  0.00000000000E+00 0.  1.
         25    2    1    2    0    0  0.12097301409E+02  0.69937683474E+02  0.10686742642E+04  0.10783088836E+04  0.12509093192E+03 0.  0.
         23    2    1    2    0    0 -0.12097301409E+02 -0.69937683474E+02  0.45858734461E+03  0.47447759941E+03  0.98939453405E+02 0.  0.
          5    1    3    3  502    0  0.63375196264E+02  0.12788338904E+02  0.58237293424E+03  0.58596558265E+03  0.41800000000E+01 0.  1.
         -5    1    3    3    0  502 -0.51277894855E+02  0.57149344570E+02  0.48630132997E+03  0.49234330097E+03  0.41800000000E+01 0.  1.
        -11    1    4    4    0    0  0.38726272096E+02 -0.54818524880E+02  0.29381462737E+03  0.30138319475E+03  0.00000000000E+00 0.  1.
         11    1    4    4    0    0 -0.50823573505E+02 -0.15119158594E+02  0.16477271723E+03  0.17309440466E+03  0.00000000000E+00 0. -1.
</event>
<event>
 8    1  0.3708258E-009  0.1351459E+03  0.7561462E-02  0.1220014E+00
         -2   -1    0    0    0  501 -0.00000000000E+00  0.00000000000E+00  0.95878475846E+02  0.95878475846E+02  0.00000000000E+00 0.  1.
          2   -1    0    0  501    0  0.00000000000E+00 -0.00000000000E+00 -0.46579599591E+03  0.46579599591E+03  0.00000000000E+00 0. -1.
         25    2    1    2    0    0  0.10093284088E+03  0.88525534157E+01  0.49195153815E+01  0.16105218763E+03  0.12509116451E+03 0.  0.
         23    2    1    2    0    0 -0.10093284088E+03 -0.88525534157E+01 -0.37483703545E+03  0.40062228413E+03  0.98638761778E+02 0.  0.
          5    1    3    3  502    0 -0.22893202545E+02  0.26036140639E+02  0.84172500723E+01  0.35920771720E+02  0.41800000000E+01 0.  1.
         -5    1    3    3    0  502  0.12382604343E+03 -0.17183587223E+02 -0.34977346909E+01  0.12513141591E+03  0.41800000000E+01 0.  1.
        -11    1    4    4    0    0 -0.21205512304E+02 -0.20761444764E+02 -0.17816420588E+02  0.34614103822E+02  0.00000000000E+00 0.  1.
         11    1    4    4    0    0 -0.79727328576E+02  0.11908891349E+02 -0.35702061486E+03  0.36600818031E+03  0.00000000000E+00 0. -1.
</event>
<event>
 8    1  0.3708258E-009  0.8423101E+02  0.7561462E-02  0.1317456E+00
         -1   -1    0    0    0  501 -0.00000000000E+00  0.00000000000E+00  0.46655773610E+02  0.46655773610E+02  0.00000000000E+00 0.  1.
          1   -1    0    0  501    0  0.00000000000E+00 -0.00000000000E+00 -0.29184291073E+03  0.29184291073E+03  0.00000000000E+00 0. -1.
         25    2    1    2    0    0 -0.28547361826E+01  0.19740273120E+02 -0.18856122235E+03  0.22715970200E+03  0.12509343604E+03 0.  0.
         23    2    1    2    0    0  0.28547361826E+01 -0.19740273120E+02 -0.56625914774E+02  0.11133898234E+03  0.93765915246E+02 0.  0.
          5    1    3    3  502    0 -0.61840232400E+02  0.17770922582E+02 -0.73473268791E+02  0.97753842173E+02  0.41800000000E+01 0.  1.
         -5    1    3    3    0  502  0.58985496217E+02  0.19693505386E+01 -0.11508795355E+03  0.12940585983E+03  0.41800000000E+01 0.  1.
        -11    1    4    4    0    0 -0.98116603951E+01 -0.28017675909E+02  0.18318036202E+02  0.34882793657E+02  0.00000000000E+00 0.  1.
         11    1    4    4    0    0  0.12666396578E+02  0.82774027886E+01 -0.74943950976E+02  0.76456188678E+02  0.00000000000E+00 0. -1.
</event>
<event>
 8    1  0.3708258E-009  0.1427546E+03  0.7561462E-02  0.1209670E+00
         -2   -1    0    0    0  501 -0.00000000000E+00  0.00000000000E+00  0.69441470326E+02  0.69441470326E+02  0.00000000000E+00 0.  1.
          2   -1    0    0  501    0  0.00000000000E+00 -0.00000000000E+00 -0.37091287416E+03  0.37091287416E+03  0.00000000000E+00 0. -1.
         25    2    1    2    0    0 -0.94459300543E+02 -0.63992129118E+02 -0.17311124373E+03  0.24214186863E+03  0.12509048641E+03 0.  0.
         23    2    1    2    0    0  0.94459300543E+02  0.63992129118E+02 -0.12836016010E+03  0.19821247585E+03  0.98966170148E+02 0.  0.
          5    1    3    3  502    0 -0.96651042179E+02 -0.22182908024E+02 -0.17370714959E+03  0.20006286908E+03  0.41800000000E+01 0. -1.
         -5    1    3    3    0  502  0.21917416366E+01 -0.41809221093E+02  0.59590586345E+00  0.42078999556E+02  0.41800000000E+01 0. -1.
        -11    1    4    4    0    0  0.76530201019E+02 -0.12308055663E+01 -0.97253638059E+02  0.12376048104E+03  0.00000000000E+00 0. -1.
         11    1    4    4    0    0  0.17929099524E+02  0.65222934684E+02 -0.31106522042E+02  0.74451994816E+02  0.00000000000E+00 0.  1.
</event>
<event>
 8    1  0.3708258E-009  0.1597791E+03  0.7561462E-02  0.1188946E+00
          2   -1    0    0  501    0  0.00000000000E+00  0.00000000000E+00  0.28898997829E+03  0.28898997829E+03  0.00000000000E+00 0. -1.
         -2   -1    0    0    0  501 -0.00000000000E+00 -0.00000000000E+00 -0.92920371555E+02  0.92920371555E+02  0.00000000000E+00 0.  1.
         25    2    1    2    0    0  0.87073132278E+02 -0.82526208491E+02  0.76867230267E+02  0.18959751510E+03  0.12508533563E+03 0.  0.
         23    2    1    2    0    0 -0.87073132278E+02  0.82526208491E+02  0.11920237647E+03  0.19231283474E+03  0.91557164653E+02 0.  0.
          5    1    3    3  502    0  0.73793306261E+02 -0.11537396851E+03  0.54317879133E+02  0.14739236430E+03  0.41800000000E+01 0.  1.
         -5    1    3    3    0  502  0.13279826017E+02  0.32847760024E+02  0.22549351134E+02  0.42205150801E+02  0.41800000000E+01 0.  1.
        -11    1    4    4    0    0 -0.75607458433E+02  0.13391426392E+02  0.40071376596E+02  0.86611392402E+02  0.00000000000E+00 0.  1.
         11    1    4    4    0    0 -0.11465673845E+02  0.69134782099E+02  0.79130999869E+02  0.10570144234E+03  0.00000000000E+00 0. -1.
</event>
<event>
 8    1  0.3708258E-009  0.1053927E+03  0.7561462E-02  0.1269348E+00
         -1   -1    0    0    0  501 -0.00000000000E+00  0.00000000000E+00  0.39483962079E+03  0.39483962079E+03  0.00000000000E+00 0. -1.
          1   -1    0    0  501    0  0.00000000000E+00 -0.00000000000E+00 -0.43782276251E+02  0.43782276251E+02  0.00000000000E+00 0.  1.
         25    2    1    2    0    0  0.20848607625E+01 -0.70317422265E+02  0.23832870774E+03  0.27820305347E+03  0.12508988571E+03 0.  0.
         23    2    1    2    0    0 -0.20848607625E+01  0.70317422265E+02  0.11272863680E+03  0.16041884357E+03  0.89875320861E+02 0.  0.
          5    1    3    3  502    0  0.81112488204E+01 -0.83458961630E+02  0.70301600568E+02  0.10950332450E+03  0.41800000000E+01 0.  1.
         -5    1    3    3    0  502 -0.60263880579E+01  0.13141539365E+02  0.16802710717E+03  0.16869972897E+03  0.41800000000E+01 0.  1.
        -11    1    4    4    0    0  0.41729381177E+02  0.44130837035E+02  0.77200361320E+02  0.98228141684E+02  0.00000000000E+00 0.  1.
         11    1    4    4    0    0 -0.43814241939E+02  0.26186585231E+02  0.35528275477E+02  0.62190701887E+02  0.00000000000E+00 0. -1.
</event>
<event>
 8    1  0.3708258E-009  0.6630140E+02  0.7561462E-02  0.1373142E+00
          2   -1    0    0  501    0  0.00000000000E+00  0.00000000000E+00  0.78839531441E+03  0.78839531441E+03  0.00000000000E+00 0. -1.
         -2   -1    0    0    0  501 -0.00000000000E+00 -0.00000000000E+00 -0.15388269314E+02  0.15388269314E+02  0.00000000000E+00 0.  1.
         25    2    1    2    0    0 -0.98257317698E+01 -0.22125260627E+02  0.48021560907E+03  0.49682660354E+03  0.12507426044E+03 0.  0.
         23    2    1    2    0    0  0.98257317698E+01  0.22125260627E+02  0.29279143603E+03  0.30695698019E+03  0.88936440860E+02 0.  0.
          5    1    3    3  502    0 -0.14458541396E+02 -0.31778636071E+02  0.48357465691E+03  0.48485137139E+03  0.41800000000E+01 0. -1.
         -5    1    3    3    0  502  0.46328096258E+01  0.96533754445E+01 -0.33590478449E+01  0.11975232145E+02  0.41800000000E+01 0. -1.
        -11    1    4    4    0    0 -0.33389289728E+02 -0.66259536377E+01  0.65536019246E+02  0.73849290780E+02  0.00000000000E+00 0.  1.
         11    1    4    4    0    0  0.43215021498E+02  0.28751214264E+02  0.22725541679E+03  0.23310768941E+03  0.00000000000E+00 0. -1.
</event>
<event>
 8    1  0.3708258E-009  0.1185122E+03  0.7561462E-02  0.1245572E+00
          2   -1    0    0  501    0  0.00000000000E+00  0.00000000000E+00  0.17084295744E+03  0.17084295744E+03  0.00000000000E+00 0. -1.
         -2   -1    0    0    0  501 -0.00000000000E+00 -0.00000000000E+00 -0.96405885407E+02  0.96405885407E+02  0.00000000000E+00 0.  1.
         25    2    1    2    0    0  0.59433333775E+02  0.29265131379E+02  0.26264473770E+02  0.14396439062E+03  0.12508858504E+03 0.  0.
         23    2    1    2    0    0 -0.59433333775E+02 -0.29265131379E+02  0.48172598262E+02  0.12328445223E+03  0.92139502164E+02 0.  0.
          5    1    3    3  502    0  0.59783188724E+01  0.61586507485E+02  0.47215825515E+02  0.77945139552E+02  0.41800000000E+01 0. -1.
         -5    1    3    3    0  502  0.53455014903E+02 -0.32321376106E+02 -0.20951351745E+02  0.66019251068E+02  0.41800000000E+01 0. -1.
        -11    1    4    4    0    0 -0.71833274470E+02  0.87967774160E+01  0.39026496648E+02  0.82222077659E+02  0.00000000000E+00 0.  1.
         11    1    4    4    0    0  0.12399940694E+02 -0.38061908795E+02  0.91461016141E+01  0.41062374567E+02  0.00000000000E+00 0. -1.
</event>
<event>
 8    1  0.3708258E-009  0.9691983E+02  0.7561462E-02  0.1286910E+00
         -2   -1    0    0    0  501 -0.00000000000E+00  0.00000000000E+00  0.81407764413E+02  0.81407764413E+02  0.00000000000E+00 0.  1.
          2   -1    0    0  501    0  0.00000000000E+00 -0.00000000000E+00 -0.21269851376E+03  0.21269851376E+03  0.00000000000E+00 0. -1.
         25    2    1    2    0    0 -0.48685585688E+02 -0.38513882846E+02 -0.11908766991E+03  0.18352398776E+03  0.12508227506E+03 0.  0.
         23    2    1    2    0    0  0.48685585688E+02  0.38513882846E+02 -0.12203079431E+02  0.11058229041E+03  0.90696870832E+02 0.  0.
          5    1    3    3  502    0 -0.32692937776E+02  0.25177388634E+02 -0.10941926980E+03  0.11701614454E+03  0.41800000000E+01 0.  1.
         -5    1    3    3    0  502 -0.15992647912E+02 -0.63691271479E+02 -0.96684001145E+01  0.66507843226E+02  0.41800000000E+01 0.  1.
        -11    1    4    4    0    0  0.49289611349E+02  0.12615128398E+01  0.27235773876E+02  0.56328008843E+02  0.00000000000E+00 0.  1.
         11    1    4    4    0    0 -0.60402566088E+00  0.37252370006E+02 -0.39438853307E+02  0.54254281566E+02  0.00000000000E+00 0. -1.
</event>
<event>
 8    1  0.3708258E-009  0.1445218E+03  0.7561462E-02  0.1207371E+00
         -1   -1    0    0    0  501 -0.00000000000E+00  0.00000000000E+00  0.15415450453E+02  0.15415450453E+02  0.00000000000E+00 0. -1.
          1   -1    0    0  501    0  0.00000000000E+00 -0.00000000000E+00 -0.14025100483E+04  0.14025100483E+04  0.00000000000E+00 0.  1.
         25    2    1    2    0    0 -0.91745575460E+02 -0.35186738829E+02 -0.77220338276E+03  0.78841536946E+03  0.12508146642E+03 0.  0.
         23    2    1    2    0    0  0.91745575460E+02  0.35186738829E+02 -0.61489121506E+03  0.62951012927E+03  0.92392853027E+02 0.  0.
          5    1    3    3  502    0 -0.12271551844E+03 -0.22318778354E+02 -0.63110701152E+03  0.64332787808E+03  0.41800000000E+01 0.  1.
         -5    1    3    3    0  502  0.30969942978E+02 -0.12867960475E+02 -0.14109637124E+03  0.14508749137E+03  0.41800000000E+01 0.  1.
        -11    1    4    4    0    0  0.10316968099E+03  0.11068702208E+02 -0.54301016959E+03  0.55283500569E+03  0.00000000000E+00 0.  1.
         11    1    4    4    0    0 -0.11424105527E+02  0.24118036621E+02 -0.71881045476E+02  0.76675123581E+02  0.00000000000E+00 0. -1.
</event>
<event>
 8    1  0.3708258E-009  0.1455343E+03  0.7561462E-02  0.1206070E+00
         -1   -1    0    0    0  501 -0.00000000000E+00  0.00000000000E+00  0.33563017868E+02  0.33563017868E+02  0.00000000000E+00 0.  1.
          1   -1    0    0  501    0  0.00000000000E+00 -0.00000000000E+00 -0.73495045178E+03  0.73495045178E+03  0.00000000000E+00 0. -1.
         25    2    1    2    0    0 -0.10515906660E+03  0.88802524614E+01 -0.47535233616E+03  0.50273758484E+03  0.12509175651E+03 0.  0.
         23    2    1    2    0    0  0.10515906660E+03 -0.88802524614E+01 -0.22603509775E+03  0.26577588480E+03  0.91693333223E+02 0.  0.
          5    1    3    3  502    0 -0.37701555381E+02  0.65176862647E+02 -0.20460749694E+03  0.21806221797E+03  0.41800000000E+01 0. -1.
         -5    1    3    3    0  502 -0.67457511217E+02 -0.56296610185E+02 -0.27074483922E+03  0.28467536687E+03  0.41800000000E+01 0. -1.
        -11    1    4    4    0    0  0.62165108139E+02 -0.40615606474E+02 -0.74897110218E+02  0.10546897780E+03  0.00000000000E+00 0. -1.
         11    1    4    4    0    0  0.42993958459E+02  0.31735354013E+02 -0.15113798753E+03  0.16030690700E+03  0.00000000000E+00 0.  1.
</event>
<event>
 8    1  0.3708258E-009  0.9041426E+02  0.7561462E-02  0.1301852E+00
         -2   -1    0    0    0  501 -0.00000000000E+00  0.00000000000E+00  0.34130904595E+02  0.34130904595E+02  0.00000000000E+00 0.  1.
          2   -1    0    0  501    0  0.00000000000E+00 -0.00000000000E+00 -0.76054033079E+03  0.76054033079E+03  0.00000000000E+00 0. -1.
         25    2    1    2    0    0 -0.12340859754E+02 -0.39357956615E+01 -0.67737069424E+03  0.68894570451E+03  0.12508932425E+03 0.  0.
         23    2    1    2    0    0  0.12340859754E+02  0.39357956615E+01 -0.49038731963E+02  0.10572553088E+03  0.92764774247E+02 0.  0.
          5    1    3    3  502    0  0.38578771426E+02  0.28714341556E+02 -0.13843905330E+03  0.14661404740E+03  0.41800000000E+01 0. -1.
         -5    1    3    3    0  502 -0.50919631180E+02 -0.32650137217E+02 -0.53893164094E+03  0.54233165711E+03  0.41800000000E+01 0. -1.
        -11    1    4    4    0    0 -0.29473249717E+02 -0.26538920748E+01 -0.55508326373E+02  0.62903814580E+02  0.00000000000E+00 0.  1.
         11    1    4    4    0    0  0.41814109471E+02  0.65896877362E+01  0.64695944094E+01  0.42821716303E+02  0.00000000000E+00 0. -1.
</event>
<event>
 8    1  0.3708258E-009  0.7869039E+02  0.7561462E-02  0.1332810E+00
         -1   -1    0    0    0  501 -0.00000000000E+00  0.00000000000E+00  0.72364197730E+02  0.72364197730E+02  0.00000000000E+00 0.  1.
          1   -1    0    0  501    0  0.00000000000E+00 -0.00000000000E+00 -0.20095384446E+03  0.20095384446E+03  0.00000000000E+00 0. -1.
         25    2    1    2    0    0  0.77304090834E+01  0.26674356142E+02 -0.22136705248E+02  0.13002478048E+03  0.12508049137E+03 0.  0.
         23    2    1    2    0    0 -0.77304090834E+01 -0.26674356142E+02 -0.10645294148E+03  0.14329326171E+03  0.91812034072E+02 0.  0.
          5    1    3    3  502    0 -0.34155011862E+02  0.15603410584E+02  0.39440927429E+02  0.54617674919E+02  0.41800000000E+01 0. -1.
         -5    1    3    3    0  502  0.41885420946E+02  0.11070945558E+02 -0.61577632677E+02  0.75407105563E+02  0.41800000000E+01 0. -1.
        -11    1    4    4    0    0  0.31131462584E+02 -0.48626542647E+01 -0.90715136933E+02  0.96031502321E+02  0.00000000000E+00 0. -1.
         11    1    4    4    0    0 -0.38861871668E+02 -0.21811701877E+02 -0.15737804548E+02  0.47261759386E+02  0.00000000000E+00 0.  1.
</event>
<event>
 8    1  0.3708258E-009  0.1150766E+03  0.7561462E-02  0.1251447E+00
          1   -1    0    0  501    0  0.00000000000E+00  0.00000000000E+00  0.12474291960E+03  0.12474291960E+03  0.00000000000E+00 0. -1.
         -1   -1    0    0    0  501 -0.00000000000E+00 -0.00000000000E+00 -0.26247143871E+03  0.26247143871E+03  0.00000000000E+00 0.  1.
         25    2    1    2    0    0 -0.84709983888E+02 -0.57467575082E+02  0.36039071265E+02  0.16560229171E+03  0.12508797227E+03 0.  0.
         23    2    1    2    0    0  0.84709983888E+02  0.57467575082E+02 -0.17376759037E+03  0.22161206660E+03  0.91860922274E+02 0.  0.
          5    1    3    3  502    0 -0.67986127225E+02 -0.60788614676E+02 -0.30912925356E+02  0.96386983164E+02  0.41800000000E+01 0.  1.
         -5    1    3    3    0  502 -0.16723856662E+02  0.33210395944E+01  0.66951996621E+02  0.69215308547E+02  0.41800000000E+01 0.  1.
        -11    1    4    4    0    0  0.52247073713E+02 -0.33594834040E+01 -0.25794466315E+02  0.58364349844E+02  0.00000000000E+00 0. -1.
         11    1    4    4    0    0  0.32462910175E+02  0.60827058486E+02 -0.14797312406E+03  0.16324771675E+03  0.00000000000E+00 0.  1.
</event>
<event>
 8    1  0.3708258E-009  0.1079589E+03  0.7561462E-02  0.1264397E+00
          2   -1    0    0  501    0  0.00000000000E+00  0.00000000000E+00  0.71885028854E+03  0.71885028854E+03  0.00000000000E+00 0. -1.
         -2   -1    0    0    0  501 -0.00000000000E+00 -0.00000000000E+00 -0.27716277319E+02  0.27716277319E+02  0.00000000000E+00 0.  1.
         25    2    1    2    0    0 -0.10293659649E+02  0.90124532759E+02  0.36865438269E+03  0.39972752645E+03  0.12509056995E+03 0.  0.
         23    2    1    2    0    0  0.10293659649E+02 -0.90124532759E+02  0.32247962853E+03  0.34683903941E+03  0.89865552955E+02 0.  0.
          5    1    3    3  502    0  0.16640601855E+02  0.91716885751E+02  0.35874629301E+03  0.37068217102E+03  0.41800000000E+01 0.  1.
         -5    1    3    3    0  502 -0.26934261504E+02 -0.15923529927E+01  0.99080896746E+01  0.29045355426E+02  0.41800000000E+01 0.  1.
        -11    1    4    4    0    0  0.19511824628E+02 -0.42049155535E+02  0.43407761449E+02  0.63506507820E+02  0.00000000000E+00 0.  1.
         11    1    4    4    0    0 -0.92181649797E+01 -0.48075377224E+02  0.27907186708E+03  0.28333253159E+03  0.00000000000E+00 0. -1.
</event>
<event>
 8    1  0.3708258E-009  0.1455689E+03  0.7561462E-02  0.1206026E+00
         -1   -1    0    0    0  501 -0.00000000000E+00  0.00000000000E+00  0.68560847717E+03  0.68560847717E+03  0.00000000000E+00 0.  1.
          1   -1    0    0  501    0  0.00000000000E+00 -0.00000000000E+00 -0.43898487912E+02  0.43898487912E+02  0.00000000000E+00 0. -1.
         25    2    1    2    0    0  0.38524783551E+01  0.11637918739E+03  0.19369318827E+03  0.25830892127E+03  0.12508993076E+03 0.  0.
         23    2    1    2    0    0 -0.38524783551E+01 -0.11637918739E+03  0.44801680098E+03  0.47119804381E+03  0.88031731102E+02 0.  0.
          5    1    3    3  502    0 -0.43669952865E+02  0.52189962623E+02  0.26826151179E+02  0.73266443676E+02  0.41800000000E+01 0. -1.
         -5    1    3    3    0  502  0.47522431220E+02  0.64189224769E+02  0.16686703709E+03  0.18504247759E+03  0.41800000000E+01 0. -1.
        -11    1    4    4    0    0 -0.14234823025E+02 -0.12719609966E+03  0.42389604785E+03  0.44279717405E+03  0.00000000000E+00 0. -1.
         11    1    4    4    0    0  0.10382344670E+02  0.10816912272E+02  0.24120753129E+02  0.28400869766E+02  0.00000000000E+00 0.  1.
</event>
<event>
 8    1  0.3708258E-009  0.1354964E+03  0.7561462E-02  0.1219521E+00
         -2   -1    0    0    0  501 -0.00000000000E+00  0.00000000000E+00  0.20254778059E+03  0.20254778059E+03  0.00000000000E+00 0.  1.
          2   -1    0    0  501    0  0.00000000000E+00 -0.00000000000E+00 -0.13405872012E+03  0.13405872012E+03  0.00000000000E+00 0. -1.
         25    2    1    2    0    0 -0.16692681269E+02 -0.12126950317E+03  0.22394128708E+02  0.17644798993E+03  0.12508980031E+03 0.  0.
         23    2    1    2    0    0  0.16692681269E+02  0.12126950317E+03  0.46094931765E+02  0.16015851078E+03  0.92417897800E+02 0.  0.
          5    1    3    3  502    0  0.10897175582E+02 -0.10589096303E+03 -0.33871596674E+02  0.11178730674E+03  0.41800000000E+01 0.  1.
         -5    1    3    3    0  502 -0.27589856851E+02 -0.15378540141E+02  0.56265725381E+02  0.64660683190E+02  0.41800000000E+01 0.  1.
        -11    1    4    4    0    0  0.33706330004E+02  0.98954722425E+02  0.67872181627E+02  0.12463862488E+03  0.00000000000E+00 0.  1.
         11    1    4    4    0    0 -0.17013648735E+02  0.22314780741E+02 -0.21777249861E+02  0.35519885900E+02  0.00000000000E+00 0. -1.
</event>
<event>
 8    1  0.3708258E-009  0.1225607E+03  0.7561462E-02  0.1238931E+00
          3   -1    0    0  501    0  0.00000000000E+00  0.00000000000E+00  0.14189304008E+04  0.14189304008E+04  0.00000000000E+00 0. -1.
         -3   -1    0    0    0  501 -0.00000000000E+00 -0.00000000000E+00 -0.12407998681E+02  0.12407998681E+02  0.00000000000E+00 0.  1.
         25    2    1    2    0    0  0.67917148772E+02  0.99248401920E+01  0.96465226935E+03  0.97514713425E+03  0.12508673442E+03 0.  0.
         23    2    1    2    0    0 -0.67917148772E+02 -0.99248401920E+01  0.44187013277E+03  0.45619126523E+03  0.90277431771E+02 0.  0.
          5    1    3    3  502    0 -0.75566292988E+01  0.51841102986E+02  0.47781914604E+03  0.48070075029E+03  0.41800000000E+01 0.  1.
         -5    1    3    3    0  502  0.75473778071E+02 -0.41916262794E+02  0.48683312331E+03  0.49444638397E+03  0.41800000000E+01 0.  1.
        -11    1    4    4    0    0 -0.22854334490E+02 -0.44037142032E+02  0.28857853171E+03  0.29281249879E+03  0.00000000000E+00 0. -1.
         11    1    4    4    0    0 -0.45062814282E+02  0.34112301840E+02  0.15329160106E+03  0.16337876644E+03  0.00000000000E+00 0.  1.
</event>
<event>
 8    1  0.3708258E-009  0.9219424E+02  0.7561462E-02  0.1297623E+00
         -2   -1    0    0    0  501 -0.00000000000E+00  0.00000000000E+00  0.33803879429E+03  0.33803879429E+03  0.00000000000E+00 0.  1.
          2   -1    0    0  501    0  0.00000000000E+00 -0.00000000000E+00 -0.11934045053E+03  0.11934045053E+03  0.00000000000E+00 0. -1.
         25    2    1    2    0    0  0.32907337631E+02 -0.34445417821E+02  0.29797105005E+03  0.32665249016E+03  0.12508286447E+03 0.  0.
         23    2    1    2    0    0 -0.32907337631E+02  0.34445417821E+02 -0.79272706285E+02  0.13072675465E+03  0.92390165829E+02 0.  0.
          5    1    3    3  502    0  0.58078348747E+02 -0.51667227271E+02  0.28082633792E+03  0.29141637126E+03  0.41800000000E+01 0.  1.
         -5    1    3    3    0  502 -0.25171011116E+02  0.17221809450E+02  0.17144712124E+02  0.35236118900E+02  0.41800000000E+01 0.  1.
        -11    1    4    4    0    0  0.75604310037E+01  0.34471092088E+02  0.65026088030E+01  0.35884540236E+02  0.00000000000E+00 0.  1.
         11    1    4    4    0    0 -0.40467768634E+02 -0.25674266934E-01 -0.85775315088E+02  0.94842214418E+02  0.00000000000E+00 0. -1.
</event>
<event>
 8    1  0.3708258E-009  0.8201011E+02  0.7561462E-02  0.1323442E+00
          4   -1    0    0  501    0  0.00000000000E+00  0.00000000000E+00  0.20362798398E+03  0.20362798398E+03  0.00000000000E+00 0.  1.
         -4   -1    0    0    0  501 -0.00000000000E+00 -0.00000000000E+00 -0.66252157588E+02  0.66252157588E+02  0.00000000000E+00 0. -1.
         25    2    1    2    0    0 -0.38513238868E+02 -0.85356216038E+01  0.69098267777E+02  0.14825021618E+03  0.12508968616E+03 0.  0.
         23    2    1    2    0    0  0.38513238868E+02  0.85356216038E+01  0.68277558618E+02  0.12162992539E+03  0.92606086923E+02 0.  0.
          5    1    3    3  502    0 -0.63354087203E+02 -0.10888664466E+02  0.93207726952E+02  0.11330249840E+03  0.41800000000E+01 0. -1.
         -5    1    3    3    0  502  0.24840848335E+02  0.23530428625E+01 -0.24109459175E+02  0.34947717785E+02  0.41800000000E+01 0. -1.
        -11    1    4    4    0    0 -0.17549822750E+02  0.43604753168E+01  0.62560545364E+02  0.65121669664E+02  0.00000000000E+00 0.  1.
         11    1    4    4    0    0  0.56063061619E+02  0.41751462870E+01  0.57170132534E+01  0.56508255725E+02  0.00000000000E+00 0. -1.
</event>
<event>
 8    1  0.3708258E-009  0.1001128E+03  0.7561462E-02  0.1280059E+00
          2   -1    0    0  501    0  0.00000000000E+00  0.00000000000E+00  0.35552372545E+02  0.35552372545E+02  0.00000000000E+00 0. -1.
         -2   -1    0    0    0  501 -0.00000000000E+00 -0.00000000000E+00 -0.43740839969E+03  0.43740839969E+03  0.00000000000E+00 0.  1.
         25    2    1    2    0    0 -0.53882340705E+02  0.16019006748E+02 -0.27066086149E+03  0.30341961123E+03  0.12508494441E+03 0.  0.
         23    2    1    2    0    0  0.53882340705E+02 -0.16019006748E+02 -0.13119516566E+03  0.16954116101E+03  0.91499281790E+02 0.  0.
          5    1    3    3  502    0  0.13719428166E+02  0.48899783773E+02 -0.54929538369E+02  0.74927552660E+02  0.41800000000E+01 0. -1.
         -5    1    3    3    0  502 -0.67601768871E+02 -0.32880777025E+02 -0.21573132312E+03  0.22849205857E+03  0.41800000000E+01 0. -1.
        -11    1    4    4    0    0  0.47306045700E+02  0.89585885811E+01 -0.13509627985E+03  0.14341939582E+03  0.00000000000E+00 0.  1.
         11    1    4    4    0    0  0.65762950050E+01 -0.24977595329E+02  0.39011141953E+01  0.26121765185E+02  0.00000000000E+00 0. -1.
</event>
<event>
 8    1  0.3708258E-009  0.1341304E+03  0.7561462E-02  0.1221452E+00
         -1   -1    0    0    0  501 -0.00000000000E+00  0.00000000000E+00  0.35254655870E+03  0.35254655870E+03  0.00000000000E+00 0.  1.
          1   -1    0    0  501    0  0.00000000000E+00 -0.00000000000E+00 -0.69002291572E+02  0.69002291572E+02  0.00000000000E+00 0. -1.
         25    2    1    2    0    0 -0.78303359527E+02 -0.78561500337E+02  0.15336362566E+03  0.22687565724E+03  0.12509531057E+03 0.  0.
         23    2    1    2    0    0  0.78303359527E+02  0.78561500337E+02  0.13018064147E+03  0.19467319303E+03  0.92991006134E+02 0.  0.
          5    1    3    3  502    0 -0.89289999904E+02 -0.12531805440E+02  0.12470012070E+03  0.15393941254E+03  0.41800000000E+01 0. -1.
         -5    1    3    3    0  502  0.10986640376E+02 -0.66029694897E+02  0.28663504959E+02  0.72936244704E+02  0.41800000000E+01 0. -1.
        -11    1    4    4    0    0  0.34949266900E+02  0.36150953558E+02 -0.84737709053E+00  0.50289767825E+02  0.00000000000E+00 0. -1.
         11    1    4    4    0    0  0.43354092628E+02  0.42410546779E+02  0.13102801856E+03  0.14438342520E+03  0.00000000000E+00 0.  1.
</event>
<event>
 8    1  0.3708258E-009  0.9151988E+02  0.7561462E-02  0.1299212E+00
          2   -1    0    0  501    0  0.00000000000E+00  0.00000000000E+00  0.55412591121E+02  0.55412591121E+02  0.00000000000E+00 0.  1.
         -2   -1    0    0    0  501 -0.00000000000E+00 -0.00000000000E+00 -0.40837314547E+03  0.40837314547E+03  0.00000000000E+00 0. -1.
         25    2    1    2    0    0 -0.44242652070E+02 -0.48038204081E+02 -0.30790334747E+03  0.33869906317E+03  0.12508997840E+03 0.  0.
         23    2    1    2    0    0  0.44242652070E+02  0.48038204081E+02 -0.45057206883E+02  0.12508667342E+03  0.96702857573E+02 0.  0.
          5    1    3    3  502    0 -0.26886912843E+02 -0.21414745298E+02 -0.30450201260E+03  0.30646442775E+03  0.41800000000E+01 0.  1.
         -5    1    3    3    0  502 -0.17355739227E+02 -0.26623458783E+02 -0.34013348680E+01  0.32234635419E+02  0.41800000000E+01 0.  1.
        -11    1    4    4    0    0 -0.18673570572E+02  0.50040160782E+02 -0.16001280708E+02  0.55756263444E+02  0.00000000000E+00 0.  1.
         11    1    4    4    0    0  0.62916222642E+02 -0.20019567004E+01 -0.29055926176E+02  0.69330409981E+02  0.00000000000E+00 0. -1.
</event>
<event>
 8    1  0.3708258E-009  0.1078211E+03  0.7561462E-02  0.1264659E+00
          2   -1    0    0  501    0  0.00000000000E+00  0.00000000000E+00  0.28733518888E+03  0.28733518888E+03  0.00000000000E+00 0.  1.
         -2   -1    0    0    0  501 -0.00000000000E+00 -0.00000000000E+00 -0.60464727296E+02  0.60464727296E+02  0.00000000000E+00 0. -1.
         25    2    1    2    0    0 -0.81386881853E+01 -0.64049797271E+02  0.17578362812E+03  0.22520172174E+03  0.12508923528E+03 0.  0.
         23    2    1    2    0    0  0.81386881853E+01  0.64049797271E+02  0.51086833466E+02  0.12259819444E+03  0.90839627643E+02 0.  0.
          5    1    3    3  502    0 -0.44931093860E+02 -0.14357886575E+02  0.10253740948E+02  0.48451663602E+02  0.41800000000E+01 0.  1.
         -5    1    3    3    0  502  0.36792405675E+02 -0.49691910696E+02  0.16552988717E+03  0.17675005813E+03  0.41800000000E+01 0.  1.
        -11    1    4    4    0    0  0.19085388472E+02  0.82600581290E+02  0.24231414048E+02  0.88171818113E+02  0.00000000000E+00 0. -1.
         11    1    4    4    0    0 -0.10946700286E+02 -0.18550784019E+02  0.26855419417E+02  0.34426376326E+02  0.00000000000E+00 0.  1.
</event>
<event>
 8    1  0.3708258E-009  0.1041182E+03  0.7561462E-02  0.1271867E+00
         -2   -1    0    0    0  501 -0.00000000000E+00  0.00000000000E+00  0.47369324844E+03  0.47369324844E+03  0.00000000000E+00 0.  1.
          2   -1    0    0  501    0  0.00000000000E+00 -0.00000000000E+00 -0.28170241017E+02  0.28170241017E+02  0.00000000000E+00 0. -1.
         25    2    1    2    0    0  0.26840012674E+02 -0.12091841765E+02  0.31407733754E+03  0.33935030302E+03  0.12508978890E+03 0.  0.
         23    2    1    2    0    0 -0.26840012674E+02  0.12091841765E+02  0.13144566989E+03  0.16251318644E+03  0.90917395016E+02 0.  0.
          5    1    3    3  502    0  0.37869049253E+02 -0.58368509902E+02  0.24937124350E+03  0.25892940606E+03  0.41800000000E+01 0.  1.
         -5    1    3    3    0  502 -0.11029036579E+02  0.46276668137E+02  0.64706094040E+02  0.80420896958E+02  0.41800000000E+01 0.  1.
        -11    1    4    4    0    0 -0.44139926463E+02  0.38924935553E+02  0.10767778011E+03  0.12271099399E+03  0.00000000000E+00 0.  1.
         11    1    4    4    0    0  0.17299913789E+02 -0.26833093788E+02  0.23767889773E+02  0.39802192447E+02  0.00000000000E+00 0. -1.
</event>
<event>
 8    1  0.3708258E-009  0.2308539E+03  0.7561462E-02  0.1126040E+00
          2   -1    0    0  501    0  0.00000000000E+00  0.00000000000E+00  0.13692866126E+04  0.13692866126E+04  0.00000000000E+00 0. -1.
         -2   -1    0    0    0  501 -0.00000000000E+00 -0.00000000000E+00 -0.41216429673E+02  0.41216429673E+02  0.00000000000E+00 0.  1.
         25    2    1    2    0    0 -0.99771975360E+02 -0.18546791432E+03  0.63496037421E+03  0.68056943908E+03  0.12508912938E+03 0.  0.
         23    2    1    2    0    0  0.99771975360E+02  0.18546791432E+03  0.69310980876E+03  0.72993360323E+03  0.89716574930E+02 0.  0.
          5    1    3    3  502    0 -0.14232249659E+02  0.14209926559E+02  0.11852126774E+03  0.12028816338E+03  0.41800000000E+01 0.  1.
         -5    1    3    3    0  502 -0.85539725701E+02 -0.19967784088E+03  0.51643910647E+03  0.56028127570E+03  0.41800000000E+01 0.  1.
        -11    1    4    4    0    0  0.72635862402E+02  0.56273868383E+02  0.21232008865E+03  0.23134938257E+03  0.00000000000E+00 0.  1.
         11    1    4    4    0    0  0.27136112957E+02  0.12919404594E+03  0.48078972011E+03  0.49858422066E+03  0.00000000000E+00 0. -1.
</event>
<event>
 8    1  0.3708258E-009  0.1096911E+03  0.7561462E-02  0.1261143E+00
         -2   -1    0    0    0  501 -0.00000000000E+00  0.00000000000E+00  0.96884398497E+03  0.96884398497E+03  0.00000000000E+00 0.  1.
          2   -1    0    0  501    0  0.00000000000E+00 -0.00000000000E+00 -0.18514015864E+02  0.18514015864E+02  0.00000000000E+00 0. -1.
         25    2    1    2    0    0  0.39488309066E+01 -0.76394655103E+02  0.58639974451E+03  0.60445255777E+03  0.12508596096E+03 0.  0.
         23    2    1    2    0    0 -0.39488309066E+01  0.76394655103E+02  0.36393022459E+03  0.38290544307E+03  0.91212024246E+02 0.  0.
          5    1    3    3  502    0 -0.26228458968E+02 -0.68456551671E+02  0.55552626067E+03  0.56035803753E+03  0.41800000000E+01 0. -1.
         -5    1    3    3    0  502  0.30177289875E+02 -0.79381034321E+01  0.30873483839E+02  0.44094520234E+02  0.41800000000E+01 0. -1.
        -11    1    4    4    0    0 -0.36902137778E+02  0.72419082336E+02  0.20457327003E+03  0.22012840360E+03  0.00000000000E+00 0. -1.
         11    1    4    4    0    0  0.32953306871E+02  0.39755727664E+01  0.15935695456E+03  0.16277703947E+03  0.00000000000E+00 0.  1.
</event>
<event>
 8    1  0.3708258E-009  0.1552602E+03  0.7561462E-02  0.1194154E+00
         -1   -1    0    0    0  501 -0.00000000000E+00  0.00000000000E+00  0.61471798549E+02  0.61471798549E+02  0.00000000000E+00 0.  1.
          1   -1    0    0  501    0  0.00000000000E+00 -0.00000000000E+00 -0.63636219124E+03  0.63636219124E+03  0.00000000000E+00 0. -1.
         25    2    1    2    0    0 -0.46184489572E+02 -0.13463599065E+03 -0.44757859812E+03  0.48603911959E+03  0.12509023628E+03 0.  0.
         23    2    1    2    0    0  0.46184489572E+02  0.13463599065E+03 -0.12731179457E+03  0.21179487020E+03  0.91591030956E+02 0.  0.
          5    1    3    3  502    0 -0.49091399564E+02 -0.50110672238E+02 -0.70400016764E+02  0.99472004824E+02  0.41800000000E+01 0. -1.
         -5    1    3    3    0  502  0.29069099925E+01 -0.84525318416E+02 -0.37717858136E+03  0.38656711476E+03  0.41800000000E+01 0. -1.
        -11    1    4    4    0    0  0.13235045782E+02  0.11784554922E+03 -0.55308719893E+02  0.13085027475E+03  0.00000000000E+00 0.  1.
         11    1    4    4    0    0  0.32949443789E+02  0.16790441438E+02 -0.72003074675E+02  0.80944595449E+02  0.00000000000E+00 0. -1.
</event>
<event>
 8    1  0.3708258E-009  0.1052763E+03  0.7561462E-02  0.1269576E+00
          2   -1    0    0  501    0  0.00000000000E+00  0.00000000000E+00  0.55458001348E+02  0.55458001348E+02  0.00000000000E+00 0. -1.
         -2   -1    0    0    0  501 -0.00000000000E+00 -0.00000000000E+00 -0.24065558131E+03  0.24065558131E+03  0.00000000000E+00 0.  1.
         25    2    1    2    0    0  0.33339167430E+02  0.96733253182E+01 -0.12996147196E+03  0.18369269260E+03  0.12509175757E+03 0.  0.
         23    2    1    2    0    0 -0.33339167430E+02 -0.96733253182E+01 -0.55236107998E+02  0.11242089006E+03  0.91555205136E+02 0.  0.
          5    1    3    3  502    0  0.57387267902E+02  0.47719466975E+02 -0.11284353476E+03  0.13535723765E+03  0.41800000000E+01 0. -1.
         -5    1    3    3    0  502 -0.24048100471E+02 -0.38046141657E+02 -0.17117937200E+02  0.48335454950E+02  0.41800000000E+01 0. -1.
        -11    1    4    4    0    0 -0.11994693655E+02 -0.46505545978E+02 -0.50331458898E+02  0.69569348405E+02  0.00000000000E+00 0.  1.
         11    1    4    4    0    0 -0.21344473775E+02  0.36832220660E+02 -0.49046491000E+01  0.42851541656E+02  0.00000000000E+00 0. -1.
</event>
<event>
 8    1  0.3708258E-009  0.1327810E+03  0.7561462E-02  0.1223387E+00
          2   -1    0    0  501    0  0.00000000000E+00  0.00000000000E+00  0.58829342594E+03  0.58829342594E+03  0.00000000000E+00 0. -1.
         -2   -1    0    0    0  501 -0.00000000000E+00 -0.00000000000E+00 -0.48323172672E+02  0.48323172672E+02  0.00000000000E+00 0.  1.
         25    2    1    2    0    0 -0.66037730863E+02  0.10215136313E+03  0.36718718367E+03  0.40653576031E+03  0.12509601779E+03 0.  0.
         23    2    1    2    0    0  0.66037730863E+02 -0.10215136313E+03  0.17278306960E+03  0.23008083831E+03  0.91034719367E+02 0.  0.
          5    1    3    3  502    0 -0.20455341701E+02  0.20567223635E+02  0.27020169907E+03  0.27178642768E+03  0.41800000000E+01 0.  1.
         -5    1    3    3    0  502 -0.45582389162E+02  0.81584139495E+02  0.96985484606E+02  0.13474933263E+03  0.41800000000E+01 0.  1.
        -11    1    4    4    0    0  0.46709646168E+02 -0.11175562233E+03  0.16937863214E+03  0.20823119650E+03  0.00000000000E+00 0.  1.
         11    1    4    4    0    0  0.19328084695E+02  0.96042592040E+01  0.34044374549E+01  0.21849641810E+02  0.00000000000E+00 0. -1.
</event>
<event>
 8    1  0.3708258E-009  0.8058129E+02  0.7561462E-02  0.1327410E+00
          3   -1    0    0  501    0  0.00000000000E+00  0.00000000000E+00  0.10620408888E+03  0.10620408888E+03  0.00000000000E+00 0.  1.
         -3   -1    0    0    0  501 -0.00000000000E+00 -0.00000000000E+00 -0.12949491296E+03  0.12949491296E+03  0.00000000000E+00 0. -1.
         25    2    1    2    0    0  0.37194719488E+01 -0.42385134365E+02 -0.31978792889E+01  0.13216820029E+03  0.12509145714E+03 0.  0.
         23    2    1    2    0    0 -0.37194719488E+01  0.42385134365E+02 -0.20092944784E+02  0.10353080155E+03  0.92220205777E+02 0.  0.
          5    1    3    3  502    0 -0.49104570803E+02 -0.32401873774E+02 -0.35956433984E+02  0.69075884668E+02  0.41800000000E+01 0.  1.
         -5    1    3    3    0  502  0.52824042752E+02 -0.99832605909E+01  0.32758554695E+02  0.63092315621E+02  0.41800000000E+01 0.  1.
        -11    1    4    4    0    0 -0.13033572433E+02  0.18549900869E+02 -0.55437919213E+02  0.59894371349E+02  0.00000000000E+00 0. -1.
         11    1    4    4    0    0  0.93141004844E+01  0.23835233496E+02  0.35344974429E+02  0.43636430205E+02  0.00000000000E+00 0.  1.
</event>
<event>
 8    1  0.3708258E-009  0.9928073E+02  0.7561462E-02  0.1281816E+00
         -4   -1    0    0    0  501 -0.00000000000E+00  0.00000000000E+00  0.59067529451E+02  0.59067529451E+02  0.00000000000E+00 0.  1.
          4   -1    0    0  501    0  0.00000000000E+00 -0.00000000000E+00 -0.25459029360E+03  0.25459029360E+03  0.00000000000E+00 0. -1.
         25    2    1    2    0    0  0.52176102514E+02 -0.20550649521E+02 -0.13043804366E+03  0.18922632284E+03  0.12509133923E+03 0.  0.
         23    2    1    2    0    0 -0.52176102514E+02  0.20550649521E+02 -0.65084720490E+02  0.12443150022E+03  0.90013901901E+02 0.  0.
          5    1    3    3  502    0 -0.32811311614E+02  0.23278037365E+02 -0.49141882781E+02  0.63646258623E+02  0.41800000000E+01 0.  1.
         -5    1    3    3    0  502  0.84987414128E+02 -0.43828686887E+02 -0.81296160878E+02  0.12558006421E+03  0.41800000000E+01 0.  1.
        -11    1    4    4    0    0 -0.13050748868E+02  0.19245495995E+02 -0.79410847679E+02  0.82745355708E+02  0.00000000000E+00 0. -1.
         11    1    4    4    0    0 -0.39125353646E+02  0.13051535260E+01  0.14326127189E+02  0.41686144507E+02  0.00000000000E+00 0.  1.
</event>
<event>
 8    1  0.3708258E-009  0.1178884E+03  0.7561462E-02  0.1246622E+00
          2   -1    0    0  501    0  0.00000000000E+00  0.00000000000E+00  0.87979300648E+03  0.87979300648E+03  0.00000000000E+00 0. -1.
         -2   -1    0    0    0  501 -0.00000000000E+00 -0.00000000000E+00 -0.19053592255E+02  0.19053592255E+02  0.00000000000E+00 0.  1.
         25    2    1    2    0    0  0.43649227876E+02 -0.38072175501E+02  0.32982302128E+03  0.35747119011E+03  0.12509069011E+03 0.  0.
         23    2    1    2    0    0 -0.43649227876E+02  0.38072175501E+02  0.53091639294E+03  0.54137540862E+03  0.88658734060E+02 0.  0.
          5    1    3    3  502    0  0.40368039841E+02  0.36835690573E+02  0.82887348717E+02  0.99369168850E+02  0.41800000000E+01 0.  1.
         -5    1    3    3    0  502  0.32811880350E+01 -0.74907866074E+02  0.24693567257E+03  0.25810202126E+03  0.41800000000E+01 0.  1.
        -11    1    4    4    0    0 -0.60355909754E+02  0.55310975926E+02  0.41574398571E+03  0.42372774462E+03  0.00000000000E+00 0.  1.
         11    1    4    4    0    0  0.16706681878E+02 -0.17238800425E+02  0.11517240723E+03  0.11764766400E+03  0.00000000000E+00 0. -1.
</event>
<event>
 8    1  0.3708258E-009  0.1566129E+03  0.7561462E-02  0.1192575E+00
          2   -1    0    0  501    0  0.00000000000E+00  0.00000000000E+00  0.89278079621E+03  0.89278079621E+03  0.00000000000E+00 0. -1.
         -2   -1    0    0    0  501 -0.00000000000E+00 -0.00000000000E+00 -0.34701186339E+02  0.34701186339E+02  0.00000000000E+00 0.  1.
         25    2    1    2    0    0  0.52101554908E+02  0.12057397515E+03  0.56738903419E+03  0.59567649386E+03  0.12509002244E+03 0.  0.
         23    2    1    2    0    0 -0.52101554908E+02 -0.12057397515E+03  0.29069057568E+03  0.33180548869E+03  0.91330257994E+02 0.  0.
          5    1    3    3  502    0  0.67323832428E+01 -0.18169518075E+02  0.18979495650E+03  0.19082728915E+03  0.41800000000E+01 0. -1.
         -5    1    3    3    0  502  0.45369171666E+02  0.13874349322E+03  0.37759407769E+03  0.40484920471E+03  0.41800000000E+01 0. -1.
        -11    1    4    4    0    0 -0.66146302747E+02 -0.76595497636E+02  0.13078612412E+03  0.16536993042E+03  0.00000000000E+00 0.  1.
         11    1    4    4    0    0  0.14044747838E+02 -0.43978477514E+02  0.15990445156E+03  0.16643555826E+03  0.00000000000E+00 0. -1.
</event>
<event>
 8    1  0.3708258E-009  0.9123210E+02  0.7561462E-02  0.1299895E+00
         -1   -1    0    0    0  501 -0.00000000000E+00  0.00000000000E+00  0.18705468590E+03  0.18705468590E+03  0.00000000000E+00 0.  1.
          1   -1    0    0  501    0  0.00000000000E+00 -0.00000000000E+00 -0.11564012069E+03  0.11564012069E+03  0.00000000000E+00 0. -1.
         25    2    1    2    0    0  0.51569451587E+02 -0.16481206709E+02  0.12433306628E+03  0.18449113276E+03  0.12508888114E+03 0.  0.
         23    2    1    2    0    0 -0.51569451587E+02  0.16481206709E+02 -0.52918501065E+02  0.11820367384E+03  0.90778313719E+02 0.  0.
          5    1    3    3  502    0  0.30974111223E+02  0.29683968805E+02 -0.70310326173E+01  0.43674264616E+02  0.41800000000E+01 0. -1.
         -5    1    3    3    0  502  0.20595340365E+02 -0.46165175514E+02  0.13136409890E+03  0.14081686814E+03  0.41800000000E+01 0. -1.
        -11    1    4    4    0    0 -0.36545539529E+02  0.44051988092E+02 -0.66417673393E+00  0.57241551735E+02  0.00000000000E+00 0.  1.
         11    1    4    4    0    0 -0.15023912058E+02 -0.27570781383E+02 -0.52254324332E+02  0.60962122100E+02  0.00000000000E+00 0. -1.
</event>
<event>
 8    1  0.3708258E-009  0.6669152E+02  0.7561462E-02  0.1371719E+00
          1   -1    0    0  501    0  0.00000000000E+00  0.00000000000E+00  0.18501821051E+03  0.18501821051E+03  0.00000000000E+00 0. -1.
         -1   -1    0    0    0  501 -0.00000000000E+00 -0.00000000000E+00 -0.91288386633E+02  0.91288386633E+02  0.00000000000E+00 0.  1.
         25    2    1    2    0    0  0.54275299663E+02  0.64671896034E+00  0.99380811857E+02  0.16873329424E+03  0.12509257541E+03 0.  0.
         23    2    1    2    0    0 -0.54275299663E+02 -0.64671896034E+00 -0.56509879764E+01  0.10757330290E+03  0.92703049752E+02 0.  0.
          5    1    3    3  502    0  0.12182335746E+02  0.24003492113E+02 -0.23951657766E+02  0.36273009906E+02  0.41800000000E+01 0. -1.
         -5    1    3    3    0  502  0.42092963917E+02 -0.23356773153E+02  0.12333246962E+03  0.13246028434E+03  0.41800000000E+01 0. -1.
        -11    1    4    4    0    0 -0.16569834569E+02 -0.94882852162E+01  0.42019187169E+02  0.46154079607E+02  0.00000000000E+00 0. -1.
         11    1    4    4    0    0 -0.37705465095E+02  0.88415662559E+01 -0.47670175146E+02  0.61419223296E+02  0.00000000000E+00 0.  1.
</event>
<event>
 8    1  0.3708258E-009  0.2007894E+03  0.7561462E-02  0.1149075E+00
         -2   -1    0    0    0  501 -0.00000000000E+00  0.00000000000E+00  0.40570331979E+02  0.40570331979E+02  0.00000000000E+00 0.  1.
          2   -1    0    0  501    0  0.00000000000E+00 -0.00000000000E+00 -0.13442972198E+04  0.13442972198E+04  0.00000000000E+00 0. -1.
         25    2    1    2    0    0  0.25563197657E+02 -0.18239464159E+03 -0.97080897245E+03  0.99601107006E+03  0.12508680321E+03 0.  0.
         23    2    1    2    0    0 -0.25563197657E+02  0.18239464159E+03 -0.33291791534E+03  0.38885648169E+03  0.80335189315E+02 0.  0.
          5    1    3    3  502    0  0.24151646453E+02 -0.72231664890E+01 -0.31809268215E+02  0.40801692426E+02  0.41800000000E+01 0.  1.
         -5    1    3    3    0  502  0.14115512039E+01 -0.17517147510E+03 -0.93899970423E+03  0.95520937763E+03  0.41800000000E+01 0.  1.
        -11    1    4    4    0    0 -0.51753199323E+02  0.81362479664E+02 -0.16704055255E+03  0.19287507079E+03  0.00000000000E+00 0. -1.
         11    1    4    4    0    0  0.26190001666E+02  0.10103216192E+03 -0.16587736279E+03  0.19598141090E+03  0.00000000000E+00 0.  1.
</event>
<event>
 8    1  0.3708258E-009  0.1082625E+03  0.7561462E-02  0.1263822E+00
          1   -1    0    0  501    0  0.00000000000E+00  0.00000000000E+00  0.12020150478E+04  0.12020150478E+04  0.00000000000E+00 0. -1.
         -1   -1    0    0    0  501 -0.00000000000E+00 -0.00000000000E+00 -0.11316879866E+02  0.11316879866E+02  0.00000000000E+00 0.  1.
         25    2    1    2    0    0  0.16205523376E+02  0.37457060885E+02  0.76362738649E+03  0.77488073821E+03  0.12509085762E+03 0.  0.
         23    2    1    2    0    0 -0.16205523376E+02 -0.37457060885E+02  0.42707078149E+03  0.43845118949E+03  0.90467357488E+02 0.  0.
          5    1    3    3  502    0 -0.48214528870E+02  0.13500569691E+02  0.49596088459E+03  0.49849932559E+03  0.41800000000E+01 0. -1.
         -5    1    3    3    0  502  0.64420052246E+02  0.23956491194E+02  0.26766650190E+03  0.27638141262E+03  0.41800000000E+01 0. -1.
        -11    1    4    4    0    0  0.33506252465E+02  0.25650449703E+01  0.18955262469E+03  0.19250830096E+03  0.00000000000E+00 0. -1.
         11    1    4    4    0    0 -0.49711775841E+02 -0.40022105855E+02  0.23751815679E+03  0.24594288854E+03  0.00000000000E+00 0.  1.
</event>
<event>
 8    1  0.3708258E-009  0.9380789E+02  0.7561462E-02  0.1293884E+00
          1   -1    0    0  501    0  0.00000000000E+00  0.00000000000E+00  0.21633568028E+03  0.21633568028E+03  0.00000000000E+00 0. -1.
         -1   -1    0    0    0  501 -0.00000000000E+00 -0.00000000000E+00 -0.54480085228E+02  0.54480085228E+02  0.00000000000E+00 0.  1.
         25    2    1    2    0    0 -0.10089401212E+02  0.39151627898E+01  0.97654699447E+02  0.15905718490E+03  0.12508246571E+03 0.  0.
         23    2    1    2    0    0  0.10089401212E+02 -0.39151627898E+01  0.64200895605E+02  0.11175858061E+03  0.90835570271E+02 0.  0.
          5    1    3    3  502    0 -0.66926981505E+02  0.88305742172E+01  0.44440734524E+02  0.80929915231E+02  0.41800000000E+01 0. -1.
         -5    1    3    3    0  502  0.56837580293E+02 -0.49154114274E+01  0.53213964923E+02  0.78127269668E+02  0.41800000000E+01 0. -1.
        -11    1    4    4    0    0 -0.69626935720E+00 -0.32353937568E+02 -0.80663934660E+01  0.33351593226E+02  0.00000000000E+00 0.  1.
         11    1    4    4    0    0  0.10785670569E+02  0.28438774778E+02  0.72267289071E+02  0.78406987381E+02  0.00000000000E+00 0. -1.
</event>
<event>
 8    1  0.3708258E-009  0.9486979E+02  0.7561462E-02  0.1291470E+00
          4   -1    0    0  501    0  0.00000000000E+00  0.00000000000E+00  0.26992913610E+03  0.26992913610E+03  0.00000000000E+00 0. -1.
         -4   -1    0    0    0  501 -0.00000000000E+00 -0.00000000000E+00 -0.76682178869E+02  0.76682178869E+02  0.00000000000E+00 0.  1.
         25    2    1    2    0    0  0.53197946026E+02 -0.26212246231E+02  0.17006884436E+02  0.13947729599E+03  0.12509028205E+03 0.  0.
         23    2    1    2    0    0 -0.53197946026E+02  0.26212246231E+02  0.17624007280E+03  0.20713401898E+03  0.91251494493E+02 0.  0.
          5    1    3    3  502    0  0.61924965336E+02  0.22996831821E+02  0.46873882036E+02  0.81106034441E+02  0.41800000000E+01 0.  1.
         -5    1    3    3    0  502 -0.87270193091E+01 -0.49209078052E+02 -0.29866997600E+02  0.58371261545E+02  0.41800000000E+01 0.  1.
        -11    1    4    4    0    0 -0.19651839398E+02 -0.11624417679E+02 -0.96757891347E+00  0.22852966702E+02  0.00000000000E+00 0.  1.
         11    1    4    4    0    0 -0.33546106628E+02  0.37836663910E+02  0.17720765171E+03  0.18428105228E+03  0.00000000000E+00 0. -1.
</event>
<event>
 8    1  0.3708258E-009  0.1134752E+03  0.7561462E-02  0.1254266E+00
          2   -1    0    0  501    0  0.00000000000E+00  0.00000000000E+00  0.22178036276E+03  0.22178036276E+03  0.00000000000E+00 0. -1.
         -2   -1    0    0    0  501 -0.00000000000E+00 -0.00000000000E+00 -0.75331603838E+02  0.75331603838E+02  0.00000000000E+00 0.  1.
         25    2    1    2    0    0  0.66228456220E+02 -0.39584778372E+01  0.10484795356E+03  0.17618816600E+03  0.12508916226E+03 0.  0.
         23    2    1    2    0    0 -0.66228456220E+02  0.39584778372E+01  0.41600805359E+02  0.12092380059E+03  0.92141524748E+02 0.  0.
          5    1    3    3  502    0 -0.21783957822E+02 -0.26407080011E+02 -0.35903279230E+01  0.34673297329E+02  0.41800000000E+01 0. -1.
         -5    1    3    3    0  502  0.88012414042E+02  0.22448602174E+02  0.10843828148E+03  0.14151486867E+03  0.41800000000E+01 0. -1.
        -11    1    4    4    0    0  0.11537912679E+02 -0.17412094805E+02  0.34017713043E+02  0.39918783488E+02  0.00000000000E+00 0. -1.
         11    1    4    4    0    0 -0.77766368900E+02  0.21370572642E+02  0.75830923164E+01  0.81005017103E+02  0.00000000000E+00 0.  1.
</event>
<event>
 8    1  0.3708258E-009  0.1257017E+03  0.7561462E-02  0.1233977E+00
          1   -1    0    0  501    0  0.00000000000E+00  0.00000000000E+00  0.19395821077E+03  0.19395821077E+03  0.00000000000E+00 0. -1.
         -1   -1    0    0    0  501 -0.00000000000E+00 -0.00000000000E+00 -0.11999826404E+03  0.11999826404E+03  0.00000000000E+00 0.  1.
         25    2    1    2    0    0  0.54680026791E+02 -0.52676348993E+02 -0.35698212808E+02  0.15063190613E+03  0.12510357978E+03 0.  0.
         23    2    1    2    0    0 -0.54680026791E+02  0.52676348993E+02  0.10965815954E+03  0.16332456868E+03  0.94261867722E+02 0.  0.
          5    1    3    3  502    0 -0.21226072519E+02  0.25800114502E+02 -0.22686515839E+02  0.40599784036E+02  0.41800000000E+01 0. -1.
         -5    1    3    3    0  502  0.75906099310E+02 -0.78476463495E+02 -0.13011696969E+02  0.11003212210E+03  0.41800000000E+01 0. -1.
        -11    1    4    4    0    0 -0.46829055702E+01 -0.19843792914E+02 -0.26867388468E+01  0.20565123083E+02  0.00000000000E+00 0.  1.
         11    1    4    4    0    0 -0.49997121221E+02  0.72520141907E+02  0.11234489839E+03  0.14275944559E+03  0.00000000000E+00 0. -1.
</event>
<event>
 8    1  0.3708258E-009  0.8749624E+02  0.7561462E-02  0.1309031E+00
          1   -1    0    0  501    0  0.00000000000E+00  0.00000000000E+00  0.11052370032E+03  0.11052370032E+03  0.00000000000E+00 0. -1.
         -1   -1    0    0    0  501 -0.00000000000E+00 -0.00000000000E+00 -0.11171299203E+03  0.11171299203E+03  0.00000000000E+00 0.  1.
         25    2    1    2    0    0  0.55614334973E+01 -0.17175977783E+02 -0.15300246893E+02  0.12730713118E+03  0.12508822622E+03 0.  0.
         23    2    1    2    0    0 -0.55614334973E+01  0.17175977783E+02  0.14110955188E+02  0.94929561162E+02  0.92122520432E+02 0.  0.
          5    1    3    3  502    0  0.20199071866E+02 -0.69070229372E+02 -0.50308311754E+01  0.72259814227E+02  0.41800000000E+01 0. -1.
         -5    1    3    3    0  502 -0.14637638369E+02  0.51894251589E+02 -0.10269415717E+02  0.55047316957E+02  0.41800000000E+01 0. -1.
        -11    1    4    4    0    0  0.55071143849E+01  0.30791520967E+02  0.47695275501E+02  0.57037578643E+02  0.00000000000E+00 0. -1.
         11    1    4    4    0    0 -0.11068547882E+02 -0.13615543184E+02 -0.33584320312E+02  0.37891982519E+02  0.00000000000E+00 0.  1.
</event>
<event>
 8    1  0.3708258E-009  0.1209524E+03  0.7561462E-02  0.1241534E+00
         -2   -1    0    0    0  501 -0.00000000000E+00  0.00000000000E+00  0.15445539305E+03  0.15445539305E+03  0.00000000000E+00 0.  1.
          2   -1    0    0  501    0  0.00000000000E+00 -0.00000000000E+00 -0.12347124884E+03  0.12347124884E+03  0.00000000000E+00 0. -1.
         25    2    1    2    0    0 -0.18148251826E+01  0.83580423509E+02  0.24254950885E+01  0.15046855500E+03  0.12508366093E+03 0.  0.
         23    2    1    2    0    0  0.18148251826E+01 -0.83580423509E+02  0.28558649126E+02  0.12745808690E+03  0.91874842536E+02 0.  0.
          5    1    3    3  502    0 -0.38836805131E+02  0.71454778975E+02 -0.41673684661E+02  0.91478146376E+02  0.41800000000E+01 0.  1.
         -5    1    3    3    0  502  0.37021979949E+02  0.12125644535E+02  0.44099179750E+02  0.58990408621E+02  0.41800000000E+01 0.  1.
        -11    1    4    4    0    0  0.20925843884E+02 -0.96159661487E+02  0.11837351397E+02  0.99119596082E+02  0.00000000000E+00 0. -1.
         11    1    4    4    0    0 -0.19111018701E+02  0.12579237977E+02  0.16721297730E+02  0.28338490815E+02  0.00000000000E+00 0.  1.
</event>
<event>
 8    1  0.3708258E-009  0.1204777E+03  0.7561462E-02  0.1242311E+00
          2   -1    0    0  501    0  0.00000000000E+00  0.00000000000E+00  0.17437714746E+03  0.17437714746E+03  0.00000000000E+00 0. -1.
         -2   -1    0    0    0  501 -0.00000000000E+00 -0.00000000000E+00 -0.12512618553E+03  0.12512618553E+03  0.00000000000E+00 0.  1.
         25    2    1    2    0    0  0.65461070467E+02  0.75080807435E+02  0.13148105944E+02  0.16044438204E+03  0.12508895893E+03 0.  0.
         23    2    1    2    0    0 -0.65461070467E+02 -0.75080807435E+02  0.36102855977E+02  0.13905895095E+03  0.90064955658E+02 0.  0.
          5    1    3    3  502    0  0.78319265188E+01  0.35846440566E+02 -0.52769213489E+02  0.64407830785E+02  0.41800000000E+01 0. -1.
         -5    1    3    3    0  502  0.57629143948E+02  0.39234366869E+02  0.65917319432E+02  0.96036551255E+02  0.41800000000E+01 0. -1.
        -11    1    4    4    0    0 -0.81010583622E+02 -0.83634928899E+02  0.29426861677E+02  0.12009769431E+03  0.00000000000E+00 0.  1.
         11    1    4    4    0    0  0.15549513155E+02  0.85541214644E+01  0.66759943001E+01  0.18961256638E+02  0.00000000000E+00 0. -1.
</event>
<event>
 8    1  0.3708258E-009  0.1214020E+03  0.7561462E-02  0.1240802E+00
          1   -1    0    0  501    0  0.00000000000E+00  0.00000000000E+00  0.77806956584E+03  0.77806956584E+03  0.00000000000E+00 0. -1.
         -1   -1    0    0    0  501 -0.00000000000E+00 -0.00000000000E+00 -0.26188451645E+02  0.26188451645E+02  0.00000000000E+00 0.  1.
         25    2    1    2    0    0  0.34725161153E+02  0.83721240956E+02  0.36022274486E+03  0.39194786321E+03  0.12509044150E+03 0.  0.
         23    2    1    2    0    0 -0.34725161153E+02 -0.83721240956E+02  0.39165836933E+03  0.41231015427E+03  0.91587674083E+02 0.  0.
          5    1    3    3  502    0  0.25885371098E+02  0.96103083145E+02  0.36256200625E+03  0.37599805293E+03  0.41800000000E+01 0. -1.
         -5    1    3    3    0  502  0.88397900553E+01 -0.12381842189E+02 -0.23392613917E+01  0.15949810284E+02  0.41800000000E+01 0. -1.
        -11    1    4    4    0    0 -0.72297535707E+01 -0.96725450103E+02  0.26953846184E+03  0.28645953370E+03  0.00000000000E+00 0.  1.
         11    1    4    4    0    0 -0.27495407582E+02  0.13004209146E+02  0.12211990749E+03  0.12585062057E+03  0.00000000000E+00 0. -1.
</event>
<event>
 8    1  0.3708258E-009  0.2219890E+03  0.7561462E-02  0.1132409E+00
          2   -1    0    0  501    0  0.00000000000E+00  0.00000000000E+00  0.87546791665E+03  0.87546791665E+03  0.00000000000E+00 0. -1.
         -2   -1    0    0    0  501 -0.00000000000E+00 -0.00000000000E+00 -0.61247470353E+02  0.61247470353E+02  0.00000000000E+00 0.  1.
         25    2    1    2    0    0 -0.67801200743E+02 -0.19212553023E+03  0.44869607271E+03  0.50841331158E+03  0.12508680001E+03 0.  0.
         23    2    1    2    0    0  0.67801200743E+02  0.19212553023E+03  0.36552437359E+03  0.42830207542E+03  0.91243509024E+02 0.  0.
          5    1    3    3  502    0 -0.82803718218E+02 -0.11329298825E+03  0.37084860840E+03  0.39653236903E+03  0.41800000000E+01 0. -1.
         -5    1    3    3    0  502  0.15002517476E+02 -0.78832541981E+02  0.77847464307E+02  0.11188094255E+03  0.41800000000E+01 0. -1.
        -11    1    4    4    0    0 -0.22715639741E+02  0.31148393086E+02  0.62107351361E+02  0.73099560695E+02  0.00000000000E+00 0.  1.
         11    1    4    4    0    0  0.90516840484E+02  0.16097713714E+03  0.30341702222E+03  0.35520251473E+03  0.00000000000E+00 0. -1.
</event>
<event>
 8    1  0.3708258E-009  0.1312753E+03  0.7561462E-02  0.1225576E+00
         -2   -1    0    0    0  501 -0.00000000000E+00  0.00000000000E+00  0.97406547042E+01  0.97406547042E+01  0.00000000000E+00 0. -1.
          2   -1    0    0  501    0  0.00000000000E+00 -0.00000000000E+00 -0.19846340336E+04  0.19846340336E+04  0.00000000000E+00 0.  1.
         25    2    1    2    0    0  0.72241230774E+02  0.40638264378E+02 -0.12810054485E+04  0.12897642235E+04  0.12508608642E+03 0.  0.
         23    2    1    2    0    0 -0.72241230774E+02 -0.40638264378E+02 -0.69388793034E+03  0.70461046481E+03  0.90139798617E+02 0.  0.
          5    1    3    3  502    0  0.55715222963E+02  0.79788013013E+02 -0.10735579268E+04  0.10779677211E+04  0.41800000000E+01 0. -1.
         -5    1    3    3    0  502  0.16526007811E+02 -0.39149748635E+02 -0.20744752172E+03  0.21179650237E+03  0.41800000000E+01 0. -1.
        -11    1    4    4    0    0  0.44841633969E+01 -0.45354169624E+02 -0.25384611423E+03  0.25790494011E+03  0.00000000000E+00 0.  1.
         11    1    4    4    0    0 -0.76725394171E+02  0.47159052458E+01 -0.44004181611E+03  0.44670552470E+03  0.00000000000E+00 0. -1.
</event>
<event>
 8    1  0.3708258E-009  0.1924349E+03  0.7561462E-02  0.1156283E+00
         -1   -1    0    0    0  501 -0.00000000000E+00  0.00000000000E+00  0.17551969006E+04  0.17551969006E+04  0.00000000000E+00 0.  1.
          1   -1    0    0  501    0  0.00000000000E+00 -0.00000000000E+00 -0.29092740086E+02  0.29092740086E+02  0.00000000000E+00 0. -1.
         25    2    1    2    0    0  0.14497303945E+03  0.93639439115E+02  0.12892358868E+04  0.13067374493E+04  0.12509221738E+03 0.  0.
         23    2    1    2    0    0 -0.14497303945E+03 -0.93639439115E+02  0.43686827371E+03  0.47755219139E+03  0.86120149804E+02 0.  0.
          5    1    3    3  502    0  0.44652387053E+02 -0.28072936368E+02  0.24496557455E+03  0.25061430634E+03  0.41800000000E+01 0.  1.
         -5    1    3    3    0  502  0.10032065239E+03  0.12171237548E+03  0.10442703122E+04  0.10561231429E+04  0.41800000000E+01 0.  1.
        -11    1    4    4    0    0 -0.10350877703E+03 -0.78973404911E+02  0.21485246485E+03  0.25122190840E+03  0.00000000000E+00 0. -1.
         11    1    4    4    0    0 -0.41464262421E+02 -0.14666034204E+02  0.22201580886E+03  0.22633028300E+03  0.00000000000E+00 0.  1.
</event>
<event>
 8    1  0.3708258E-009  0.1352287E+03  0.7561462E-02  0.1219897E+00
          1   -1    0    0  501    0  0.00000000000E+00  0.00000000000E+00  0.43130694768E+03  0.43130694768E+03  0.00000000000E+00 0. -1.
         -1   -1    0    0    0  501 -0.00000000000E+00 -0.00000000000E+00 -0.62174480868E+02  0.62174480868E+02  0.00000000000E+00 0.  1.
         25    2    1    2    0    0  0.11217899488E+03 -0.40039013808E+02  0.14947805812E+03  0.22842528746E+03  0.12508865884E+03 0.  0.
         23    2    1    2    0    0 -0.11217899488E+03  0.40039013808E+02  0.21965440869E+03  0.26505614109E+03  0.88427649251E+02 0.  0.
          5    1    3    3  502    0  0.60825821172E+02 -0.35978028093E+02  0.56173015083E+00  0.70795388038E+02  0.41800000000E+01 0. -1.
         -5    1    3    3    0  502  0.51353173710E+02 -0.40609857143E+01  0.14891632797E+03  0.15762989942E+03  0.41800000000E+01 0. -1.
        -11    1    4    4    0    0 -0.30580837936E+02  0.56957539422E+02  0.10524470947E+03  0.12351436280E+03  0.00000000000E+00 0.  1.
         11    1    4    4    0    0 -0.81598156945E+02 -0.16918525615E+02  0.11440969922E+03  0.14154177829E+03  0.00000000000E+00 0. -1.
</event>
<event>
 8    1  0.3708258E-009  0.1361555E+03  0.7561462E-02  0.1218598E+00
         -1   -1    0    0    0  501 -0.00000000000E+00  0.00000000000E+00  0.37126087365E+02  0.37126087365E+02  0.00000000000E+00 0.  1.
          1   -1    0    0  501    0  0.00000000000E+00 -0.00000000000E+00 -0.54210439656E+03  0.54210439656E+03  0.00000000000E+00 0. -1.
         25    2    1    2    0    0  0.31470292766E+02 -0.83219676842E+02 -0.31810788431E+03  0.35320818859E+03  0.12508998555E+03 0.  0.
         23    2    1    2    0    0 -0.31470292766E+02  0.83219676842E+02 -0.18687042488E+03  0.22602229534E+03  0.90827464745E+02 0.  0.
          5    1    3    3  502    0 -0.45591532810E+02 -0.54395414074E+02 -0.15044640902E+03  0.16640025037E+03  0.41800000000E+01 0. -1.
         -5    1    3    3    0  502  0.77061825576E+02 -0.28824262768E+02 -0.16766147529E+03  0.18680793822E+03  0.41800000000E+01 0. -1.
        -11    1    4    4    0    0  0.14586635266E+02  0.69151620932E+02 -0.69342380874E+02  0.99010516568E+02  0.00000000000E+00 0. -1.
         11    1    4    4    0    0 -0.46056928032E+02  0.14068055911E+02 -0.11752804401E+03  0.12701177877E+03  0.00000000000E+00 0.  1.
</event>
<event>
 8    1  0.3708258E-009  0.1808540E+03  0.7561462E-02  0.1166979E+00
          2   -1    0    0  501    0  0.00000000000E+00  0.00000000000E+00  0.50294534452E+03  0.50294534452E+03  0.00000000000E+00 0. -1.
         -2   -1    0    0    0  501 -0.00000000000E+00 -0.00000000000E+00 -0.70228433172E+02  0.70228433172E+02  0.00000000000E+00 0.  1.
         25    2    1    2    0    0  0.54060703956E+02 -0.13728525316E+03  0.29107548908E+03  0.34948867521E+03  0.12509034060E+03 0.  0.
         23    2    1    2    0    0 -0.54060703956E+02  0.13728525316E+03  0.14164142227E+03  0.22368510249E+03  0.90570039884E+02 0.  0.
          5    1    3    3  502    0  0.91413972779E+02 -0.11421228919E+03  0.24722706947E+03  0.28729715923E+03  0.41800000000E+01 0.  1.
         -5    1    3    3    0  502 -0.37353268823E+02 -0.23072963965E+02  0.43848419605E+02  0.62191515979E+02  0.41800000000E+01 0.  1.
        -11    1    4    4    0    0 -0.77514947723E+02  0.11640428916E+03  0.10191835991E+03  0.17304877273E+03  0.00000000000E+00 0.  1.
         11    1    4    4    0    0  0.23454243767E+02  0.20880963991E+02  0.39723062359E+02  0.50636329755E+02  0.00000000000E+00 0. -1.
</event>
<event>
 8    1  0.3708258E-009  0.9900697E+02  0.7561462E-02  0.1282398E+00
         -1   -1    0    0    0  501 -0.00000000000E+00  0.00000000000E+00  0.55106777065E+03  0.55106777065E+03  0.00000000000E+00 0.  1.
          1   -1    0    0  501    0  0.00000000000E+00 -0.00000000000E+00 -0.39734432451E+02  0.39734432451E+02  0.00000000000E+00 0. -1.
         25    2    1    2    0    0 -0.66508092157E+02 -0.20318399691E+02  0.41909875427E+03  0.44286390350E+03  0.12509399469E+03 0.  0.
         23    2    1    2    0    0  0.66508092157E+02  0.20318399691E+02  0.92234583936E+02  0.14793829960E+03  0.92424879373E+02 0.  0.
          5    1    3    3  502    0 -0.66451612678E+02 -0.31396169445E+02  0.42378417738E+03  0.43013025664E+03  0.41800000000E+01 0. -1.
         -5    1    3    3    0  502 -0.56479478433E-01  0.11077769754E+02 -0.46854231098E+01  0.12733646861E+02  0.41800000000E+01 0. -1.
        -11    1    4    4    0    0 -0.30493830182E+01  0.40122271295E+02  0.50026639061E+02  0.64200934623E+02  0.00000000000E+00 0.  1.
         11    1    4    4    0    0  0.69557475175E+02 -0.19803871604E+02  0.42207944875E+02  0.83737364980E+02  0.00000000000E+00 0. -1.
</event>
<event>
 8    1  0.3708258E-009  0.1408977E+03  0.7561462E-02  0.1212126E+00
          3   -1    0    0  501    0  0.00000000000E+00  0.00000000000E+00  0.16790190579E+03  0.16790190579E+03  0.00000000000E+00 0. -1.
         -3   -1    0    0    0  501 -0.00000000000E+00 -0.00000000000E+00 -0.18026851612E+03  0.18026851612E+03  0.00000000000E+00 0.  1.
         25    2    1    2    0    0  0.10283442459E+03  0.43915355949E+02 -0.84222520552E+02  0.18773093338E+03  0.12508394385E+03 0.  0.
         23    2    1    2    0    0 -0.10283442459E+03 -0.43915355949E+02  0.71855910219E+02  0.16043948853E+03  0.89855886145E+02 0.  0.
          5    1    3    3  502    0  0.91520331869E+02  0.66185778771E+02 -0.10553204194E+03  0.15463186196E+03  0.41800000000E+01 0. -1.
         -5    1    3    3    0  502  0.11314092726E+02 -0.22270422822E+02  0.21309521389E+02  0.33099071417E+02  0.41800000000E+01 0. -1.
        -11    1    4    4    0    0 -0.43628793546E+02 -0.66955492652E+02  0.40494491561E+02  0.89589695107E+02  0.00000000000E+00 0.  1.
         11    1    4    4    0    0 -0.59205631049E+02  0.23040136703E+02  0.31361418658E+02  0.70849793418E+02  0.00000000000E+00 0. -1.
</event>
<event>
 8    1  0.3708258E-009  0.1009978E+03  0.7561462E-02  0.1278212E+00
          2   -1    0    0  501    0  0.00000000000E+00  0.00000000000E+00  0.57003716247E+03  0.57003716247E+03  0.00000000000E+00 0. -1.
         -2   -1    0    0    0  501 -0.00000000000E+00 -0.00000000000E+00 -0.23276145249E+02  0.23276145249E+02  0.00000000000E+00 0.  1.
         25    2    1    2    0    0  0.31830796047E+02 -0.20093040481E+02  0.28396357577E+03  0.31256989613E+03  0.12509075804E+03 0.  0.
         23    2    1    2    0    0 -0.31830796047E+02  0.20093040481E+02  0.26279744144E+03  0.28074341158E+03  0.91309572696E+02 0.  0.
          5    1    3    3  502    0  0.66707156429E+02 -0.13742801455E+02  0.26181570808E+03  0.27056172439E+03  0.41800000000E+01 0. -1.
         -5    1    3    3    0  502 -0.34876360382E+02 -0.63502390265E+01  0.22147867697E+02  0.42008171738E+02  0.41800000000E+01 0. -1.
        -11    1    4    4    0    0 -0.33004006875E+02  0.54458335202E+02  0.18602972918E+03  0.19662663828E+03  0.00000000000E+00 0.  1.
         11    1    4    4    0    0  0.11732108278E+01 -0.34365294720E+02  0.76767712266E+02  0.84116773306E+02  0.00000000000E+00 0. -1.
</event>
<event>
 8    1  0.3708258E-009  0.1018010E+03  0.7561462E-02  0.1276554E+00
          1   -1    0    0  501    0  0.00000000000E+00  0.00000000000E+00  0.18256139919E+03  0.18256139919E+03  0.00000000000E+00 0. -1.
         -1   -1    0    0    0  501 -0.00000000000E+00 -0.00000000000E+00 -0.83365187556E+02  0.83365187556E+02  0.00000000000E+00 0.  1.
         25    2    1    2    0    0 -0.39819090322E+02 -0.41073550710E+02  0.46820148566E+02  0.14529776656E+03  0.12508684237E+03 0.  0.
         23    2    1    2    0    0  0.39819090322E+02  0.41073550710E+02  0.52376063072E+02  0.12062882019E+03  0.92387573596E+02 0.  0.
          5    1    3    3  502    0 -0.11740756620E+02 -0.60113088049E+02  0.77842221679E+02  0.99137846439E+02  0.41800000000E+01 0. -1.
         -5    1    3    3    0  502 -0.28078333702E+02  0.19039537339E+02 -0.31022073113E+02  0.46159920124E+02  0.41800000000E+01 0. -1.
        -11    1    4    4    0    0  0.66251902382E+02  0.46632707755E+02  0.44780776741E+02  0.92570200212E+02  0.00000000000E+00 0.  1.
         11    1    4    4    0    0 -0.26432812060E+02 -0.55591570452E+01  0.75952863312E+01  0.28058619975E+02  0.00000000000E+00 0. -1.
</event>
<event>
 8    1  0.3708258E-009  0.1555997E+03  0.7561462E-02  0.1193756E+00
          2   -1    0    0  501    0  0.00000000000E+00  0.00000000000E+00  0.72326646483E+03  0.72326646483E+03  0.00000000000E+00 0. -1.
         -2   -1    0    0    0  501 -0.00000000000E+00 -0.00000000000E+00 -0.82191160197E+02  0.82191160197E+02  0.00000000000E+00 0.  1.
         25    2    1    2    0    0 -0.14947647700E+01 -0.11901841450E+03  0.63162205085E+03  0.65479933671E+03  0.12509252142E+03 0.  0.
         23    2    1    2    0    0  0.14947647700E+01  0.11901841450E+03  0.94532537778E+01  0.15065828832E+03  0.91874580372E+02 0.  0.
          5    1    3    3  502    0  0.12186594597E+02 -0.13815597621E+03  0.43161709404E+03  0.45337222579E+03  0.41800000000E+01 0.  1.
         -5    1    3    3    0  502 -0.13681359367E+02  0.19137561710E+02  0.20000495681E+03  0.20142711091E+03  0.41800000000E+01 0.  1.
        -11    1    4    4    0    0  0.36857943641E+02  0.10362019657E+03 -0.33133796297E+01  0.11003013965E+03  0.00000000000E+00 0. -1.
         11    1    4    4    0    0 -0.35363178871E+02  0.15398217932E+02  0.12766633408E+02  0.40628148665E+02  0.00000000000E+00 0.  1.
</event>
<event>
 8    1  0.3708258E-009  0.8916746E+02  0.7561462E-02  0.1304880E+00
         -2   -1    0    0    0  501 -0.00000000000E+00  0.00000000000E+00  0.59860871547E+02  0.59860871547E+02  0.00000000000E+00 0. -1.
          2   -1    0    0  501    0  0.00000000000E+00 -0.00000000000E+00 -0.45942225695E+03  0.45942225695E+03  0.00000000000E+00 0.  1.
         25    2    1    2    0    0  0.21359786486E+02  0.50943428502E+02 -0.38723020462E+03  0.41066527141E+03  0.12508900986E+03 0.  0.
         23    2    1    2    0    0 -0.21359786486E+02 -0.50943428502E+02 -0.12331180791E+02  0.10861785709E+03  0.92705487827E+02 0.  0.
          5    1    3    3  502    0  0.47667956657E+02  0.42371296056E+02 -0.81097145308E+02  0.10325589668E+03  0.41800000000E+01 0.  1.
         -5    1    3    3    0  502 -0.26308170171E+02  0.85721324459E+01 -0.30613305931E+03  0.30740937473E+03  0.41800000000E+01 0.  1.
        -11    1    4    4    0    0 -0.16613098320E+02 -0.67344342159E+02 -0.37001594847E+02  0.78615351413E+02  0.00000000000E+00 0. -1.
         11    1    4    4    0    0 -0.47466881659E+01  0.16400913657E+02  0.24670414056E+02  0.30002505679E+02  0.00000000000E+00 0.  1.
</event>
<event>
 8    1  0.3708258E-009  0.9374868E+02  0.7561462E-02  0.1294019E+00
         -2   -1    0    0    0  501 -0.00000000000E+00  0.00000000000E+00  0.11139301276E+02  0.11139301276E+02  0.00000000000E+00 0.  1.
          2   -1    0    0  501    0  0.00000000000E+00 -0.00000000000E+00 -0.14504232631E+04  0.14504232631E+04  0.00000000000E+00 0. -1.
         25    2    1    2    0    0 -0.14082451022E+02 -0.47361910615E+02 -0.10478645862E+04  0.10564605309E+04  0.12508875431E+03 0.  0.
         23    2    1    2    0    0  0.14082451022E+02  0.47361910615E+02 -0.39141937566E+03  0.40510203346E+03  0.91962295879E+02 0.  0.
          5    1    3    3  502    0 -0.45638031296E+02 -0.25031071917E+02 -0.94579641173E+03  0.94723688130E+03  0.41800000000E+01 0.  1.
         -5    1    3    3    0  502  0.31555580275E+02 -0.22330838698E+02 -0.10206817443E+03  0.10922364961E+03  0.41800000000E+01 0.  1.
        -11    1    4    4    0    0  0.47429710775E+02  0.40456499397E+02 -0.31953038125E+03  0.32555486535E+03  0.00000000000E+00 0. -1.
         11    1    4    4    0    0 -0.33347259753E+02  0.69054112180E+01 -0.71888994411E+02  0.79547168112E+02  0.00000000000E+00 0.  1.
</event>
<event>
 8    1  0.3708258E-009  0.1421960E+03  0.7561462E-02  0.1210404E+00
         -2   -1    0    0    0  501 -0.00000000000E+00  0.00000000000E+00  0.79852081858E+03  0.79852081858E+03  0.00000000000E+00 0.  1.
          2   -1    0    0  501    0  0.00000000000E+00 -0.00000000000E+00 -0.37868538997E+02  0.37868538997E+02  0.00000000000E+00 0. -1.
         25    2    1    2    0    0 -0.32592363025E+02  0.10762723080E+03  0.58473883722E+03  0.60845097916E+03  0.12508878187E+03 0.  0.
         23    2    1    2    0    0  0.32592363025E+02 -0.10762723080E+03  0.17591344237E+03  0.22793837842E+03  0.91457543231E+02 0.  0.
          5    1    3    3  502    0  0.16577300658E+02 -0.16586049431E+02  0.32658864033E+02  0.40422490433E+02  0.41800000000E+01 0. -1.
         -5    1    3    3    0  502 -0.49169663683E+02  0.12421328023E+03  0.55207997318E+03  0.56802848873E+03  0.41800000000E+01 0. -1.
        -11    1    4    4    0    0 -0.15228500827E+02 -0.48703812614E+02  0.12898794511E+03  0.13871502653E+03  0.00000000000E+00 0.  1.
         11    1    4    4    0    0  0.47820863852E+02 -0.58923418188E+02  0.46925497260E+02  0.89223351896E+02  0.00000000000E+00 0. -1.
</event>
<event>
 8    1  0.3708258E-009  0.9805343E+02  0.7561462E-02  0.1284443E+00
         -1   -1    0    0    0  501 -0.00000000000E+00  0.00000000000E+00  0.20435775668E+03  0.20435775668E+03  0.00000000000E+00 0.  1.
          1   -1    0    0  501    0  0.00000000000E+00 -0.00000000000E+00 -0.66589659801E+02  0.66589659801E+02  0.00000000000E+00 0. -1.
         25    2    1    2    0    0 -0.37968381504E+02 -0.25553133913E+02  0.71858782312E+02  0.15134587885E+03  0.12508928732E+03 0.  0.
         23    2    1    2    0    0  0.37968381504E+02  0.25553133913E+02  0.65909314571E+02  0.11960153764E+03  0.88690075041E+02 0.  0.
          5    1    3    3  502    0  0.14985227483E+02  0.35773427725E+02 -0.53163213587E+01  0.39370431121E+02  0.41800000000E+01 0.  1.
         -5    1    3    3    0  502 -0.52953608987E+02 -0.61326561638E+02  0.77175103671E+02  0.11197544773E+03  0.41800000000E+01 0.  1.
        -11    1    4    4    0    0 -0.10335500595E+02  0.25656857751E+02 -0.10180348791E+02  0.29474335000E+02  0.00000000000E+00 0.  1.
         11    1    4    4    0    0  0.48303882100E+02 -0.10372383779E+00  0.76089663361E+02  0.90127202636E+02  0.00000000000E+00 0. -1.
</event>
<event>
 8    1  0.3708258E-009  0.7389359E+02  0.7561462E-02  0.1347332E+00
          1   -1    0    0  501    0  0.00000000000E+00  0.00000000000E+00  0.35970921367E+02  0.35970921367E+02  0.00000000000E+00 0. -1.
         -1   -1    0    0    0  501 -0.00000000000E+00 -0.00000000000E+00 -0.36879007642E+03  0.36879007642E+03  0.00000000000E+00 0.  1.
         25    2    1    2    0    0 -0.17980099849E+02 -0.32309478514E+02 -0.15749212467E+03  0.20449857787E+03  0.12509481455E+03 0.  0.
         23    2    1    2    0    0  0.17980099849E+02  0.32309478514E+02 -0.17532703039E+03  0.20026241991E+03  0.89433119445E+02 0.  0.
          5    1    3    3  502    0 -0.30149226665E+02 -0.44901930747E+02 -0.90827319161E+01  0.55001160646E+02  0.41800000000E+01 0. -1.
         -5    1    3    3    0  502  0.12169126815E+02  0.12592452233E+02 -0.14840939275E+03  0.14949741723E+03  0.41800000000E+01 0. -1.
        -11    1    4    4    0    0  0.26997273471E+02 -0.12556455506E+02 -0.13809047098E+03  0.14126392153E+03  0.00000000000E+00 0.  1.
         11    1    4    4    0    0 -0.90171736213E+01  0.44865934020E+02 -0.37236559407E+02  0.58998498388E+02  0.00000000000E+00 0. -1.
</event>
<event>
 8    1  0.3708258E-009  0.9454439E+02  0.7561462E-02  0.1292206E+00
         -1   -1    0    0    0  501 -0.00000000000E+00  0.00000000000E+00  0.27789905009E+03  0.27789905009E+03  0.00000000000E+00 0.  1.
          1   -1    0    0  501    0  0.00000000000E+00 -0.00000000000E+00 -0.68780255918E+02  0.68780255918E+02  0.00000000000E+00 0. -1.
         25    2    1    2    0    0  0.30647996758E+02  0.13938313738E+02  0.15734334605E+02  0.13049579194E+03  0.12509199068E+03 0.  0.
         23    2    1    2    0    0 -0.30647996758E+02 -0.13938313738E+02  0.19338445957E+03  0.21618351408E+03  0.90576963181E+02 0.  0.
          5    1    3    3  502    0 -0.15256663557E+02 -0.27104888557E+02  0.50650134135E+02  0.59584807245E+02  0.41800000000E+01 0. -1.
         -5    1    3    3    0  502  0.45904660315E+02  0.41043202295E+02 -0.34915799530E+02  0.70910984692E+02  0.41800000000E+01 0. -1.
        -11    1    4    4    0    0 -0.52938240885E+02  0.18974254152E+02  0.10078489610E+03  0.11541262908E+03  0.00000000000E+00 0. -1.
         11    1    4    4    0    0  0.22290244127E+02 -0.32912567890E+02  0.92599563466E+02  0.10077088499E+03  0.00000000000E+00 0.  1.
</event>
<event>
 8    1  0.3708258E-009  0.9954197E+02  0.7561462E-02  0.1281262E+00
          2   -1    0    0  501    0  0.00000000000E+00  0.00000000000E+00  0.10480291368E+03  0.10480291368E+03  0.00000000000E+00 0. -1.
         -2   -1    0    0    0  501 -0.00000000000E+00 -0.00000000000E+00 -0.13026905449E+03  0.13026905449E+03  0.00000000000E+00 0.  1.
         25    2    1    2    0    0 -0.39997489936E+02  0.28621046853E+01 -0.32041029900E+02  0.13520998155E+03  0.12508845138E+03 0.  0.
         23    2    1    2    0    0  0.39997489936E+02 -0.28621046853E+01  0.65748890982E+01  0.99861986619E+02  0.91220591756E+02 0.  0.
          5    1    3    3  502    0 -0.23120496655E+02  0.55799481018E+02  0.14902559371E+02  0.62351408350E+02  0.41800000000E+01 0. -1.
         -5    1    3    3    0  502 -0.16876993282E+02 -0.52937376333E+02 -0.46943589271E+02  0.72858573201E+02  0.41800000000E+01 0. -1.
        -11    1    4    4    0    0  0.19207276731E+02  0.34829684826E+02  0.30946939838E+02  0.50395828298E+02  0.00000000000E+00 0. -1.
         11    1    4    4    0    0  0.20790213205E+02 -0.37691789512E+02 -0.24372050740E+02  0.49466158320E+02  0.00000000000E+00 0.  1.
</event>
<event>
 8    1  0.3708258E-009  0.1215659E+03  0.7561462E-02  0.1240536E+00
          2   -1    0    0  501    0  0.00000000000E+00  0.00000000000E+00  0.28640958990E+03  0.28640958990E+03  0.00000000000E+00 0. -1.
         -2   -1    0    0    0  501 -0.00000000000E+00 -0.00000000000E+00 -0.90114758972E+02  0.90114758972E+02  0.00000000000E+00 0.  1.
         25    2    1    2    0    0  0.10416313697E+03 -0.55256058239E+02  0.10951487196E+03  0.20382448628E+03  0.12509085879E+03 0.  0.
         23    2    1    2    0    0 -0.10416313697E+03  0.55256058239E+02  0.86779958969E+02  0.17269986259E+03  0.91603985646E+02 0.  0.
          5    1    3    3  502    0  0.36435423173E+02 -0.40305672295E+02  0.12164172373E+03  0.13329016705E+03  0.41800000000E+01 0. -1.
         -5    1    3    3    0  502  0.67727713793E+02 -0.14950385944E+02 -0.12126851766E+02  0.70534319231E+02  0.41800000000E+01 0. -1.
        -11    1    4    4    0    0 -0.92300755023E+02  0.54671776947E+02  0.25482452679E+02  0.11026235970E+03  0.00000000000E+00 0.  1.
         11    1    4    4    0    0 -0.11862381944E+02  0.58428129196E+00  0.61297506290E+02  0.62437502892E+02  0.00000000000E+00 0. -1.
</event>
<event>
 8    1  0.3708258E-009  0.2136264E+03  0.7561462E-02  0.1138726E+00
          1   -1    0    0  501    0  0.00000000000E+00  0.00000000000E+00  0.99006713142E+03  0.99006713142E+03  0.00000000000E+00 0. -1.
         -1   -1    0    0    0  501 -0.00000000000E+00 -0.00000000000E+00 -0.58539040188E+02  0.58539040188E+02  0.00000000000E+00 0.  1.
         25    2    1    2    0    0  0.19121625755E+03  0.15851464457E+02  0.27089967598E+03  0.35475222924E+03  0.12509030189E+03 0.  0.
         23    2    1    2    0    0 -0.19121625755E+03 -0.15851464457E+02  0.66062841525E+03  0.69385394237E+03  0.90490133335E+02 0.  0.
          5    1    3    3  502    0  0.52740857378E+02  0.52480188027E+02  0.44447668713E+02  0.86768864383E+02  0.41800000000E+01 0.  1.
         -5    1    3    3    0  502  0.13847540017E+03 -0.36628723570E+02  0.22645200727E+03  0.26798336485E+03  0.41800000000E+01 0.  1.
        -11    1    4    4    0    0 -0.18056480227E+03  0.10643225833E+02  0.52601764192E+03  0.55624768376E+03  0.00000000000E+00 0.  1.
         11    1    4    4    0    0 -0.10651455282E+02 -0.26494690290E+02  0.13461077332E+03  0.13760625861E+03  0.00000000000E+00 0. -1.
</event>
<event>
 8    1  0.3708258E-009  0.1127008E+03  0.7561462E-02  0.1255649E+00
         -2   -1    0    0    0  501 -0.00000000000E+00  0.00000000000E+00  0.64592023465E+02  0.64592023465E+02  0.00000000000E+00 0.  1.
          2   -1    0    0  501    0  0.00000000000E+00 -0.00000000000E+00 -0.20118840714E+03  0.20118840714E+03  0.00000000000E+00 0. -1.
         25    2    1    2    0    0 -0.11868791248E+02  0.29133512162E+02 -0.93214826650E+02  0.15914219959E+03  0.12509039150E+03 0.  0.
         23    2    1    2    0    0  0.11868791248E+02 -0.29133512162E+02 -0.43381557023E+02  0.10663823101E+03  0.92196112106E+02 0.  0.
          5    1    3    3  502    0  0.13622886205E+02  0.74903633979E+02 -0.51005114199E+02  0.91734025783E+02  0.41800000000E+01 0.  1.
         -5    1    3    3    0  502 -0.25491677453E+02 -0.45770121817E+02 -0.42209712451E+02  0.67408173805E+02  0.41800000000E+01 0.  1.
        -11    1    4    4    0    0  0.22082686524E+02  0.29629760660E+02 -0.99775104179E+01  0.38276866055E+02  0.00000000000E+00 0.  1.
         11    1    4    4    0    0 -0.10213895276E+02 -0.58763272822E+02 -0.33404046605E+02  0.68361364959E+02  0.00000000000E+00 0. -1.
</event>
<event>
 8    1  0.3708258E-009  0.8688496E+02  0.7561462E-02  0.1310575E+00
         -2   -1    0    0    0  501 -0.00000000000E+00  0.00000000000E+00  0.16067731180E+03  0.16067731180E+03  0.00000000000E+00 0. -1.
          2   -1    0    0  501    0  0.00000000000E+00 -0.00000000000E+00 -0.81960280127E+02  0.81960280127E+02  0.00000000000E+00 0.  1.
         25    2    1    2    0    0 -0.26452740938E+02 -0.27160552681E+02  0.44820161993E+02  0.13817930714E+03  0.12508889189E+03 0.  0.
         23    2    1    2    0    0  0.26452740938E+02  0.27160552681E+02  0.33896869684E+02  0.10445828479E+03  0.91241944098E+02 0.  0.
          5    1    3    3  502    0 -0.19444719815E+02 -0.57828570090E+02 -0.21365989615E+02  0.64778225968E+02  0.41800000000E+01 0.  1.
         -5    1    3    3    0  502 -0.70080211225E+01  0.30668017409E+02  0.66186151608E+02  0.73401081167E+02  0.41800000000E+01 0.  1.
        -11    1    4    4    0    0  0.49070317507E+02  0.51802212908E+01  0.48956324962E+02  0.69508650588E+02  0.00000000000E+00 0. -1.
         11    1    4    4    0    0 -0.22617576569E+02  0.21980331390E+02 -0.15059455278E+02  0.34949634206E+02  0.00000000000E+00 0.  1.
</event>
<event>
 8    1  0.3708258E-009  0.1016116E+03  0.7561462E-02  0.1276943E+00
          2   -1    0    0  501    0  0.00000000000E+00  0.00000000000E+00  0.18922745235E+03  0.18922745235E+03  0.00000000000E+00 0.  1.
         -2   -1    0    0    0  501 -0.00000000000E+00 -0.00000000000E+00 -0.77475220412E+02  0.77475220412E+02  0.00000000000E+00 0. -1.
         25    2    1    2    0    0  0.76139901658E+01  0.25837646416E+02  0.92251560342E+01  0.12829109281E+03  0.12509174302E+03 0.  0.
         23    2    1    2    0    0 -0.76139901658E+01 -0.25837646416E+02  0.10252707590E+03  0.13841157995E+03  0.88996670460E+02 0.  0.
          5    1    3    3  502    0  0.12706723583E+02  0.76021287812E+02  0.24767620383E+01  0.77228905049E+02  0.41800000000E+01 0.  1.
         -5    1    3    3    0  502 -0.50927334174E+01 -0.50183641396E+02  0.67483939959E+01  0.51062187761E+02  0.41800000000E+01 0.  1.
        -11    1    4    4    0    0 -0.62481547509E+01 -0.50416842722E+02  0.10181319862E+03  0.11378411524E+03  0.00000000000E+00 0.  1.
         11    1    4    4    0    0 -0.13658354149E+01  0.24579196306E+02  0.71387728474E+00  0.24627464713E+02  0.00000000000E+00 0. -1.
</event>
<event>
 8    1  0.3708258E-009  0.9083386E+02  0.7561462E-02  0.1300845E+00
          1   -1    0    0  501    0  0.00000000000E+00  0.00000000000E+00  0.10919866859E+04  0.10919866859E+04  0.00000000000E+00 0. -1.
         -1   -1    0    0    0  501 -0.00000000000E+00 -0.00000000000E+00 -0.24326629665E+02  0.24326629665E+02  0.00000000000E+00 0.  1.
         25    2    1    2    0    0 -0.55098483623E+02 -0.38168950100E+02  0.92116739326E+03  0.93203471058E+03  0.12508646478E+03 0.  0.
         23    2    1    2    0    0  0.55098483623E+02  0.38168950100E+02  0.14649266298E+03  0.18427860499E+03  0.89475093189E+02 0.  0.
          5    1    3    3  502    0 -0.20726851135E+02  0.12410215101E+02  0.29919814231E+02  0.38681823644E+02  0.41800000000E+01 0. -1.
         -5    1    3    3    0  502 -0.34371632488E+02 -0.50579165200E+02  0.89124757903E+03  0.89335288694E+03  0.41800000000E+01 0. -1.
        -11    1    4    4    0    0  0.64255322796E+02  0.49626367848E+02  0.14872553719E+03  0.16944264017E+03  0.00000000000E+00 0. -1.
         11    1    4    4    0    0 -0.91568391725E+01 -0.11457417748E+02 -0.22328742103E+01  0.14835964826E+02  0.00000000000E+00 0.  1.
</event>
<event>
 8    1  0.3708258E-009  0.2110564E+03  0.7561462E-02  0.1140732E+00
         -1   -1    0    0    0  501 -0.00000000000E+00  0.00000000000E+00  0.70781506082E+02  0.70781506082E+02  0.00000000000E+00 0.  1.
          1   -1    0    0  501    0  0.00000000000E+00 -0.00000000000E+00 -0.74741785535E+03  0.74741785535E+03  0.00000000000E+00 0. -1.
         25    2    1    2    0    0 -0.16171996915E+03 -0.11785568404E+03 -0.41330340695E+03  0.47593119108E+03  0.12508989472E+03 0.  0.
         23    2    1    2    0    0  0.16171996915E+03  0.11785568404E+03 -0.26333294231E+03  0.34226817035E+03  0.88090585458E+02 0.  0.
          5    1    3    3  502    0 -0.11286494515E+02  0.78558206017E+00 -0.14888393871E+03  0.14937168976E+03  0.41800000000E+01 0. -1.
         -5    1    3    3    0  502 -0.15043347464E+03 -0.11864126610E+03 -0.26441946825E+03  0.32655950132E+03  0.41800000000E+01 0. -1.
        -11    1    4    4    0    0  0.68954701765E+02  0.10376724861E+03 -0.15779949153E+03  0.20105489874E+03  0.00000000000E+00 0.  1.
         11    1    4    4    0    0  0.92765267386E+02  0.14088435433E+02 -0.10553345078E+03  0.14121327162E+03  0.00000000000E+00 0. -1.
</event>
<event>
 8    1  0.3708258E-009  0.2637927E+03  0.7561462E-02  0.1104886E+00
          2   -1    0    0  501    0  0.00000000000E+00  0.00000000000E+00  0.83972985830E+03  0.83972985830E+03  0.00000000000E+00 0. -1.
         -2   -1    0    0    0  501 -0.00000000000E+00 -0.00000000000E+00 -0.10325448468E+03  0.10325448468E+03  0.00000000000E+00 0.  1.
         25    2    1    2    0    0 -0.15347561116E+03  0.20102546189E+03  0.20437584102E+03  0.34839428469E+03  0.12507235372E+03 0.  0.
         23    2    1    2    0    0  0.15347561116E+03 -0.20102546189E+03  0.53209953261E+03  0.59459005829E+03  0.80258490285E+02 0.  0.
          5    1    3    3  502    0 -0.86382530019E+02  0.54626575248E+02  0.21212850344E+02  0.10446751474E+03  0.41800000000E+01 0. -1.
         -5    1    3    3    0  502 -0.67093081140E+02  0.14639888664E+03  0.18316299067E+03  0.24392676995E+03  0.41800000000E+01 0. -1.
        -11    1    4    4    0    0  0.16181249458E+03 -0.18262522362E+03  0.50429470926E+03  0.56022175029E+03  0.00000000000E+00 0. -1.
         11    1    4    4    0    0 -0.83368834206E+01 -0.18400238266E+02  0.27804823349E+02  0.34368308002E+02  0.00000000000E+00 0.  1.
</event>
<event>
 8    1  0.3708258E-009  0.1545830E+03  0.7561462E-02  0.1194952E+00
         -3   -1    0    0    0  501 -0.00000000000E+00  0.00000000000E+00  0.10774086710E+03  0.10774086710E+03  0.00000000000E+00 0.  1.
          3   -1    0    0  501    0  0.00000000000E+00 -0.00000000000E+00 -0.27430418829E+03  0.27430418829E+03  0.00000000000E+00 0. -1.
         25    2    1    2    0    0  0.27920540184E+02 -0.11091629653E+03 -0.16372198251E+03  0.23565497625E+03  0.12508556622E+03 0.  0.
         23    2    1    2    0    0 -0.27920540184E+02  0.11091629653E+03 -0.28413386734E+01  0.14639007913E+03  0.91323604085E+02 0.  0.
          5    1    3    3  502    0 -0.49696819263E+01 -0.12992217424E+03 -0.11418509896E+03  0.17309008730E+03  0.41800000000E+01 0.  1.
         -5    1    3    3    0  502  0.32890222110E+02  0.19005877708E+02 -0.49536883554E+02  0.62564888956E+02  0.41800000000E+01 0.  1.
        -11    1    4    4    0    0 -0.57350887141E+02  0.75670366242E+02  0.16844389495E+02  0.96430607384E+02  0.00000000000E+00 0.  1.
         11    1    4    4    0    0  0.29430346957E+02  0.35245930285E+02 -0.19685728169E+02  0.49959471747E+02  0.00000000000E+00 0. -1.
</event>
<event>
 8    1  0.3708258E-009  0.7971372E+02  0.7561462E-02  0.1329866E+00
          2   -1    0    0  501    0  0.00000000000E+00  0.00000000000E+00  0.10229817786E+04  0.10229817786E+04  0.00000000000E+00 0.  1.
         -2   -1    0    0    0  501 -0.00000000000E+00 -0.00000000000E+00 -0.12221203089E+02  0.12221203089E+02  0.00000000000E+00 0. -1.
         25    2    1    2    0    0 -0.26327682486E+02  0.54536466680E+01  0.53882248181E+03  0.55380526023E+03  0.12509080792E+03 0.  0.
         23    2    1    2    0    0  0.26327682486E+02 -0.54536466680E+01  0.47193809365E+03  0.48139772141E+03  0.91078607868E+02 0.  0.
          5    1    3    3  502    0  0.12855902730E+02 -0.14897860568E+02  0.47855477877E+03  0.47897742031E+03  0.41800000000E+01 0.  1.
         -5    1    3    3    0  502 -0.39183585215E+02  0.20351507236E+02  0.60267703038E+02  0.74827839917E+02  0.41800000000E+01 0.  1.
        -11    1    4    4    0    0 -0.10197736887E+02  0.37334253628E+02  0.19471038249E+03  0.19851945341E+03  0.00000000000E+00 0.  1.
         11    1    4    4    0    0  0.36525419372E+02 -0.42787900296E+02  0.27722771116E+03  0.28287826800E+03  0.00000000000E+00 0. -1.
</event>
<event>
 8    1  0.3708258E-009  0.1087077E+03  0.7561462E-02  0.1262982E+00
         -1   -1    0    0    0  501 -0.00000000000E+00  0.00000000000E+00  0.24295102518E+02  0.24295102518E+02  0.00000000000E+00 0.  1.
          1   -1    0    0  501    0  0.00000000000E+00 -0.00000000000E+00 -0.62164855035E+03  0.62164855035E+03  0.00000000000E+00 0. -1.
         25    2    1    2    0    0 -0.25588181488E+02 -0.19405155567E+02 -0.47099438356E+03  0.48838068313E+03  0.12509463304E+03 0.  0.
         23    2    1    2    0    0  0.25588181488E+02  0.19405155567E+02 -0.12635906427E+03  0.15756296974E+03  0.88476896500E+02 0.  0.
          5    1    3    3  502    0  0.68320876766E+01 -0.65984046257E+02 -0.18013190438E+03  0.19200402902E+03  0.41800000000E+01 0.  1.
         -5    1    3    3    0  502 -0.32420269164E+02  0.46578890690E+02 -0.29086247918E+03  0.29637665411E+03  0.41800000000E+01 0.  1.
        -11    1    4    4    0    0  0.35919829589E+02  0.50105276437E+02 -0.85934054619E+02  0.10576121514E+03  0.00000000000E+00 0. -1.
         11    1    4    4    0    0 -0.10331648101E+02 -0.30700120870E+02 -0.40425009654E+02  0.51801754598E+02  0.00000000000E+00 0.  1.
</event>
<event>
 8    1  0.3708258E-009  0.1370136E+03  0.7561462E-02  0.1217405E+00
         -1   -1    0    0    0  501 -0.00000000000E+00  0.00000000000E+00  0.15218368961E+03  0.15218368961E+03  0.00000000000E+00 0. -1.
          1   -1    0    0  501    0  0.00000000000E+00 -0.00000000000E+00 -0.18798585927E+03  0.18798585927E+03  0.00000000000E+00 0.  1.
         25    2    1    2    0    0 -0.11200437128E+03  0.33646570228E+02 -0.78524953167E+02  0.18838977176E+03  0.12508983555E+03 0.  0.
         23    2    1    2    0    0  0.11200437128E+03 -0.33646570228E+02  0.42722783502E+02  0.15177977713E+03  0.86803189112E+02 0.  0.
          5    1    3    3  502    0 -0.28606439412E+02  0.46249523236E+02  0.20480710871E+02  0.58260438491E+02  0.41800000000E+01 0. -1.
         -5    1    3    3    0  502 -0.83397931868E+02 -0.12602953008E+02 -0.99005664038E+02  0.13012933326E+03  0.41800000000E+01 0. -1.
        -11    1    4    4    0    0  0.20435822711E+02 -0.38234810425E+02 -0.12029972811E+02  0.44991597259E+02  0.00000000000E+00 0.  1.
         11    1    4    4    0    0  0.91568548569E+02  0.45882401965E+01  0.54752756314E+02  0.10678817987E+03  0.00000000000E+00 0. -1.
</event>
<event>
 8    1  0.3708258E-009  0.1008063E+03  0.7561462E-02  0.1278610E+00
          1   -1    0    0  501    0  0.00000000000E+00  0.00000000000E+00  0.14302724629E+02  0.14302724629E+02  0.00000000000E+00 0. -1.
         -1   -1    0    0    0  501 -0.00000000000E+00 -0.00000000000E+00 -0.89947731352E+03  0.89947731352E+03  0.00000000000E+00 0.  1.
         25    2    1    2    0    0 -0.13362118656E+02 -0.44554405879E+00 -0.65101643383E+03  0.66305980944E+03  0.12508864480E+03 0.  0.
         23    2    1    2    0    0  0.13362118656E+02  0.44554405879E+00 -0.23415815506E+03  0.25072022871E+03  0.88610647080E+02 0.  0.
          5    1    3    3  502    0  0.37650801288E+02  0.41048477604E+02 -0.38359781419E+03  0.38764328422E+03  0.41800000000E+01 0.  1.
         -5    1    3    3    0  502 -0.51012919944E+02 -0.41494021662E+02 -0.26741861964E+03  0.27541652522E+03  0.41800000000E+01 0.  1.
        -11    1    4    4    0    0  0.32876832054E+02  0.29961384696E+02 -0.18423918784E+03  0.18953271220E+03  0.00000000000E+00 0.  1.
         11    1    4    4    0    0 -0.19514713398E+02 -0.29515840637E+02 -0.49918967226E+02  0.61187516508E+02  0.00000000000E+00 0. -1.
</event>
<event>
 8    1  0.3708258E-009  0.1782565E+03  0.7561462E-02  0.1169501E+00
          2   -1    0    0  501    0  0.00000000000E+00  0.00000000000E+00  0.50836376903E+03  0.50836376903E+03  0.00000000000E+00 0. -1.
         -2   -1    0    0    0  501 -0.00000000000E+00 -0.00000000000E+00 -0.87854800574E+02  0.87854800574E+02  0.00000000000E+00 0.  1.
         25    2    1    2    0    0  0.14340820406E+03  0.24769444843E+02  0.67676174424E+02  0.20347509654E+03  0.12507042792E+03 0.  0.
         23    2    1    2    0    0 -0.14340820406E+03 -0.24769444843E+02  0.35283279403E+03  0.39274347306E+03  0.92612184384E+02 0.  0.
          5    1    3    3  502    0  0.14169199233E+03  0.60178637406E+02  0.66544185706E+02  0.16776081230E+03  0.41800000000E+01 0.  1.
         -5    1    3    3    0  502  0.17162117261E+01 -0.35409192563E+02  0.11319887179E+01  0.35714284245E+02  0.41800000000E+01 0.  1.
        -11    1    4    4    0    0 -0.10721648050E+03  0.20190643085E+02  0.27495438471E+03  0.29580897456E+03  0.00000000000E+00 0. -1.
         11    1    4    4    0    0 -0.36191723564E+02 -0.44960087928E+02  0.77878409323E+02  0.96934498501E+02  0.00000000000E+00 0.  1.
</event>
<event>
 8    1  0.3708258E-009  0.5548304E+02  0.7561462E-02  0.1417828E+00
         -2   -1    0    0    0  501 -0.00000000000E+00  0.00000000000E+00  0.61839801383E+02  0.61839801383E+02  0.00000000000E+00 0.  1.
          2   -1    0    0  501    0  0.00000000000E+00 -0.00000000000E+00 -0.24753853946E+03  0.24753853946E+03  0.00000000000E+00 0. -1.
         25    2    1    2    0    0  0.16993686154E+02 -0.10416592785E+02 -0.17570408567E+03  0.21660401024E+03  0.12509228895E+03 0.  0.
         23    2    1    2    0    0 -0.16993686154E+02  0.10416592785E+02 -0.99946524038E+01  0.92774330602E+02  0.90054941939E+02 0.  0.
          5    1    3    3  502    0  0.10954836974E+02 -0.17303492118E+02  0.14941221058E+02  0.25693029780E+02  0.41800000000E+01 0. -1.
         -5    1    3    3    0  502  0.60388491802E+01  0.68868993322E+01 -0.19064530673E+03  0.19091098046E+03  0.41800000000E+01 0. -1.
        -11    1    4    4    0    0  0.18333062585E+02 -0.24317293578E+02  0.18489772480E+02  0.35627287815E+02  0.00000000000E+00 0.  1.
         11    1    4    4    0    0 -0.35326748739E+02  0.34733886363E+02 -0.28484424883E+02  0.57147042787E+02  0.00000000000E+00 0. -1.
</event>
<event>
 8    1  0.3708258E-009  0.3729397E+03  0.7561462E-02  0.1053575E+00
          2   -1    0    0  501    0  0.00000000000E+00  0.00000000000E+00  0.57164595106E+03  0.57164595106E+03  0.00000000000E+00 0. -1.
         -2   -1    0    0    0  501 -0.00000000000E+00 -0.00000000000E+00 -0.29950125754E+03  0.29950125754E+03  0.00000000000E+00 0.  1.
         25    2    1    2    0    0  0.11100053408E+03  0.35439581555E+03  0.29128104357E+03  0.48827139492E+03  0.12508715406E+03 0.  0.
         23    2    1    2    0    0 -0.11100053408E+03 -0.35439581555E+03 -0.19136350053E+02  0.38287581368E+03  0.91160167626E+02 0.  0.
          5    1    3    3  502    0  0.96735644437E+02  0.28597616329E+03  0.28941195230E+03  0.41823067966E+03  0.41800000000E+01 0. -1.
         -5    1    3    3    0  502  0.14264889639E+02  0.68419652258E+02  0.18690912638E+01  0.70040715257E+02  0.41800000000E+01 0. -1.
        -11    1    4    4    0    0 -0.10054763994E+02 -0.96022360861E+02  0.30134719605E+02  0.10114095802E+03  0.00000000000E+00 0.  1.
         11    1    4    4    0    0 -0.10094577008E+03 -0.25837345469E+03 -0.49271069658E+02  0.28173485566E+03  0.00000000000E+00 0. -1.
</event>
<event>
 8    1  0.3708258E-009  0.8909006E+02  0.7561462E-02  0.1305070E+00
         -2   -1    0    0    0  501 -0.00000000000E+00  0.00000000000E+00  0.55991078464E+02  0.55991078464E+02  0.00000000000E+00 0. -1.
          2   -1    0    0  501    0  0.00000000000E+00 -0.00000000000E+00 -0.24198377390E+03  0.24198377390E+03  0.00000000000E+00 0.  1.
         25    2    1    2    0    0 -0.21705143080E+02  0.31681589531E+02 -0.82504384452E+02  0.15469786296E+03  0.12509843724E+03 0.  0.
         23    2    1    2    0    0  0.21705143080E+02 -0.31681589531E+02 -0.10348831098E+03  0.14327698940E+03  0.91343466273E+02 0.  0.
          5    1    3    3  502    0 -0.12425503833E+02  0.59771891326E+02  0.58087104556E+01  0.61467761106E+02  0.41800000000E+01 0. -1.
         -5    1    3    3    0  502 -0.92796392471E+01 -0.28090301795E+02 -0.88313094907E+02  0.93230101853E+02  0.41800000000E+01 0. -1.
        -11    1    4    4    0    0  0.18381647265E+02 -0.57866166135E+02 -0.99529827359E+02  0.11658715484E+03  0.00000000000E+00 0.  1.
         11    1    4    4    0    0  0.33234958159E+01  0.26184576604E+02 -0.39584836218E+01  0.26689834562E+02  0.00000000000E+00 0. -1.
</event>
<event>
 8    1  0.3708258E-009  0.1033227E+03  0.7561462E-02  0.1273460E+00
         -1   -1    0    0    0  501 -0.00000000000E+00  0.00000000000E+00  0.42452939670E+02  0.42452939670E+02  0.00000000000E+00 0.  1.
          1   -1    0    0  501    0  0.00000000000E+00 -0.00000000000E+00 -0.31019868620E+03  0.31019868620E+03  0.00000000000E+00 0. -1.
         25    2    1    2    0    0 -0.35826642089E+02  0.12766472296E+02 -0.15667262699E+03  0.20405777742E+03  0.12508690331E+03 0.  0.
         23    2    1    2    0    0  0.35826642089E+02 -0.12766472296E+02 -0.11107311954E+03  0.14859384845E+03  0.91084371955E+02 0.  0.
          5    1    3    3  502    0  0.22562961433E+02  0.38689411964E+02 -0.13090093827E+02  0.46848487523E+02  0.41800000000E+01 0. -1.
         -5    1    3    3    0  502 -0.58389603523E+02 -0.25922939668E+02 -0.14358253317E+03  0.15720928990E+03  0.41800000000E+01 0. -1.
        -11    1    4    4    0    0 -0.27590091920E+02  0.11295272051E+02 -0.44424707839E+02  0.53500944005E+02  0.00000000000E+00 0.  1.
         11    1    4    4    0    0  0.63416734009E+02 -0.24061744346E+02 -0.66648411696E+02  0.95092904441E+02  0.00000000000E+00 0. -1.
</event>
<event>
 8    1  0.3708258E-009  0.1013987E+03  0.7561462E-02  0.1277382E+00
         -3   -1    0    0    0  501 -0.00000000000E+00  0.00000000000E+00  0.23628949283E+03  0.23628949283E+03  0.00000000000E+00 0.  1.
          3   -1    0    0  501    0  0.00000000000E+00 -0.00000000000E+00 -0.58973132456E+02  0.58973132456E+02  0.00000000000E+00 0. -1.
         25    2    1    2    0    0  0.24350743623E+02  0.22244339117E+02  0.14509411795E+03  0.19438930009E+03  0.12508847904E+03 0.  0.
         23    2    1    2    0    0 -0.24350743623E+02 -0.22244339117E+02  0.32222242420E+02  0.10087332519E+03  0.89718367634E+02 0.  0.
          5    1    3    3  502    0 -0.40936515260E+02  0.54411363001E+01  0.90241216218E+01  0.42477187017E+02  0.41800000000E+01 0. -1.
         -5    1    3    3    0  502  0.65287258883E+02  0.16803202817E+02  0.13606999633E+03  0.15191211307E+03  0.41800000000E+01 0. -1.
        -11    1    4    4    0    0  0.29114500804E+02 -0.27466403781E+02  0.23602512892E+02  0.46466505232E+02  0.00000000000E+00 0.  1.
         11    1    4    4    0    0 -0.53465244426E+02  0.52220646635E+01  0.86197295281E+01  0.54406819959E+02  0.00000000000E+00 0. -1.
</event>
<event>
 8    1  0.3708258E-009  0.1564729E+03  0.7561462E-02  0.1192737E+00
         -2   -1    0    0    0  501 -0.00000000000E+00  0.00000000000E+00  0.20069872774E+02  0.20069872774E+02  0.00000000000E+00 0.  1.
          2   -1    0    0  501    0  0.00000000000E+00 -0.00000000000E+00 -0.15564643060E+04  0.15564643060E+04  0.00000000000E+00 0. -1.
         25    2    1    2    0    0 -0.78327968541E+02 -0.11528589341E+03 -0.78715404394E+03  0.80912630728E+03  0.12509110430E+03 0.  0.
         23    2    1    2    0    0  0.78327968541E+02  0.11528589341E+03 -0.74924038931E+03  0.76740787151E+03  0.90153049933E+02 0.  0.
          5    1    3    3  502    0 -0.58507037136E+02 -0.44139311898E+02 -0.14302771089E+03  0.16076613677E+03  0.41800000000E+01 0. -1.
         -5    1    3    3    0  502 -0.19820931404E+02 -0.71146581510E+02 -0.64412633305E+03  0.64836017051E+03  0.41800000000E+01 0. -1.
        -11    1    4    4    0    0  0.88961150029E+02  0.55532899025E+02 -0.50067323677E+03  0.51153854118E+03  0.00000000000E+00 0. -1.
         11    1    4    4    0    0 -0.10633181489E+02  0.59752994383E+02 -0.24856715253E+03  0.25586933033E+03  0.00000000000E+00 0.  1.
</event>
<event>
 8    1  0.3708258E-009  0.1080524E+03  0.7561462E-02  0.1264220E+00
         -1   -1    0    0    0  501 -0.00000000000E+00  0.00000000000E+00  0.38416607949E+03  0.38416607949E+03  0.00000000000E+00 0.  1.
          1   -1    0    0  501    0  0.00000000000E+00 -0.00000000000E+00 -0.43636616574E+02  0.43636616574E+02  0.00000000000E+00 0. -1.
         25    2    1    2    0    0 -0.19771630541E+02  0.17759011022E+02  0.29681828017E+03  0.32319407906E+03  0.12508805477E+03 0.  0.
         23    2    1    2    0    0  0.19771630541E+02 -0.17759011022E+02  0.43711182746E+02  0.10460861701E+03  0.91246892595E+02 0.  0.
          5    1    3    3  502    0  0.18803515656E+02 -0.45359070541E+02  0.16235940497E+03  0.16967341059E+03  0.41800000000E+01 0.  1.
         -5    1    3    3    0  502 -0.38575146197E+02  0.63118081563E+02  0.13445887520E+03  0.15352066846E+03  0.41800000000E+01 0.  1.
        -11    1    4    4    0    0  0.21387344314E+02  0.34423819918E+02  0.30594277371E+02  0.50778220552E+02  0.00000000000E+00 0.  1.
         11    1    4    4    0    0 -0.16157137727E+01 -0.52182830940E+02  0.13116905375E+02  0.53830396455E+02  0.00000000000E+00 0. -1.
</event>
<event>
 8    1  0.3708258E-009  0.1370646E+03  0.7561462E-02  0.1217334E+00
         -1   -1    0    0    0  501 -0.00000000000E+00  0.00000000000E+00  0.29165899900E+02  0.29165899900E+02  0.00000000000E+00 0.  1.
          1   -1    0    0  501    0  0.00000000000E+00 -0.00000000000E+00 -0.72506314648E+03  0.72506314648E+03  0.00000000000E+00 0. -1.
         25    2    1    2    0    0  0.62754157883E+02 -0.76787686851E+02 -0.33426360086E+03  0.37042386884E+03  0.12508898657E+03 0.  0.
         23    2    1    2    0    0 -0.62754157883E+02  0.76787686851E+02 -0.36163364572E+03  0.38380517754E+03  0.81811291445E+02 0.  0.
          5    1    3    3  502    0  0.63322380168E+02 -0.10611944075E+03 -0.21985167346E+03  0.25223657597E+03  0.41800000000E+01 0. -1.
         -5    1    3    3    0  502 -0.56822228432E+00  0.29331753899E+02 -0.11441192740E+03  0.11818729286E+03  0.41800000000E+01 0. -1.
        -11    1    4    4    0    0 -0.39092597842E+02  0.86768544847E+02 -0.21761473798E+03  0.23751460117E+03  0.00000000000E+00 0.  1.
         11    1    4    4    0    0 -0.23661560042E+02 -0.99808579962E+01 -0.14401890774E+03  0.14629057637E+03  0.00000000000E+00 0. -1.
</event>
<event>
 8    1  0.3708258E-009  0.1667932E+03  0.7561462E-02  0.1181234E+00
          1   -1    0    0  501    0  0.00000000000E+00  0.00000000000E+00  0.19199819635E+03  0.19199819635E+03  0.00000000000E+00 0. -1.
         -1   -1    0    0    0  501 -0.00000000000E+00 -0.00000000000E+00 -0.29486141852E+03  0.29486141852E+03  0.00000000000E+00 0.  1.
         25    2    1    2    0    0  0.46175664482E+02 -0.13048653845E+03  0.11076602219E+03  0.21697000982E+03  0.12509174547E+03 0.  0.
         23    2    1    2    0    0 -0.46175664482E+02  0.13048653845E+03 -0.21362924437E+03  0.26988960505E+03  0.89688439384E+02 0.  0.
          5    1    3    3  502    0 -0.24944869659E+02 -0.83775983956E+02  0.97056340980E+02  0.13068308129E+03  0.41800000000E+01 0. -1.
         -5    1    3    3    0  502  0.71120534141E+02 -0.46710554494E+02  0.13709681211E+02  0.86286928538E+02  0.41800000000E+01 0. -1.
        -11    1    4    4    0    0 -0.18754861633E+02 -0.75008493055E+01 -0.10407753441E+02  0.22722871889E+02  0.00000000000E+00 0. -1.
         11    1    4    4    0    0 -0.27420802849E+02  0.13798738775E+03 -0.20322149092E+03  0.24716673316E+03  0.00000000000E+00 0.  1.
</event>
<event>
 8    1  0.3708258E-009  0.1954088E+03  0.7561462E-02  0.1153671E+00
          2   -1    0    0  501    0  0.00000000000E+00  0.00000000000E+00  0.18412925465E+04  0.18412925465E+04  0.00000000000E+00 0. -1.
         -2   -1    0    0    0  501 -0.00000000000E+00 -0.00000000000E+00 -0.24946949191E+02  0.24946949191E+02  0.00000000000E+00 0.  1.
         25    2    1    2    0    0  0.26425561271E+02 -0.16001350836E+03  0.13115641164E+04  0.13274605615E+04  0.12509387525E+03 0.  0.
         23    2    1    2    0    0 -0.26425561271E+02  0.16001350836E+03  0.50478148084E+03  0.53877893418E+03  0.95790204966E+02 0.  0.
          5    1    3    3  502    0 -0.26312175960E+02 -0.14529100334E+03  0.10360714928E+04  0.10465483347E+04  0.41800000000E+01 0.  1.
         -5    1    3    3    0  502  0.52737737231E+02 -0.14722505012E+02  0.27549262362E+03  0.28091222678E+03  0.41800000000E+01 0.  1.
        -11    1    4    4    0    0  0.36243410463E+02  0.63514203022E+02  0.18520992649E+03  0.19912397057E+03  0.00000000000E+00 0. -1.
         11    1    4    4    0    0 -0.62668971734E+02  0.96499305333E+02  0.31957155435E+03  0.33965496360E+03  0.00000000000E+00 0.  1.
</event>
<event>
 8    1  0.3708258E-009  0.8298884E+02  0.7561462E-02  0.1320777E+00
          1   -1    0    0  501    0  0.00000000000E+00  0.00000000000E+00  0.24968819621E+03  0.24968819621E+03  0.00000000000E+00 0. -1.
         -1   -1    0    0    0  501 -0.00000000000E+00 -0.00000000000E+00 -0.51467511364E+02  0.51467511364E+02  0.00000000000E+00 0.  1.
         25    2    1    2    0    0 -0.28001854884E+02 -0.22808840737E+02  0.12075077354E+03  0.17757586691E+03  0.12509233431E+03 0.  0.
         23    2    1    2    0    0  0.28001854884E+02  0.22808840737E+02  0.77469911298E+02  0.12357984066E+03  0.89252690544E+02 0.  0.
          5    1    3    3  502    0  0.18207839710E+02 -0.12174261377E+02 -0.19403523524E+02  0.29558538396E+02  0.41800000000E+01 0.  1.
         -5    1    3    3    0  502 -0.46209694593E+02 -0.10634579360E+02  0.14015429707E+03  0.14801732851E+03  0.41800000000E+01 0.  1.
        -11    1    4    4    0    0  0.42725535463E+02 -0.22605028699E+02  0.34945237127E+02  0.59645857367E+02  0.00000000000E+00 0.  1.
         11    1    4    4    0    0 -0.14723680579E+02  0.45413869436E+02  0.42524674171E+02  0.63933983298E+02  0.00000000000E+00 0. -1.
</event>
<event>
 8    1  0.3708258E-009  0.1573114E+03  0.7561462E-02  0.1191766E+00
          1   -1    0    0  501    0  0.00000000000E+00  0.00000000000E+00  0.56156399021E+03  0.56156399021E+03  0.00000000000E+00 0. -1.
         -1   -1    0    0    0  501 -0.00000000000E+00 -0.00000000000E+00 -0.52024885927E+02  0.52024885927E+02  0.00000000000E+00 0.  1.
         25    2    1    2    0    0 -0.12575431545E+03 -0.34962867408E+02  0.23994232955E+03  0.30042844296E+03  0.12509347657E+03 0.  0.
         23    2    1    2    0    0  0.12575431545E+03  0.34962867408E+02  0.26959677472E+03  0.31316043317E+03  0.91380993703E+02 0.  0.
          5    1    3    3  502    0  0.33275414967E+01 -0.33898652758E+02  0.11768717347E+03  0.12258847576E+03  0.41800000000E+01 0. -1.
         -5    1    3    3    0  502 -0.12908185694E+03 -0.10642146499E+01  0.12225515609E+03  0.17783996720E+03  0.41800000000E+01 0. -1.
        -11    1    4    4    0    0  0.74603155468E+02 -0.18808061150E+02  0.87461649574E+02  0.11648568202E+03  0.00000000000E+00 0.  1.
         11    1    4    4    0    0  0.51151159977E+02  0.53770928558E+02  0.18213512515E+03  0.19667475115E+03  0.00000000000E+00 0. -1.
</event>
<event>
 8    1  0.3708258E-009  0.1748185E+03  0.7561462E-02  0.1172914E+00
          1   -1    0    0  501    0  0.00000000000E+00  0.00000000000E+00  0.54317174848E+02  0.54317174848E+02  0.00000000000E+00 0. -1.
         -1   -1    0    0    0  501 -0.00000000000E+00 -0.00000000000E+00 -0.65727468533E+03  0.65727468533E+03  0.00000000000E+00 0.  1.
         25    2    1    2    0    0 -0.14948544874E+03  0.47095013029E+00 -0.23981324033E+03  0.30903723480E+03  0.12508997192E+03 0.  0.
         23    2    1    2    0    0  0.14948544874E+03 -0.47095013029E+00 -0.36314427016E+03  0.40255462539E+03  0.88489232633E+02 0.  0.
          5    1    3    3  502    0 -0.10947676281E+03  0.58580690587E+02 -0.15135788627E+03  0.19581506848E+03  0.41800000000E+01 0. -1.
         -5    1    3    3    0  502 -0.40008685927E+02 -0.58109740457E+02 -0.88455354053E+02  0.11322216632E+03  0.41800000000E+01 0. -1.
        -11    1    4    4    0    0  0.63882694350E+01  0.93158705350E+01  0.84243977857E+00  0.11327185660E+02  0.00000000000E+00 0. -1.
         11    1    4    4    0    0  0.14309717930E+03 -0.97868206653E+01 -0.36398670994E+03  0.39122743973E+03  0.00000000000E+00 0.  1.
</event>
<event>
 8    1  0.3708258E-009  0.9312429E+02  0.7561462E-02  0.1295457E+00
          1   -1    0    0  501    0  0.00000000000E+00  0.00000000000E+00  0.85867019377E+02  0.85867019377E+02  0.00000000000E+00 0. -1.
         -1   -1    0    0    0  501 -0.00000000000E+00 -0.00000000000E+00 -0.17536121552E+03  0.17536121552E+03  0.00000000000E+00 0.  1.
         25    2    1    2    0    0 -0.44987158667E+02  0.32781384016E+02 -0.32436705327E+02  0.14070750865E+03  0.12509196439E+03 0.  0.
         23    2    1    2    0    0  0.44987158667E+02 -0.32781384016E+02 -0.57057490814E+02  0.12052072625E+03  0.90394826259E+02 0.  0.
          5    1    3    3  502    0 -0.67953298838E+02  0.23106243930E+01  0.24197558607E+02  0.72290967974E+02  0.41800000000E+01 0.  1.
         -5    1    3    3    0  502  0.22966140171E+02  0.30470759623E+02 -0.56634263934E+02  0.68416540674E+02  0.41800000000E+01 0.  1.
        -11    1    4    4    0    0  0.41813443942E+02  0.47457233328E+01  0.10322942676E+02  0.43329541075E+02  0.00000000000E+00 0. -1.
         11    1    4    4    0    0  0.31737147243E+01 -0.37527107348E+02 -0.67380433490E+02  0.77191185173E+02  0.00000000000E+00 0.  1.
</event>
<event>
 8    1  0.3708258E-009  0.2676978E+03  0.7561462E-02  0.1102604E+00
         -1   -1    0    0    0  501 -0.00000000000E+00  0.00000000000E+00  0.20023734158E+03  0.20023734158E+03  0.00000000000E+00 0.  1.
          1   -1    0    0  501    0  0.00000000000E+00 -0.00000000000E+00 -0.50082869796E+03  0.50082869796E+03  0.00000000000E+00 0. -1.
         25    2    1    2    0    0 -0.23868361231E+03 -0.10421669187E+03  0.49766629569E+01  0.28896706135E+03  0.12508481012E+03 0.  0.
         23    2    1    2    0    0  0.23868361231E+03  0.10421669187E+03 -0.30556801933E+03  0.41209897819E+03  0.92858859214E+02 0.  0.
          5    1    3    3  502    0 -0.22293546364E+03 -0.10395220330E+03 -0.32450057473E+02  0.24814665049E+03  0.41800000000E+01 0.  1.
         -5    1    3    3    0  502 -0.15748148665E+02 -0.26448857272E+00  0.37426720430E+02  0.40820410859E+02  0.41800000000E+01 0.  1.
        -11    1    4    4    0    0  0.18645444869E+03  0.40688500889E+02 -0.18234550901E+03  0.26395207936E+03  0.00000000000E+00 0.  1.
         11    1    4    4    0    0  0.52229163613E+02  0.63528190985E+02 -0.12322251033E+03  0.14814689883E+03  0.00000000000E+00 0. -1.
</event>
<event>
 8    1  0.3708258E-009  0.1801294E+03  0.7561462E-02  0.1167678E+00
         -2   -1    0    0    0  501 -0.00000000000E+00  0.00000000000E+00  0.17054628082E+02  0.17054628082E+02  0.00000000000E+00 0.  1.
          2   -1    0    0  501    0  0.00000000000E+00 -0.00000000000E+00 -0.25166579452E+04  0.25166579452E+04  0.00000000000E+00 0. -1.
         25    2    1    2    0    0 -0.14687097494E+03 -0.27092520155E+02 -0.18529151648E+04  0.18631277970E+04  0.12508194100E+03 0.  0.
         23    2    1    2    0    0  0.14687097494E+03  0.27092520155E+02 -0.64668815234E+03  0.67058477634E+03  0.95777283048E+02 0.  0.
          5    1    3    3  502    0 -0.16355805416E+03 -0.10278004391E+02 -0.13983378381E+04  0.14079144350E+04  0.41800000000E+01 0. -1.
         -5    1    3    3    0  502  0.16687079223E+02 -0.16814515764E+02 -0.45457732676E+03  0.45521336201E+03  0.41800000000E+01 0. -1.
        -11    1    4    4    0    0  0.12790340270E+03  0.54424280038E+02 -0.57485566763E+03  0.59142228677E+03  0.00000000000E+00 0. -1.
         11    1    4    4    0    0  0.18967572235E+02 -0.27331759883E+02 -0.71832484713E+02  0.79162489570E+02  0.00000000000E+00 0.  1.
</event>
<event>
 8    1  0.3708258E-009  0.1244143E+03  0.7561462E-02  0.1235988E+00
         -2   -1    0    0    0  501 -0.00000000000E+00  0.00000000000E+00  0.42724636372E+02  0.42724636372E+02  0.00000000000E+00 0.  1.
          2   -1    0    0  501    0  0.00000000000E+00 -0.00000000000E+00 -0.36752588871E+03  0.36752588871E+03  0.00000000000E+00 0. -1.
         25    2    1    2    0    0  0.61482105196E+02  0.12399056870E+02 -0.19060058049E+03  0.23645725369E+03  0.12509862375E+03 0.  0.
         23    2    1    2    0    0 -0.61482105196E+02 -0.12399056870E+02 -0.13420067184E+03  0.17379327139E+03  0.90887265272E+02 0.  0.
          5    1    3    3  502    0  0.95314863772E+02 -0.13470253940E+02 -0.14318520692E+03  0.17258576673E+03  0.41800000000E+01 0.  1.
         -5    1    3    3    0  502 -0.33832758576E+02  0.25869310810E+02 -0.47415373572E+02  0.63871486953E+02  0.41800000000E+01 0.  1.
        -11    1    4    4    0    0 -0.52508823312E+02 -0.49106577703E+02 -0.78092325181E+02  0.10614633179E+03  0.00000000000E+00 0. -1.
         11    1    4    4    0    0 -0.89732818849E+01  0.36707520834E+02 -0.56108346659E+02  0.67646939608E+02  0.00000000000E+00 0.  1.
</event>
<event>
 8    1  0.3708258E-009  0.7721514E+02  0.7561462E-02  0.1337146E+00
          2   -1    0    0  501    0  0.00000000000E+00  0.00000000000E+00  0.23521883694E+03  0.23521883694E+03  0.00000000000E+00 0. -1.
         -2   -1    0    0    0  501 -0.00000000000E+00 -0.00000000000E+00 -0.64967949577E+02  0.64967949577E+02  0.00000000000E+00 0.  1.
         25    2    1    2    0    0  0.54517013627E+01 -0.30530950915E+02  0.15770605807E+03  0.20366743556E+03  0.12508942220E+03 0.  0.
         23    2    1    2    0    0 -0.54517013627E+01  0.30530950915E+02  0.12544829299E+02  0.96519350957E+02  0.90535917488E+02 0.  0.
          5    1    3    3  502    0 -0.46546994372E+02 -0.11670579477E+02  0.13569106461E+03  0.14398736933E+03  0.41800000000E+01 0. -1.
         -5    1    3    3    0  502  0.51998695735E+02 -0.18860371438E+02  0.22014993455E+02  0.59680066234E+02  0.41800000000E+01 0. -1.
        -11    1    4    4    0    0 -0.18880662709E+02  0.16662854328E+01  0.46354653536E+02  0.50080034304E+02  0.00000000000E+00 0. -1.
         11    1    4    4    0    0  0.13428961347E+02  0.28864665482E+02 -0.33809824237E+02  0.46439316653E+02  0.00000000000E+00 0.  1.
</event>
<event>
 8    1  0.3708258E-009  0.1030090E+03  0.7561462E-02  0.1274093E+00
         -1   -1    0    0    0  501 -0.00000000000E+00  0.00000000000E+00  0.25171394609E+02  0.25171394609E+02  0.00000000000E+00 0.  1.
          1   -1    0    0  501    0  0.00000000000E+00 -0.00000000000E+00 -0.52137338129E+03  0.52137338129E+03  0.00000000000E+00 0. -1.
         25    2    1    2    0    0  0.25031179431E+02  0.91490303001E+00 -0.35965803458E+03  0.38161573185E+03  0.12509703421E+03 0.  0.
         23    2    1    2    0    0 -0.25031179431E+02 -0.91490303001E+00 -0.13654395210E+03  0.16492904405E+03  0.89050220230E+02 0.  0.
          5    1    3    3  502    0  0.57013679861E+02 -0.43036845800E+02 -0.17457905195E+03  0.18867444863E+03  0.41800000000E+01 0. -1.
         -5    1    3    3    0  502 -0.31982500430E+02  0.43951748830E+02 -0.18507898263E+03  0.19294128322E+03  0.41800000000E+01 0. -1.
        -11    1    4    4    0    0  0.14982536882E+02  0.27192017909E+02 -0.16176063280E+02  0.35007817307E+02  0.00000000000E+00 0.  1.
         11    1    4    4    0    0 -0.40013716313E+02 -0.28106920939E+02 -0.12036788882E+03  0.12992122674E+03  0.00000000000E+00 0. -1.
</event>
<event>
 8    1  0.3708258E-009  0.9013896E+02  0.7561462E-02  0.1302516E+00
          1   -1    0    0  501    0  0.00000000000E+00  0.00000000000E+00  0.62055686823E+02  0.62055686823E+02  0.00000000000E+00 0. -1.
         -1   -1    0    0    0  501 -0.00000000000E+00 -0.00000000000E+00 -0.20355820844E+03  0.20355820844E+03  0.00000000000E+00 0.  1.
         25    2    1    2    0    0 -0.16586522527E+02 -0.86779326632E+01 -0.63278280699E+02  0.14142776073E+03  0.12508897415E+03 0.  0.
         23    2    1    2    0    0  0.16586522527E+02  0.86779326632E+01 -0.78224240919E+02  0.12418613453E+03  0.94618945764E+02 0.  0.
          5    1    3    3  502    0 -0.43240903130E+01 -0.56162239684E+02 -0.71926612724E+02  0.91453840495E+02  0.41800000000E+01 0. -1.
         -5    1    3    3    0  502 -0.12262432214E+02  0.47484307021E+02  0.86483320254E+01  0.49973920237E+02  0.41800000000E+01 0. -1.
        -11    1    4    4    0    0  0.24796951593E+02 -0.27760463537E+02 -0.78450779888E+02  0.86833501652E+02  0.00000000000E+00 0.  1.
         11    1    4    4    0    0 -0.82104290659E+01  0.36438396201E+02  0.22653896835E+00  0.37352632879E+02  0.00000000000E+00 0. -1.
</event>
<event>
 8    1  0.3708258E-009  0.1338552E+03  0.7561462E-02  0.1221845E+00
         -2   -1    0    0    0  501 -0.00000000000E+00  0.00000000000E+00  0.31026383591E+02  0.31026383591E+02  0.00000000000E+00 0.  1.
          2   -1    0    0  501    0  0.00000000000E+00 -0.00000000000E+00 -0.79235519457E+03  0.79235519457E+03  0.00000000000E+00 0. -1.
         25    2    1    2    0    0  0.16995697193E+02  0.10047497910E+03 -0.27929075711E+03  0.32254281356E+03  0.12508582825E+03 0.  0.
         23    2    1    2    0    0 -0.16995697193E+02 -0.10047497910E+03 -0.48203805387E+03  0.50083876460E+03  0.89970592933E+02 0.  0.
          5    1    3    3  502    0  0.43806336045E+02  0.10930951675E+03 -0.15326519890E+03  0.19332681946E+03  0.41800000000E+01 0.  1.
         -5    1    3    3    0  502 -0.26810638853E+02 -0.88345376446E+01 -0.12602555820E+03  0.12921599410E+03  0.41800000000E+01 0.  1.
        -11    1    4    4    0    0  0.18925730694E+02 -0.74872586710E+02 -0.40292214103E+03  0.41025643110E+03  0.00000000000E+00 0. -1.
         11    1    4    4    0    0 -0.35921427886E+02 -0.25602392391E+02 -0.79115912841E+02  0.90582333500E+02  0.00000000000E+00 0.  1.
</event>
<event>
 8    1  0.3708258E-009  0.1202588E+03  0.7561462E-02  0.1242671E+00
         -3   -1    0    0    0  501 -0.00000000000E+00  0.00000000000E+00  0.62947107014E+02  0.62947107014E+02  0.00000000000E+00 0.  1.
          3   -1    0    0  501    0  0.00000000000E+00 -0.00000000000E+00 -0.39041666394E+03  0.39041666394E+03  0.00000000000E+00 0. -1.
         25    2    1    2    0    0 -0.79489395537E+01 -0.90224454705E+02 -0.27241084650E+03  0.31314381672E+03  0.12509093807E+03 0.  0.
         23    2    1    2    0    0  0.79489395537E+01  0.90224454705E+02 -0.55058710422E+02  0.14021995424E+03  0.91796166080E+02 0.  0.
          5    1    3    3  502    0 -0.26812864287E+02 -0.11520563114E+03 -0.17947346974E+03  0.21498712956E+03  0.41800000000E+01 0.  1.
         -5    1    3    3    0  502  0.18863924734E+02  0.24981176437E+02 -0.92937376769E+02  0.98156687155E+02  0.41800000000E+01 0.  1.
        -11    1    4    4    0    0  0.57525300641E+01  0.60830781009E+02 -0.80651733224E+02  0.10118388010E+03  0.00000000000E+00 0. -1.
         11    1    4    4    0    0  0.21964094897E+01  0.29393673696E+02  0.25593022802E+02  0.39036074138E+02  0.00000000000E+00 0.  1.
</event>
<event>
 8    1  0.3708258E-009  0.6840949E+02  0.7561462E-02  0.1365587E+00
         -4   -1    0    0    0  501 -0.00000000000E+00  0.00000000000E+00  0.19696222686E+03  0.19696222686E+03  0.00000000000E+00 0.  1.
          4   -1    0    0  501    0  0.00000000000E+00 -0.00000000000E+00 -0.94653826678E+02  0.94653826678E+02  0.00000000000E+00 0. -1.
         25    2    1    2    0    0 -0.67540248664E+02  0.32602513196E+00  0.10821851694E+03  0.17867113083E+03  0.12510129537E+03 0.  0.
         23    2    1    2    0    0  0.67540248664E+02 -0.32602513196E+00 -0.59101167565E+01  0.11294492270E+03  0.90331802830E+02 0.  0.
          5    1    3    3  502    0 -0.22651978292E+02  0.59819099676E+01 -0.27018763759E+02  0.36005296311E+02  0.41800000000E+01 0.  1.
         -5    1    3    3    0  502 -0.44888270372E+02 -0.56558848357E+01  0.13523728069E+03  0.14266583452E+03  0.41800000000E+01 0.  1.
        -11    1    4    4    0    0  0.23492238969E+02  0.10425167801E+01  0.41822119051E+02  0.47979805908E+02  0.00000000000E+00 0.  1.
         11    1    4    4    0    0  0.44048009694E+02 -0.13685419120E+01 -0.47732235808E+02  0.64965116795E+02  0.00000000000E+00 0. -1.
</event>
<event>
 8    1  0.3708258E-009  0.1494329E+03  0.7561462E-02  0.1201172E+00
         -1   -1    0    0    0  501 -0.00000000000E+00  0.00000000000E+00  0.13295118085E+03  0.13295118085E+03  0.00000000000E+00 0.  1.
          1   -1    0    0  501    0  0.00000000000E+00 -0.00000000000E+00 -0.20900779752E+03  0.20900779752E+03  0.00000000000E+00 0. -1.
         25    2    1    2    0    0  0.71717725031E+02 -0.96891863747E+02 -0.76534105659E+02  0.18983339623E+03  0.12509110141E+03 0.  0.
         23    2    1    2    0    0 -0.71717725031E+02  0.96891863747E+02  0.47748899000E+00  0.15212558215E+03  0.92792776676E+02 0.  0.
          5    1    3    3  502    0 -0.28354587402E+02 -0.67362914919E+00  0.45214175329E+01  0.29023301320E+02  0.41800000000E+01 0. -1.
         -5    1    3    3    0  502  0.10007231243E+03 -0.96218234598E+02 -0.81055523192E+02  0.16081009491E+03  0.41800000000E+01 0. -1.
        -11    1    4    4    0    0 -0.47392472546E+00  0.40354639104E+02 -0.36049399588E+02  0.54113590830E+02  0.00000000000E+00 0. -1.
         11    1    4    4    0    0 -0.71243800306E+02  0.56537224643E+02  0.36526888578E+02  0.98011991315E+02  0.00000000000E+00 0.  1.
</event>
<event>
 8    1  0.3708258E-009  0.2018603E+03  0.7561462E-02  0.1148179E+00
         -1   -1    0    0    0  501 -0.00000000000E+00  0.00000000000E+00  0.32168880111E+02  0.32168880111E+02  0.00000000000E+00 0.  1.
          1   -1    0    0  501    0  0.00000000000E+00 -0.00000000000E+00 -0.15048091186E+04  0.15048091186E+04  0.00000000000E+00 0. -1.
         25    2    1    2    0    0 -0.14279073410E+03  0.11318069286E+03 -0.55768932094E+03  0.59988703819E+03  0.12509203378E+03 0.  0.
         23    2    1    2    0    0  0.14279073410E+03 -0.11318069286E+03 -0.91495091754E+03  0.93709096051E+03  0.88347177552E+02 0.  0.
          5    1    3    3  502    0 -0.15856740379E+03  0.10100224585E+03 -0.54337700892E+03  0.57499662732E+03  0.41800000000E+01 0.  1.
         -5    1    3    3    0  502  0.15776669681E+02  0.12178447013E+02 -0.14312312025E+02  0.24890410872E+02  0.41800000000E+01 0.  1.
        -11    1    4    4    0    0  0.71237620521E+02 -0.99636562101E+02 -0.68563437978E+03  0.69648886985E+03  0.00000000000E+00 0.  1.
         11    1    4    4    0    0  0.71553113583E+02 -0.13544130763E+02 -0.22931653776E+03  0.24060209066E+03  0.00000000000E+00 0. -1.
</event>
<event>
 8    1  0.3708258E-009  0.1698568E+03  0.7561462E-02  0.1177997E+00
          2   -1    0    0  501    0  0.00000000000E+00  0.00000000000E+00  0.80870968329E+03  0.80870968329E+03  0.00000000000E+00 0. -1.
         -2   -1    0    0    0  501 -0.00000000000E+00 -0.00000000000E+00 -0.40304460885E+02  0.40304460885E+02  0.00000000000E+00 0.  1.
         25    2    1    2    0    0 -0.68719363717E+02 -0.12628780253E+03  0.38079355198E+03  0.42582081459E+03  0.12509467173E+03 0.  0.
         23    2    1    2    0    0  0.68719363717E+02  0.12628780253E+03  0.38761167043E+03  0.42319332958E+03  0.90436868219E+02 0.  0.
          5    1    3    3  502    0 -0.10069577647E+03 -0.10966857633E+03  0.34021119400E+03  0.37138654385E+03  0.41800000000E+01 0. -1.
         -5    1    3    3    0  502  0.31976412749E+02 -0.16619226201E+02  0.40582357974E+02  0.54434270735E+02  0.41800000000E+01 0. -1.
        -11    1    4    4    0    0  0.31704965079E+02  0.11245358364E+02  0.17875460467E+03  0.18189247260E+03  0.00000000000E+00 0.  1.
         11    1    4    4    0    0  0.37014398638E+02  0.11504244417E+03  0.20885706575E+03  0.24130085698E+03  0.00000000000E+00 0. -1.
</event>
<event>
 8    1  0.3708258E-009  0.2279000E+03  0.7561462E-02  0.1128127E+00
          1   -1    0    0  501    0  0.00000000000E+00  0.00000000000E+00  0.21150886916E+03  0.21150886916E+03  0.00000000000E+00 0. -1.
         -1   -1    0    0    0  501 -0.00000000000E+00 -0.00000000000E+00 -0.27193126518E+03  0.27193126518E+03  0.00000000000E+00 0.  1.
         25    2    1    2    0    0 -0.13569855728E+02  0.20701887805E+03  0.18840135904E+02  0.24298846556E+03  0.12508991495E+03 0.  0.
         23    2    1    2    0    0  0.13569855728E+02 -0.20701887805E+03 -0.79262531923E+02  0.24045166878E+03  0.92160182275E+02 0.  0.
          5    1    3    3  502    0  0.25523535270E+02  0.18048536288E+03  0.46387337419E+02  0.18813738209E+03  0.41800000000E+01 0. -1.
         -5    1    3    3    0  502 -0.39093390997E+02  0.26533515169E+02 -0.27547201515E+02  0.54851083473E+02  0.41800000000E+01 0. -1.
        -11    1    4    4    0    0  0.48947135833E+02 -0.15920984982E+03 -0.68051382403E+02  0.17992940013E+03  0.00000000000E+00 0.  1.
         11    1    4    4    0    0 -0.35377280105E+02 -0.47809028230E+02 -0.11211149521E+02  0.60522268642E+02  0.00000000000E+00 0. -1.
</event>
<event>
 8    1  0.3708258E-009  0.6923940E+02  0.7561462E-02  0.1362699E+00
         -4   -1    0    0    0  501 -0.00000000000E+00  0.00000000000E+00  0.10803699589E+03  0.10803699589E+03  0.00000000000E+00 0.  1.
          4   -1    0    0  501    0  0.00000000000E+00 -0.00000000000E+00 -0.13829038093E+03  0.13829038093E+03  0.00000000000E+00 0. -1.
         25    2    1    2    0    0  0.50067251331E+02  0.10663693221E+02 -0.48170088296E+02  0.14349053667E+03  0.12509489477E+03 0.  0.
         23    2    1    2    0    0 -0.50067251331E+02 -0.10663693221E+02  0.17916703254E+02  0.10283684016E+03  0.87372555356E+02 0.  0.
          5    1    3    3  502    0  0.47359480955E+01 -0.91573597238E+01 -0.82422933233E+02  0.83170299772E+02  0.41800000000E+01 0. -1.
         -5    1    3    3    0  502  0.45331303235E+02  0.19821052945E+02  0.34252844937E+02  0.60320236896E+02  0.41800000000E+01 0. -1.
        -11    1    4    4    0    0 -0.60246765683E+02 -0.20409512618E+02  0.41081120461E+02  0.75722384002E+02  0.00000000000E+00 0.  1.
         11    1    4    4    0    0  0.10179514352E+02  0.97458193969E+01 -0.23164417207E+02  0.27114456157E+02  0.00000000000E+00 0. -1.
</event>
<event>
 8    1  0.3708258E-009  0.1096813E+03  0.7561462E-02  0.1261161E+00
          2   -1    0    0  501    0  0.00000000000E+00  0.00000000000E+00  0.71780530620E+03  0.71780530620E+03  0.00000000000E+00 0. -1.
         -2   -1    0    0    0  501 -0.00000000000E+00 -0.00000000000E+00 -0.19386088759E+02  0.19386088759E+02  0.00000000000E+00 0.  1.
         25    2    1    2    0    0 -0.40856611496E+02 -0.49792573736E+01  0.33146498197E+03  0.35666549600E+03  0.12508871277E+03 0.  0.
         23    2    1    2    0    0  0.40856611496E+02  0.49792573736E+01  0.36695423548E+03  0.38052589896E+03  0.91926563825E+02 0.  0.
          5    1    3    3  502    0 -0.78952165095E+02 -0.20076202020E+02  0.27453161620E+03  0.28639409727E+03  0.41800000000E+01 0. -1.
         -5    1    3    3    0  502  0.38095553600E+02  0.15096944647E+02  0.56933365768E+02  0.70271398729E+02  0.41800000000E+01 0. -1.
        -11    1    4    4    0    0 -0.12705754714E+02  0.33563437886E+02  0.19230445727E+03  0.19562449962E+03  0.00000000000E+00 0. -1.
         11    1    4    4    0    0  0.53562366210E+02 -0.28584180513E+02  0.17464977820E+03  0.18490139934E+03  0.00000000000E+00 0.  1.
</event>
<event>
 8    1  0.3708258E-009  0.1022704E+03  0.7561462E-02  0.1275593E+00
         -1   -1    0    0    0  501 -0.00000000000E+00  0.00000000000E+00  0.41397493577E+02  0.41397493577E+02  0.00000000000E+00 0. -1.
          1   -1    0    0  501    0  0.00000000000E+00 -0.00000000000E+00 -0.35025024589E+03  0.35025024589E+03  0.00000000000E+00 0.  1.
         25    2    1    2    0    0  0.28139064175E+02 -0.25564147622E+02 -0.11822221220E+03  0.17626646303E+03  0.12509213386E+03 0.  0.
         23    2    1    2    0    0 -0.28139064175E+02  0.25564147622E+02 -0.19063054011E+03  0.21538127644E+03  0.92756449059E+02 0.  0.
          5    1    3    3  502    0  0.70161997896E+02  0.13050495358E+02 -0.80841193944E+02  0.10791567271E+03  0.41800000000E+01 0.  1.
         -5    1    3    3    0  502 -0.42022933722E+02 -0.38614642980E+02 -0.37381018259E+02  0.68350790318E+02  0.41800000000E+01 0.  1.
        -11    1    4    4    0    0 -0.94847464499E+01 -0.22421963413E+02 -0.14360120021E+03  0.14565029886E+03  0.00000000000E+00 0.  1.
         11    1    4    4    0    0 -0.18654317725E+02  0.47986111035E+02 -0.47029339906E+02  0.69730977578E+02  0.00000000000E+00 0. -1.
</event>
<event>
 8    1  0.3708258E-009  0.1176116E+03  0.7561462E-02  0.1247090E+00
          2   -1    0    0  501    0  0.00000000000E+00  0.00000000000E+00  0.59059885008E+03  0.59059885008E+03  0.00000000000E+00 0. -1.
         -2   -1    0    0    0  501 -0.00000000000E+00 -0.00000000000E+00 -0.25953484394E+02  0.25953484394E+02  0.00000000000E+00 0.  1.
         25    2    1    2    0    0 -0.30605799057E+02  0.43968996303E+02  0.38393995369E+03  0.40734526447E+03  0.12510111459E+03 0.  0.
         23    2    1    2    0    0  0.30605799057E+02 -0.43968996303E+02  0.18070541200E+03  0.20920707001E+03  0.90791875438E+02 0.  0.
          5    1    3    3  502    0 -0.40051282527E+02 -0.36477982798E+02  0.13492643737E+03  0.14545571272E+03  0.41800000000E+01 0. -1.
         -5    1    3    3    0  502  0.94454834701E+01  0.80446979100E+02  0.24901351632E+03  0.26188955175E+03  0.41800000000E+01 0. -1.
        -11    1    4    4    0    0  0.47193139039E+02  0.55874200275E+01  0.52795976860E+02  0.71033983469E+02  0.00000000000E+00 0. -1.
         11    1    4    4    0    0 -0.16587339982E+02 -0.49556416330E+02  0.12790943514E+03  0.13817308654E+03  0.00000000000E+00 0.  1.
</event>
<event>
 8    1  0.3708258E-009  0.9613768E+02  0.7561462E-02  0.1288634E+00
          2   -1    0    0  501    0  0.00000000000E+00  0.00000000000E+00  0.14339423450E+03  0.14339423450E+03  0.00000000000E+00 0.  1.
         -2   -1    0    0    0  501 -0.00000000000E+00 -0.00000000000E+00 -0.14315218442E+03  0.14315218442E+03  0.00000000000E+00 0. -1.
         25    2    1    2    0    0 -0.37937458937E+02  0.39655165571E+02 -0.74596993104E+02  0.15564241939E+03  0.12509223951E+03 0.  0.
         23    2    1    2    0    0  0.37937458937E+02 -0.39655165571E+02  0.74839043185E+02  0.13090399954E+03  0.92321133895E+02 0.  0.
          5    1    3    3  502    0  0.14426073369E+02  0.57213313958E+02 -0.80550402241E+02  0.99936552812E+02  0.41800000000E+01 0. -1.
         -5    1    3    3    0  502 -0.52363532306E+02 -0.17558148387E+02  0.59534091363E+01  0.55705866573E+02  0.41800000000E+01 0. -1.
        -11    1    4    4    0    0  0.25272973037E+02 -0.53380585535E+02  0.89452005157E+02  0.10719081726E+03  0.00000000000E+00 0.  1.
         11    1    4    4    0    0  0.12664485900E+02  0.13725419964E+02 -0.14612961971E+02  0.23713182281E+02  0.00000000000E+00 0. -1.
</event>
<event>
 8    1  0.3708258E-009  0.1375211E+03  0.7561462E-02  0.1216704E+00
          4   -1    0    0  501    0  0.00000000000E+00  0.00000000000E+00  0.30603862475E+03  0.30603862475E+03  0.00000000000E+00 0. -1.
         -4   -1    0    0    0  501 -0.00000000000E+00 -0.00000000000E+00 -0.79790496273E+02  0.79790496273E+02  0.00000000000E+00 0.  1.
         25    2    1    2    0    0 -0.10912800561E+03 -0.18512899195E+02  0.98762588837E+02  0.19404519055E+03  0.12509131855E+03 0.  0.
         23    2    1    2    0    0  0.10912800561E+03  0.18512899195E+02  0.12748553964E+03  0.19178393047E+03  0.90977272584E+02 0.  0.
          5    1    3    3  502    0 -0.28950096413E+02 -0.43006527882E+02  0.97026172183E+02  0.11008732902E+03  0.41800000000E+01 0. -1.
         -5    1    3    3    0  502 -0.80177909195E+02  0.24493628687E+02  0.17364166543E+01  0.83957861525E+02  0.41800000000E+01 0. -1.
        -11    1    4    4    0    0  0.64750996727E+02 -0.31687163178E+02  0.88935682408E+02  0.11448285240E+03  0.00000000000E+00 0. -1.
         11    1    4    4    0    0  0.44377008881E+02  0.50200062373E+02  0.38549857228E+02  0.77301078077E+02  0.00000000000E+00 0.  1.
</event>
<event>
 8    1  0.3708258E-009  0.1052480E+03  0.7561462E-02  0.1269632E+00
         -2   -1    0    0    0  501 -0.00000000000E+00  0.00000000000E+00  0.42639755811E+02  0.42639755811E+02  0.00000000000E+00 0.  1.
          2   -1    0    0  501    0  0.00000000000E+00 -0.00000000000E+00 -0.39211455514E+03  0.39211455514E+03  0.00000000000E+00 0. -1.
         25    2    1    2    0    0  0.10653475843E+01  0.34505193787E+02 -0.94562666468E+02  0.16056392976E+03  0.12508770638E+03 0.  0.
         23    2    1    2    0    0 -0.10653475843E+01 -0.34505193787E+02 -0.25491213286E+03  0.27419038118E+03  0.94912729871E+02 0.  0.
          5    1    3    3  502    0 -0.41820276249E+02 -0.29195211489E+02 -0.25388202177E+02  0.57125555483E+02  0.41800000000E+01 0. -1.
         -5    1    3    3    0  502  0.42885623833E+02  0.63700405277E+02 -0.69174464291E+02  0.10343837428E+03  0.41800000000E+01 0. -1.
        -11    1    4    4    0    0  0.36789753018E+02 -0.13987140317E+02 -0.20283309593E+03  0.20661653086E+03  0.00000000000E+00 0. -1.
         11    1    4    4    0    0 -0.37855100602E+02 -0.20518053470E+02 -0.52079036929E+02  0.67573850321E+02  0.00000000000E+00 0.  1.
</event>
<event>
 8    1  0.3708258E-009  0.6672945E+02  0.7561462E-02  0.1371582E+00
          4   -1    0    0  501    0  0.00000000000E+00  0.00000000000E+00  0.23629257020E+02  0.23629257020E+02  0.00000000000E+00 0. -1.
         -4   -1    0    0    0  501 -0.00000000000E+00 -0.00000000000E+00 -0.55826427129E+03  0.55826427129E+03  0.00000000000E+00 0.  1.
         25    2    1    2    0    0 -0.35119922260E+02 -0.47919213699E+01 -0.26404879101E+03  0.29432202641E+03  0.12508924713E+03 0.  0.
         23    2    1    2    0    0  0.35119922260E+02  0.47919213699E+01 -0.27058622326E+03  0.28757150190E+03  0.90686785351E+02 0.  0.
          5    1    3    3  502    0 -0.23544190887E+02  0.39149988359E+00  0.54203941985E+01  0.24522138364E+02  0.41800000000E+01 0.  1.
         -5    1    3    3    0  502 -0.11575731374E+02 -0.51834212535E+01 -0.26946918521E+03  0.26979988805E+03  0.41800000000E+01 0.  1.
        -11    1    4    4    0    0 -0.27783404210E+02 -0.13204994433E+02 -0.10855182230E+03  0.11282636018E+03  0.00000000000E+00 0.  1.
         11    1    4    4    0    0  0.62903326470E+02  0.17996915803E+02 -0.16203440096E+03  0.17474514171E+03  0.00000000000E+00 0. -1.
</event>
<event>
 8    1  0.3708258E-009  0.1227241E+03  0.7561462E-02  0.1238670E+00
         -1   -1    0    0    0  501 -0.00000000000E+00  0.00000000000E+00  0.21216062400E+03  0.21216062400E+03  0.00000000000E+00 0.  1.
          1   -1    0    0  501    0  0.00000000000E+00 -0.00000000000E+00 -0.77683641347E+02  0.77683641347E+02  0.00000000000E+00 0. -1.
         25    2    1    2    0    0 -0.57941507602E+02  0.29831648488E+02  0.50439323869E+02  0.14979854795E+03  0.12509330126E+03 0.  0.
         23    2    1    2    0    0  0.57941507602E+02 -0.29831648488E+02  0.84037658784E+02  0.14004571740E+03  0.91122605944E+02 0.  0.
          5    1    3    3  502    0 -0.89594590836E+02 -0.52352868074E+01  0.16170184729E+02  0.91288258879E+02  0.41800000000E+01 0. -1.
         -5    1    3    3    0  502  0.31653083234E+02  0.35066935295E+02  0.34269139140E+02  0.58510289066E+02  0.41800000000E+01 0. -1.
        -11    1    4    4    0    0  0.26610416341E+02 -0.59406514990E+02  0.67834509189E+02  0.94014727134E+02  0.00000000000E+00 0.  1.
         11    1    4    4    0    0  0.31331091260E+02  0.29574866503E+02  0.16203149594E+02  0.46030990267E+02  0.00000000000E+00 0. -1.
</event>
<event>
 8    1  0.3708258E-009  0.8535208E+02  0.7561462E-02  0.1314514E+00
          1   -1    0    0  501    0  0.00000000000E+00  0.00000000000E+00  0.94266567240E+02  0.94266567240E+02  0.00000000000E+00 0. -1.
         -1   -1    0    0    0  501 -0.00000000000E+00 -0.00000000000E+00 -0.14203093336E+03  0.14203093336E+03  0.00000000000E+00 0.  1.
         25    2    1    2    0    0  0.17834513476E+02 -0.24048842447E+01 -0.47025018018E+02  0.13485790212E+03  0.12510574770E+03 0.  0.
         23    2    1    2    0    0 -0.17834513476E+02  0.24048842447E+01 -0.73934810358E+00  0.10143959848E+03  0.99827812578E+02 0.  0.
          5    1    3    3  502    0  0.10292326232E+02  0.33979153259E+02  0.31651893214E+02  0.47747560980E+02  0.41800000000E+01 0. -1.
         -5    1    3    3    0  502  0.75421872437E+01 -0.36384037503E+02 -0.78676911232E+02  0.87110341145E+02  0.41800000000E+01 0. -1.
        -11    1    4    4    0    0  0.39831661780E+02 -0.31695847228E+00 -0.13971592727E+02  0.42212168224E+02  0.00000000000E+00 0.  1.
         11    1    4    4    0    0 -0.57666175256E+02  0.27218427170E+01  0.13232244624E+02  0.59227430251E+02  0.00000000000E+00 0. -1.
</event>
<event>
 8    1  0.3708258E-009  0.1463894E+03  0.7561462E-02  0.1204981E+00
         -2   -1    0    0    0  501 -0.00000000000E+00  0.00000000000E+00  0.33765591214E+02  0.33765591214E+02  0.00000000000E+00 0.  1.
          2   -1    0    0  501    0  0.00000000000E+00 -0.00000000000E+00 -0.80669465507E+03  0.80669465507E+03  0.00000000000E+00 0. -1.
         25    2    1    2    0    0  0.10304307819E+03  0.61499045721E+02 -0.49521877158E+03  0.52468068988E+03  0.12509270968E+03 0.  0.
         23    2    1    2    0    0 -0.10304307819E+03 -0.61499045721E+02 -0.27771029227E+03  0.31577955640E+03  0.90519131805E+02 0.  0.
          5    1    3    3  502    0 -0.13863854467E+02  0.40718325115E+02 -0.23056796800E+03  0.23458313821E+03  0.41800000000E+01 0.  1.
         -5    1    3    3    0  502  0.11690693265E+03  0.20780720606E+02 -0.26465080358E+03  0.29009755167E+03  0.41800000000E+01 0.  1.
        -11    1    4    4    0    0 -0.95308907901E+02 -0.32439526368E+02 -0.12683086823E+03  0.16193264011E+03  0.00000000000E+00 0. -1.
         11    1    4    4    0    0 -0.77341702839E+01 -0.29059519354E+02 -0.15087942403E+03  0.15384691629E+03  0.00000000000E+00 0.  1.
</event>
<event>
 8    1  0.3708258E-009  0.6358747E+02  0.7561462E-02  0.1383365E+00
         -2   -1    0    0    0  501 -0.00000000000E+00  0.00000000000E+00  0.51803077145E+02  0.51803077145E+02  0.00000000000E+00 0.  1.
          2   -1    0    0  501    0  0.00000000000E+00 -0.00000000000E+00 -0.24672604703E+03  0.24672604703E+03  0.00000000000E+00 0. -1.
         25    2    1    2    0    0 -0.23624076866E+02  0.24352880572E+02 -0.12340707859E+03  0.17896182806E+03  0.12508744563E+03 0.  0.
         23    2    1    2    0    0  0.23624076866E+02 -0.24352880572E+02 -0.71515891293E+02  0.11956729612E+03  0.89613926335E+02 0.  0.
          5    1    3    3  502    0 -0.98560295023E+01  0.99100062929E+01 -0.14703352099E+03  0.14775546771E+03  0.41800000000E+01 0. -1.
         -5    1    3    3    0  502 -0.13768047363E+02  0.14442874279E+02  0.23626442403E+02  0.31206360349E+02  0.41800000000E+01 0. -1.
        -11    1    4    4    0    0  0.16113715589E+02 -0.56724151082E+02 -0.60683101940E+02  0.84615128714E+02  0.00000000000E+00 0. -1.
         11    1    4    4    0    0  0.75103612768E+01  0.32371270511E+02 -0.10832789352E+02  0.34952167403E+02  0.00000000000E+00 0.  1.
</event>
<event>
 8    1  0.3708258E-009  0.7438320E+02  0.7561462E-02  0.1345792E+00
         -3   -1    0    0    0  501 -0.00000000000E+00  0.00000000000E+00  0.18711069937E+03  0.18711069937E+03  0.00000000000E+00 0.  1.
          3   -1    0    0  501    0  0.00000000000E+00 -0.00000000000E+00 -0.97927654589E+02  0.97927654589E+02  0.00000000000E+00 0. -1.
         25    2    1    2    0    0  0.49300731479E+02  0.28853176956E+02 -0.11475091937E+02  0.13799195355E+03  0.12508810321E+03 0.  0.
         23    2    1    2    0    0 -0.49300731479E+02 -0.28853176956E+02  0.10065813671E+03  0.14704640041E+03  0.90705652755E+02 0.  0.
          5    1    3    3  502    0  0.39903787166E+02  0.35041557816E+02  0.51374188902E+02  0.74006774620E+02  0.41800000000E+01 0. -1.
         -5    1    3    3    0  502  0.93969443139E+01 -0.61883808597E+01 -0.62849280839E+02  0.63985178925E+02  0.41800000000E+01 0. -1.
        -11    1    4    4    0    0 -0.35751407635E+02  0.14117015435E+02  0.18867452466E+01  0.38483932755E+02  0.00000000000E+00 0. -1.
         11    1    4    4    0    0 -0.13549323845E+02 -0.42970192391E+02  0.98771391468E+02  0.10856246765E+03  0.00000000000E+00 0.  1.
</event>
<event>
 8    1  0.3708258E-009  0.1372979E+03  0.7561462E-02  0.1217012E+00
          1   -1    0    0  501    0  0.00000000000E+00  0.00000000000E+00  0.52142153458E+03  0.52142153458E+03  0.00000000000E+00 0. -1.
         -1   -1    0    0    0  501 -0.00000000000E+00 -0.00000000000E+00 -0.47473724310E+02  0.47473724310E+02  0.00000000000E+00 0.  1.
         25    2    1    2    0    0 -0.10391064592E+03 -0.45816575234E+02  0.24338227497E+03  0.29627556432E+03  0.12509075642E+03 0.  0.
         23    2    1    2    0    0  0.10391064592E+03  0.45816575234E+02  0.23056553530E+03  0.27261969456E+03  0.90909025377E+02 0.  0.
          5    1    3    3  502    0 -0.89349542792E+02 -0.60753388210E+02  0.25130004204E+03  0.27357539821E+03  0.41800000000E+01 0.  1.
         -5    1    3    3    0  502 -0.14561103132E+02  0.14936812976E+02 -0.79177670684E+01  0.22700166115E+02  0.41800000000E+01 0.  1.
        -11    1    4    4    0    0  0.49103386361E+02 -0.25435356581E+02  0.96067448344E+02  0.11084698709E+03  0.00000000000E+00 0.  1.
         11    1    4    4    0    0  0.54807259563E+02  0.71251931815E+02  0.13449808695E+03  0.16177270747E+03  0.00000000000E+00 0. -1.
</event>
<event>
 8    1  0.3708258E-009  0.1087475E+03  0.7561462E-02  0.1262907E+00
         -3   -1    0    0    0  501 -0.00000000000E+00  0.00000000000E+00  0.14572261451E+04  0.14572261451E+04  0.00000000000E+00 0.  1.
          3   -1    0    0  501    0  0.00000000000E+00 -0.00000000000E+00 -0.10243537140E+02  0.10243537140E+02  0.00000000000E+00 0. -1.
         25    2    1    2    0    0  0.16332956271E+01  0.21584609004E+02  0.11250764061E+04  0.11322161538E+04  0.12509171186E+03 0.  0.
         23    2    1    2    0    0 -0.16332956271E+01 -0.21584609004E+02  0.32190620184E+03  0.33525352842E+03  0.91119495885E+02 0.  0.
          5    1    3    3  502    0  0.62105310482E+02  0.21545561290E+02  0.53734935010E+03  0.54137147806E+03  0.41800000000E+01 0.  1.
         -5    1    3    3    0  502 -0.60472014855E+02  0.39047713682E-01  0.58772705603E+03  0.59084467577E+03  0.41800000000E+01 0.  1.
        -11    1    4    4    0    0  0.39128475000E+02 -0.30101672683E+02  0.13442720715E+03  0.14320552460E+03  0.00000000000E+00 0. -1.
         11    1    4    4    0    0 -0.40761770627E+02  0.85170636797E+01  0.18747899469E+03  0.19204800381E+03  0.00000000000E+00 0.  1.
</event>
