<event>
 8    1  0.7039283E-009  0.8737767E+02  0.7561462E-02  0.1309329E+00
          3   -1    0    0  501    0  0.00000000000E+00  0.00000000000E+00  0.34141013043E+03  0.34141013043E+03  0.00000000000E+00 0. -1.
         -3   -1    0    0    0  501 -0.00000000000E+00 -0.00000000000E+00 -0.43532701192E+02  0.43532701192E+02  0.00000000000E+00 0.  1.
         25    2    1    2    0    0 -0.53468998854E+02  0.98444246211E+01  0.15410715208E+03  0.20579772415E+03  0.12509133627E+03 0.  0.
         23    2    1    2    0    0  0.53468998854E+02 -0.98444246211E+01  0.14377027715E+03  0.17914510747E+03  0.92017554858E+02 0.  0.
          5    1    3    3  502    0 -0.25840156226E+02  0.32343873183E+02  0.16350125364E+03  0.16871269113E+03  0.41800000000E+01 0.  1.
         -5    1    3    3    0  502 -0.27628842628E+02 -0.22499448562E+02 -0.93941015542E+01  0.37085033026E+02  0.41800000000E+01 0.  1.
        -11    1    4    4    0    0  0.59486748842E+02 -0.36601665665E+02  0.63782735314E+02  0.94586428949E+02  0.00000000000E+00 0.  1.
         11    1    4    4    0    0 -0.60177499879E+01  0.26757241044E+02  0.79987541839E+02  0.84558678518E+02  0.00000000000E+00 0. -1.
</event>
<event>
 8    1  0.7039283E-009  0.1539029E+03  0.7561462E-02  0.1195758E+00
          1   -1    0    0  501    0  0.00000000000E+00  0.00000000000E+00  0.11657618876E+04  0.11657618876E+04  0.00000000000E+00 0. -1.
         -1   -1    0    0    0  501 -0.00000000000E+00 -0.00000000000E+00 -0.27975514219E+02  0.27975514219E+02  0.00000000000E+00 0.  1.
         25    2    1    2    0    0 -0.14213383078E+03  0.24289052322E+02  0.58554792179E+03  0.61587863715E+03  0.12509253804E+03 0.  0.
         23    2    1    2    0    0  0.14213383078E+03 -0.24289052322E+02  0.55223845158E+03  0.57785876466E+03  0.90340802367E+02 0.  0.
          5    1    3    3  502    0 -0.82443971470E+01 -0.64359851441E+01 -0.28706584191E+01  0.11623470603E+02  0.41800000000E+01 0.  1.
         -5    1    3    3    0  502 -0.13388943363E+03  0.30725037466E+02  0.58841858021E+03  0.60425516655E+03  0.41800000000E+01 0.  1.
        -11    1    4    4    0    0  0.57414005173E+02 -0.43749547902E+02  0.15172053205E+03  0.16801640032E+03  0.00000000000E+00 0.  1.
         11    1    4    4    0    0  0.84719825607E+02  0.19460495580E+02  0.40051791953E+03  0.40984236433E+03  0.00000000000E+00 0. -1.
</event>
<event>
 8    1  0.7039283E-009  0.1385057E+03  0.7561462E-02  0.1215354E+00
         -1   -1    0    0    0  501 -0.00000000000E+00  0.00000000000E+00  0.48710273694E+02  0.48710273694E+02  0.00000000000E+00 0.  1.
          1   -1    0    0  501    0  0.00000000000E+00 -0.00000000000E+00 -0.47649751425E+03  0.47649751425E+03  0.00000000000E+00 0. -1.
         25    2    1    2    0    0 -0.59829332125E+02  0.79714643486E+02 -0.16312013541E+03  0.22845169915E+03  0.12509207368E+03 0.  0.
         23    2    1    2    0    0  0.59829332125E+02 -0.79714643486E+02 -0.26466710514E+03  0.29675608880E+03  0.89897309888E+02 0.  0.
          5    1    3    3  502    0 -0.94105376444E+02  0.60638867063E+02 -0.83933331681E+02  0.13998275123E+03  0.41800000000E+01 0. -1.
         -5    1    3    3    0  502  0.34276044319E+02  0.19075776423E+02 -0.79186803733E+02  0.88468947918E+02  0.41800000000E+01 0. -1.
        -11    1    4    4    0    0  0.44441179845E+02 -0.95155508335E-01 -0.14905532654E+03  0.15553944159E+03  0.00000000000E+00 0.  1.
         11    1    4    4    0    0  0.15388152280E+02 -0.79619487978E+02 -0.11561177860E+03  0.14121664721E+03  0.00000000000E+00 0. -1.
</event>
<event>
 8    1  0.7039283E-009  0.1764213E+03  0.7561462E-02  0.1171312E+00
          1   -1    0    0  501    0  0.00000000000E+00  0.00000000000E+00  0.95897629149E+03  0.95897629149E+03  0.00000000000E+00 0. -1.
         -1   -1    0    0    0  501 -0.00000000000E+00 -0.00000000000E+00 -0.36923078004E+02  0.36923078004E+02  0.00000000000E+00 0.  1.
         25    2    1    2    0    0 -0.76319031526E+02 -0.13184040121E+03  0.51646526319E+03  0.55280283791E+03  0.12509246003E+03 0.  0.
         23    2    1    2    0    0  0.76319031526E+02  0.13184040121E+03  0.40558795030E+03  0.44309653159E+03  0.92878764587E+02 0.  0.
          5    1    3    3  502    0 -0.97133419412E+02 -0.75861764792E+02  0.23885770240E+03  0.26881291435E+03  0.41800000000E+01 0.  1.
         -5    1    3    3    0  502  0.20814387886E+02 -0.55978636418E+02  0.27760756079E+03  0.28398992356E+03  0.41800000000E+01 0.  1.
        -11    1    4    4    0    0  0.80323391769E+01  0.88308568899E+02  0.27962077712E+03  0.29334399740E+03  0.00000000000E+00 0. -1.
         11    1    4    4    0    0  0.68286692349E+02  0.43531832311E+02  0.12596717318E+03  0.14975253419E+03  0.00000000000E+00 0.  1.
</event>
<event>
 8    1  0.7039283E-009  0.1478009E+03  0.7561462E-02  0.1203202E+00
          1   -1    0    0  501    0  0.00000000000E+00  0.00000000000E+00  0.10436265970E+03  0.10436265970E+03  0.00000000000E+00 0. -1.
         -1   -1    0    0    0  501 -0.00000000000E+00 -0.00000000000E+00 -0.26159182131E+03  0.26159182131E+03  0.00000000000E+00 0.  1.
         25    2    1    2    0    0  0.12321325121E+03 -0.90796606930E+01 -0.65208991709E+02  0.18752147907E+03  0.12509255373E+03 0.  0.
         23    2    1    2    0    0 -0.12321325121E+03  0.90796606930E+01 -0.92020169894E+02  0.17843300194E+03  0.90037097925E+02 0.  0.
          5    1    3    3  502    0  0.10748674385E+03  0.44228446399E+02 -0.61740272165E+02  0.13167721588E+03  0.41800000000E+01 0. -1.
         -5    1    3    3    0  502  0.15726507361E+02 -0.53308107092E+02 -0.34687195434E+01  0.55844263186E+02  0.41800000000E+01 0. -1.
        -11    1    4    4    0    0 -0.32453291449E+02  0.31591898969E+01 -0.80375632382E+02  0.86737759295E+02  0.00000000000E+00 0.  1.
         11    1    4    4    0    0 -0.90759959763E+02  0.59204707961E+01 -0.11644537513E+02  0.91695242649E+02  0.00000000000E+00 0. -1.
</event>
<event>
 8    1  0.7039283E-009  0.1162364E+03  0.7561462E-02  0.1249438E+00
         -2   -1    0    0    0  501 -0.00000000000E+00  0.00000000000E+00  0.28964579623E+02  0.28964579623E+02  0.00000000000E+00 0.  1.
          2   -1    0    0  501    0  0.00000000000E+00 -0.00000000000E+00 -0.58677989107E+03  0.58677989107E+03  0.00000000000E+00 0. -1.
         25    2    1    2    0    0 -0.31664560686E+02 -0.66243143401E+02 -0.30185402852E+03  0.33489189124E+03  0.12508367531E+03 0.  0.
         23    2    1    2    0    0  0.31664560686E+02  0.66243143401E+02 -0.25596128292E+03  0.28085257946E+03  0.89281546698E+02 0.  0.
          5    1    3    3  502    0  0.27517335298E+02 -0.61139287428E+02 -0.76525063120E+02  0.10182717660E+03  0.41800000000E+01 0.  1.
         -5    1    3    3    0  502 -0.59181895984E+02 -0.51038559727E+01 -0.22532896540E+03  0.23306471464E+03  0.41800000000E+01 0.  1.
        -11    1    4    4    0    0  0.48439565730E+02  0.13331378964E+02 -0.17930004395E+03  0.18620586176E+03  0.00000000000E+00 0.  1.
         11    1    4    4    0    0 -0.16775005044E+02  0.52911764436E+02 -0.76661238977E+02  0.94646717700E+02  0.00000000000E+00 0. -1.
</event>
<event>
 8    1  0.7039283E-009  0.1280920E+03  0.7561462E-02  0.1230315E+00
         -2   -1    0    0    0  501 -0.00000000000E+00  0.00000000000E+00  0.43267908933E+02  0.43267908933E+02  0.00000000000E+00 0.  1.
          2   -1    0    0  501    0  0.00000000000E+00 -0.00000000000E+00 -0.43924260332E+03  0.43924260332E+03  0.00000000000E+00 0. -1.
         25    2    1    2    0    0  0.83958961117E+02  0.66300995025E+00 -0.18994051074E+03  0.24243076314E+03  0.12508289477E+03 0.  0.
         23    2    1    2    0    0 -0.83958961117E+02 -0.66300995025E+00 -0.20603418364E+03  0.24007974911E+03  0.90214490904E+02 0.  0.
          5    1    3    3  502    0  0.59226190624E+02 -0.58615428191E+02 -0.13003953692E+03  0.15450328036E+03  0.41800000000E+01 0.  1.
         -5    1    3    3    0  502  0.24732770493E+02  0.59278438141E+02 -0.59900973823E+02  0.87927482789E+02  0.41800000000E+01 0.  1.
        -11    1    4    4    0    0 -0.84480746878E+02 -0.21794319486E+02 -0.10339592692E+03  0.13528749631E+03  0.00000000000E+00 0.  1.
         11    1    4    4    0    0  0.52178576098E+00  0.21131309536E+02 -0.10263825672E+03  0.10479225280E+03  0.00000000000E+00 0. -1.
</event>
<event>
 8    1  0.7039283E-009  0.1151905E+03  0.7561462E-02  0.1251249E+00
          4   -1    0    0  501    0  0.00000000000E+00  0.00000000000E+00  0.20883199397E+03  0.20883199397E+03  0.00000000000E+00 0. -1.
         -4   -1    0    0    0  501 -0.00000000000E+00 -0.00000000000E+00 -0.99752129711E+02  0.99752129711E+02  0.00000000000E+00 0.  1.
         25    2    1    2    0    0  0.27448931293E+02  0.71228475759E+02  0.12152179297E+03  0.19037558799E+03  0.12509348003E+03 0.  0.
         23    2    1    2    0    0 -0.27448931293E+02 -0.71228475759E+02 -0.12441928712E+02  0.11820853569E+03  0.89395283614E+02 0.  0.
          5    1    3    3  502    0  0.58544213410E+02  0.82701107656E+02  0.53652323699E+02  0.11472986695E+03  0.41800000000E+01 0. -1.
         -5    1    3    3    0  502 -0.31095282117E+02 -0.11472631897E+02  0.67869469271E+02  0.75645721040E+02  0.41800000000E+01 0. -1.
        -11    1    4    4    0    0 -0.35568232466E+02 -0.77520215674E+02  0.17050825292E+02  0.86978236600E+02  0.00000000000E+00 0. -1.
         11    1    4    4    0    0  0.81193011727E+01  0.62917399152E+01 -0.29492754004E+02  0.31230299093E+02  0.00000000000E+00 0.  1.
</event>
<event>
 8    1  0.7039283E-009  0.1566499E+03  0.7561462E-02  0.1192532E+00
         -2   -1    0    0    0  501 -0.00000000000E+00  0.00000000000E+00  0.27271592430E+02  0.27271592430E+02  0.00000000000E+00 0. -1.
          2   -1    0    0  501    0  0.00000000000E+00 -0.00000000000E+00 -0.10578822251E+04  0.10578822251E+04  0.00000000000E+00 0.  1.
         25    2    1    2    0    0 -0.11380041638E+03 -0.11341705464E+02 -0.74955151209E+03  0.76847556809E+03  0.12509220772E+03 0.  0.
         23    2    1    2    0    0  0.11380041638E+03  0.11341705464E+02 -0.28105912056E+03  0.31667824941E+03  0.90618515493E+02 0.  0.
          5    1    3    3  502    0 -0.58812065062E+02  0.55336111322E+02 -0.42269804014E+03  0.43036269558E+03  0.41800000000E+01 0. -1.
         -5    1    3    3    0  502 -0.54988351318E+02 -0.66677816786E+02 -0.32685347195E+03  0.33811287251E+03  0.41800000000E+01 0. -1.
        -11    1    4    4    0    0  0.48487248283E+02  0.50297142120E+02 -0.13357868247E+03  0.15074508338E+03  0.00000000000E+00 0.  1.
         11    1    4    4    0    0  0.65313168097E+02 -0.38955436656E+02 -0.14748043809E+03  0.16593316603E+03  0.00000000000E+00 0. -1.
</event>
<event>
 8    1  0.7039283E-009  0.1223052E+03  0.7561462E-02  0.1239342E+00
         -3   -1    0    0    0  501 -0.00000000000E+00  0.00000000000E+00  0.59291696043E+02  0.59291696043E+02  0.00000000000E+00 0.  1.
          3   -1    0    0  501    0  0.00000000000E+00 -0.00000000000E+00 -0.33199426593E+03  0.33199426593E+03  0.00000000000E+00 0. -1.
         25    2    1    2    0    0 -0.25268924643E+02 -0.54633224682E+02 -0.24145493821E+03  0.27851480004E+03  0.12508676535E+03 0.  0.
         23    2    1    2    0    0  0.25268924643E+02  0.54633224682E+02 -0.31247631675E+02  0.11277116193E+03  0.90097795121E+02 0.  0.
          5    1    3    3  502    0  0.42802877603E+02  0.10696866054E+02 -0.80898263663E+02  0.92241588984E+02  0.41800000000E+01 0. -1.
         -5    1    3    3    0  502 -0.68071802246E+02 -0.65330090736E+02 -0.16055667454E+03  0.18627321106E+03  0.41800000000E+01 0. -1.
        -11    1    4    4    0    0  0.57946866971E+02  0.33448311907E+02 -0.31205645436E+02  0.73826968435E+02  0.00000000000E+00 0. -1.
         11    1    4    4    0    0 -0.32677942328E+02  0.21184912776E+02 -0.41986239164E-01  0.38944193494E+02  0.00000000000E+00 0.  1.
</event>
<event>
 8    1  0.7039283E-009  0.1143751E+03  0.7561462E-02  0.1252676E+00
         -2   -1    0    0    0  501 -0.00000000000E+00  0.00000000000E+00  0.46272579436E+03  0.46272579436E+03  0.00000000000E+00 0.  1.
          2   -1    0    0  501    0  0.00000000000E+00 -0.00000000000E+00 -0.49478373418E+02  0.49478373418E+02  0.00000000000E+00 0. -1.
         25    2    1    2    0    0  0.70362146118E+02 -0.19140006399E+02  0.35282282648E+03  0.38137817631E+03  0.12509274571E+03 0.  0.
         23    2    1    2    0    0 -0.70362146118E+02  0.19140006399E+02  0.60424594467E+02  0.13082599147E+03  0.90261492212E+02 0.  0.
          5    1    3    3  502    0  0.41446633269E+01  0.30042449188E+02  0.23787112049E+03  0.23983300304E+03  0.41800000000E+01 0. -1.
         -5    1    3    3    0  502  0.66217482791E+02 -0.49182455587E+02  0.11495170599E+03  0.14154517327E+03  0.41800000000E+01 0. -1.
        -11    1    4    4    0    0  0.18070847553E+02 -0.12110903062E+02  0.16240351672E+02  0.27147348428E+02  0.00000000000E+00 0.  1.
         11    1    4    4    0    0 -0.88432993671E+02  0.31250909461E+02  0.44184242795E+02  0.10367864304E+03  0.00000000000E+00 0. -1.
</event>
<event>
 8    1  0.7039283E-009  0.9538019E+02  0.7561462E-02  0.1290322E+00
          1   -1    0    0  501    0  0.00000000000E+00  0.00000000000E+00  0.62708406114E+03  0.62708406114E+03  0.00000000000E+00 0. -1.
         -1   -1    0    0    0  501 -0.00000000000E+00 -0.00000000000E+00 -0.21627917188E+02  0.21627917188E+02  0.00000000000E+00 0.  1.
         25    2    1    2    0    0 -0.35048467293E+02  0.15520494087E+02  0.39679703561E+03  0.41781181070E+03  0.12509812507E+03 0.  0.
         23    2    1    2    0    0  0.35048467293E+02 -0.15520494087E+02  0.20865910834E+03  0.23090016763E+03  0.91142652585E+02 0.  0.
          5    1    3    3  502    0  0.22330797769E+02 -0.35148426707E+02  0.23590700086E+03  0.23959061310E+03  0.41800000000E+01 0.  1.
         -5    1    3    3    0  502 -0.57379265062E+02  0.50668920793E+02  0.16089003475E+03  0.17822119760E+03  0.41800000000E+01 0.  1.
        -11    1    4    4    0    0  0.34720406242E+02  0.17735872091E+02  0.30059813617E+02  0.49230683147E+02  0.00000000000E+00 0.  1.
         11    1    4    4    0    0  0.32806105085E+00 -0.33256366178E+02  0.17859929472E+03  0.18166948448E+03  0.00000000000E+00 0. -1.
</event>
<event>
 8    1  0.7039283E-009  0.1299020E+03  0.7561462E-02  0.1227601E+00
         -1   -1    0    0    0  501 -0.00000000000E+00  0.00000000000E+00  0.20852856873E+02  0.20852856873E+02  0.00000000000E+00 0.  1.
          1   -1    0    0  501    0  0.00000000000E+00 -0.00000000000E+00 -0.14486890049E+04  0.14486890049E+04  0.00000000000E+00 0. -1.
         25    2    1    2    0    0  0.33543874518E+02 -0.78666848430E+02 -0.12012366150E+04  0.12107557861E+04  0.12508598547E+03 0.  0.
         23    2    1    2    0    0 -0.33543874518E+02  0.78666848430E+02 -0.22659953296E+03  0.25878607562E+03  0.91154923280E+02 0.  0.
          5    1    3    3  502    0  0.72335185080E+02 -0.75075270358E+02 -0.10205667928E+04  0.10258863125E+04  0.41800000000E+01 0.  1.
         -5    1    3    3    0  502 -0.38791310562E+02 -0.35915780722E+01 -0.18066982226E+03  0.18486947364E+03  0.41800000000E+01 0.  1.
        -11    1    4    4    0    0 -0.53137793730E+02  0.24174315096E+02 -0.66253165357E+02  0.88303479845E+02  0.00000000000E+00 0.  1.
         11    1    4    4    0    0  0.19593919212E+02  0.54492533334E+02 -0.16034636760E+03  0.17048259577E+03  0.00000000000E+00 0. -1.
</event>
<event>
 8    1  0.7039283E-009  0.8442329E+02  0.7561462E-02  0.1316948E+00
         -2   -1    0    0    0  501 -0.00000000000E+00  0.00000000000E+00  0.23152526807E+02  0.23152526807E+02  0.00000000000E+00 0.  1.
          2   -1    0    0  501    0  0.00000000000E+00 -0.00000000000E+00 -0.62716357112E+03  0.62716357112E+03  0.00000000000E+00 0. -1.
         25    2    1    2    0    0 -0.19833152833E+02 -0.42844447805E+02 -0.35128822670E+03  0.37587210964E+03  0.12508966356E+03 0.  0.
         23    2    1    2    0    0  0.19833152833E+02  0.42844447805E+02 -0.25272281761E+03  0.27444398828E+03  0.96029576195E+02 0.  0.
          5    1    3    3  502    0 -0.69831721678E+01 -0.59477712150E+02 -0.63862123086E+02  0.87648195082E+02  0.41800000000E+01 0. -1.
         -5    1    3    3    0  502 -0.12849980665E+02  0.16633264346E+02 -0.28742610361E+03  0.28822391456E+03  0.41800000000E+01 0. -1.
        -11    1    4    4    0    0 -0.26941207290E+02  0.26624767120E+02 -0.36414275728E+02  0.52542424299E+02  0.00000000000E+00 0.  1.
         11    1    4    4    0    0  0.46774360124E+02  0.16219680685E+02 -0.21630854189E+03  0.22190156399E+03  0.00000000000E+00 0. -1.
</event>
<event>
 8    1  0.7039283E-009  0.1003044E+03  0.7561462E-02  0.1279657E+00
          4   -1    0    0  501    0  0.00000000000E+00  0.00000000000E+00  0.18431847612E+03  0.18431847612E+03  0.00000000000E+00 0. -1.
         -4   -1    0    0    0  501 -0.00000000000E+00 -0.00000000000E+00 -0.17371343714E+03  0.17371343714E+03  0.00000000000E+00 0.  1.
         25    2    1    2    0    0  0.56358523352E+02 -0.38176620430E+01 -0.12365168718E+03  0.18474093800E+03  0.12509443126E+03 0.  0.
         23    2    1    2    0    0 -0.56358523352E+02  0.38176620430E+01  0.13425672616E+03  0.17329097527E+03  0.93883096944E+02 0.  0.
          5    1    3    3  502    0  0.26619869730E+02  0.37346391189E+02 -0.12557208015E+03  0.13375047706E+03  0.41800000000E+01 0.  1.
         -5    1    3    3    0  502  0.29738653622E+02 -0.41164053232E+02  0.19203929697E+01  0.50990460941E+02  0.41800000000E+01 0.  1.
        -11    1    4    4    0    0 -0.37837266862E+02 -0.40587564703E+02  0.43266204742E+02  0.70363155450E+02  0.00000000000E+00 0.  1.
         11    1    4    4    0    0 -0.18521256490E+02  0.44405226746E+02  0.90990521418E+02  0.10292781982E+03  0.00000000000E+00 0. -1.
</event>
<event>
 8    1  0.7039283E-009  0.2703316E+03  0.7561462E-02  0.1101090E+00
          2   -1    0    0  501    0  0.00000000000E+00  0.00000000000E+00  0.31432470440E+04  0.31432470440E+04  0.00000000000E+00 0. -1.
         -2   -1    0    0    0  501 -0.00000000000E+00 -0.00000000000E+00 -0.28655360323E+02  0.28655360323E+02  0.00000000000E+00 0.  1.
         25    2    1    2    0    0 -0.36493942440E+02 -0.25005193763E+03  0.22210774794E+04  0.22389042342E+04  0.12509684633E+03 0.  0.
         23    2    1    2    0    0  0.36493942440E+02  0.25005193763E+03  0.89351420421E+03  0.93299817008E+03  0.90885493340E+02 0.  0.
          5    1    3    3  502    0  0.41790621309E+02 -0.88691361981E+02  0.98500504514E+03  0.98988131867E+03  0.41800000000E+01 0. -1.
         -5    1    3    3    0  502 -0.78284563749E+02 -0.16136057565E+03  0.12360724343E+04  0.12490229155E+04  0.41800000000E+01 0. -1.
        -11    1    4    4    0    0  0.39712502839E+02  0.53873399029E+02  0.15433544710E+03  0.16822263889E+03  0.00000000000E+00 0.  1.
         11    1    4    4    0    0 -0.32185603997E+01  0.19617853860E+03  0.73917875711E+03  0.76477553118E+03  0.00000000000E+00 0. -1.
</event>
<event>
 8    1  0.7039283E-009  0.8161807E+02  0.7561462E-02  0.1324521E+00
         -3   -1    0    0    0  501 -0.00000000000E+00  0.00000000000E+00  0.27191753896E+03  0.27191753896E+03  0.00000000000E+00 0.  1.
          3   -1    0    0  501    0  0.00000000000E+00 -0.00000000000E+00 -0.81482339289E+02  0.81482339289E+02  0.00000000000E+00 0. -1.
         25    2    1    2    0    0 -0.20401670504E+01  0.71143086905E+02  0.18995123111E+02  0.14516828482E+03  0.12509002806E+03 0.  0.
         23    2    1    2    0    0  0.20401670504E+01 -0.71143086905E+02  0.17144007656E+03  0.20823159343E+03  0.94356746210E+02 0.  0.
          5    1    3    3  502    0  0.25361770173E+02  0.27616872329E+02 -0.47715343591E+02  0.60828755022E+02  0.41800000000E+01 0.  1.
         -5    1    3    3    0  502 -0.27401937224E+02  0.43526214576E+02  0.66710466702E+02  0.84339529798E+02  0.41800000000E+01 0.  1.
        -11    1    4    4    0    0  0.10951670252E+02 -0.34625489597E+02  0.16638713975E+03  0.17030426855E+03  0.00000000000E+00 0.  1.
         11    1    4    4    0    0 -0.89115032015E+01 -0.36517597307E+02  0.50529368114E+01  0.37927324884E+02  0.00000000000E+00 0. -1.
</event>
<event>
 8    1  0.7039283E-009  0.1156160E+03  0.7561462E-02  0.1250510E+00
         -2   -1    0    0    0  501 -0.00000000000E+00  0.00000000000E+00  0.45063813124E+02  0.45063813124E+02  0.00000000000E+00 0.  1.
          2   -1    0    0  501    0  0.00000000000E+00 -0.00000000000E+00 -0.33649572446E+03  0.33649572446E+03  0.00000000000E+00 0. -1.
         25    2    1    2    0    0  0.47991349841E+02 -0.28743112738E+02 -0.13822215192E+03  0.19463890332E+03  0.12509837415E+03 0.  0.
         23    2    1    2    0    0 -0.47991349841E+02  0.28743112738E+02 -0.15320975941E+03  0.18692063426E+03  0.91305842879E+02 0.  0.
          5    1    3    3  502    0 -0.39500640751E+02 -0.46522515080E+01 -0.17751728765E+02  0.43755460665E+02  0.41800000000E+01 0.  1.
         -5    1    3    3    0  502  0.87491990593E+02 -0.24090861230E+02 -0.12047042316E+03  0.15088344266E+03  0.41800000000E+01 0.  1.
        -11    1    4    4    0    0 -0.71998432584E+02  0.18816329872E+02 -0.13808310715E+03  0.15685908659E+03  0.00000000000E+00 0. -1.
         11    1    4    4    0    0  0.24007082743E+02  0.99267828660E+01 -0.15126652262E+02  0.30061547674E+02  0.00000000000E+00 0.  1.
</event>
<event>
 8    1  0.7039283E-009  0.9153478E+02  0.7561462E-02  0.1299177E+00
          2   -1    0    0  501    0  0.00000000000E+00  0.00000000000E+00  0.46454853569E+02  0.46454853569E+02  0.00000000000E+00 0. -1.
         -2   -1    0    0    0  501 -0.00000000000E+00 -0.00000000000E+00 -0.36166426764E+03  0.36166426764E+03  0.00000000000E+00 0.  1.
         25    2    1    2    0    0  0.50212384093E+02 -0.29514882873E+02 -0.24034816173E+03  0.27714084050E+03  0.12508954712E+03 0.  0.
         23    2    1    2    0    0 -0.50212384093E+02  0.29514882873E+02 -0.74861252344E+02  0.13097828071E+03  0.90325473089E+02 0.  0.
          5    1    3    3  502    0  0.73136731972E+02  0.62420511304E+01 -0.21563120492E+03  0.22782061737E+03  0.41800000000E+01 0.  1.
         -5    1    3    3    0  502 -0.22924347879E+02 -0.35756934003E+02 -0.24716956808E+02  0.49320223122E+02  0.41800000000E+01 0.  1.
        -11    1    4    4    0    0 -0.34589702248E+02  0.36025951980E+02 -0.93375968391E+02  0.10589328681E+03  0.00000000000E+00 0.  1.
         11    1    4    4    0    0 -0.15622681846E+02 -0.65110691073E+01  0.18514716047E+02  0.25084993907E+02  0.00000000000E+00 0. -1.
</event>
<event>
 8    1  0.7039283E-009  0.9436995E+02  0.7561462E-02  0.1292601E+00
          1   -1    0    0  501    0  0.00000000000E+00  0.00000000000E+00  0.77651670321E+02  0.77651670321E+02  0.00000000000E+00 0. -1.
         -1   -1    0    0    0  501 -0.00000000000E+00 -0.00000000000E+00 -0.19506281900E+03  0.19506281900E+03  0.00000000000E+00 0.  1.
         25    2    1    2    0    0 -0.12403433654E+02  0.53795198465E+02 -0.84219001955E+02  0.16058677802E+03  0.12508998537E+03 0.  0.
         23    2    1    2    0    0  0.12403433654E+02 -0.53795198465E+02 -0.33192146720E+02  0.11212771130E+03  0.91777647018E+02 0.  0.
          5    1    3    3  502    0 -0.27326739963E+02  0.86057382307E+02 -0.29270805126E+02  0.95009874220E+02  0.41800000000E+01 0. -1.
         -5    1    3    3    0  502  0.14923306309E+02 -0.32262183842E+02 -0.54948196828E+02  0.65576903801E+02  0.41800000000E+01 0. -1.
        -11    1    4    4    0    0  0.16899687809E+02 -0.12498939342E+02  0.29923684614E+02  0.36568426731E+02  0.00000000000E+00 0. -1.
         11    1    4    4    0    0 -0.44962541551E+01 -0.41296259122E+02 -0.63115831334E+02  0.75559284564E+02  0.00000000000E+00 0.  1.
</event>
<event>
 8    1  0.7039283E-009  0.2813638E+03  0.7561462E-02  0.1094946E+00
         -2   -1    0    0    0  501 -0.00000000000E+00  0.00000000000E+00  0.42512790207E+03  0.42512790207E+03  0.00000000000E+00 0.  1.
          2   -1    0    0  501    0  0.00000000000E+00 -0.00000000000E+00 -0.20689702973E+03  0.20689702973E+03  0.00000000000E+00 0. -1.
         25    2    1    2    0    0  0.25077066847E+03  0.80269838097E+02  0.24363006495E+02  0.29252470564E+03  0.12509185525E+03 0.  0.
         23    2    1    2    0    0 -0.25077066847E+03 -0.80269838097E+02  0.19386786585E+03  0.33950022616E+03  0.91359066761E+02 0.  0.
          5    1    3    3  502    0  0.25208376091E+03  0.96983922704E+02  0.34764578188E+02  0.27235666336E+03  0.41800000000E+01 0. -1.
         -5    1    3    3    0  502 -0.13130924369E+01 -0.16714084607E+02 -0.10401571693E+02  0.20168042287E+02  0.41800000000E+01 0. -1.
        -11    1    4    4    0    0 -0.19542849311E+03 -0.96071544623E+02  0.17355782740E+03  0.27846787437E+03  0.00000000000E+00 0.  1.
         11    1    4    4    0    0 -0.55342175368E+02  0.15801706526E+02  0.20310038454E+02  0.61032351795E+02  0.00000000000E+00 0. -1.
</event>
<event>
 8    1  0.7039283E-009  0.1017930E+03  0.7561462E-02  0.1276570E+00
         -2   -1    0    0    0  501 -0.00000000000E+00  0.00000000000E+00  0.48176172297E+02  0.48176172297E+02  0.00000000000E+00 0. -1.
          2   -1    0    0  501    0  0.00000000000E+00 -0.00000000000E+00 -0.31822580740E+03  0.31822580740E+03  0.00000000000E+00 0.  1.
         25    2    1    2    0    0 -0.45588312716E+02  0.19288174184E+02 -0.20248232673E+03  0.24309865449E+03  0.12509010855E+03 0.  0.
         23    2    1    2    0    0  0.45588312716E+02 -0.19288174184E+02 -0.67567308375E+02  0.12330332521E+03  0.90487794354E+02 0.  0.
          5    1    3    3  502    0  0.42674801503E+02  0.10860102245E+02 -0.85373123762E+02  0.96151563508E+02  0.41800000000E+01 0. -1.
         -5    1    3    3    0  502 -0.88263114219E+02  0.84280719391E+01 -0.11710920297E+03  0.14694709098E+03  0.41800000000E+01 0. -1.
        -11    1    4    4    0    0  0.28932666455E+02 -0.36541643461E+02 -0.82712065040E+02  0.94940384444E+02  0.00000000000E+00 0.  1.
         11    1    4    4    0    0  0.16655646262E+02  0.17253469277E+02  0.15144756665E+02  0.28362940767E+02  0.00000000000E+00 0. -1.
</event>
<event>
 8    1  0.7039283E-009  0.1087905E+03  0.7561462E-02  0.1262826E+00
         -2   -1    0    0    0  501 -0.00000000000E+00  0.00000000000E+00  0.63812303175E+02  0.63812303175E+02  0.00000000000E+00 0.  1.
          2   -1    0    0  501    0  0.00000000000E+00 -0.00000000000E+00 -0.22536908606E+03  0.22536908606E+03  0.00000000000E+00 0. -1.
         25    2    1    2    0    0 -0.18406493558E+02 -0.20651434830E+02 -0.14549893121E+03  0.19386392131E+03  0.12509196712E+03 0.  0.
         23    2    1    2    0    0  0.18406493558E+02  0.20651434830E+02 -0.16057851677E+02  0.95317467926E+02  0.89790223998E+02 0.  0.
          5    1    3    3  502    0 -0.35913279567E+02 -0.67226492300E+02 -0.10358547417E+03  0.12867240487E+03  0.41800000000E+01 0.  1.
         -5    1    3    3    0  502  0.17506786009E+02  0.46575057470E+02 -0.41913457044E+02  0.65191516443E+02  0.41800000000E+01 0.  1.
        -11    1    4    4    0    0 -0.25389810487E+02  0.36739338384E+02  0.33497345727E+01  0.44784396648E+02  0.00000000000E+00 0.  1.
         11    1    4    4    0    0  0.43796304044E+02 -0.16087903554E+02 -0.19407586249E+02  0.50533071278E+02  0.00000000000E+00 0. -1.
</event>
<event>
 8    1  0.7039283E-009  0.1536106E+03  0.7561462E-02  0.1196105E+00
          1   -1    0    0  501    0  0.00000000000E+00  0.00000000000E+00  0.97906806572E+03  0.97906806572E+03  0.00000000000E+00 0. -1.
         -1   -1    0    0    0  501 -0.00000000000E+00 -0.00000000000E+00 -0.30607499432E+02  0.30607499432E+02  0.00000000000E+00 0.  1.
         25    2    1    2    0    0 -0.56820605916E+02  0.11168592690E+03  0.64333423465E+03  0.66725513987E+03  0.12509259247E+03 0.  0.
         23    2    1    2    0    0  0.56820605916E+02 -0.11168592690E+03  0.30512633164E+03  0.34242042528E+03  0.91909422074E+02 0.  0.
          5    1    3    3  502    0 -0.36953852875E+02 -0.20048850506E+02  0.19512371581E+03  0.19964538692E+03  0.41800000000E+01 0. -1.
         -5    1    3    3    0  502 -0.19866753041E+02  0.13173477740E+03  0.44821051885E+03  0.46760975295E+03  0.41800000000E+01 0. -1.
        -11    1    4    4    0    0  0.28632207191E+01 -0.48532869564E+02  0.35253908328E+02  0.60053938367E+02  0.00000000000E+00 0.  1.
         11    1    4    4    0    0  0.53957385197E+02 -0.63153057332E+02  0.26987242331E+03  0.28236648692E+03  0.00000000000E+00 0. -1.
</event>
<event>
 8    1  0.7039283E-009  0.1541590E+03  0.7561462E-02  0.1195454E+00
         -1   -1    0    0    0  501 -0.00000000000E+00  0.00000000000E+00  0.75459497406E+03  0.75459497406E+03  0.00000000000E+00 0.  1.
          1   -1    0    0  501    0  0.00000000000E+00 -0.00000000000E+00 -0.40148958157E+02  0.40148958157E+02  0.00000000000E+00 0. -1.
         25    2    1    2    0    0  0.96841877558E+02 -0.94813957309E+02  0.36086289743E+03  0.40526244073E+03  0.12509028489E+03 0.  0.
         23    2    1    2    0    0 -0.96841877558E+02  0.94813957309E+02  0.35358311847E+03  0.38948149149E+03  0.91141509721E+02 0.  0.
          5    1    3    3  502    0  0.93734392329E+02 -0.59178951108E+02  0.12692881480E+03  0.16857247992E+03  0.41800000000E+01 0.  1.
         -5    1    3    3    0  502  0.31074852285E+01 -0.35635006201E+02  0.23393408263E+03  0.23668996081E+03  0.41800000000E+01 0.  1.
        -11    1    4    4    0    0 -0.70573281379E+02  0.84200115708E+01  0.12642592643E+03  0.14503447698E+03  0.00000000000E+00 0. -1.
         11    1    4    4    0    0 -0.26268596179E+02  0.86393945738E+02  0.22715719204E+03  0.24444701450E+03  0.00000000000E+00 0.  1.
</event>
<event>
 8    1  0.7039283E-009  0.1807567E+03  0.7561462E-02  0.1167073E+00
          1   -1    0    0  501    0  0.00000000000E+00  0.00000000000E+00  0.30518662506E+03  0.30518662506E+03  0.00000000000E+00 0. -1.
         -1   -1    0    0    0  501 -0.00000000000E+00 -0.00000000000E+00 -0.15827525701E+03  0.15827525701E+03  0.00000000000E+00 0.  1.
         25    2    1    2    0    0 -0.14593314030E+03  0.59439309998E+02  0.18861563161E+03  0.27577784866E+03  0.12509217526E+03 0.  0.
         23    2    1    2    0    0  0.14593314030E+03 -0.59439309998E+02 -0.41704263553E+02  0.18768403342E+03  0.93040516919E+02 0.  0.
          5    1    3    3  502    0 -0.63769954047E+02 -0.17561218341E+02  0.13626653641E+03  0.15152902287E+03  0.41800000000E+01 0. -1.
         -5    1    3    3    0  502 -0.82163186256E+02  0.77000528339E+02  0.52349095201E+02  0.12424882578E+03  0.41800000000E+01 0. -1.
        -11    1    4    4    0    0  0.79302154841E+02 -0.80178143543E+02 -0.19440351532E+02  0.11443467015E+03  0.00000000000E+00 0.  1.
         11    1    4    4    0    0  0.66630985462E+02  0.20738833544E+02 -0.22263912022E+02  0.73249363266E+02  0.00000000000E+00 0. -1.
</event>
<event>
 8    1  0.7039283E-009  0.1153646E+03  0.7561462E-02  0.1250946E+00
          1   -1    0    0  501    0  0.00000000000E+00  0.00000000000E+00  0.75957306234E+03  0.75957306234E+03  0.00000000000E+00 0. -1.
         -1   -1    0    0    0  501 -0.00000000000E+00 -0.00000000000E+00 -0.23449667025E+02  0.23449667025E+02  0.00000000000E+00 0.  1.
         25    2    1    2    0    0  0.34494152060E+02  0.38722840527E+02  0.57307892789E+03  0.58885846464E+03  0.12508208859E+03 0.  0.
         23    2    1    2    0    0 -0.34494152060E+02 -0.38722840527E+02  0.16304446743E+03  0.19416426472E+03  0.91798466394E+02 0.  0.
          5    1    3    3  502    0 -0.39275065582E+02  0.33558368665E+02  0.13586021902E+03  0.14541033800E+03  0.41800000000E+01 0. -1.
         -5    1    3    3    0  502  0.73769217642E+02  0.51644718626E+01  0.43721870887E+03  0.44344812664E+03  0.41800000000E+01 0. -1.
        -11    1    4    4    0    0  0.30760002610E+02 -0.20900778893E+02  0.68014342979E+02  0.77517553946E+02  0.00000000000E+00 0. -1.
         11    1    4    4    0    0 -0.65254154671E+02 -0.17822061634E+02  0.95030124448E+02  0.11664671078E+03  0.00000000000E+00 0.  1.
</event>
<event>
 8    1  0.7039283E-009  0.1643935E+03  0.7561462E-02  0.1183824E+00
          2   -1    0    0  501    0  0.00000000000E+00  0.00000000000E+00  0.10519423820E+04  0.10519423820E+04  0.00000000000E+00 0. -1.
         -2   -1    0    0    0  501 -0.00000000000E+00 -0.00000000000E+00 -0.33348647844E+02  0.33348647844E+02  0.00000000000E+00 0.  1.
         25    2    1    2    0    0 -0.10245450739E+03  0.75332311822E+02  0.29328947720E+03  0.34327537001E+03  0.12508948370E+03 0.  0.
         23    2    1    2    0    0  0.10245450739E+03 -0.75332311822E+02  0.72530425693E+03  0.74201565980E+03  0.91373360377E+02 0.  0.
          5    1    3    3  502    0 -0.12008848821E+03  0.93754796023E+02  0.24604299617E+03  0.28942328024E+03  0.41800000000E+01 0. -1.
         -5    1    3    3    0  502  0.17633980818E+02 -0.18422484201E+02  0.47246481024E+02  0.53852089772E+02  0.41800000000E+01 0. -1.
        -11    1    4    4    0    0 -0.13479927802E+02 -0.13769190947E+02  0.41892449981E+02  0.46111565125E+02  0.00000000000E+00 0.  1.
         11    1    4    4    0    0  0.11593443519E+03 -0.61563120876E+02  0.68341180695E+03  0.69590409468E+03  0.00000000000E+00 0. -1.
</event>
<event>
 8    1  0.7039283E-009  0.1212906E+03  0.7561462E-02  0.1240983E+00
          1   -1    0    0  501    0  0.00000000000E+00  0.00000000000E+00  0.81667092031E+02  0.81667092031E+02  0.00000000000E+00 0. -1.
         -1   -1    0    0    0  501 -0.00000000000E+00 -0.00000000000E+00 -0.18317884535E+03  0.18317884535E+03  0.00000000000E+00 0.  1.
         25    2    1    2    0    0  0.28115468084E+02 -0.49683763709E+02 -0.62758893993E+02  0.15114709728E+03  0.12509120799E+03 0.  0.
         23    2    1    2    0    0 -0.28115468084E+02  0.49683763709E+02 -0.38752859330E+02  0.11369884011E+03  0.90369719564E+02 0.  0.
          5    1    3    3  502    0 -0.48738423515E+02 -0.13420930080E+02 -0.35088563681E+02  0.61678480787E+02  0.41800000000E+01 0. -1.
         -5    1    3    3    0  502  0.76853891599E+02 -0.36262833629E+02 -0.27670330311E+02  0.89468616488E+02  0.41800000000E+01 0. -1.
        -11    1    4    4    0    0 -0.61312123628E+02  0.31933542268E+02 -0.27616408865E+02  0.74441881116E+02  0.00000000000E+00 0. -1.
         11    1    4    4    0    0  0.33196655543E+02  0.17750221441E+02 -0.11136450465E+02  0.39256958994E+02  0.00000000000E+00 0.  1.
</event>
<event>
 8    1  0.7039283E-009  0.2612324E+03  0.7561462E-02  0.1106405E+00
         -1   -1    0    0    0  501 -0.00000000000E+00  0.00000000000E+00  0.83113132580E+02  0.83113132580E+02  0.00000000000E+00 0.  1.
          1   -1    0    0  501    0  0.00000000000E+00 -0.00000000000E+00 -0.83732015874E+03  0.83732015874E+03  0.00000000000E+00 0. -1.
         25    2    1    2    0    0 -0.43930537454E+02 -0.23558449789E+03 -0.35614872319E+03  0.44712682800E+03  0.12510211635E+03 0.  0.
         23    2    1    2    0    0  0.43930537454E+02  0.23558449789E+03 -0.39805830297E+03  0.47330646333E+03  0.90214455008E+02 0.  0.
          5    1    3    3  502    0  0.82017240643E+01 -0.20626847537E+03 -0.30501183780E+03  0.36832546180E+03  0.41800000000E+01 0. -1.
         -5    1    3    3    0  502 -0.52132261518E+02 -0.29316022522E+02 -0.51136885391E+02  0.78801366200E+02  0.41800000000E+01 0. -1.
        -11    1    4    4    0    0  0.70148746235E+02  0.13559612244E+03 -0.23389417866E+03  0.27930922260E+03  0.00000000000E+00 0. -1.
         11    1    4    4    0    0 -0.26218208781E+02  0.99988375457E+02 -0.16416412432E+03  0.19399724073E+03  0.00000000000E+00 0.  1.
</event>
<event>
 8    1  0.7039283E-009  0.1312474E+03  0.7561462E-02  0.1225616E+00
         -2   -1    0    0    0  501 -0.00000000000E+00  0.00000000000E+00  0.25713098288E+02  0.25713098288E+02  0.00000000000E+00 0. -1.
          2   -1    0    0  501    0  0.00000000000E+00 -0.00000000000E+00 -0.12098990818E+04  0.12098990818E+04  0.00000000000E+00 0.  1.
         25    2    1    2    0    0 -0.36311728219E+02 -0.90686539697E+02 -0.97258736687E+03  0.98545223164E+03  0.12508926639E+03 0.  0.
         23    2    1    2    0    0  0.36311728219E+02  0.90686539697E+02 -0.21159861662E+03  0.25015994842E+03  0.90903438607E+02 0.  0.
          5    1    3    3  502    0  0.14282087780E+01  0.16272858812E+02 -0.20142591253E+02  0.26268652356E+02  0.41800000000E+01 0. -1.
         -5    1    3    3    0  502 -0.37739936997E+02 -0.10695939851E+03 -0.95244477562E+03  0.95918357929E+03  0.41800000000E+01 0. -1.
        -11    1    4    4    0    0  0.66000321361E+02  0.68057721450E+02 -0.16667468141E+03  0.19175073740E+03  0.00000000000E+00 0.  1.
         11    1    4    4    0    0 -0.29688593142E+02  0.22628818247E+02 -0.44923935211E+02  0.58409211027E+02  0.00000000000E+00 0. -1.
</event>
<event>
 8    1  0.7039283E-009  0.6773421E+02  0.7561462E-02  0.1367972E+00
         -2   -1    0    0    0  501 -0.00000000000E+00  0.00000000000E+00  0.27561161966E+03  0.27561161966E+03  0.00000000000E+00 0.  1.
          2   -1    0    0  501    0  0.00000000000E+00 -0.00000000000E+00 -0.49720600657E+02  0.49720600657E+02  0.00000000000E+00 0. -1.
         25    2    1    2    0    0  0.20122813555E+02 -0.17071268070E+02  0.80362143447E+02  0.15100826189E+03  0.12509622392E+03 0.  0.
         23    2    1    2    0    0 -0.20122813555E+02  0.17071268070E+02  0.14552887556E+03  0.17432395843E+03  0.92270434286E+02 0.  0.
          5    1    3    3  502    0  0.24306194602E+02 -0.44751329500E+02  0.10285925224E+03  0.11485195148E+03  0.41800000000E+01 0.  1.
         -5    1    3    3    0  502 -0.41833810469E+01  0.27680061429E+02 -0.22497108795E+02  0.36156310402E+02  0.41800000000E+01 0.  1.
        -11    1    4    4    0    0 -0.10451874475E+02  0.34546800098E+02  0.14964077062E+03  0.15393207369E+03  0.00000000000E+00 0.  1.
         11    1    4    4    0    0 -0.96709390799E+01 -0.17475532028E+02 -0.41118950665E+01  0.20391884743E+02  0.00000000000E+00 0. -1.
</event>
<event>
 8    1  0.7039283E-009  0.1627123E+03  0.7561462E-02  0.1185668E+00
         -2   -1    0    0    0  501 -0.00000000000E+00  0.00000000000E+00  0.15491816575E+03  0.15491816575E+03  0.00000000000E+00 0.  1.
          2   -1    0    0  501    0  0.00000000000E+00 -0.00000000000E+00 -0.18775758283E+03  0.18775758283E+03  0.00000000000E+00 0. -1.
         25    2    1    2    0    0 -0.80572958541E+02  0.10412343028E+03  0.20756891643E+01  0.18161492337E+03  0.12508389794E+03 0.  0.
         23    2    1    2    0    0  0.80572958541E+02 -0.10412343028E+03 -0.34915106243E+02  0.16106082521E+03  0.85952512433E+02 0.  0.
          5    1    3    3  502    0 -0.72833521912E+01 -0.22245260645E+02 -0.23293446935E+02  0.33285971676E+02  0.41800000000E+01 0.  1.
         -5    1    3    3    0  502 -0.73289606349E+02  0.12636869092E+03  0.25369136100E+02  0.14832895169E+03  0.41800000000E+01 0.  1.
        -11    1    4    4    0    0  0.89476717585E+01 -0.79142930308E+02 -0.59736258859E+01  0.79870823546E+02  0.00000000000E+00 0.  1.
         11    1    4    4    0    0  0.71625286782E+02 -0.24980499967E+02 -0.28941480357E+02  0.81190001666E+02  0.00000000000E+00 0. -1.
</event>
<event>
 8    1  0.7039283E-009  0.1377662E+03  0.7561462E-02  0.1216367E+00
          1   -1    0    0  501    0  0.00000000000E+00  0.00000000000E+00  0.18223277656E+03  0.18223277656E+03  0.00000000000E+00 0. -1.
         -1   -1    0    0    0  501 -0.00000000000E+00 -0.00000000000E+00 -0.14128693796E+03  0.14128693796E+03  0.00000000000E+00 0.  1.
         25    2    1    2    0    0 -0.10061424915E+03 -0.53239067596E+01 -0.39668343667E+02  0.16544707308E+03  0.12509030893E+03 0.  0.
         23    2    1    2    0    0  0.10061424915E+03  0.53239067596E+01  0.80614182267E+02  0.15807264144E+03  0.91305763650E+02 0.  0.
          5    1    3    3  502    0 -0.10528962963E+03 -0.45030660746E+02 -0.48262158323E+02  0.12433975567E+03  0.41800000000E+01 0. -1.
         -5    1    3    3    0  502  0.46753804795E+01  0.39706753986E+02  0.85938146562E+01  0.41107317415E+02  0.41800000000E+01 0. -1.
        -11    1    4    4    0    0  0.49316804072E+02  0.35921757539E+02  0.43013399749E+01  0.61163889299E+02  0.00000000000E+00 0. -1.
         11    1    4    4    0    0  0.51297445074E+02 -0.30597850779E+02  0.76312842292E+02  0.96908752144E+02  0.00000000000E+00 0.  1.
</event>
<event>
 8    1  0.7039283E-009  0.1176445E+03  0.7561462E-02  0.1247034E+00
          2   -1    0    0  501    0  0.00000000000E+00  0.00000000000E+00  0.10000395082E+04  0.10000395082E+04  0.00000000000E+00 0. -1.
         -2   -1    0    0    0  501 -0.00000000000E+00 -0.00000000000E+00 -0.14895104151E+02  0.14895104151E+02  0.00000000000E+00 0.  1.
         25    2    1    2    0    0 -0.51412777417E+02 -0.89728757868E+01  0.60052133409E+03  0.61562766111E+03  0.12509099985E+03 0.  0.
         23    2    1    2    0    0  0.51412777417E+02  0.89728757868E+01  0.38462306992E+03  0.39930695120E+03  0.93740861865E+02 0.  0.
          5    1    3    3  502    0  0.36886397998E+02 -0.14328654857E+02  0.29025184020E+03  0.29296675553E+03  0.41800000000E+01 0.  1.
         -5    1    3    3    0  502 -0.88299175416E+02  0.53557790701E+01  0.31026949389E+03  0.32266090558E+03  0.41800000000E+01 0.  1.
        -11    1    4    4    0    0 -0.27565119315E+02  0.14889867083E+01  0.85722980669E+02  0.90058216166E+02  0.00000000000E+00 0.  1.
         11    1    4    4    0    0  0.78977896732E+02  0.74838890785E+01  0.29890008925E+03  0.30924873503E+03  0.00000000000E+00 0. -1.
</event>
<event>
 8    1  0.7039283E-009  0.7119670E+02  0.7561462E-02  0.1356070E+00
          2   -1    0    0  501    0  0.00000000000E+00  0.00000000000E+00  0.44761809510E+03  0.44761809510E+03  0.00000000000E+00 0. -1.
         -2   -1    0    0    0  501 -0.00000000000E+00 -0.00000000000E+00 -0.34369725553E+02  0.34369725553E+02  0.00000000000E+00 0.  1.
         25    2    1    2    0    0  0.57416852816E+02  0.21887770763E+02  0.26055351087E+03  0.29548548795E+03  0.12509105509E+03 0.  0.
         23    2    1    2    0    0 -0.57416852816E+02 -0.21887770763E+02  0.15269485867E+03  0.18650233271E+03  0.87701942640E+02 0.  0.
          5    1    3    3  502    0  0.66537449136E+02  0.21061372706E+02  0.53117139614E+02  0.87804991195E+02  0.41800000000E+01 0.  1.
         -5    1    3    3    0  502 -0.91205963207E+01  0.82639805629E+00  0.20743637126E+03  0.20768049675E+03  0.41800000000E+01 0.  1.
        -11    1    4    4    0    0 -0.47477938216E+02 -0.13379792475E+02  0.16271208664E+03  0.17002469410E+03  0.00000000000E+00 0. -1.
         11    1    4    4    0    0 -0.99389145993E+01 -0.85079782875E+01 -0.10017227967E+02  0.16477638608E+02  0.00000000000E+00 0.  1.
</event>
<event>
 8    1  0.7039283E-009  0.1639163E+03  0.7561462E-02  0.1184345E+00
         -3   -1    0    0    0  501 -0.00000000000E+00  0.00000000000E+00  0.11773357575E+03  0.11773357575E+03  0.00000000000E+00 0.  1.
          3   -1    0    0  501    0  0.00000000000E+00 -0.00000000000E+00 -0.24961046056E+03  0.24961046056E+03  0.00000000000E+00 0. -1.
         25    2    1    2    0    0 -0.12594187859E+03 -0.36596915399E+02 -0.76669186566E+02  0.19678892816E+03  0.12508807728E+03 0.  0.
         23    2    1    2    0    0  0.12594187859E+03  0.36596915399E+02 -0.55207698249E+02  0.17055510815E+03  0.94023741514E+02 0.  0.
          5    1    3    3  502    0 -0.11520261005E+03 -0.67517973008E+02 -0.90124111647E+02  0.16115255487E+03  0.41800000000E+01 0. -1.
         -5    1    3    3    0  502 -0.10739268546E+02  0.30921057609E+02  0.13454925081E+02  0.35636373293E+02  0.41800000000E+01 0. -1.
        -11    1    4    4    0    0  0.91415158552E+02 -0.21266857705E+02 -0.28694037474E+02  0.98144578232E+02  0.00000000000E+00 0. -1.
         11    1    4    4    0    0  0.34526720041E+02  0.57863773105E+02 -0.26513660775E+02  0.72410529914E+02  0.00000000000E+00 0.  1.
</event>
<event>
 8    1  0.7039283E-009  0.1079090E+03  0.7561462E-02  0.1264492E+00
         -1   -1    0    0    0  501 -0.00000000000E+00  0.00000000000E+00  0.74840429527E+02  0.74840429527E+02  0.00000000000E+00 0.  1.
          1   -1    0    0  501    0  0.00000000000E+00 -0.00000000000E+00 -0.23967552990E+03  0.23967552990E+03  0.00000000000E+00 0. -1.
         25    2    1    2    0    0 -0.13443498296E+02  0.66337256049E+02 -0.42880449425E+02  0.14855184117E+03  0.12509019700E+03 0.  0.
         23    2    1    2    0    0  0.13443498296E+02 -0.66337256049E+02 -0.12195465095E+03  0.16596411826E+03  0.89943273649E+02 0.  0.
          5    1    3    3  502    0 -0.55361821280E+02  0.37281425373E+02 -0.64579433220E+02  0.92966722693E+02  0.41800000000E+01 0. -1.
         -5    1    3    3    0  502  0.41918322985E+02  0.29055830677E+02  0.21698983795E+02  0.55585118475E+02  0.41800000000E+01 0. -1.
        -11    1    4    4    0    0 -0.26462403627E+02 -0.45781008063E+02 -0.23712106973E+02  0.57951906975E+02  0.00000000000E+00 0.  1.
         11    1    4    4    0    0  0.39905901922E+02 -0.20556247987E+02 -0.98242543976E+02  0.10801221128E+03  0.00000000000E+00 0. -1.
</event>
<event>
 8    1  0.7039283E-009  0.9014373E+02  0.7561462E-02  0.1302504E+00
         -1   -1    0    0    0  501 -0.00000000000E+00  0.00000000000E+00  0.66266119580E+03  0.66266119580E+03  0.00000000000E+00 0.  1.
          1   -1    0    0  501    0  0.00000000000E+00 -0.00000000000E+00 -0.25463588364E+02  0.25463588364E+02  0.00000000000E+00 0. -1.
         25    2    1    2    0    0 -0.18037203784E+02 -0.67379005436E+02  0.39403164132E+03  0.41925385510E+03  0.12509032564E+03 0.  0.
         23    2    1    2    0    0  0.18037203784E+02  0.67379005436E+02  0.24316596612E+03  0.26887092906E+03  0.91085774526E+02 0.  0.
          5    1    3    3  502    0  0.65467977617E+01 -0.52353733666E+02  0.38521577360E+03  0.38883471890E+03  0.41800000000E+01 0. -1.
         -5    1    3    3    0  502 -0.24584001546E+02 -0.15025271770E+02  0.88158677106E+01  0.30419136202E+02  0.41800000000E+01 0. -1.
        -11    1    4    4    0    0  0.41980213859E+02  0.59932626384E+02  0.22825775294E+03  0.23969951990E+03  0.00000000000E+00 0.  1.
         11    1    4    4    0    0 -0.23943010075E+02  0.74463790516E+01  0.14908213180E+02  0.29171409165E+02  0.00000000000E+00 0. -1.
</event>
<event>
 8    1  0.7039283E-009  0.1565831E+03  0.7561462E-02  0.1192609E+00
          1   -1    0    0  501    0  0.00000000000E+00  0.00000000000E+00  0.44838600923E+03  0.44838600923E+03  0.00000000000E+00 0. -1.
         -1   -1    0    0    0  501 -0.00000000000E+00 -0.00000000000E+00 -0.59030483056E+02  0.59030483056E+02  0.00000000000E+00 0.  1.
         25    2    1    2    0    0  0.64614131624E+01 -0.12110934451E+03  0.21315293913E+03  0.27530130959E+03  0.12508961752E+03 0.  0.
         23    2    1    2    0    0 -0.64614131624E+01  0.12110934451E+03  0.17620258704E+03  0.23211518270E+03  0.90115942944E+02 0.  0.
          5    1    3    3  502    0 -0.46561928020E+02 -0.23942089625E+02  0.11842050109E+03  0.12954583851E+03  0.41800000000E+01 0. -1.
         -5    1    3    3    0  502  0.53023341182E+02 -0.97167254882E+02  0.94732438039E+02  0.14575547107E+03  0.41800000000E+01 0. -1.
        -11    1    4    4    0    0 -0.47198677389E+02  0.71585814863E+02  0.11520424228E+03  0.14361149493E+03  0.00000000000E+00 0.  1.
         11    1    4    4    0    0  0.40737264227E+02  0.49523529644E+02  0.60998344759E+02  0.88503687767E+02  0.00000000000E+00 0. -1.
</event>
<event>
 8    1  0.7039283E-009  0.4527748E+03  0.7561462E-02  0.1026898E+00
          1   -1    0    0  501    0  0.00000000000E+00  0.00000000000E+00  0.15110261715E+04  0.15110261715E+04  0.00000000000E+00 0. -1.
         -1   -1    0    0    0  501 -0.00000000000E+00 -0.00000000000E+00 -0.21497353543E+03  0.21497353543E+03  0.00000000000E+00 0.  1.
         25    2    1    2    0    0  0.44887746895E+03  0.10522477679E+02  0.14663685732E+03  0.48862081469E+03  0.12508488300E+03 0.  0.
         23    2    1    2    0    0 -0.44887746895E+03 -0.10522477679E+02  0.11494157787E+04  0.12373788922E+04  0.91368407166E+02 0.  0.
          5    1    3    3  502    0  0.85871988737E+02 -0.24364055309E+02 -0.13385493997E+02  0.90356236588E+02  0.41800000000E+01 0. -1.
         -5    1    3    3    0  502  0.36300548021E+03  0.34886532988E+02  0.16002235132E+03  0.39826457810E+03  0.41800000000E+01 0. -1.
        -11    1    4    4    0    0 -0.39407568555E+03 -0.24806552959E+02  0.92151980394E+03  0.10025516246E+04  0.00000000000E+00 0. -1.
         11    1    4    4    0    0 -0.54801783403E+02  0.14284075279E+02  0.22789597478E+03  0.23482726757E+03  0.00000000000E+00 0.  1.
</event>
<event>
 8    1  0.7039283E-009  0.1605725E+03  0.7561462E-02  0.1188052E+00
         -1   -1    0    0    0  501 -0.00000000000E+00  0.00000000000E+00  0.43549499578E+02  0.43549499578E+02  0.00000000000E+00 0.  1.
          1   -1    0    0  501    0  0.00000000000E+00 -0.00000000000E+00 -0.95657872829E+03  0.95657872829E+03  0.00000000000E+00 0. -1.
         25    2    1    2    0    0 -0.82250688333E+02  0.90519727934E+02 -0.76762460540E+03  0.78730819983E+03  0.12509064645E+03 0.  0.
         23    2    1    2    0    0  0.82250688333E+02 -0.90519727934E+02 -0.14540462331E+03  0.21282002804E+03  0.95868988610E+02 0.  0.
          5    1    3    3  502    0 -0.66504014173E+02 -0.95848205398E+01 -0.20973635401E+03  0.22027587993E+03  0.41800000000E+01 0. -1.
         -5    1    3    3    0  502 -0.15746674159E+02  0.10010454847E+03 -0.55788825139E+03  0.56703231990E+03  0.41800000000E+01 0. -1.
        -11    1    4    4    0    0  0.89913633448E+02 -0.35206285974E+02 -0.71303642987E+02  0.12003396834E+03  0.00000000000E+00 0.  1.
         11    1    4    4    0    0 -0.76629451156E+01 -0.55313441960E+02 -0.74100980327E+02  0.92786059700E+02  0.00000000000E+00 0. -1.
</event>
<event>
 8    1  0.7039283E-009  0.1298715E+03  0.7561462E-02  0.1227646E+00
          1   -1    0    0  501    0  0.00000000000E+00  0.00000000000E+00  0.82787035748E+02  0.82787035748E+02  0.00000000000E+00 0. -1.
         -1   -1    0    0    0  501 -0.00000000000E+00 -0.00000000000E+00 -0.31573420592E+03  0.31573420592E+03  0.00000000000E+00 0.  1.
         25    2    1    2    0    0 -0.81722578668E+02 -0.56669949153E+02 -0.20197680989E+03  0.25754273428E+03  0.12507423893E+03 0.  0.
         23    2    1    2    0    0  0.81722578668E+02  0.56669949153E+02 -0.30970360281E+02  0.14097850739E+03  0.95003754289E+02 0.  0.
          5    1    3    3  502    0  0.25232475527E+02  0.13589530330E+02 -0.20658697210E+02  0.35575375278E+02  0.41800000000E+01 0. -1.
         -5    1    3    3    0  502 -0.10695505419E+03 -0.70259479483E+02 -0.18131811268E+03  0.22196735900E+03  0.41800000000E+01 0. -1.
        -11    1    4    4    0    0  0.17924642886E+02  0.26943013377E+02  0.32746049398E+02  0.46038272596E+02  0.00000000000E+00 0. -1.
         11    1    4    4    0    0  0.63797935782E+02  0.29726935776E+02 -0.63716409679E+02  0.94940234795E+02  0.00000000000E+00 0.  1.
</event>
<event>
 8    1  0.7039283E-009  0.1261911E+03  0.7561462E-02  0.1233219E+00
         -2   -1    0    0    0  501 -0.00000000000E+00  0.00000000000E+00  0.23232846037E+03  0.23232846037E+03  0.00000000000E+00 0.  1.
          2   -1    0    0  501    0  0.00000000000E+00 -0.00000000000E+00 -0.86736704203E+02  0.86736704203E+02  0.00000000000E+00 0. -1.
         25    2    1    2    0    0 -0.73526912182E+02 -0.51309712421E+02  0.62062800527E+02  0.16594555458E+03  0.12508893825E+03 0.  0.
         23    2    1    2    0    0  0.73526912182E+02  0.51309712421E+02  0.83528955640E+02  0.15311961000E+03  0.91813044449E+02 0.  0.
          5    1    3    3  502    0 -0.10348920420E+03 -0.63223986135E+02  0.50545849508E+02  0.13145205632E+03  0.41800000000E+01 0.  1.
         -5    1    3    3    0  502  0.29962292019E+02  0.11914273714E+02  0.11516951020E+02  0.34493498256E+02  0.41800000000E+01 0.  1.
        -11    1    4    4    0    0  0.25885530894E+02  0.42958526094E+02  0.91263755915E+02  0.10413725951E+03  0.00000000000E+00 0.  1.
         11    1    4    4    0    0  0.47641381288E+02  0.83511863268E+01 -0.77348002746E+01  0.48982350489E+02  0.00000000000E+00 0. -1.
</event>
<event>
 8    1  0.7039283E-009  0.1253718E+03  0.7561462E-02  0.1234489E+00
          2   -1    0    0  501    0  0.00000000000E+00  0.00000000000E+00  0.11807913404E+04  0.11807913404E+04  0.00000000000E+00 0. -1.
         -2   -1    0    0    0  501 -0.00000000000E+00 -0.00000000000E+00 -0.20741961826E+02  0.20741961826E+02  0.00000000000E+00 0.  1.
         25    2    1    2    0    0  0.13555981523E+02 -0.10188359019E+03  0.76560952186E+03  0.78254002612E+03  0.12508765698E+03 0.  0.
         23    2    1    2    0    0 -0.13555981523E+02  0.10188359019E+03  0.39443985675E+03  0.41899327614E+03  0.96997599326E+02 0.  0.
          5    1    3    3  502    0 -0.14296572793E+02 -0.10836429657E+03  0.72190077966E+03  0.73014068565E+03  0.41800000000E+01 0.  1.
         -5    1    3    3    0  502  0.27852554316E+02  0.64807063799E+01  0.43708742202E+02  0.52399340473E+02  0.41800000000E+01 0.  1.
        -11    1    4    4    0    0  0.84906489274E+01  0.82995666795E+02  0.37472692701E+03  0.38390186461E+03  0.00000000000E+00 0.  1.
         11    1    4    4    0    0 -0.22046630450E+02  0.18887923396E+02  0.19712929742E+02  0.35091411534E+02  0.00000000000E+00 0. -1.
</event>
<event>
 8    1  0.7039283E-009  0.1295932E+03  0.7561462E-02  0.1228061E+00
          1   -1    0    0  501    0  0.00000000000E+00  0.00000000000E+00  0.82931328036E+02  0.82931328036E+02  0.00000000000E+00 0. -1.
         -1   -1    0    0    0  501 -0.00000000000E+00 -0.00000000000E+00 -0.25538432026E+03  0.25538432026E+03  0.00000000000E+00 0.  1.
         25    2    1    2    0    0 -0.15464265425E+01 -0.94729465218E+02 -0.12126315100E+03  0.19831430827E+03  0.12509096714E+03 0.  0.
         23    2    1    2    0    0  0.15464265425E+01  0.94729465218E+02 -0.51189841225E+02  0.14000134003E+03  0.89464587123E+02 0.  0.
          5    1    3    3  502    0 -0.35065146761E+02 -0.10030000028E+03 -0.46444772748E+02  0.11603552856E+03  0.41800000000E+01 0. -1.
         -5    1    3    3    0  502  0.33518720218E+02  0.55705350596E+01 -0.74818378256E+02  0.82278779711E+02  0.41800000000E+01 0. -1.
        -11    1    4    4    0    0  0.35995539579E+02  0.38768655613E+02 -0.52142765768E+02  0.74280250064E+02  0.00000000000E+00 0.  1.
         11    1    4    4    0    0 -0.34449113037E+02  0.55960809606E+02  0.95292454275E+00  0.65721089963E+02  0.00000000000E+00 0. -1.
</event>
<event>
 8    1  0.7039283E-009  0.1345841E+03  0.7561462E-02  0.1220808E+00
          1   -1    0    0  501    0  0.00000000000E+00  0.00000000000E+00  0.80774582815E+03  0.80774582815E+03  0.00000000000E+00 0. -1.
         -1   -1    0    0    0  501 -0.00000000000E+00 -0.00000000000E+00 -0.29638060144E+02  0.29638060144E+02  0.00000000000E+00 0.  1.
         25    2    1    2    0    0  0.66744505040E+01 -0.11355747509E+03  0.42564675912E+03  0.45800085968E+03  0.12509906264E+03 0.  0.
         23    2    1    2    0    0 -0.66744505040E+01  0.11355747509E+03  0.35246100888E+03  0.37938302861E+03  0.82236677830E+02 0.  0.
          5    1    3    3  502    0  0.33160418837E+02 -0.94798801919E+02  0.40922135262E+03  0.42138582565E+03  0.41800000000E+01 0. -1.
         -5    1    3    3    0  502 -0.26485968333E+02 -0.18758673174E+02  0.16425406506E+02  0.36615034026E+02  0.41800000000E+01 0. -1.
        -11    1    4    4    0    0  0.18878588384E+02  0.10817784578E+03  0.31599016443E+03  0.33452747486E+03  0.00000000000E+00 0.  1.
         11    1    4    4    0    0 -0.25553038888E+02  0.53796293088E+01  0.36470844451E+02  0.44855553758E+02  0.00000000000E+00 0. -1.
</event>
<event>
 8    1  0.7039283E-009  0.7931389E+02  0.7561462E-02  0.1331010E+00
         -1   -1    0    0    0  501 -0.00000000000E+00  0.00000000000E+00  0.19885176793E+02  0.19885176793E+02  0.00000000000E+00 0.  1.
          1   -1    0    0  501    0  0.00000000000E+00 -0.00000000000E+00 -0.83241624647E+03  0.83241624647E+03  0.00000000000E+00 0. -1.
         25    2    1    2    0    0  0.32209939168E+02 -0.22770257235E+02 -0.63898075606E+03  0.65230395284E+03  0.12509226791E+03 0.  0.
         23    2    1    2    0    0 -0.32209939168E+02  0.22770257235E+02 -0.17355031362E+03  0.19999747042E+03  0.91232187411E+02 0.  0.
          5    1    3    3  502    0  0.46594772460E+02 -0.35903803424E+02 -0.12795937320E+03  0.14089439134E+03  0.41800000000E+01 0. -1.
         -5    1    3    3    0  502 -0.14384833292E+02  0.13133546189E+02 -0.51102138286E+03  0.51140956151E+03  0.41800000000E+01 0. -1.
        -11    1    4    4    0    0 -0.53122990245E+02  0.70862957956E+01 -0.48619475554E+02  0.72361046730E+02  0.00000000000E+00 0.  1.
         11    1    4    4    0    0  0.20913051077E+02  0.15683961439E+02 -0.12493083807E+03  0.12763642369E+03  0.00000000000E+00 0. -1.
</event>
<event>
 8    1  0.7039283E-009  0.9030443E+02  0.7561462E-02  0.1302116E+00
         -1   -1    0    0    0  501 -0.00000000000E+00  0.00000000000E+00  0.91251025678E+02  0.91251025678E+02  0.00000000000E+00 0.  1.
          1   -1    0    0  501    0  0.00000000000E+00 -0.00000000000E+00 -0.13441683559E+03  0.13441683559E+03  0.00000000000E+00 0. -1.
         25    2    1    2    0    0  0.22877400017E+01 -0.25230854439E+02 -0.26384141254E+02  0.13032729704E+03  0.12508897502E+03 0.  0.
         23    2    1    2    0    0 -0.22877400017E+01  0.25230854439E+02 -0.16781668659E+02  0.95340564234E+02  0.90367964542E+02 0.  0.
          5    1    3    3  502    0  0.36773418555E+02 -0.57923766533E+02  0.11139419665E+02  0.69634805320E+02  0.41800000000E+01 0.  1.
         -5    1    3    3    0  502 -0.34485678553E+02  0.32692912094E+02 -0.37523560920E+02  0.60692491715E+02  0.41800000000E+01 0.  1.
        -11    1    4    4    0    0 -0.16779599286E+01 -0.19430322295E+02  0.26661037306E+02  0.33032769854E+02  0.00000000000E+00 0.  1.
         11    1    4    4    0    0 -0.60978007303E+00  0.44661176734E+02 -0.43442705965E+02  0.62307794380E+02  0.00000000000E+00 0. -1.
</event>
<event>
 8    1  0.7039283E-009  0.6526276E+02  0.7561462E-02  0.1376986E+00
         -2   -1    0    0    0  501 -0.00000000000E+00  0.00000000000E+00  0.96620269840E+02  0.96620269840E+02  0.00000000000E+00 0.  1.
          2   -1    0    0  501    0  0.00000000000E+00 -0.00000000000E+00 -0.14723478705E+03  0.14723478705E+03  0.00000000000E+00 0. -1.
         25    2    1    2    0    0  0.20041593851E+02  0.20823316031E+02  0.13681895787E+02  0.12911587474E+03  0.12509372031E+03 0.  0.
         23    2    1    2    0    0 -0.20041593851E+02 -0.20823316031E+02 -0.64296413002E+02  0.11473918216E+03  0.90530520947E+02 0.  0.
          5    1    3    3  502    0  0.39344875309E+01  0.41854535924E+02  0.61310326611E+02  0.74456100614E+02  0.41800000000E+01 0. -1.
         -5    1    3    3    0  502  0.16107106321E+02 -0.21031219894E+02 -0.47628430824E+02  0.54659774121E+02  0.41800000000E+01 0. -1.
        -11    1    4    4    0    0 -0.87791305345E+01 -0.39055784215E+02 -0.79127717751E+02  0.88677072178E+02  0.00000000000E+00 0. -1.
         11    1    4    4    0    0 -0.11262463317E+02  0.18232468184E+02  0.14831304750E+02  0.26062109980E+02  0.00000000000E+00 0.  1.
</event>
<event>
 8    1  0.7039283E-009  0.8233378E+02  0.7561462E-02  0.1322556E+00
          3   -1    0    0  501    0  0.00000000000E+00  0.00000000000E+00  0.10197897674E+03  0.10197897674E+03  0.00000000000E+00 0. -1.
         -3   -1    0    0    0  501 -0.00000000000E+00 -0.00000000000E+00 -0.16395318175E+03  0.16395318175E+03  0.00000000000E+00 0.  1.
         25    2    1    2    0    0 -0.59734776259E+02  0.15062778027E+02 -0.66908692160E+00  0.13943905836E+03  0.12509065730E+03 0.  0.
         23    2    1    2    0    0  0.59734776259E+02 -0.15062778027E+02 -0.61305118082E+02  0.12649310013E+03  0.91907867460E+02 0.  0.
          5    1    3    3  502    0 -0.20448855184E+02  0.34762640252E+02 -0.55695908902E+02  0.68891969808E+02  0.41800000000E+01 0.  1.
         -5    1    3    3    0  502 -0.39285921075E+02 -0.19699862224E+02  0.55026821980E+02  0.70547088555E+02  0.41800000000E+01 0.  1.
        -11    1    4    4    0    0  0.36535215134E+02 -0.34089918075E+02 -0.77640064788E+02  0.92330515646E+02  0.00000000000E+00 0. -1.
         11    1    4    4    0    0  0.23199561125E+02  0.19027140048E+02  0.16334946705E+02  0.34162584485E+02  0.00000000000E+00 0.  1.
</event>
<event>
 8    1  0.7039283E-009  0.3125899E+03  0.7561462E-02  0.1079111E+00
         -2   -1    0    0    0  501 -0.00000000000E+00  0.00000000000E+00  0.17004661670E+03  0.17004661670E+03  0.00000000000E+00 0.  1.
          2   -1    0    0  501    0  0.00000000000E+00 -0.00000000000E+00 -0.61382776971E+03  0.61382776971E+03  0.00000000000E+00 0. -1.
         25    2    1    2    0    0 -0.28671589931E+03  0.10032534988E+03 -0.24523092345E+03  0.40994758125E+03  0.12509049049E+03 0.  0.
         23    2    1    2    0    0  0.28671589931E+03 -0.10032534988E+03 -0.19855022956E+03  0.37392680515E+03  0.90154751445E+02 0.  0.
          5    1    3    3  502    0 -0.11229347618E+03  0.87015846278E+02 -0.16405516014E+03  0.21705563864E+03  0.41800000000E+01 0.  1.
         -5    1    3    3    0  502 -0.17442242313E+03  0.13309503601E+02 -0.81175763314E+02  0.19289194261E+03  0.41800000000E+01 0.  1.
        -11    1    4    4    0    0  0.27625928813E+03 -0.10633381976E+03 -0.20517165833E+03  0.36016868948E+03  0.00000000000E+00 0. -1.
         11    1    4    4    0    0  0.10456611180E+02  0.60084698804E+01  0.66214287748E+01  0.13758115667E+02  0.00000000000E+00 0.  1.
</event>
<event>
 8    1  0.7039283E-009  0.9863756E+02  0.7561462E-02  0.1283187E+00
         -2   -1    0    0    0  501 -0.00000000000E+00  0.00000000000E+00  0.19444637039E+02  0.19444637039E+02  0.00000000000E+00 0.  1.
          2   -1    0    0  501    0  0.00000000000E+00 -0.00000000000E+00 -0.87412834041E+03  0.87412834041E+03  0.00000000000E+00 0. -1.
         25    2    1    2    0    0  0.58843287988E+02 -0.28797329167E+01 -0.60421340272E+03  0.61983355815E+03  0.12509587676E+03 0.  0.
         23    2    1    2    0    0 -0.58843287988E+02  0.28797329167E+01 -0.25047030065E+03  0.27373941929E+03  0.93418803063E+02 0.  0.
          5    1    3    3  502    0  0.86608479421E+02  0.99035701445E+01 -0.26033500742E+03  0.27457402990E+03  0.41800000000E+01 0. -1.
         -5    1    3    3    0  502 -0.27765191433E+02 -0.12783303061E+02 -0.34387839530E+03  0.34525952825E+03  0.41800000000E+01 0. -1.
        -11    1    4    4    0    0 -0.17070253059E+02 -0.24018745960E+02 -0.14962808199E+02  0.33048136501E+02  0.00000000000E+00 0.  1.
         11    1    4    4    0    0 -0.41773034929E+02  0.26898478876E+02 -0.23550749245E+03  0.24069128279E+03  0.00000000000E+00 0. -1.
</event>
<event>
 8    1  0.7039283E-009  0.9836517E+02  0.7561462E-02  0.1283772E+00
          1   -1    0    0  501    0  0.00000000000E+00  0.00000000000E+00  0.24888818496E+03  0.24888818496E+03  0.00000000000E+00 0. -1.
         -1   -1    0    0    0  501 -0.00000000000E+00 -0.00000000000E+00 -0.61237655814E+02  0.61237655814E+02  0.00000000000E+00 0.  1.
         25    2    1    2    0    0 -0.37049223794E+02  0.36476547102E+00  0.16308915574E+03  0.20884964125E+03  0.12508925571E+03 0.  0.
         23    2    1    2    0    0  0.37049223794E+02 -0.36476547102E+00  0.24561373409E+02  0.10127619952E+03  0.90999063121E+02 0.  0.
          5    1    3    3  502    0  0.32602467011E+02  0.33704814456E+02  0.94083952348E+02  0.10520550300E+03  0.41800000000E+01 0. -1.
         -5    1    3    3    0  502 -0.69651690804E+02 -0.33340048985E+02  0.69005203390E+02  0.10364413825E+03  0.41800000000E+01 0. -1.
        -11    1    4    4    0    0  0.50490252643E+02 -0.14780159863E+02 -0.16992267396E+02  0.55285223060E+02  0.00000000000E+00 0.  1.
         11    1    4    4    0    0 -0.13441028849E+02  0.14415394392E+02  0.41553640805E+02  0.45990976465E+02  0.00000000000E+00 0. -1.
</event>
<event>
 8    1  0.7039283E-009  0.1599733E+03  0.7561462E-02  0.1188727E+00
          1   -1    0    0  501    0  0.00000000000E+00  0.00000000000E+00  0.46804183760E+03  0.46804183760E+03  0.00000000000E+00 0. -1.
         -1   -1    0    0    0  501 -0.00000000000E+00 -0.00000000000E+00 -0.62198078762E+02  0.62198078762E+02  0.00000000000E+00 0.  1.
         25    2    1    2    0    0  0.32651385053E+02  0.12103093512E+03  0.27705517726E+03  0.32881496870E+03  0.12508042291E+03 0.  0.
         23    2    1    2    0    0 -0.32651385053E+02 -0.12103093512E+03  0.12878858158E+03  0.20142494766E+03  0.90944546792E+02 0.  0.
          5    1    3    3  502    0  0.49622708263E+01 -0.21687929799E+02  0.10050628730E+02  0.24768487410E+02  0.41800000000E+01 0. -1.
         -5    1    3    3    0  502  0.27689114227E+02  0.14271886492E+03  0.26700454853E+03  0.30404648129E+03  0.41800000000E+01 0. -1.
        -11    1    4    4    0    0  0.28167812579E+02 -0.56866163965E+02  0.73703522272E+02  0.97259423527E+02  0.00000000000E+00 0. -1.
         11    1    4    4    0    0 -0.60819197633E+02 -0.64164771158E+02  0.55085059305E+02  0.10416552413E+03  0.00000000000E+00 0.  1.
</event>
<event>
 8    1  0.7039283E-009  0.1590908E+03  0.7561462E-02  0.1189727E+00
          1   -1    0    0  501    0  0.00000000000E+00  0.00000000000E+00  0.66646223618E+02  0.66646223618E+02  0.00000000000E+00 0. -1.
         -1   -1    0    0    0  501 -0.00000000000E+00 -0.00000000000E+00 -0.43842598750E+03  0.43842598750E+03  0.00000000000E+00 0.  1.
         25    2    1    2    0    0 -0.11193317403E+03  0.66414148846E+02 -0.17061194460E+03  0.24838522333E+03  0.12508760495E+03 0.  0.
         23    2    1    2    0    0  0.11193317403E+03 -0.66414148846E+02 -0.20116781928E+03  0.25668698779E+03  0.92086066117E+02 0.  0.
          5    1    3    3  502    0 -0.60083188378E+02 -0.21715757814E+02 -0.21506403894E+02  0.67539332775E+02  0.41800000000E+01 0.  1.
         -5    1    3    3    0  502 -0.51849985648E+02  0.88129906660E+02 -0.14910554071E+03  0.18084589055E+03  0.41800000000E+01 0.  1.
        -11    1    4    4    0    0  0.18512036385E+02 -0.54603917492E+02 -0.11679955967E+03  0.13025521270E+03  0.00000000000E+00 0.  1.
         11    1    4    4    0    0  0.93421137642E+02 -0.11810231354E+02 -0.84368259609E+02  0.12643177509E+03  0.00000000000E+00 0. -1.
</event>
<event>
 8    1  0.7039283E-009  0.1499470E+03  0.7561462E-02  0.1200538E+00
         -3   -1    0    0    0  501 -0.00000000000E+00  0.00000000000E+00  0.12658793700E+04  0.12658793700E+04  0.00000000000E+00 0.  1.
          3   -1    0    0  501    0  0.00000000000E+00 -0.00000000000E+00 -0.18960238714E+02  0.18960238714E+02  0.00000000000E+00 0. -1.
         25    2    1    2    0    0  0.60042874067E+02 -0.88336590058E+02  0.78083538843E+03  0.79797243255E+03  0.12509036502E+03 0.  0.
         23    2    1    2    0    0 -0.60042874067E+02  0.88336590058E+02  0.46608374290E+03  0.48686717621E+03  0.91635648093E+02 0.  0.
          5    1    3    3  502    0  0.98642802339E+01 -0.10699221966E+03  0.59037204423E+03  0.60008437915E+03  0.41800000000E+01 0. -1.
         -5    1    3    3    0  502  0.50178593833E+02  0.18655629607E+02  0.19046334420E+03  0.19788805340E+03  0.41800000000E+01 0. -1.
        -11    1    4    4    0    0 -0.22221905918E+02 -0.16200990947E+02  0.12991514251E+03  0.13279393610E+03  0.00000000000E+00 0.  1.
         11    1    4    4    0    0 -0.37820968149E+02  0.10453758100E+03  0.33616860039E+03  0.35407324011E+03  0.00000000000E+00 0. -1.
</event>
<event>
 8    1  0.7039283E-009  0.1156214E+03  0.7561462E-02  0.1250500E+00
          1   -1    0    0  501    0  0.00000000000E+00  0.00000000000E+00  0.10863658946E+03  0.10863658946E+03  0.00000000000E+00 0. -1.
         -1   -1    0    0    0  501 -0.00000000000E+00 -0.00000000000E+00 -0.16960109331E+03  0.16960109331E+03  0.00000000000E+00 0.  1.
         25    2    1    2    0    0 -0.12566955061E+02 -0.80139379678E+02 -0.27888612703E+02  0.15167975989E+03  0.12509486923E+03 0.  0.
         23    2    1    2    0    0  0.12566955061E+02  0.80139379678E+02 -0.33075891142E+02  0.12655792288E+03  0.91338079324E+02 0.  0.
          5    1    3    3  502    0 -0.43606478190E+02 -0.10177137605E+03 -0.17053522139E+02  0.11210367051E+03  0.41800000000E+01 0.  1.
         -5    1    3    3    0  502  0.31039523129E+02  0.21631996374E+02 -0.10835090564E+02  0.39576089382E+02  0.41800000000E+01 0.  1.
        -11    1    4    4    0    0 -0.26285267754E+01  0.26490300306E+02  0.31498650761E+02  0.41240879756E+02  0.00000000000E+00 0. -1.
         11    1    4    4    0    0  0.15195481837E+02  0.53649079372E+02 -0.64574541903E+02  0.85317043126E+02  0.00000000000E+00 0.  1.
</event>
<event>
 8    1  0.7039283E-009  0.1171604E+03  0.7561462E-02  0.1247856E+00
          4   -1    0    0  501    0  0.00000000000E+00  0.00000000000E+00  0.17538367981E+03  0.17538367981E+03  0.00000000000E+00 0. -1.
         -4   -1    0    0    0  501 -0.00000000000E+00 -0.00000000000E+00 -0.10192729431E+03  0.10192729431E+03  0.00000000000E+00 0.  1.
         25    2    1    2    0    0 -0.28733970718E+02  0.70805276139E+02  0.28945708760E+02  0.14941296774E+03  0.12508937873E+03 0.  0.
         23    2    1    2    0    0  0.28733970718E+02 -0.70805276139E+02  0.44510676738E+02  0.12789800638E+03  0.92399521045E+02 0.  0.
          5    1    3    3  502    0 -0.27366152995E+02 -0.22832966288E+02 -0.22625444748E+02  0.42422091289E+02  0.41800000000E+01 0. -1.
         -5    1    3    3    0  502 -0.13678177230E+01  0.93638242427E+02  0.51571153509E+02  0.10699087645E+03  0.41800000000E+01 0. -1.
        -11    1    4    4    0    0  0.43533461868E+02 -0.77155906354E+02  0.91730379709E+01  0.89063689645E+02  0.00000000000E+00 0.  1.
         11    1    4    4    0    0 -0.14799491150E+02  0.63506302153E+01  0.35337638767E+02  0.38834316732E+02  0.00000000000E+00 0. -1.
</event>
<event>
 8    1  0.7039283E-009  0.1005685E+03  0.7561462E-02  0.1279105E+00
          4   -1    0    0  501    0  0.00000000000E+00  0.00000000000E+00  0.40199096707E+02  0.40199096707E+02  0.00000000000E+00 0. -1.
         -4   -1    0    0    0  501 -0.00000000000E+00 -0.00000000000E+00 -0.51799954965E+03  0.51799954965E+03  0.00000000000E+00 0.  1.
         25    2    1    2    0    0 -0.82989445870E+02 -0.15539343084E+02 -0.17887131830E+03  0.23403289953E+03  0.12509088792E+03 0.  0.
         23    2    1    2    0    0  0.82989445870E+02  0.15539343084E+02 -0.29892913464E+03  0.32416574683E+03  0.92715071971E+02 0.  0.
          5    1    3    3  502    0 -0.35168250808E+02  0.11927653769E+02  0.87910774841E+01  0.38390496645E+02  0.41800000000E+01 0. -1.
         -5    1    3    3    0  502 -0.47821195062E+02 -0.27466996854E+02 -0.18766239579E+03  0.19564240288E+03  0.41800000000E+01 0. -1.
        -11    1    4    4    0    0  0.46612915482E+02  0.42580761539E+02 -0.87297319543E+02  0.10773442877E+03  0.00000000000E+00 0. -1.
         11    1    4    4    0    0  0.36376530388E+02 -0.27041418454E+02 -0.21163181510E+03  0.21643131806E+03  0.00000000000E+00 0.  1.
</event>
<event>
 8    1  0.7039283E-009  0.7931439E+02  0.7561462E-02  0.1331008E+00
         -4   -1    0    0    0  501 -0.00000000000E+00  0.00000000000E+00  0.13107197382E+03  0.13107197382E+03  0.00000000000E+00 0.  1.
          4   -1    0    0  501    0  0.00000000000E+00 -0.00000000000E+00 -0.11888953484E+03  0.11888953484E+03  0.00000000000E+00 0. -1.
         25    2    1    2    0    0  0.25738303812E+02 -0.48382877610E+02  0.36794139356E+02  0.14143032813E+03  0.12508143706E+03 0.  0.
         23    2    1    2    0    0 -0.25738303812E+02  0.48382877610E+02 -0.24611700379E+02  0.10853118053E+03  0.90387599938E+02 0.  0.
          5    1    3    3  502    0 -0.33393764897E+01 -0.15788990056E+01  0.74387127004E+02  0.74595987971E+02  0.41800000000E+01 0. -1.
         -5    1    3    3    0  502  0.29077680302E+02 -0.46803978604E+02 -0.37592987648E+02  0.66834340164E+02  0.41800000000E+01 0. -1.
        -11    1    4    4    0    0  0.28710749903E+02  0.74197622313E+01  0.11025303132E+02  0.31637277707E+02  0.00000000000E+00 0.  1.
         11    1    4    4    0    0 -0.54449053715E+02  0.40963115379E+02 -0.35637003512E+02  0.76893902822E+02  0.00000000000E+00 0. -1.
</event>
<event>
 8    1  0.7039283E-009  0.4933194E+03  0.7561462E-02  0.1015537E+00
          2   -1    0    0  501    0  0.00000000000E+00  0.00000000000E+00  0.24460132709E+04  0.24460132709E+04  0.00000000000E+00 0. -1.
         -2   -1    0    0    0  501 -0.00000000000E+00 -0.00000000000E+00 -0.11530667076E+03  0.11530667076E+03  0.00000000000E+00 0.  1.
         25    2    1    2    0    0  0.40239424663E+03  0.28005877628E+03  0.15870337126E+04  0.16657362970E+04  0.12508940124E+03 0.  0.
         23    2    1    2    0    0 -0.40239424663E+03 -0.28005877628E+03  0.74367288759E+03  0.89558364472E+03  0.93094860584E+02 0.  0.
          5    1    3    3  502    0  0.24862028044E+03  0.20747126446E+03  0.12008865379E+04  0.12437854794E+04  0.41800000000E+01 0.  1.
         -5    1    3    3    0  502  0.15377396619E+03  0.72587511817E+02  0.38614717466E+03  0.42195081757E+03  0.41800000000E+01 0.  1.
        -11    1    4    4    0    0 -0.26398067286E+03 -0.21139087164E+03  0.57302070869E+03  0.66537555473E+03  0.00000000000E+00 0.  1.
         11    1    4    4    0    0 -0.13841357377E+03 -0.68667904639E+02  0.17065217891E+03  0.23020808999E+03  0.00000000000E+00 0. -1.
</event>
<event>
 8    1  0.7039283E-009  0.1096502E+03  0.7561462E-02  0.1261219E+00
          2   -1    0    0  501    0  0.00000000000E+00  0.00000000000E+00  0.99246004204E+02  0.99246004204E+02  0.00000000000E+00 0.  1.
         -2   -1    0    0    0  501 -0.00000000000E+00 -0.00000000000E+00 -0.14426103053E+03  0.14426103053E+03  0.00000000000E+00 0. -1.
         25    2    1    2    0    0  0.42949356562E+02 -0.19453272975E+02 -0.39549358154E+02  0.13940012463E+03  0.12508063782E+03 0.  0.
         23    2    1    2    0    0 -0.42949356562E+02  0.19453272975E+02 -0.54656681716E+01  0.10410691010E+03  0.92656883954E+02 0.  0.
          5    1    3    3  502    0  0.39924469678E+02 -0.67880719236E+02 -0.44324835026E+02  0.90465013807E+02  0.41800000000E+01 0. -1.
         -5    1    3    3    0  502  0.30248868837E+01  0.48427446261E+02  0.47754768716E+01  0.48935110824E+02  0.41800000000E+01 0. -1.
        -11    1    4    4    0    0 -0.66281496790E+02  0.15537322939E+02  0.18380419769E+02  0.70515849649E+02  0.00000000000E+00 0.  1.
         11    1    4    4    0    0  0.23332140228E+02  0.39159500363E+01 -0.23846087940E+02  0.33591060453E+02  0.00000000000E+00 0. -1.
</event>
<event>
 8    1  0.7039283E-009  0.1137787E+03  0.7561462E-02  0.1253728E+00
          2   -1    0    0  501    0  0.00000000000E+00  0.00000000000E+00  0.36829757568E+03  0.36829757568E+03  0.00000000000E+00 0. -1.
         -2   -1    0    0    0  501 -0.00000000000E+00 -0.00000000000E+00 -0.57211925802E+02  0.57211925802E+02  0.00000000000E+00 0.  1.
         25    2    1    2    0    0 -0.75604436421E+02  0.14806654525E+02  0.26623606396E+03  0.30407907912E+03  0.12508867569E+03 0.  0.
         23    2    1    2    0    0  0.75604436421E+02 -0.14806654525E+02  0.44849585926E+02  0.12143042236E+03  0.82453588719E+02 0.  0.
          5    1    3    3  502    0 -0.10126439230E+03 -0.18748607293E+02  0.16851488296E+03  0.19753664370E+03  0.41800000000E+01 0.  1.
         -5    1    3    3    0  502  0.25659955881E+02  0.33555261819E+02  0.97721180997E+02  0.10654243543E+03  0.41800000000E+01 0.  1.
        -11    1    4    4    0    0  0.27133142927E+02 -0.19393081387E+02 -0.21092864557E+02  0.39461474706E+02  0.00000000000E+00 0.  1.
         11    1    4    4    0    0  0.48471293495E+02  0.45864268611E+01  0.65942450483E+02  0.81968947657E+02  0.00000000000E+00 0. -1.
</event>
<event>
 8    1  0.7039283E-009  0.1103055E+03  0.7561462E-02  0.1260005E+00
          1   -1    0    0  501    0  0.00000000000E+00  0.00000000000E+00  0.48416415095E+02  0.48416415095E+02  0.00000000000E+00 0. -1.
         -1   -1    0    0    0  501 -0.00000000000E+00 -0.00000000000E+00 -0.31300885211E+03  0.31300885211E+03  0.00000000000E+00 0.  1.
         25    2    1    2    0    0  0.11421784166E+02  0.56366170955E+02 -0.13139641305E+03  0.19031525711E+03  0.12508907765E+03 0.  0.
         23    2    1    2    0    0 -0.11421784166E+02 -0.56366170955E+02 -0.13319602397E+03  0.17111001009E+03  0.90718533781E+02 0.  0.
          5    1    3    3  502    0 -0.13885459330E+02 -0.30896087632E+02 -0.77276088520E+02  0.84477455387E+02  0.41800000000E+01 0. -1.
         -5    1    3    3    0  502  0.25307243496E+02  0.87262258587E+02 -0.54120324526E+02  0.10583780172E+03  0.41800000000E+01 0. -1.
        -11    1    4    4    0    0 -0.43663721846E+02 -0.23923825650E+02 -0.10792140915E+03  0.11885243200E+03  0.00000000000E+00 0.  1.
         11    1    4    4    0    0  0.32241937680E+02 -0.32442345305E+02 -0.25274614825E+02  0.52257578099E+02  0.00000000000E+00 0. -1.
</event>
<event>
 8    1  0.7039283E-009  0.1152259E+03  0.7561462E-02  0.1251187E+00
         -1   -1    0    0    0  501 -0.00000000000E+00  0.00000000000E+00  0.11405718011E+03  0.11405718011E+03  0.00000000000E+00 0.  1.
          1   -1    0    0  501    0  0.00000000000E+00 -0.00000000000E+00 -0.25850389463E+03  0.25850389463E+03  0.00000000000E+00 0. -1.
         25    2    1    2    0    0 -0.24716350841E+01  0.10134334159E+03 -0.16641682242E+03  0.23155849799E+03  0.12509275496E+03 0.  0.
         23    2    1    2    0    0  0.24716350841E+01 -0.10134334159E+03  0.21970107899E+02  0.14100257674E+03  0.95511565486E+02 0.  0.
          5    1    3    3  502    0 -0.17065298967E+01  0.73363847542E+02 -0.11885821991E+02  0.74457447813E+02  0.41800000000E+01 0.  1.
         -5    1    3    3    0  502 -0.76510518732E+00  0.27979494051E+02 -0.15453100043E+03  0.15710105018E+03  0.41800000000E+01 0.  1.
        -11    1    4    4    0    0  0.25443673734E+02 -0.73838977552E+00 -0.17094332977E+02  0.30661734662E+02  0.00000000000E+00 0. -1.
         11    1    4    4    0    0 -0.22972038650E+02 -0.10060495182E+03  0.39064440876E+02  0.11034084208E+03  0.00000000000E+00 0.  1.
</event>
<event>
 8    1  0.7039283E-009  0.1280560E+03  0.7561462E-02  0.1230369E+00
         -1   -1    0    0    0  501 -0.00000000000E+00  0.00000000000E+00  0.15371047403E+02  0.15371047403E+02  0.00000000000E+00 0.  1.
          1   -1    0    0  501    0  0.00000000000E+00 -0.00000000000E+00 -0.15555793033E+04  0.15555793033E+04  0.00000000000E+00 0. -1.
         25    2    1    2    0    0  0.75907654134E+02  0.43500312134E+02 -0.11615468443E+04  0.11715343728E+04  0.12508983244E+03 0.  0.
         23    2    1    2    0    0 -0.75907654134E+02 -0.43500312134E+02 -0.37866141161E+03  0.39941597786E+03  0.92165121447E+02 0.  0.
          5    1    3    3  502    0 -0.28271288084E+02  0.14557927213E+02 -0.51480990570E+03  0.51580801698E+03  0.41800000000E+01 0. -1.
         -5    1    3    3    0  502  0.10417894222E+03  0.28942384921E+02 -0.64673693857E+03  0.65572635585E+03  0.41800000000E+01 0. -1.
        -11    1    4    4    0    0 -0.59730399584E+02  0.94446214225E+01 -0.11420810140E+03  0.12923007364E+03  0.00000000000E+00 0.  1.
         11    1    4    4    0    0 -0.16177254550E+02 -0.52944933557E+02 -0.26445331021E+03  0.27018590421E+03  0.00000000000E+00 0. -1.
</event>
<event>
 8    1  0.7039283E-009  0.1144223E+03  0.7561462E-02  0.1252593E+00
          2   -1    0    0  501    0  0.00000000000E+00  0.00000000000E+00  0.26067231183E+03  0.26067231183E+03  0.00000000000E+00 0. -1.
         -2   -1    0    0    0  501 -0.00000000000E+00 -0.00000000000E+00 -0.73440791848E+02  0.73440791848E+02  0.00000000000E+00 0.  1.
         25    2    1    2    0    0  0.65389003949E+02 -0.51967466122E+02  0.77559067485E+02  0.16923125652E+03  0.12508984715E+03 0.  0.
         23    2    1    2    0    0 -0.65389003949E+02  0.51967466122E+02  0.10967245250E+03  0.16488184716E+03  0.90452403583E+02 0.  0.
          5    1    3    3  502    0 -0.17810645618E+02 -0.89883864223E+01 -0.23689992240E+02  0.31252173047E+02  0.41800000000E+01 0. -1.
         -5    1    3    3    0  502  0.83199649567E+02 -0.42979079700E+02  0.10124905972E+03  0.13797908347E+03  0.41800000000E+01 0. -1.
        -11    1    4    4    0    0 -0.56868426689E+02 -0.50315438804E+01  0.84531714152E+02  0.10200463267E+03  0.00000000000E+00 0. -1.
         11    1    4    4    0    0 -0.85205772601E+01  0.56999010003E+02  0.25140738345E+02  0.62877214495E+02  0.00000000000E+00 0.  1.
</event>
<event>
 8    1  0.7039283E-009  0.1023646E+03  0.7561462E-02  0.1275401E+00
          2   -1    0    0  501    0  0.00000000000E+00  0.00000000000E+00  0.47066327936E+03  0.47066327936E+03  0.00000000000E+00 0. -1.
         -2   -1    0    0    0  501 -0.00000000000E+00 -0.00000000000E+00 -0.41941866565E+02  0.41941866565E+02  0.00000000000E+00 0.  1.
         25    2    1    2    0    0  0.82344372684E+02 -0.26399230422E+01  0.17325225446E+03  0.22902248524E+03  0.12508952860E+03 0.  0.
         23    2    1    2    0    0 -0.82344372684E+02  0.26399230422E+01  0.25546915834E+03  0.28358266068E+03  0.91471687814E+02 0.  0.
          5    1    3    3  502    0  0.79226155695E+02 -0.22788573439E+02  0.18677535522E+03  0.20420237154E+03  0.41800000000E+01 0. -1.
         -5    1    3    3    0  502  0.31182169889E+01  0.20148650397E+02 -0.13523100761E+02  0.24820113702E+02  0.41800000000E+01 0. -1.
        -11    1    4    4    0    0 -0.33328131768E+02  0.30340579203E+02  0.19824948126E+03  0.20330807149E+03  0.00000000000E+00 0. -1.
         11    1    4    4    0    0 -0.49016240915E+02 -0.27700656160E+02  0.57219677084E+02  0.80274589197E+02  0.00000000000E+00 0.  1.
</event>
<event>
 8    1  0.7039283E-009  0.1614473E+03  0.7561462E-02  0.1187072E+00
         -1   -1    0    0    0  501 -0.00000000000E+00  0.00000000000E+00  0.12437115103E+03  0.12437115103E+03  0.00000000000E+00 0.  1.
          1   -1    0    0  501    0  0.00000000000E+00 -0.00000000000E+00 -0.54270802200E+03  0.54270802200E+03  0.00000000000E+00 0. -1.
         25    2    1    2    0    0  0.89308690360E+02 -0.10773528913E+03 -0.45852661000E+03  0.49545770046E+03  0.12509494861E+03 0.  0.
         23    2    1    2    0    0 -0.89308690360E+02  0.10773528913E+03  0.40189739035E+02  0.17162147257E+03  0.90861323043E+02 0.  0.
          5    1    3    3  502    0  0.63107033945E+02  0.62039103865E+01 -0.10149859581E+03  0.11975150767E+03  0.41800000000E+01 0. -1.
         -5    1    3    3    0  502  0.26201656415E+02 -0.11393919952E+03 -0.35702801419E+03  0.37570619280E+03  0.41800000000E+01 0. -1.
        -11    1    4    4    0    0 -0.16642993480E+02  0.38701994190E+02 -0.27830014103E+02  0.50491021689E+02  0.00000000000E+00 0. -1.
         11    1    4    4    0    0 -0.72665696879E+02  0.69033294939E+02  0.68019753138E+02  0.12113045088E+03  0.00000000000E+00 0.  1.
</event>
<event>
 8    1  0.7039283E-009  0.1477522E+03  0.7561462E-02  0.1203263E+00
          3   -1    0    0  501    0  0.00000000000E+00  0.00000000000E+00  0.97184138062E+02  0.97184138062E+02  0.00000000000E+00 0. -1.
         -3   -1    0    0    0  501 -0.00000000000E+00 -0.00000000000E+00 -0.35900303410E+03  0.35900303410E+03  0.00000000000E+00 0.  1.
         25    2    1    2    0    0  0.60438302788E+02  0.11278623978E+03 -0.23651261605E+03  0.29657886762E+03  0.12508909961E+03 0.  0.
         23    2    1    2    0    0 -0.60438302788E+02 -0.11278623978E+03 -0.25306279990E+02  0.15960830454E+03  0.91983035096E+02 0.  0.
          5    1    3    3  502    0 -0.10401575636E+02  0.19737334325E+02 -0.14831860700E+03  0.15004544886E+03  0.41800000000E+01 0.  1.
         -5    1    3    3    0  502  0.70839878424E+02  0.93048905451E+02 -0.88194009053E+02  0.14653341876E+03  0.41800000000E+01 0.  1.
        -11    1    4    4    0    0 -0.33195817560E+02  0.61568616558E+01 -0.15623711912E+02  0.37201742202E+02  0.00000000000E+00 0.  1.
         11    1    4    4    0    0 -0.27242485228E+02 -0.11894310143E+03 -0.96825680774E+01  0.12240656234E+03  0.00000000000E+00 0. -1.
</event>
<event>
 8    1  0.7039283E-009  0.1111096E+03  0.7561462E-02  0.1258529E+00
         -1   -1    0    0    0  501 -0.00000000000E+00  0.00000000000E+00  0.22495957862E+02  0.22495957862E+02  0.00000000000E+00 0.  1.
          1   -1    0    0  501    0  0.00000000000E+00 -0.00000000000E+00 -0.74073783008E+03  0.74073783008E+03  0.00000000000E+00 0. -1.
         25    2    1    2    0    0  0.65535585381E+02  0.72888298043E+01 -0.42826201392E+03  0.45100364102E+03  0.12509153311E+03 0.  0.
         23    2    1    2    0    0 -0.65535585381E+02 -0.72888298043E+01 -0.28997985830E+03  0.31223014692E+03  0.95138354180E+02 0.  0.
          5    1    3    3  502    0  0.80359015126E+02  0.50818578029E+02 -0.28205054130E+03  0.29767445210E+03  0.41800000000E+01 0.  1.
         -5    1    3    3    0  502 -0.14823429745E+02 -0.43529748225E+02 -0.14621147261E+03  0.15332918892E+03  0.41800000000E+01 0.  1.
        -11    1    4    4    0    0 -0.20438975320E+02 -0.25115993563E+02 -0.20285356862E+02  0.38210738645E+02  0.00000000000E+00 0.  1.
         11    1    4    4    0    0 -0.45096610061E+02  0.17827163758E+02 -0.26969450144E+03  0.27401940827E+03  0.00000000000E+00 0. -1.
</event>
<event>
 8    1  0.7039283E-009  0.1297846E+03  0.7561462E-02  0.1227776E+00
          2   -1    0    0  501    0  0.00000000000E+00  0.00000000000E+00  0.18748408660E+03  0.18748408660E+03  0.00000000000E+00 0. -1.
         -2   -1    0    0    0  501 -0.00000000000E+00 -0.00000000000E+00 -0.16258805666E+03  0.16258805666E+03  0.00000000000E+00 0.  1.
         25    2    1    2    0    0  0.12087980570E+03  0.25327328321E+02  0.75175936864E+02  0.19118652489E+03  0.12508982703E+03 0.  0.
         23    2    1    2    0    0 -0.12087980570E+03 -0.25327328321E+02 -0.50279906931E+02  0.15888561838E+03  0.86389638840E+02 0.  0.
          5    1    3    3  502    0  0.72572931689E+02  0.42806578379E+02  0.10257934176E+03  0.13281275286E+03  0.41800000000E+01 0. -1.
         -5    1    3    3    0  502  0.48306874015E+02 -0.17479250058E+02 -0.27403404901E+02  0.58373772021E+02  0.41800000000E+01 0. -1.
        -11    1    4    4    0    0 -0.56554333284E+02 -0.15079403348E+02  0.21133053845E+02  0.62228506196E+02  0.00000000000E+00 0. -1.
         11    1    4    4    0    0 -0.64325472421E+02 -0.10247924973E+02 -0.71412960776E+02  0.96657112181E+02  0.00000000000E+00 0.  1.
</event>
<event>
 8    1  0.7039283E-009  0.9342661E+02  0.7561462E-02  0.1294760E+00
         -1   -1    0    0    0  501 -0.00000000000E+00  0.00000000000E+00  0.42796549285E+03  0.42796549285E+03  0.00000000000E+00 0.  1.
          1   -1    0    0  501    0  0.00000000000E+00 -0.00000000000E+00 -0.33547289776E+02  0.33547289776E+02  0.00000000000E+00 0. -1.
         25    2    1    2    0    0 -0.83043267980E-01  0.14396613645E+02  0.31760873560E+03  0.34165803828E+03  0.12509051449E+03 0.  0.
         23    2    1    2    0    0  0.83043267980E-01 -0.14396613645E+02  0.76809467481E+02  0.11985474435E+03  0.90874617287E+02 0.  0.
          5    1    3    3  502    0 -0.39896742251E+02  0.32150773584E+02  0.54466222911E+02  0.74896355869E+02  0.41800000000E+01 0. -1.
         -5    1    3    3    0  502  0.39813698983E+02 -0.17754159940E+02  0.26314251269E+03  0.26676168241E+03  0.41800000000E+01 0. -1.
        -11    1    4    4    0    0 -0.43131166412E+02 -0.20938084239E+02  0.45433054596E+02  0.66051974517E+02  0.00000000000E+00 0.  1.
         11    1    4    4    0    0  0.43214209680E+02  0.65414705946E+01  0.31376412885E+02  0.53802769830E+02  0.00000000000E+00 0. -1.
</event>
<event>
 8    1  0.7039283E-009  0.1216669E+03  0.7561462E-02  0.1240372E+00
         -2   -1    0    0    0  501 -0.00000000000E+00  0.00000000000E+00  0.42583752022E+02  0.42583752022E+02  0.00000000000E+00 0.  1.
          2   -1    0    0  501    0  0.00000000000E+00 -0.00000000000E+00 -0.51304212471E+03  0.51304212471E+03  0.00000000000E+00 0. -1.
         25    2    1    2    0    0 -0.63750504441E+02  0.75345077636E+01 -0.11054987006E+03  0.17885720658E+03  0.12509089077E+03 0.  0.
         23    2    1    2    0    0  0.63750504441E+02 -0.75345077636E+01 -0.35990850264E+03  0.37676867015E+03  0.91102167466E+02 0.  0.
          5    1    3    3  502    0  0.93790020911E+00  0.56720612741E+02 -0.61831746678E+02  0.84016336886E+02  0.41800000000E+01 0.  1.
         -5    1    3    3    0  502 -0.64688404650E+02 -0.49186104977E+02 -0.48718123379E+02  0.94840869695E+02  0.41800000000E+01 0.  1.
        -11    1    4    4    0    0  0.12338813617E+02  0.35784031123E+02 -0.74685427695E+02  0.83729662097E+02  0.00000000000E+00 0.  1.
         11    1    4    4    0    0  0.51411690823E+02 -0.43318538887E+02 -0.28522307494E+03  0.29303900806E+03  0.00000000000E+00 0. -1.
</event>
<event>
 8    1  0.7039283E-009  0.1281937E+03  0.7561462E-02  0.1230161E+00
         -1   -1    0    0    0  501 -0.00000000000E+00  0.00000000000E+00  0.40344209126E+02  0.40344209126E+02  0.00000000000E+00 0.  1.
          1   -1    0    0  501    0  0.00000000000E+00 -0.00000000000E+00 -0.61155920320E+03  0.61155920320E+03  0.00000000000E+00 0. -1.
         25    2    1    2    0    0 -0.67977759905E+01  0.10891909403E+03 -0.37336394356E+03  0.40860624155E+03  0.12509535354E+03 0.  0.
         23    2    1    2    0    0  0.67977759905E+01 -0.10891909403E+03 -0.19785105051E+03  0.24329717078E+03  0.90215831858E+02 0.  0.
          5    1    3    3  502    0  0.67006011560E+01 -0.15197673521E+02 -0.25492681686E+01  0.17315845474E+02  0.41800000000E+01 0. -1.
         -5    1    3    3    0  502 -0.13498377147E+02  0.12411676755E+03 -0.37081467539E+03  0.39129039608E+03  0.41800000000E+01 0. -1.
        -11    1    4    4    0    0 -0.85723548556E+01 -0.87822153862E+02 -0.69511540640E+02  0.11233018410E+03  0.00000000000E+00 0.  1.
         11    1    4    4    0    0  0.15370130846E+02 -0.21096940167E+02 -0.12833950987E+03  0.13096698669E+03  0.00000000000E+00 0. -1.
</event>
<event>
 8    1  0.7039283E-009  0.1585284E+03  0.7561462E-02  0.1190368E+00
         -4   -1    0    0    0  501 -0.00000000000E+00  0.00000000000E+00  0.88023076085E+03  0.88023076085E+03  0.00000000000E+00 0.  1.
          4   -1    0    0  501    0  0.00000000000E+00 -0.00000000000E+00 -0.34327778075E+02  0.34327778075E+02  0.00000000000E+00 0. -1.
         25    2    1    2    0    0 -0.10189885614E+03 -0.85668722058E+02  0.50863602870E+03  0.54044337807E+03  0.12508368554E+03 0.  0.
         23    2    1    2    0    0  0.10189885614E+03  0.85668722058E+02  0.33726695407E+03  0.37411516085E+03  0.92144714699E+02 0.  0.
          5    1    3    3  502    0  0.15251593397E+02  0.19545098977E+02  0.67928693135E+02  0.72432049165E+02  0.41800000000E+01 0.  1.
         -5    1    3    3    0  502 -0.11715044954E+03 -0.10521382103E+03  0.44070733557E+03  0.46801132891E+03  0.41800000000E+01 0.  1.
        -11    1    4    4    0    0  0.66645468795E+02  0.67020133936E+02  0.31405678212E+03  0.32797100369E+03  0.00000000000E+00 0.  1.
         11    1    4    4    0    0  0.35253387349E+02  0.18648588122E+02  0.23210171956E+02  0.46144157167E+02  0.00000000000E+00 0. -1.
</event>
<event>
 8    1  0.7039283E-009  0.1114393E+03  0.7561462E-02  0.1257927E+00
          2   -1    0    0  501    0  0.00000000000E+00  0.00000000000E+00  0.30867764215E+03  0.30867764215E+03  0.00000000000E+00 0. -1.
         -2   -1    0    0    0  501 -0.00000000000E+00 -0.00000000000E+00 -0.53752393284E+02  0.53752393284E+02  0.00000000000E+00 0.  1.
         25    2    1    2    0    0 -0.61029579002E+02 -0.20258568822E+02  0.16649758688E+03  0.21796046700E+03  0.12510115754E+03 0.  0.
         23    2    1    2    0    0  0.61029579002E+02  0.20258568822E+02  0.88427661988E+02  0.14446956843E+03  0.94429792298E+02 0.  0.
          5    1    3    3  502    0 -0.52015030546E+02  0.30935832334E+02  0.15226330009E+03  0.16390294104E+03  0.41800000000E+01 0. -1.
         -5    1    3    3    0  502 -0.90145484560E+01 -0.51194401156E+02  0.14234286784E+02  0.54057525968E+02  0.41800000000E+01 0. -1.
        -11    1    4    4    0    0  0.60172714414E+02 -0.24738892693E+02  0.70751095151E+02  0.96117042384E+02  0.00000000000E+00 0. -1.
         11    1    4    4    0    0  0.85686458783E+00  0.44997461515E+02  0.17676566837E+02  0.48352526044E+02  0.00000000000E+00 0.  1.
</event>
<event>
 8    1  0.7039283E-009  0.1113919E+03  0.7561462E-02  0.1258014E+00
          1   -1    0    0  501    0  0.00000000000E+00  0.00000000000E+00  0.55372054726E+03  0.55372054726E+03  0.00000000000E+00 0. -1.
         -1   -1    0    0    0  501 -0.00000000000E+00 -0.00000000000E+00 -0.26590450949E+02  0.26590450949E+02  0.00000000000E+00 0.  1.
         25    2    1    2    0    0 -0.35629760748E+02 -0.32805953797E+02  0.33924306268E+03  0.36480201201E+03  0.12509573107E+03 0.  0.
         23    2    1    2    0    0  0.35629760748E+02  0.32805953797E+02  0.18788703363E+03  0.21550898621E+03  0.93791658863E+02 0.  0.
          5    1    3    3  502    0 -0.75146588005E+02 -0.21397299036E+01  0.13598579250E+03  0.15543872199E+03  0.41800000000E+01 0.  1.
         -5    1    3    3    0  502  0.39516827257E+02 -0.30666223893E+02  0.20325727018E+03  0.20936329002E+03  0.41800000000E+01 0.  1.
        -11    1    4    4    0    0  0.63390581889E+02  0.18327438150E+02  0.16186077663E+03  0.17479465630E+03  0.00000000000E+00 0. -1.
         11    1    4    4    0    0 -0.27760821140E+02  0.14478515647E+02  0.26026257004E+02  0.40714329902E+02  0.00000000000E+00 0.  1.
</event>
<event>
 8    1  0.7039283E-009  0.8921645E+02  0.7561462E-02  0.1304760E+00
          2   -1    0    0  501    0  0.00000000000E+00  0.00000000000E+00  0.46943780432E+03  0.46943780432E+03  0.00000000000E+00 0. -1.
         -2   -1    0    0    0  501 -0.00000000000E+00 -0.00000000000E+00 -0.28959140185E+02  0.28959140185E+02  0.00000000000E+00 0.  1.
         25    2    1    2    0    0  0.49025325526E+01 -0.72741256498E+01  0.33801372422E+03  0.36052411647E+03  0.12508962014E+03 0.  0.
         23    2    1    2    0    0 -0.49025325526E+01  0.72741256498E+01  0.10246493992E+03  0.13787282804E+03  0.91830850314E+02 0.  0.
          5    1    3    3  502    0 -0.37979154809E+02  0.10597597991E+02  0.31936316637E+02  0.50912925701E+02  0.41800000000E+01 0.  1.
         -5    1    3    3    0  502  0.42881687361E+02 -0.17871723641E+02  0.30607740758E+03  0.30961119077E+03  0.41800000000E+01 0.  1.
        -11    1    4    4    0    0  0.14386781803E+02 -0.39233590782E+02  0.49856240411E+02  0.65053046387E+02  0.00000000000E+00 0. -1.
         11    1    4    4    0    0 -0.19289314355E+02  0.46507716432E+02  0.52608699508E+02  0.72819781653E+02  0.00000000000E+00 0.  1.
</event>
<event>
 8    1  0.7039283E-009  0.9023859E+02  0.7561462E-02  0.1302275E+00
          1   -1    0    0  501    0  0.00000000000E+00  0.00000000000E+00  0.39790810732E+03  0.39790810732E+03  0.00000000000E+00 0. -1.
         -1   -1    0    0    0  501 -0.00000000000E+00 -0.00000000000E+00 -0.41235987512E+02  0.41235987512E+02  0.00000000000E+00 0.  1.
         25    2    1    2    0    0  0.67005686109E+02 -0.14264593698E+01  0.17468221022E+03  0.22506103574E+03  0.12508716355E+03 0.  0.
         23    2    1    2    0    0 -0.67005686109E+02  0.14264593698E+01  0.18198990959E+03  0.21408305909E+03  0.90661084485E+02 0.  0.
          5    1    3    3  502    0  0.40646475645E+02  0.33442055222E+01 -0.68063529602E+01  0.41558615635E+02  0.41800000000E+01 0. -1.
         -5    1    3    3    0  502  0.26359210464E+02 -0.47706648919E+01  0.18148856318E+03  0.18350242011E+03  0.41800000000E+01 0. -1.
        -11    1    4    4    0    0 -0.28448179938E+02 -0.44242301340E+02  0.76510807419E+02  0.92847099155E+02  0.00000000000E+00 0. -1.
         11    1    4    4    0    0 -0.38557506171E+02  0.45668760709E+02  0.10547910217E+03  0.12123595993E+03  0.00000000000E+00 0.  1.
</event>
<event>
 8    1  0.7039283E-009  0.1169276E+03  0.7561462E-02  0.1248253E+00
         -1   -1    0    0    0  501 -0.00000000000E+00  0.00000000000E+00  0.47020196661E+02  0.47020196661E+02  0.00000000000E+00 0.  1.
          1   -1    0    0  501    0  0.00000000000E+00 -0.00000000000E+00 -0.30788415562E+03  0.30788415562E+03  0.00000000000E+00 0. -1.
         25    2    1    2    0    0  0.39741396625E+02  0.22548041111E+02 -0.11188625963E+03  0.17393717535E+03  0.12509121916E+03 0.  0.
         23    2    1    2    0    0 -0.39741396625E+02 -0.22548041111E+02 -0.14897769933E+03  0.18096717693E+03  0.92016147855E+02 0.  0.
          5    1    3    3  502    0 -0.45528985606E+02  0.56444903814E+01 -0.35924807603E+02  0.58419286227E+02  0.41800000000E+01 0.  1.
         -5    1    3    3    0  502  0.85270382231E+02  0.16903550729E+02 -0.75961452031E+02  0.11551788912E+03  0.41800000000E+01 0.  1.
        -11    1    4    4    0    0  0.28627416880E+02 -0.13964897770E+02 -0.64625314719E+02  0.72048446684E+02  0.00000000000E+00 0.  1.
         11    1    4    4    0    0 -0.68368813505E+02 -0.85831433404E+01 -0.84352384607E+02  0.10891873025E+03  0.00000000000E+00 0. -1.
</event>
<event>
 8    1  0.7039283E-009  0.1346938E+03  0.7561462E-02  0.1220653E+00
         -2   -1    0    0    0  501 -0.00000000000E+00  0.00000000000E+00  0.49666485282E+02  0.49666485282E+02  0.00000000000E+00 0. -1.
          2   -1    0    0  501    0  0.00000000000E+00 -0.00000000000E+00 -0.39346403899E+03  0.39346403899E+03  0.00000000000E+00 0.  1.
         25    2    1    2    0    0 -0.55265480375E+02 -0.57690113285E+02 -0.24507818868E+03  0.28652749956E+03  0.12510902024E+03 0.  0.
         23    2    1    2    0    0  0.55265480375E+02  0.57690113285E+02 -0.98719365028E+02  0.15660302471E+03  0.91632809768E+02 0.  0.
          5    1    3    3  502    0 -0.73810945224E+02  0.12838055959E+02 -0.13414667321E+03  0.15370645286E+03  0.41800000000E+01 0.  1.
         -5    1    3    3    0  502  0.18545464849E+02 -0.70528169243E+02 -0.11093151547E+03  0.13282104671E+03  0.41800000000E+01 0.  1.
        -11    1    4    4    0    0  0.28952828868E+02  0.81084025241E+02 -0.65307935697E+02  0.10806485050E+03  0.00000000000E+00 0. -1.
         11    1    4    4    0    0  0.26312651507E+02 -0.23393911956E+02 -0.33411429331E+02  0.48538174212E+02  0.00000000000E+00 0.  1.
</event>
<event>
 8    1  0.7039283E-009  0.9697517E+02  0.7561462E-02  0.1286788E+00
          2   -1    0    0  501    0  0.00000000000E+00  0.00000000000E+00  0.56283720150E+03  0.56283720150E+03  0.00000000000E+00 0. -1.
         -2   -1    0    0    0  501 -0.00000000000E+00 -0.00000000000E+00 -0.31341093845E+02  0.31341093845E+02  0.00000000000E+00 0.  1.
         25    2    1    2    0    0 -0.28789303742E+02  0.36913349280E+02  0.43228591418E+03  0.45244895437E+03  0.12509006895E+03 0.  0.
         23    2    1    2    0    0  0.28789303742E+02 -0.36913349280E+02  0.99210193478E+02  0.14172934097E+03  0.89739201233E+02 0.  0.
          5    1    3    3  502    0 -0.31348444997E+02 -0.18811025168E+02  0.33511816708E+02  0.49770412201E+02  0.41800000000E+01 0.  1.
         -5    1    3    3    0  502  0.25591412543E+01  0.55724374448E+02  0.39877409747E+03  0.40267854217E+03  0.41800000000E+01 0.  1.
        -11    1    4    4    0    0 -0.27426678032E+02  0.87497683184E+01  0.28615258106E+02  0.40590813123E+02  0.00000000000E+00 0.  1.
         11    1    4    4    0    0  0.56215981774E+02 -0.45663117599E+02  0.70594935372E+02  0.10113852785E+03  0.00000000000E+00 0. -1.
</event>
<event>
 8    1  0.7039283E-009  0.1067143E+03  0.7561462E-02  0.1266778E+00
         -1   -1    0    0    0  501 -0.00000000000E+00  0.00000000000E+00  0.74083721959E+02  0.74083721959E+02  0.00000000000E+00 0.  1.
          1   -1    0    0  501    0  0.00000000000E+00 -0.00000000000E+00 -0.20749634461E+03  0.20749634461E+03  0.00000000000E+00 0. -1.
         25    2    1    2    0    0  0.32126525326E+02 -0.12509855650E+02 -0.12563319059E+03  0.18061303222E+03  0.12509499875E+03 0.  0.
         23    2    1    2    0    0 -0.32126525326E+02  0.12509855650E+02 -0.77794320663E+01  0.10096703435E+03  0.94579132712E+02 0.  0.
          5    1    3    3  502    0  0.73476407521E+02 -0.19885959225E+02 -0.11344192281E+03  0.13667763565E+03  0.41800000000E+01 0.  1.
         -5    1    3    3    0  502 -0.41349882195E+02  0.73761035754E+01 -0.12191267774E+02  0.43935396567E+02  0.41800000000E+01 0.  1.
        -11    1    4    4    0    0 -0.56652206062E+02  0.30712224995E+02 -0.20871118377E+02  0.67737115366E+02  0.00000000000E+00 0.  1.
         11    1    4    4    0    0  0.24525680736E+02 -0.18202369345E+02  0.13091686311E+02  0.33229918986E+02  0.00000000000E+00 0. -1.
</event>
<event>
 8    1  0.7039283E-009  0.1110628E+03  0.7561462E-02  0.1258614E+00
         -2   -1    0    0    0  501 -0.00000000000E+00  0.00000000000E+00  0.64741413729E+02  0.64741413729E+02  0.00000000000E+00 0.  1.
          2   -1    0    0  501    0  0.00000000000E+00 -0.00000000000E+00 -0.21715816817E+03  0.21715816817E+03  0.00000000000E+00 0. -1.
         25    2    1    2    0    0  0.38849147304E+02  0.90060122506E+01 -0.79090431040E+02  0.15327443065E+03  0.12508952916E+03 0.  0.
         23    2    1    2    0    0 -0.38849147304E+02 -0.90060122506E+01 -0.73326323398E+02  0.12862515125E+03  0.97863759012E+02 0.  0.
          5    1    3    3  502    0  0.26342407765E+02 -0.49642614995E+02 -0.73903529550E+02  0.92938236213E+02  0.41800000000E+01 0. -1.
         -5    1    3    3    0  502  0.12506739538E+02  0.58648627245E+02 -0.51869014895E+01  0.60336194433E+02  0.41800000000E+01 0. -1.
        -11    1    4    4    0    0  0.31027554442E+02  0.11089697673E+02 -0.23985992466E+02  0.40755593036E+02  0.00000000000E+00 0.  1.
         11    1    4    4    0    0 -0.69876701746E+02 -0.20095709924E+02 -0.49340330933E+02  0.87869558214E+02  0.00000000000E+00 0. -1.
</event>
<event>
 8    1  0.7039283E-009  0.1548311E+03  0.7561462E-02  0.1194659E+00
         -2   -1    0    0    0  501 -0.00000000000E+00  0.00000000000E+00  0.15916568096E+03  0.15916568096E+03  0.00000000000E+00 0. -1.
          2   -1    0    0  501    0  0.00000000000E+00 -0.00000000000E+00 -0.18811900968E+03  0.18811900968E+03  0.00000000000E+00 0.  1.
         25    2    1    2    0    0  0.10794116643E+03  0.73530905982E+02 -0.77915400321E+01  0.18100950204E+03  0.12508254150E+03 0.  0.
         23    2    1    2    0    0 -0.10794116643E+03 -0.73530905982E+02 -0.21161788689E+02  0.16627518860E+03  0.10070515130E+03 0.  0.
          5    1    3    3  502    0 -0.29880450967E+01  0.66252927787E+02  0.13330600151E+02  0.67775778522E+02  0.41800000000E+01 0.  1.
         -5    1    3    3    0  502  0.11092921152E+03  0.72779781952E+01 -0.21122140183E+02  0.11323372352E+03  0.41800000000E+01 0.  1.
        -11    1    4    4    0    0 -0.41837222619E+02 -0.17659958975E+02  0.39820035295E+02  0.60397537685E+02  0.00000000000E+00 0. -1.
         11    1    4    4    0    0 -0.66103943809E+02 -0.55870947007E+02 -0.60981823984E+02  0.10587765091E+03  0.00000000000E+00 0.  1.
</event>
<event>
 8    1  0.7039283E-009  0.2680145E+03  0.7561462E-02  0.1102421E+00
         -2   -1    0    0    0  501 -0.00000000000E+00  0.00000000000E+00  0.69501898640E+03  0.69501898640E+03  0.00000000000E+00 0. -1.
          2   -1    0    0  501    0  0.00000000000E+00 -0.00000000000E+00 -0.13306782667E+03  0.13306782667E+03  0.00000000000E+00 0.  1.
         25    2    1    2    0    0 -0.16773054071E+03 -0.18943944171E+03  0.11143198121E+03  0.30345382787E+03  0.12508518238E+03 0.  0.
         23    2    1    2    0    0  0.16773054071E+03  0.18943944171E+03  0.45051917852E+03  0.52463298519E+03  0.90837231198E+02 0.  0.
          5    1    3    3  502    0 -0.18535892445E+03 -0.18750751569E+03  0.10043924833E+03  0.28217461671E+03  0.41800000000E+01 0. -1.
         -5    1    3    3    0  502  0.17628383740E+02 -0.19319260243E+01  0.10992732875E+02  0.21279211158E+02  0.41800000000E+01 0. -1.
        -11    1    4    4    0    0  0.12045326990E+03  0.11932649862E+03  0.37379182547E+03  0.41044869630E+03  0.00000000000E+00 0. -1.
         11    1    4    4    0    0  0.47277270805E+02  0.70112943095E+02  0.76727353053E+02  0.11418428890E+03  0.00000000000E+00 0.  1.
</event>
<event>
 8    1  0.7039283E-009  0.1227851E+03  0.7561462E-02  0.1238572E+00
         -2   -1    0    0    0  501 -0.00000000000E+00  0.00000000000E+00  0.45917203486E+02  0.45917203486E+02  0.00000000000E+00 0.  1.
          2   -1    0    0  501    0  0.00000000000E+00 -0.00000000000E+00 -0.38734923075E+03  0.38734923075E+03  0.00000000000E+00 0. -1.
         25    2    1    2    0    0  0.61084627661E+02  0.30540666046E+02 -0.12089667569E+03  0.18689014081E+03  0.12509138467E+03 0.  0.
         23    2    1    2    0    0 -0.61084627661E+02 -0.30540666046E+02 -0.22053535158E+03  0.24637629343E+03  0.86031230672E+02 0.  0.
          5    1    3    3  502    0  0.41200370389E+02  0.78718600026E+02 -0.87958204802E+02  0.12509279237E+03  0.41800000000E+01 0. -1.
         -5    1    3    3    0  502  0.19884257272E+02 -0.48177933980E+02 -0.32938470889E+02  0.61797348441E+02  0.41800000000E+01 0. -1.
        -11    1    4    4    0    0 -0.78047203023E+02 -0.11590879547E+02 -0.12760975743E+03  0.15003321159E+03  0.00000000000E+00 0.  1.
         11    1    4    4    0    0  0.16962575362E+02 -0.18949786499E+02 -0.92925594152E+02  0.96343081846E+02  0.00000000000E+00 0. -1.
</event>
<event>
 8    1  0.7039283E-009  0.1054229E+03  0.7561462E-02  0.1269289E+00
         -1   -1    0    0    0  501 -0.00000000000E+00  0.00000000000E+00  0.38254356656E+02  0.38254356656E+02  0.00000000000E+00 0.  1.
          1   -1    0    0  501    0  0.00000000000E+00 -0.00000000000E+00 -0.40981986480E+03  0.40981986480E+03  0.00000000000E+00 0. -1.
         25    2    1    2    0    0  0.29175116408E+02  0.81961640947E+01 -0.30536708185E+03  0.33138012138E+03  0.12508143607E+03 0.  0.
         23    2    1    2    0    0 -0.29175116408E+02 -0.81961640947E+01 -0.66198426295E+02  0.11669410007E+03  0.91197131666E+02 0.  0.
          5    1    3    3  502    0  0.76388058972E+02  0.73776877035E+01 -0.14442751395E+03  0.16360423288E+03  0.41800000000E+01 0.  1.
         -5    1    3    3    0  502 -0.47212942564E+02  0.81847639123E+00 -0.16093956790E+03  0.16777588851E+03  0.41800000000E+01 0.  1.
        -11    1    4    4    0    0 -0.94474494405E+00 -0.42300619566E+02 -0.71804471938E+01  0.42916124948E+02  0.00000000000E+00 0.  1.
         11    1    4    4    0    0 -0.28230371464E+02  0.34104455471E+02 -0.59017979101E+02  0.73777975122E+02  0.00000000000E+00 0. -1.
</event>
<event>
 8    1  0.7039283E-009  0.1835294E+03  0.7561462E-02  0.1164430E+00
         -2   -1    0    0    0  501 -0.00000000000E+00  0.00000000000E+00  0.64838688653E+03  0.64838688653E+03  0.00000000000E+00 0.  1.
          2   -1    0    0  501    0  0.00000000000E+00 -0.00000000000E+00 -0.53424432733E+02  0.53424432733E+02  0.00000000000E+00 0. -1.
         25    2    1    2    0    0 -0.14389188844E+03  0.44022965463E+02  0.29269649584E+03  0.35208439646E+03  0.12509710830E+03 0.  0.
         23    2    1    2    0    0  0.14389188844E+03 -0.44022965463E+02  0.30226595796E+03  0.34972692280E+03  0.91111547828E+02 0.  0.
          5    1    3    3  502    0  0.15822105764E+02 -0.14759942143E+02  0.16083951461E+02  0.27282976697E+02  0.41800000000E+01 0. -1.
         -5    1    3    3    0  502 -0.15971399421E+03  0.58782907606E+02  0.27661254438E+03  0.32480141977E+03  0.41800000000E+01 0. -1.
        -11    1    4    4    0    0  0.32827448451E+02 -0.54079013232E+02  0.12895309178E+03  0.14363523566E+03  0.00000000000E+00 0.  1.
         11    1    4    4    0    0  0.11106443999E+03  0.10056047769E+02  0.17331286617E+03  0.20609168714E+03  0.00000000000E+00 0. -1.
</event>
<event>
 8    1  0.7039283E-009  0.9123898E+02  0.7561462E-02  0.1299879E+00
          1   -1    0    0  501    0  0.00000000000E+00  0.00000000000E+00  0.68637967529E+03  0.68637967529E+03  0.00000000000E+00 0. -1.
         -1   -1    0    0    0  501 -0.00000000000E+00 -0.00000000000E+00 -0.21396866604E+02  0.21396866604E+02  0.00000000000E+00 0.  1.
         25    2    1    2    0    0  0.26112591518E+02  0.16116532629E+02  0.49943747877E+03  0.51577700801E+03  0.12508603735E+03 0.  0.
         23    2    1    2    0    0 -0.26112591518E+02 -0.16116532629E+02  0.16554532991E+03  0.19199953388E+03  0.92287348496E+02 0.  0.
          5    1    3    3  502    0  0.96369334009E+01  0.69911997348E+02  0.31832053942E+03  0.32607667208E+03  0.41800000000E+01 0. -1.
         -5    1    3    3    0  502  0.16475658117E+02 -0.53795464719E+02  0.18111693935E+03  0.18970033594E+03  0.41800000000E+01 0. -1.
        -11    1    4    4    0    0  0.94978246210E+01  0.79484248306E+01 -0.69696501786E+01  0.14211338904E+02  0.00000000000E+00 0.  1.
         11    1    4    4    0    0 -0.35610416139E+02 -0.24064957460E+02  0.17251498009E+03  0.17778819497E+03  0.00000000000E+00 0. -1.
</event>
<event>
 8    1  0.7039283E-009  0.1046625E+03  0.7561462E-02  0.1270786E+00
         -2   -1    0    0    0  501 -0.00000000000E+00  0.00000000000E+00  0.64251950497E+02  0.64251950497E+02  0.00000000000E+00 0.  1.
          2   -1    0    0  501    0  0.00000000000E+00 -0.00000000000E+00 -0.24037144770E+03  0.24037144770E+03  0.00000000000E+00 0. -1.
         25    2    1    2    0    0  0.55698861561E+02  0.22484354291E+01 -0.51317737706E+02  0.14624494811E+03  0.12508659401E+03 0.  0.
         23    2    1    2    0    0 -0.55698861561E+02 -0.22484354291E+01 -0.12480175949E+03  0.15837845009E+03  0.80005222571E+02 0.  0.
          5    1    3    3  502    0 -0.67456206243E+01  0.54600503936E+02 -0.17061542751E+02  0.57751944286E+02  0.41800000000E+01 0. -1.
         -5    1    3    3    0  502  0.62444482185E+02 -0.52352068507E+02 -0.34256194955E+02  0.88493003820E+02  0.41800000000E+01 0. -1.
        -11    1    4    4    0    0 -0.45796798727E+02 -0.21739806284E+02 -0.12666865949E+03  0.13643648797E+03  0.00000000000E+00 0. -1.
         11    1    4    4    0    0 -0.99020628331E+01  0.19491370855E+02  0.18668999985E+01  0.21941962122E+02  0.00000000000E+00 0.  1.
</event>
<event>
 8    1  0.7039283E-009  0.1869504E+03  0.7561462E-02  0.1161241E+00
          2   -1    0    0  501    0  0.00000000000E+00  0.00000000000E+00  0.23780859363E+03  0.23780859363E+03  0.00000000000E+00 0.  1.
         -2   -1    0    0    0  501 -0.00000000000E+00 -0.00000000000E+00 -0.23630671316E+03  0.23630671316E+03  0.00000000000E+00 0. -1.
         25    2    1    2    0    0 -0.14133844659E+03 -0.88927778446E+02 -0.12714810963E+03  0.24433262019E+03  0.12508829380E+03 0.  0.
         23    2    1    2    0    0  0.14133844659E+03  0.88927778446E+02  0.12864999009E+03  0.22978268659E+03  0.91457951236E+02 0.  0.
          5    1    3    3  502    0 -0.14448642027E+03 -0.37256349726E+02 -0.63584071362E+02  0.16224909173E+03  0.41800000000E+01 0.  1.
         -5    1    3    3    0  502  0.31479736786E+01 -0.51671428720E+02 -0.63564038266E+02  0.82083528463E+02  0.41800000000E+01 0.  1.
        -11    1    4    4    0    0  0.45340382118E+02  0.58063754664E+01  0.83163910089E+02  0.94898367677E+02  0.00000000000E+00 0.  1.
         11    1    4    4    0    0  0.95998064472E+02  0.83121402979E+02  0.45486080004E+02  0.13488431892E+03  0.00000000000E+00 0. -1.
</event>
<event>
 8    1  0.7039283E-009  0.5720126E+02  0.7561462E-02  0.1409967E+00
         -2   -1    0    0    0  501 -0.00000000000E+00  0.00000000000E+00  0.44977163612E+02  0.44977163612E+02  0.00000000000E+00 0. -1.
          2   -1    0    0  501    0  0.00000000000E+00 -0.00000000000E+00 -0.51359895380E+03  0.51359895380E+03  0.00000000000E+00 0.  1.
         25    2    1    2    0    0  0.11471896210E+02 -0.42578276468E+02 -0.42860039496E+03  0.44865226264E+03  0.12508413245E+03 0.  0.
         23    2    1    2    0    0 -0.11471896210E+02  0.42578276468E+02 -0.40021395235E+02  0.10992385477E+03  0.92396037476E+02 0.  0.
          5    1    3    3  502    0  0.11631176791E+02 -0.39131685220E+02 -0.32062532250E+02  0.52077360110E+02  0.41800000000E+01 0. -1.
         -5    1    3    3    0  502 -0.15928058079E+00 -0.34465912478E+01 -0.39653786271E+03  0.39657490254E+03  0.41800000000E+01 0. -1.
        -11    1    4    4    0    0 -0.19788970423E+02 -0.43702859737E+01  0.23157323041E+02  0.30772786035E+02  0.00000000000E+00 0. -1.
         11    1    4    4    0    0  0.83170742130E+01  0.46948562441E+02 -0.63178718277E+02  0.79151068735E+02  0.00000000000E+00 0.  1.
</event>
<event>
 8    1  0.7039283E-009  0.1339442E+03  0.7561462E-02  0.1221718E+00
          2   -1    0    0  501    0  0.00000000000E+00  0.00000000000E+00  0.10173010290E+03  0.10173010290E+03  0.00000000000E+00 0. -1.
         -2   -1    0    0    0  501 -0.00000000000E+00 -0.00000000000E+00 -0.24015459376E+03  0.24015459376E+03  0.00000000000E+00 0.  1.
         25    2    1    2    0    0 -0.92706978093E+02  0.53692741388E+02 -0.96627533859E+02  0.19095100827E+03  0.12509161841E+03 0.  0.
         23    2    1    2    0    0  0.92706978093E+02 -0.53692741388E+02 -0.41796957003E+02  0.15093368838E+03  0.97757344521E+02 0.  0.
          5    1    3    3  502    0 -0.10227340401E+03 -0.22025652235E+01 -0.37808479952E+02  0.10914052417E+03  0.41800000000E+01 0.  1.
         -5    1    3    3    0  502  0.95664259141E+01  0.55895306611E+02 -0.58819053907E+02  0.81810484099E+02  0.41800000000E+01 0.  1.
        -11    1    4    4    0    0  0.51144512774E+02 -0.39851475463E+02  0.26295669554E+02  0.69966874453E+02  0.00000000000E+00 0. -1.
         11    1    4    4    0    0  0.41562465320E+02 -0.13841265925E+02 -0.68092626556E+02  0.80966813925E+02  0.00000000000E+00 0.  1.
</event>
<event>
 8    1  0.7039283E-009  0.5620991E+02  0.7561462E-02  0.1414462E+00
         -1   -1    0    0    0  501 -0.00000000000E+00  0.00000000000E+00  0.19784683277E+03  0.19784683277E+03  0.00000000000E+00 0.  1.
          1   -1    0    0  501    0  0.00000000000E+00 -0.00000000000E+00 -0.65428358649E+02  0.65428358649E+02  0.00000000000E+00 0. -1.
         25    2    1    2    0    0 -0.28831451899E+02 -0.21218380836E+02  0.80339006521E+02  0.15291737246E+03  0.12509154459E+03 0.  0.
         23    2    1    2    0    0  0.28831451899E+02  0.21218380836E+02  0.52079467598E+02  0.11035781895E+03  0.90471569871E+02 0.  0.
          5    1    3    3  502    0 -0.48555948008E+01 -0.38220473482E+02 -0.23226258882E+02  0.45180890825E+02  0.41800000000E+01 0.  1.
         -5    1    3    3    0  502 -0.23975857098E+02  0.17002092646E+02  0.10356526540E+03  0.10773648164E+03  0.41800000000E+01 0.  1.
        -11    1    4    4    0    0  0.25459027372E+02  0.32147803007E+01  0.76008343687E+02  0.80223221059E+02  0.00000000000E+00 0.  1.
         11    1    4    4    0    0  0.33724245269E+01  0.18003600535E+02 -0.23928876088E+02  0.30134597895E+02  0.00000000000E+00 0. -1.
</event>
<event>
 8    1  0.7039283E-009  0.1888245E+03  0.7561462E-02  0.1159526E+00
          1   -1    0    0  501    0  0.00000000000E+00  0.00000000000E+00  0.41197137149E+03  0.41197137149E+03  0.00000000000E+00 0. -1.
         -1   -1    0    0    0  501 -0.00000000000E+00 -0.00000000000E+00 -0.98301142075E+02  0.98301142075E+02  0.00000000000E+00 0.  1.
         25    2    1    2    0    0  0.15319483045E+03  0.66836293938E+02  0.12762905469E+03  0.24468613631E+03  0.12508550450E+03 0.  0.
         23    2    1    2    0    0 -0.15319483045E+03 -0.66836293938E+02  0.18604117472E+03  0.26558637725E+03  0.89381535145E+02 0.  0.
          5    1    3    3  502    0  0.10515940235E+03  0.97406295175E+02  0.12019750816E+03  0.18711333360E+03  0.41800000000E+01 0.  1.
         -5    1    3    3    0  502  0.48035428098E+02 -0.30570001237E+02  0.74315465306E+01  0.57572802711E+02  0.41800000000E+01 0.  1.
        -11    1    4    4    0    0 -0.79961000738E+02 -0.66376471401E+02  0.60510203226E+02  0.12025424021E+03  0.00000000000E+00 0.  1.
         11    1    4    4    0    0 -0.73233829714E+02 -0.45982253657E+00  0.12553097150E+03  0.14533213704E+03  0.00000000000E+00 0. -1.
</event>
<event>
 8    1  0.7039283E-009  0.1680025E+03  0.7561462E-02  0.1179947E+00
         -1   -1    0    0    0  501 -0.00000000000E+00  0.00000000000E+00  0.24424333793E+03  0.24424333793E+03  0.00000000000E+00 0.  1.
          1   -1    0    0  501    0  0.00000000000E+00 -0.00000000000E+00 -0.16364764031E+03  0.16364764031E+03  0.00000000000E+00 0. -1.
         25    2    1    2    0    0  0.45137421362E+02  0.14868814933E+03  0.99720260833E+02  0.22301695959E+03  0.12508749451E+03 0.  0.
         23    2    1    2    0    0 -0.45137421362E+02 -0.14868814933E+03 -0.19124563212E+02  0.18487401864E+03  0.98321418277E+02 0.  0.
          5    1    3    3  502    0 -0.25189236161E+02  0.38876695626E+02  0.77911311299E+02  0.90738855567E+02  0.41800000000E+01 0. -1.
         -5    1    3    3    0  502  0.70326657523E+02  0.10981145371E+03  0.21808949534E+02  0.13227810402E+03  0.41800000000E+01 0. -1.
        -11    1    4    4    0    0 -0.76439950644E+01 -0.83302749860E+02  0.36429039681E+02  0.91240636379E+02  0.00000000000E+00 0.  1.
         11    1    4    4    0    0 -0.37493426298E+02 -0.65385399474E+02 -0.55553602893E+02  0.93633382265E+02  0.00000000000E+00 0. -1.
</event>
<event>
 8    1  0.7039283E-009  0.1292530E+03  0.7561462E-02  0.1228568E+00
          1   -1    0    0  501    0  0.00000000000E+00  0.00000000000E+00  0.10395965181E+04  0.10395965181E+04  0.00000000000E+00 0. -1.
         -1   -1    0    0    0  501 -0.00000000000E+00 -0.00000000000E+00 -0.17402401480E+02  0.17402401480E+02  0.00000000000E+00 0.  1.
         25    2    1    2    0    0  0.73856345587E+02  0.11666341702E+02  0.67346397911E+03  0.68905069313E+03  0.12508502404E+03 0.  0.
         23    2    1    2    0    0 -0.73856345587E+02 -0.11666341702E+02  0.34873013749E+03  0.36794822643E+03  0.90456206101E+02 0.  0.
          5    1    3    3  502    0  0.74270081375E+02  0.59980982666E+02  0.39492446556E+03  0.40632077127E+03  0.41800000000E+01 0.  1.
         -5    1    3    3    0  502 -0.41373578777E+00 -0.48314640964E+02  0.27853951354E+03  0.28272992186E+03  0.41800000000E+01 0.  1.
        -11    1    4    4    0    0 -0.29415256826E+02  0.37837406105E+02  0.10723284991E+03  0.11745556919E+03  0.00000000000E+00 0.  1.
         11    1    4    4    0    0 -0.44441088761E+02 -0.49503747807E+02  0.24149728759E+03  0.25049265723E+03  0.00000000000E+00 0. -1.
</event>
<event>
 8    1  0.7039283E-009  0.1122289E+03  0.7561462E-02  0.1256497E+00
         -4   -1    0    0    0  501 -0.00000000000E+00  0.00000000000E+00  0.62457375516E+02  0.62457375516E+02  0.00000000000E+00 0.  1.
          4   -1    0    0  501    0  0.00000000000E+00 -0.00000000000E+00 -0.23702904366E+03  0.23702904366E+03  0.00000000000E+00 0. -1.
         25    2    1    2    0    0  0.23434406702E+02 -0.39763669924E+02 -0.13672428627E+03  0.19097584199E+03  0.12509165003E+03 0.  0.
         23    2    1    2    0    0 -0.23434406702E+02  0.39763669924E+02 -0.37847381870E+02  0.10851057718E+03  0.90618983561E+02 0.  0.
          5    1    3    3  502    0  0.69237667488E+02 -0.46947517331E+02 -0.10642927849E+03  0.13543480979E+03  0.41800000000E+01 0. -1.
         -5    1    3    3    0  502 -0.45803260786E+02  0.71838474070E+01 -0.30295007784E+02  0.55541032209E+02  0.41800000000E+01 0. -1.
        -11    1    4    4    0    0 -0.22023092416E+02  0.65125017657E+02 -0.44946103968E+02  0.82136695735E+02  0.00000000000E+00 0. -1.
         11    1    4    4    0    0 -0.14113142857E+01 -0.25361347734E+02  0.70987220978E+01  0.26373881442E+02  0.00000000000E+00 0.  1.
</event>
<event>
 8    1  0.7039283E-009  0.1068472E+03  0.7561462E-02  0.1266522E+00
          2   -1    0    0  501    0  0.00000000000E+00  0.00000000000E+00  0.62012336052E+03  0.62012336052E+03  0.00000000000E+00 0. -1.
         -2   -1    0    0    0  501 -0.00000000000E+00 -0.00000000000E+00 -0.18751009919E+02  0.18751009919E+02  0.00000000000E+00 0.  1.
         25    2    1    2    0    0  0.21419362207E+02  0.26538538223E+02  0.35242803762E+03  0.37552206340E+03  0.12509282676E+03 0.  0.
         23    2    1    2    0    0 -0.21419362207E+02 -0.26538538223E+02  0.24894431298E+03  0.26335230704E+03  0.78854825922E+02 0.  0.
          5    1    3    3  502    0  0.71184838817E+02 -0.17840038825E+01  0.17284728476E+03  0.18698695194E+03  0.41800000000E+01 0.  1.
         -5    1    3    3    0  502 -0.49765476610E+02  0.28322542105E+02  0.17958075286E+03  0.18853511146E+03  0.41800000000E+01 0.  1.
        -11    1    4    4    0    0  0.29557506943E+02 -0.12377782180E+02  0.11364611743E+03  0.11807749876E+03  0.00000000000E+00 0. -1.
         11    1    4    4    0    0 -0.50976869151E+02 -0.14160756042E+02  0.13529819555E+03  0.14527480828E+03  0.00000000000E+00 0.  1.
</event>
<event>
 8    1  0.7039283E-009  0.1353587E+03  0.7561462E-02  0.1219714E+00
         -2   -1    0    0    0  501 -0.00000000000E+00  0.00000000000E+00  0.24625928731E+02  0.24625928731E+02  0.00000000000E+00 0.  1.
          2   -1    0    0  501    0  0.00000000000E+00 -0.00000000000E+00 -0.13332020837E+04  0.13332020837E+04  0.00000000000E+00 0. -1.
         25    2    1    2    0    0 -0.86496850610E+02  0.95811187363E+02 -0.93554719853E+03  0.95265810565E+03  0.12508963508E+03 0.  0.
         23    2    1    2    0    0  0.86496850610E+02 -0.95811187363E+02 -0.37302895643E+03  0.40516990677E+03  0.91381410714E+02 0.  0.
          5    1    3    3  502    0 -0.44702523666E+02  0.98823404496E+01 -0.84007709816E+02  0.95764001500E+02  0.41800000000E+01 0.  1.
         -5    1    3    3    0  502 -0.41794326945E+02  0.85928846914E+02 -0.85153948871E+03  0.85689410415E+03  0.41800000000E+01 0.  1.
        -11    1    4    4    0    0  0.42548912682E+02 -0.45414948858E+02 -0.29902090453E+03  0.30542827128E+03  0.00000000000E+00 0. -1.
         11    1    4    4    0    0  0.43947937928E+02 -0.50396238506E+02 -0.74008051899E+02  0.99741635486E+02  0.00000000000E+00 0.  1.
</event>
<event>
 8    1  0.7039283E-009  0.7295386E+02  0.7561462E-02  0.1350327E+00
          2   -1    0    0  501    0  0.00000000000E+00  0.00000000000E+00  0.13626265044E+03  0.13626265044E+03  0.00000000000E+00 0. -1.
         -2   -1    0    0    0  501 -0.00000000000E+00 -0.00000000000E+00 -0.10263459359E+03  0.10263459359E+03  0.00000000000E+00 0.  1.
         25    2    1    2    0    0 -0.44241438316E+02  0.18039771413E+02  0.25435468732E+02  0.13629685353E+03  0.12508849266E+03 0.  0.
         23    2    1    2    0    0  0.44241438316E+02 -0.18039771413E+02  0.81925881106E+01  0.10260039050E+03  0.90426674239E+02 0.  0.
          5    1    3    3  502    0 -0.37027768556E+01  0.18109719534E+02  0.71979472417E+02  0.74432448216E+02  0.41800000000E+01 0.  1.
         -5    1    3    3    0  502 -0.40538661460E+02 -0.69948120993E-01 -0.46544003684E+02  0.61864405313E+02  0.41800000000E+01 0.  1.
        -11    1    4    4    0    0 -0.19750401216E+02 -0.85084569665E+01  0.27660784045E+02  0.35036997048E+02  0.00000000000E+00 0. -1.
         11    1    4    4    0    0  0.63991839532E+02 -0.95313144466E+01 -0.19468195935E+02  0.67563393451E+02  0.00000000000E+00 0.  1.
</event>
<event>
 8    1  0.7039283E-009  0.1243391E+03  0.7561462E-02  0.1236106E+00
         -1   -1    0    0    0  501 -0.00000000000E+00  0.00000000000E+00  0.48647669140E+02  0.48647669140E+02  0.00000000000E+00 0.  1.
          1   -1    0    0  501    0  0.00000000000E+00 -0.00000000000E+00 -0.37086717513E+03  0.37086717513E+03  0.00000000000E+00 0. -1.
         25    2    1    2    0    0  0.38033222389E+02 -0.60369967482E+02 -0.12697464306E+03  0.19199287300E+03  0.12509054449E+03 0.  0.
         23    2    1    2    0    0 -0.38033222389E+02  0.60369967482E+02 -0.19524486292E+03  0.22752197127E+03  0.92491253282E+02 0.  0.
          5    1    3    3  502    0  0.76128402491E+02 -0.54349715786E+02 -0.50838812019E+02  0.10654333616E+03  0.41800000000E+01 0.  1.
         -5    1    3    3    0  502 -0.38095180102E+02 -0.60202516956E+01 -0.76135831043E+02  0.85449536840E+02  0.41800000000E+01 0.  1.
        -11    1    4    4    0    0  0.89439226788E+01  0.68064405611E+02 -0.10416179518E+03  0.12474949555E+03  0.00000000000E+00 0. -1.
         11    1    4    4    0    0 -0.46977145068E+02 -0.76944381285E+01 -0.91083067738E+02  0.10277247572E+03  0.00000000000E+00 0.  1.
</event>
<event>
 8    1  0.7039283E-009  0.2095305E+03  0.7561462E-02  0.1141938E+00
         -2   -1    0    0    0  501 -0.00000000000E+00  0.00000000000E+00  0.43388504581E+02  0.43388504581E+02  0.00000000000E+00 0. -1.
          2   -1    0    0  501    0  0.00000000000E+00 -0.00000000000E+00 -0.10951682438E+04  0.10951682438E+04  0.00000000000E+00 0.  1.
         25    2    1    2    0    0  0.18664780640E+03  0.26758477866E+02 -0.53446190920E+03  0.58038879637E+03  0.12509277677E+03 0.  0.
         23    2    1    2    0    0 -0.18664780640E+03 -0.26758477866E+02 -0.51731783002E+03  0.55816795201E+03  0.91544009192E+02 0.  0.
          5    1    3    3  502    0  0.31380665530E+02 -0.43773526764E+02 -0.10043386201E+03  0.11404078592E+03  0.41800000000E+01 0. -1.
         -5    1    3    3    0  502  0.15526714087E+03  0.70532004630E+02 -0.43402804719E+03  0.46634801045E+03  0.41800000000E+01 0. -1.
        -11    1    4    4    0    0 -0.51568286513E+02 -0.29373140784E+02 -0.26906744476E+03  0.27553467913E+03  0.00000000000E+00 0.  1.
         11    1    4    4    0    0 -0.13507951989E+03  0.26146629185E+01 -0.24825038526E+03  0.28263327287E+03  0.00000000000E+00 0. -1.
</event>
<event>
 8    1  0.7039283E-009  0.8816267E+02  0.7561462E-02  0.1307363E+00
          2   -1    0    0  501    0  0.00000000000E+00  0.00000000000E+00  0.56983251220E+02  0.56983251220E+02  0.00000000000E+00 0. -1.
         -2   -1    0    0    0  501 -0.00000000000E+00 -0.00000000000E+00 -0.28910093836E+03  0.28910093836E+03  0.00000000000E+00 0.  1.
         25    2    1    2    0    0 -0.40263529385E+02 -0.48204935422E+01 -0.53927042416E+02  0.14213034708E+03  0.12509404742E+03 0.  0.
         23    2    1    2    0    0  0.40263529385E+02  0.48204935422E+01 -0.17819064472E+03  0.20395384250E+03  0.90558682893E+02 0.  0.
          5    1    3    3  502    0  0.21638221387E+02  0.34199418849E+01 -0.73296296756E+02  0.76614151078E+02  0.41800000000E+01 0.  1.
         -5    1    3    3    0  502 -0.61901750772E+02 -0.82404354271E+01  0.19369254341E+02  0.65516196000E+02  0.41800000000E+01 0.  1.
        -11    1    4    4    0    0  0.54431162139E+02  0.30289574564E+02 -0.79195895924E+02  0.10075812459E+03  0.00000000000E+00 0. -1.
         11    1    4    4    0    0 -0.14167632754E+02 -0.25469081022E+02 -0.98994748797E+02  0.10319571791E+03  0.00000000000E+00 0.  1.
</event>
<event>
 8    1  0.7039283E-009  0.8869645E+02  0.7561462E-02  0.1306039E+00
         -3   -1    0    0    0  501 -0.00000000000E+00  0.00000000000E+00  0.10611966016E+03  0.10611966016E+03  0.00000000000E+00 0.  1.
          3   -1    0    0  501    0  0.00000000000E+00 -0.00000000000E+00 -0.18027791675E+03  0.18027791675E+03  0.00000000000E+00 0. -1.
         25    2    1    2    0    0 -0.65361624811E+02 -0.55275954696E+02 -0.46486116395E+02  0.15854524586E+03  0.12509221719E+03 0.  0.
         23    2    1    2    0    0  0.65361624811E+02  0.55275954696E+02 -0.27672140197E+02  0.12785233105E+03  0.90845462439E+02 0.  0.
          5    1    3    3  502    0 -0.53079113945E+02 -0.44829670926E+02 -0.88941744057E+02  0.11293891255E+03  0.41800000000E+01 0.  1.
         -5    1    3    3    0  502 -0.12282510866E+02 -0.10446283771E+02  0.42455627662E+02  0.45606333310E+02  0.41800000000E+01 0.  1.
        -11    1    4    4    0    0  0.29078213486E+02  0.44724861511E+02  0.28246910614E+02  0.60363430120E+02  0.00000000000E+00 0.  1.
         11    1    4    4    0    0  0.36283411326E+02  0.10551093186E+02 -0.55919050811E+02  0.67488900928E+02  0.00000000000E+00 0. -1.
</event>
<event>
 8    1  0.7039283E-009  0.1608719E+03  0.7561462E-02  0.1187716E+00
         -1   -1    0    0    0  501 -0.00000000000E+00  0.00000000000E+00  0.34925805242E+03  0.34925805242E+03  0.00000000000E+00 0. -1.
          1   -1    0    0  501    0  0.00000000000E+00 -0.00000000000E+00 -0.83274780379E+02  0.83274780379E+02  0.00000000000E+00 0.  1.
         25    2    1    2    0    0 -0.20737036333E+02  0.12919709209E+03  0.16009532423E+03  0.24166255738E+03  0.12509342715E+03 0.  0.
         23    2    1    2    0    0  0.20737036333E+02 -0.12919709209E+03  0.10588794781E+03  0.19087027541E+03  0.89984950213E+02 0.  0.
          5    1    3    3  502    0 -0.58904561660E+02  0.59589256165E+02  0.13381038440E+03  0.15793453773E+03  0.41800000000E+01 0.  1.
         -5    1    3    3    0  502  0.38167525327E+02  0.69607835929E+02  0.26284939830E+02  0.83728019648E+02  0.41800000000E+01 0.  1.
        -11    1    4    4    0    0 -0.31240495476E+02 -0.83476499592E+02  0.52436930703E+02  0.10341144155E+03  0.00000000000E+00 0.  1.
         11    1    4    4    0    0  0.51977531810E+02 -0.45720592502E+02  0.53451017102E+02  0.87458833865E+02  0.00000000000E+00 0. -1.
</event>
<event>
 8    1  0.7039283E-009  0.1301201E+03  0.7561462E-02  0.1227278E+00
         -1   -1    0    0    0  501 -0.00000000000E+00  0.00000000000E+00  0.11467710799E+02  0.11467710799E+02  0.00000000000E+00 0.  1.
          1   -1    0    0  501    0  0.00000000000E+00 -0.00000000000E+00 -0.16803605940E+04  0.16803605940E+04  0.00000000000E+00 0. -1.
         25    2    1    2    0    0  0.75215170612E+02  0.12250932084E+02 -0.10650736987E+04  0.10750985843E+04  0.12509026722E+03 0.  0.
         23    2    1    2    0    0 -0.75215170612E+02 -0.12250932084E+02 -0.60381918452E+03  0.61672972057E+03  0.99752360462E+02 0.  0.
          5    1    3    3  502    0 -0.72153588351E+01 -0.45166627445E+02 -0.33169174231E+03  0.33485664090E+03  0.41800000000E+01 0.  1.
         -5    1    3    3    0  502  0.82430529447E+02  0.57417559530E+02 -0.73338195641E+03  0.74024194337E+03  0.41800000000E+01 0.  1.
        -11    1    4    4    0    0 -0.93341308509E+02 -0.17342785855E+02 -0.57145323509E+03  0.57928591558E+03  0.00000000000E+00 0. -1.
         11    1    4    4    0    0  0.18126137897E+02  0.50918537704E+01 -0.32365949430E+02  0.37443804993E+02  0.00000000000E+00 0.  1.
</event>
<event>
 8    1  0.7039283E-009  0.1368161E+03  0.7561462E-02  0.1217678E+00
          2   -1    0    0  501    0  0.00000000000E+00  0.00000000000E+00  0.86341890464E+03  0.86341890464E+03  0.00000000000E+00 0. -1.
         -2   -1    0    0    0  501 -0.00000000000E+00 -0.00000000000E+00 -0.32592663173E+02  0.32592663173E+02  0.00000000000E+00 0.  1.
         25    2    1    2    0    0  0.38477654486E+02 -0.12384661313E+03  0.42226620724E+03  0.45910161521E+03  0.12508808830E+03 0.  0.
         23    2    1    2    0    0 -0.38477654486E+02  0.12384661313E+03  0.40856003423E+03  0.43690995261E+03  0.84560579679E+02 0.  0.
          5    1    3    3  502    0  0.32937086896E+02 -0.65837286086E+02  0.37975939687E+03  0.38685148551E+03  0.41800000000E+01 0. -1.
         -5    1    3    3    0  502  0.55405675907E+01 -0.58009327048E+02  0.42506810371E+02  0.72250129700E+02  0.41800000000E+01 0. -1.
        -11    1    4    4    0    0 -0.40855099815E+02  0.38636995712E+02  0.82143548061E+02  0.99546567527E+02  0.00000000000E+00 0.  1.
         11    1    4    4    0    0  0.23774453289E+01  0.85209617422E+02  0.32641648617E+03  0.33736338508E+03  0.00000000000E+00 0. -1.
</event>
<event>
 8    1  0.7039283E-009  0.8683253E+02  0.7561462E-02  0.1310709E+00
         -1   -1    0    0    0  501 -0.00000000000E+00  0.00000000000E+00  0.10849526332E+03  0.10849526332E+03  0.00000000000E+00 0. -1.
          1   -1    0    0  501    0  0.00000000000E+00 -0.00000000000E+00 -0.11581824418E+03  0.11581824418E+03  0.00000000000E+00 0.  1.
         25    2    1    2    0    0  0.27998993579E+02  0.92239341588E+01 -0.15006886207E+02  0.12938673557E+03  0.12508675432E+03 0.  0.
         23    2    1    2    0    0 -0.27998993579E+02 -0.92239341588E+01  0.76839053501E+01  0.94926771931E+02  0.89905645124E+02 0.  0.
          5    1    3    3  502    0  0.69588016866E+02 -0.11271592588E+02  0.17318284812E+02  0.72711321537E+02  0.41800000000E+01 0. -1.
         -5    1    3    3    0  502 -0.41589023287E+02  0.20495526747E+02 -0.32325171019E+02  0.56675414035E+02  0.41800000000E+01 0. -1.
        -11    1    4    4    0    0 -0.59474986361E+01 -0.27324526276E+02 -0.34245187145E+02  0.44212388748E+02  0.00000000000E+00 0.  1.
         11    1    4    4    0    0 -0.22051494942E+02  0.18100592118E+02  0.41929092495E+02  0.50714383183E+02  0.00000000000E+00 0. -1.
</event>
<event>
 8    1  0.7039283E-009  0.9539937E+02  0.7561462E-02  0.1290279E+00
          2   -1    0    0  501    0  0.00000000000E+00  0.00000000000E+00  0.38374984797E+03  0.38374984797E+03  0.00000000000E+00 0.  1.
         -2   -1    0    0    0  501 -0.00000000000E+00 -0.00000000000E+00 -0.53435393080E+02  0.53435393080E+02  0.00000000000E+00 0. -1.
         25    2    1    2    0    0  0.23654671888E+02  0.72265326787E+02  0.99263215943E+02  0.17686424734E+03  0.12508379187E+03 0.  0.
         23    2    1    2    0    0 -0.23654671888E+02 -0.72265326787E+02  0.23105123895E+03  0.26032099372E+03  0.92739009006E+02 0.  0.
          5    1    3    3  502    0 -0.11274679691E+02  0.55531436874E+02  0.11997178429E+03  0.13274622521E+03  0.41800000000E+01 0. -1.
         -5    1    3    3    0  502  0.34929351579E+02  0.16733889913E+02 -0.20708568343E+02  0.44118022124E+02  0.41800000000E+01 0. -1.
        -11    1    4    4    0    0  0.10333267243E+01 -0.70246512542E+02  0.22371541142E+03  0.23448715443E+03  0.00000000000E+00 0.  1.
         11    1    4    4    0    0 -0.24687998612E+02 -0.20188142445E+01  0.73358275297E+01  0.25833839281E+02  0.00000000000E+00 0. -1.
</event>
<event>
 8    1  0.7039283E-009  0.9787451E+02  0.7561462E-02  0.1284830E+00
         -1   -1    0    0    0  501 -0.00000000000E+00  0.00000000000E+00  0.54064355642E+02  0.54064355642E+02  0.00000000000E+00 0.  1.
          1   -1    0    0  501    0  0.00000000000E+00 -0.00000000000E+00 -0.34622948460E+03  0.34622948460E+03  0.00000000000E+00 0. -1.
         25    2    1    2    0    0 -0.47665447827E+02  0.17553314936E+02 -0.64982428882E+02  0.14983798808E+03  0.12509433571E+03 0.  0.
         23    2    1    2    0    0  0.47665447827E+02 -0.17553314936E+02 -0.22718270008E+03  0.25045585216E+03  0.92390696966E+02 0.  0.
          5    1    3    3  502    0 -0.67910348047E+02  0.30899518220E+02 -0.88480777915E+02  0.11581414447E+03  0.41800000000E+01 0. -1.
         -5    1    3    3    0  502  0.20244900220E+02 -0.13346203284E+02  0.23498349033E+02  0.34023843615E+02  0.41800000000E+01 0. -1.
        -11    1    4    4    0    0  0.31613871457E+02  0.31605852325E+02 -0.56125459236E+02  0.71752588414E+02  0.00000000000E+00 0.  1.
         11    1    4    4    0    0  0.16051576370E+02 -0.49159167261E+02 -0.17105724084E+03  0.17870326375E+03  0.00000000000E+00 0. -1.
</event>
<event>
 8    1  0.7039283E-009  0.1059298E+03  0.7561462E-02  0.1268298E+00
         -1   -1    0    0    0  501 -0.00000000000E+00  0.00000000000E+00  0.22956873528E+03  0.22956873528E+03  0.00000000000E+00 0.  1.
          1   -1    0    0  501    0  0.00000000000E+00 -0.00000000000E+00 -0.64602521077E+02  0.64602521077E+02  0.00000000000E+00 0. -1.
         25    2    1    2    0    0  0.44354570328E+02  0.94090071018E+01  0.54495687596E+02  0.14378069548E+03  0.12508897275E+03 0.  0.
         23    2    1    2    0    0 -0.44354570328E+02 -0.94090071018E+01  0.11047052661E+03  0.15039056087E+03  0.91420600673E+02 0.  0.
          5    1    3    3  502    0 -0.14188242717E+02  0.55986557130E+02  0.27843990043E+02  0.64253879200E+02  0.41800000000E+01 0.  1.
         -5    1    3    3    0  502  0.58542813045E+02 -0.46577550029E+02  0.26651697553E+02  0.79526816284E+02  0.41800000000E+01 0.  1.
        -11    1    4    4    0    0 -0.46375296544E+02  0.19309517926E+02  0.11073835033E+03  0.12159978555E+03  0.00000000000E+00 0.  1.
         11    1    4    4    0    0  0.20207262159E+01 -0.28718525028E+02 -0.26782372180E+00  0.28790775324E+02  0.00000000000E+00 0. -1.
</event>
<event>
 8    1  0.7039283E-009  0.1524673E+03  0.7561462E-02  0.1197474E+00
          1   -1    0    0  501    0  0.00000000000E+00  0.00000000000E+00  0.78543809091E+03  0.78543809091E+03  0.00000000000E+00 0. -1.
         -1   -1    0    0    0  501 -0.00000000000E+00 -0.00000000000E+00 -0.35758951530E+02  0.35758951530E+02  0.00000000000E+00 0.  1.
         25    2    1    2    0    0  0.31474115944E+02 -0.12280203329E+03  0.42274680802E+03  0.45873146962E+03  0.12509491667E+03 0.  0.
         23    2    1    2    0    0 -0.31474115944E+02  0.12280203329E+03  0.32693233136E+03  0.36246557282E+03  0.91790973599E+02 0.  0.
          5    1    3    3  502    0  0.77483394842E+02 -0.61768139347E+02  0.27489942240E+03  0.29224329650E+03  0.41800000000E+01 0.  1.
         -5    1    3    3    0  502 -0.46009278898E+02 -0.61033893942E+02  0.14784738562E+03  0.16648817312E+03  0.41800000000E+01 0.  1.
        -11    1    4    4    0    0 -0.59315340863E+01  0.72978784183E+02  0.27997792336E+03  0.28939371729E+03  0.00000000000E+00 0.  1.
         11    1    4    4    0    0 -0.25542581858E+02  0.49823249107E+02  0.46954407998E+02  0.73071855526E+02  0.00000000000E+00 0. -1.
</event>
<event>
 8    1  0.7039283E-009  0.1773151E+03  0.7561462E-02  0.1170427E+00
          1   -1    0    0  501    0  0.00000000000E+00  0.00000000000E+00  0.34016693057E+03  0.34016693057E+03  0.00000000000E+00 0. -1.
         -1   -1    0    0    0  501 -0.00000000000E+00 -0.00000000000E+00 -0.30126926994E+03  0.30126926994E+03  0.00000000000E+00 0.  1.
         25    2    1    2    0    0 -0.12402055057E+03  0.11775244250E+03 -0.22831734069E+03  0.31148616833E+03  0.12509232720E+03 0.  0.
         23    2    1    2    0    0  0.12402055057E+03 -0.11775244250E+03  0.26721500132E+03  0.32995003218E+03  0.90644537186E+02 0.  0.
          5    1    3    3  502    0 -0.79606279357E+02  0.77314940903E+02 -0.47275718264E+02  0.12069476268E+03  0.41800000000E+01 0.  1.
         -5    1    3    3    0  502 -0.44414271215E+02  0.40437501598E+02 -0.18104162242E+03  0.19079140566E+03  0.41800000000E+01 0.  1.
        -11    1    4    4    0    0  0.10183277545E+03 -0.12386870413E+03  0.18620931696E+03  0.24573823419E+03  0.00000000000E+00 0.  1.
         11    1    4    4    0    0  0.22187775123E+02  0.61162616315E+01  0.81005684363E+02  0.84211797988E+02  0.00000000000E+00 0. -1.
</event>
<event>
 8    1  0.7039283E-009  0.1182301E+03  0.7561462E-02  0.1246046E+00
          1   -1    0    0  501    0  0.00000000000E+00  0.00000000000E+00  0.57779524913E+03  0.57779524913E+03  0.00000000000E+00 0. -1.
         -1   -1    0    0    0  501 -0.00000000000E+00 -0.00000000000E+00 -0.26297888251E+02  0.26297888251E+02  0.00000000000E+00 0.  1.
         25    2    1    2    0    0 -0.35505092642E+02  0.33046875235E+02  0.22977496503E+03  0.26607038975E+03  0.12507681712E+03 0.  0.
         23    2    1    2    0    0  0.35505092642E+02 -0.33046875235E+02  0.32172239585E+03  0.33802274763E+03  0.91658989503E+02 0.  0.
          5    1    3    3  502    0 -0.33622276181E+02 -0.44772888185E+02  0.99817121111E+02  0.11452510222E+03  0.41800000000E+01 0. -1.
         -5    1    3    3    0  502 -0.18828164609E+01  0.77819763420E+02  0.12995784392E+03  0.15154528753E+03  0.41800000000E+01 0. -1.
        -11    1    4    4    0    0 -0.18921044699E+02 -0.43046088134E+02  0.17516199038E+03  0.18136343212E+03  0.00000000000E+00 0.  1.
         11    1    4    4    0    0  0.54426137340E+02  0.99992128996E+01  0.14656040547E+03  0.15665931551E+03  0.00000000000E+00 0. -1.
</event>
<event>
 8    1  0.7039283E-009  0.1614975E+03  0.7561462E-02  0.1187016E+00
         -3   -1    0    0    0  501 -0.00000000000E+00  0.00000000000E+00  0.68766160236E+02  0.68766160236E+02  0.00000000000E+00 0.  1.
          3   -1    0    0  501    0  0.00000000000E+00 -0.00000000000E+00 -0.49316107281E+03  0.49316107281E+03  0.00000000000E+00 0. -1.
         25    2    1    2    0    0  0.14693880346E+03 -0.95712403533E+01 -0.19918133425E+03  0.27749428956E+03  0.12508899320E+03 0.  0.
         23    2    1    2    0    0 -0.14693880346E+03  0.95712403533E+01 -0.22521357833E+03  0.28443294349E+03  0.92186348618E+02 0.  0.
          5    1    3    3  502    0  0.13763011662E+03  0.16954491167E+02 -0.91655875338E+02  0.16627620292E+03  0.41800000000E+01 0. -1.
         -5    1    3    3    0  502  0.93086868434E+01 -0.26525731520E+02 -0.10752545891E+03  0.11121808665E+03  0.41800000000E+01 0. -1.
        -11    1    4    4    0    0 -0.45079848910E+02  0.26933222693E+02 -0.14316212679E+03  0.15248929736E+03  0.00000000000E+00 0. -1.
         11    1    4    4    0    0 -0.10185895455E+03 -0.17361982339E+02 -0.82051451539E+02  0.13194364613E+03  0.00000000000E+00 0.  1.
</event>
<event>
 8    1  0.7039283E-009  0.1272166E+03  0.7561462E-02  0.1231645E+00
          1   -1    0    0  501    0  0.00000000000E+00  0.00000000000E+00  0.14154167423E+04  0.14154167423E+04  0.00000000000E+00 0. -1.
         -1   -1    0    0    0  501 -0.00000000000E+00 -0.00000000000E+00 -0.17781290437E+02  0.17781290437E+02  0.00000000000E+00 0.  1.
         25    2    1    2    0    0  0.37814167536E+02 -0.84648809298E+02  0.10759151737E+04  0.10871227586E+04  0.12508836540E+03 0.  0.
         23    2    1    2    0    0 -0.37814167536E+02  0.84648809298E+02  0.32172027820E+03  0.34607527414E+03  0.87571832143E+02 0.  0.
          5    1    3    3  502    0 -0.45929385995E+02 -0.28804980347E+02  0.33353136437E+03  0.33793472566E+03  0.41800000000E+01 0. -1.
         -5    1    3    3    0  502  0.83743553530E+02 -0.55843828951E+02  0.74238380933E+03  0.74918803297E+03  0.41800000000E+01 0. -1.
        -11    1    4    4    0    0  0.29892881695E+01  0.34656295105E+02  0.26084452459E+02  0.43478653317E+02  0.00000000000E+00 0.  1.
         11    1    4    4    0    0 -0.40803455705E+02  0.49992514193E+02  0.29563582574E+03  0.30259662082E+03  0.00000000000E+00 0. -1.
</event>
<event>
 8    1  0.7039283E-009  0.2698448E+03  0.7561462E-02  0.1101368E+00
          1   -1    0    0  501    0  0.00000000000E+00  0.00000000000E+00  0.12511646020E+04  0.12511646020E+04  0.00000000000E+00 0. -1.
         -1   -1    0    0    0  501 -0.00000000000E+00 -0.00000000000E+00 -0.69297795478E+02  0.69297795478E+02  0.00000000000E+00 0.  1.
         25    2    1    2    0    0 -0.20494234246E+03 -0.14360557302E+03  0.35588602960E+03  0.45268850357E+03  0.12509232936E+03 0.  0.
         23    2    1    2    0    0  0.20494234246E+03  0.14360557302E+03  0.82598077697E+03  0.86777389396E+03  0.90351329688E+02 0.  0.
          5    1    3    3  502    0 -0.94582438342E+02  0.77080320535E+00  0.90163047036E+02  0.13074126828E+03  0.41800000000E+01 0. -1.
         -5    1    3    3    0  502 -0.11035990412E+03 -0.14437637623E+03  0.26572298256E+03  0.32194723529E+03  0.41800000000E+01 0. -1.
        -11    1    4    4    0    0  0.12599045200E+03  0.38417625388E+02  0.35028923011E+03  0.37423529052E+03  0.00000000000E+00 0.  1.
         11    1    4    4    0    0  0.78951890454E+02  0.10518794763E+03  0.47569154686E+03  0.49353860344E+03  0.00000000000E+00 0. -1.
</event>
<event>
 8    1  0.7039283E-009  0.1031430E+03  0.7561462E-02  0.1273822E+00
         -2   -1    0    0    0  501 -0.00000000000E+00  0.00000000000E+00  0.88222596225E+02  0.88222596225E+02  0.00000000000E+00 0.  1.
          2   -1    0    0  501    0  0.00000000000E+00 -0.00000000000E+00 -0.21304639074E+03  0.21304639074E+03  0.00000000000E+00 0. -1.
         25    2    1    2    0    0 -0.10249108321E+02 -0.73901614625E+02 -0.25400745285E+02  0.14784915847E+03  0.12509069883E+03 0.  0.
         23    2    1    2    0    0  0.10249108321E+02  0.73901614625E+02 -0.99423049233E+02  0.15341982850E+03  0.89923346199E+02 0.  0.
          5    1    3    3  502    0  0.18908503019E+01 -0.10085836523E+03  0.10094053777E+02  0.10146599171E+03  0.41800000000E+01 0. -1.
         -5    1    3    3    0  502 -0.12139958623E+02  0.26956750605E+02 -0.35494799062E+02  0.46383166764E+02  0.41800000000E+01 0. -1.
        -11    1    4    4    0    0 -0.11478717144E+01  0.32591379369E+02  0.11442102103E+02  0.34560632506E+02  0.00000000000E+00 0.  1.
         11    1    4    4    0    0  0.11396980036E+02  0.41310235256E+02 -0.11086515134E+03  0.11885919599E+03  0.00000000000E+00 0. -1.
</event>
<event>
 8    1  0.7039283E-009  0.1054212E+03  0.7561462E-02  0.1269292E+00
         -3   -1    0    0    0  501 -0.00000000000E+00  0.00000000000E+00  0.14302725169E+03  0.14302725169E+03  0.00000000000E+00 0.  1.
          3   -1    0    0  501    0  0.00000000000E+00 -0.00000000000E+00 -0.11937300426E+03  0.11937300426E+03  0.00000000000E+00 0. -1.
         25    2    1    2    0    0 -0.50056860409E+02 -0.10729585320E+02 -0.34685962122E+02  0.13954063160E+03  0.12509060166E+03 0.  0.
         23    2    1    2    0    0  0.50056860409E+02  0.10729585320E+02  0.58340209555E+02  0.12285962435E+03  0.95237040956E+02 0.  0.
          5    1    3    3  502    0 -0.23954605632E+02  0.56672600492E+02 -0.24796719268E+02  0.66467709934E+02  0.41800000000E+01 0.  1.
         -5    1    3    3    0  502 -0.26102254777E+02 -0.67402185812E+02 -0.98892428547E+01  0.73072921667E+02  0.41800000000E+01 0.  1.
        -11    1    4    4    0    0 -0.46513322720E+01 -0.15441469129E+02  0.60062039781E+02  0.62189408129E+02  0.00000000000E+00 0.  1.
         11    1    4    4    0    0  0.54708192681E+02  0.26171054449E+02 -0.17218302258E+01  0.60670216224E+02  0.00000000000E+00 0. -1.
</event>
<event>
 8    1  0.7039283E-009  0.1691408E+03  0.7561462E-02  0.1178747E+00
         -2   -1    0    0    0  501 -0.00000000000E+00  0.00000000000E+00  0.45628659639E+02  0.45628659639E+02  0.00000000000E+00 0.  1.
          2   -1    0    0  501    0  0.00000000000E+00 -0.00000000000E+00 -0.92357102725E+03  0.92357102725E+03  0.00000000000E+00 0. -1.
         25    2    1    2    0    0 -0.83149976785E+02  0.11860879098E+03 -0.68591786575E+03  0.71211875859E+03  0.12509134197E+03 0.  0.
         23    2    1    2    0    0  0.83149976785E+02 -0.11860879098E+03 -0.19202450186E+03  0.25708092831E+03  0.90748170489E+02 0.  0.
          5    1    3    3  502    0 -0.20137731434E+02  0.11650802402E+03 -0.32841942200E+03  0.34907941365E+03  0.41800000000E+01 0.  1.
         -5    1    3    3    0  502 -0.63012245351E+02  0.21007669615E+01 -0.35749844376E+03  0.36303934494E+03  0.41800000000E+01 0.  1.
        -11    1    4    4    0    0  0.45443799211E+02 -0.10867475355E+03 -0.18204537465E+03  0.21683140773E+03  0.00000000000E+00 0. -1.
         11    1    4    4    0    0  0.37706177573E+02 -0.99340374230E+01 -0.99791272126E+01  0.40249520577E+02  0.00000000000E+00 0.  1.
</event>
<event>
 8    1  0.7039283E-009  0.1241665E+03  0.7561462E-02  0.1236378E+00
          1   -1    0    0  501    0  0.00000000000E+00  0.00000000000E+00  0.26171959848E+03  0.26171959848E+03  0.00000000000E+00 0. -1.
         -1   -1    0    0    0  501 -0.00000000000E+00 -0.00000000000E+00 -0.61162081827E+02  0.61162081827E+02  0.00000000000E+00 0.  1.
         25    2    1    2    0    0  0.37915413244E+02 -0.49614747229E+02  0.87832188723E+02  0.16510945137E+03  0.12508971121E+03 0.  0.
         23    2    1    2    0    0 -0.37915413244E+02  0.49614747229E+02  0.11272532793E+03  0.15777222894E+03  0.91026781574E+02 0.  0.
          5    1    3    3  502    0 -0.28914972984E+02 -0.64373217907E+02  0.51885332322E+02  0.87690061903E+02  0.41800000000E+01 0. -1.
         -5    1    3    3    0  502  0.66830386228E+02  0.14758470679E+02  0.35946856401E+02  0.77419389466E+02  0.41800000000E+01 0. -1.
        -11    1    4    4    0    0 -0.10491652263E+02 -0.26321663370E+02  0.19244942670E+02  0.34253066259E+02  0.00000000000E+00 0. -1.
         11    1    4    4    0    0 -0.27423760980E+02  0.75936410599E+02  0.93480385263E+02  0.12351916268E+03  0.00000000000E+00 0.  1.
</event>
<event>
 8    1  0.7039283E-009  0.9617624E+02  0.7561462E-02  0.1288549E+00
          1   -1    0    0  501    0  0.00000000000E+00  0.00000000000E+00  0.13563101495E+03  0.13563101495E+03  0.00000000000E+00 0. -1.
         -1   -1    0    0    0  501 -0.00000000000E+00 -0.00000000000E+00 -0.12510521146E+03  0.12510521146E+03  0.00000000000E+00 0.  1.
         25    2    1    2    0    0  0.36294830889E+02 -0.63172707464E+02  0.25251141758E+01  0.14478309481E+03  0.12509061764E+03 0.  0.
         23    2    1    2    0    0 -0.36294830889E+02  0.63172707464E+02  0.80006893165E+01  0.11595313160E+03  0.89849941461E+02 0.  0.
          5    1    3    3  502    0  0.18688012100E+01 -0.75621709237E+02 -0.42291225326E+02  0.86764943759E+02  0.41800000000E+01 0.  1.
         -5    1    3    3    0  502  0.34426029679E+02  0.12449001773E+02  0.44816339501E+02  0.58018151047E+02  0.41800000000E+01 0.  1.
        -11    1    4    4    0    0  0.36822735265E+01  0.22195722028E+02 -0.36886006078E+02  0.43206326609E+02  0.00000000000E+00 0.  1.
         11    1    4    4    0    0 -0.39977104415E+02  0.40976985436E+02  0.44886695395E+02  0.72746804990E+02  0.00000000000E+00 0. -1.
</event>
<event>
 8    1  0.7039283E-009  0.1300303E+03  0.7561462E-02  0.1227411E+00
          2   -1    0    0  501    0  0.00000000000E+00  0.00000000000E+00  0.82176044018E+02  0.82176044018E+02  0.00000000000E+00 0.  1.
         -2   -1    0    0    0  501 -0.00000000000E+00 -0.00000000000E+00 -0.22552320128E+03  0.22552320128E+03  0.00000000000E+00 0. -1.
         25    2    1    2    0    0 -0.48398709611E+02  0.67341832659E+02 -0.72914799257E+02  0.16685899836E+03  0.12509196563E+03 0.  0.
         23    2    1    2    0    0  0.48398709611E+02 -0.67341832659E+02 -0.70432358010E+02  0.14084024695E+03  0.89430982254E+02 0.  0.
          5    1    3    3  502    0 -0.82698380349E+02  0.67586443030E+02 -0.77467324347E+02  0.13200609128E+03  0.41800000000E+01 0. -1.
         -5    1    3    3    0  502  0.34299670738E+02 -0.24461037087E+00  0.45525250899E+01  0.34852907076E+02  0.41800000000E+01 0. -1.
        -11    1    4    4    0    0  0.64826273666E+02 -0.18983343746E+02 -0.56067453027E+02  0.87785946404E+02  0.00000000000E+00 0. -1.
         11    1    4    4    0    0 -0.16427564055E+02 -0.48358488913E+02 -0.14364904983E+02  0.53054300541E+02  0.00000000000E+00 0.  1.
</event>
<event>
 8    1  0.7039283E-009  0.1000715E+03  0.7561462E-02  0.1280146E+00
          3   -1    0    0  501    0  0.00000000000E+00  0.00000000000E+00  0.11839185298E+03  0.11839185298E+03  0.00000000000E+00 0. -1.
         -3   -1    0    0    0  501 -0.00000000000E+00 -0.00000000000E+00 -0.15617810677E+03  0.15617810677E+03  0.00000000000E+00 0.  1.
         25    2    1    2    0    0 -0.61468210992E+02  0.50394099892E+02 -0.50600154671E+02  0.15660510423E+03  0.12508747639E+03 0.  0.
         23    2    1    2    0    0  0.61468210992E+02 -0.50394099892E+02  0.12813900881E+02  0.11796485553E+03  0.86218355455E+02 0.  0.
          5    1    3    3  502    0 -0.29244545779E+02 -0.19552171819E+02 -0.68778942282E+02  0.77366311674E+02  0.41800000000E+01 0.  1.
         -5    1    3    3    0  502 -0.32223665213E+02  0.69946271711E+02  0.18178787611E+02  0.79238792551E+02  0.41800000000E+01 0.  1.
        -11    1    4    4    0    0  0.35641425772E+01 -0.23461121669E+02  0.41618042123E+02  0.47908128459E+02  0.00000000000E+00 0. -1.
         11    1    4    4    0    0  0.57904068414E+02 -0.26932978223E+02 -0.28804141242E+02  0.70056727069E+02  0.00000000000E+00 0.  1.
</event>
<event>
 8    1  0.7039283E-009  0.1247537E+03  0.7561462E-02  0.1235455E+00
         -2   -1    0    0    0  501 -0.00000000000E+00  0.00000000000E+00  0.95203745800E+01  0.95203745800E+01  0.00000000000E+00 0. -1.
          2   -1    0    0  501    0  0.00000000000E+00 -0.00000000000E+00 -0.26104417954E+04  0.26104417954E+04  0.00000000000E+00 0.  1.
         25    2    1    2    0    0 -0.35675167495E+02  0.50778878905E+02 -0.21903313888E+04  0.21947780508E+04  0.12509151603E+03 0.  0.
         23    2    1    2    0    0  0.35675167495E+02 -0.50778878905E+02 -0.41059003204E+03  0.42518411920E+03  0.91357258563E+02 0.  0.
          5    1    3    3  502    0  0.44057637065E+02  0.37747554849E+02 -0.10156230832E+04  0.10172874092E+04  0.41800000000E+01 0.  1.
         -5    1    3    3    0  502 -0.79732804560E+02  0.13031324057E+02 -0.11747083055E+04  0.11774906416E+04  0.41800000000E+01 0.  1.
        -11    1    4    4    0    0 -0.14940177504E+02 -0.57475104874E+02 -0.22043815114E+03  0.22829712014E+03  0.00000000000E+00 0.  1.
         11    1    4    4    0    0  0.50615344999E+02  0.66962259684E+01 -0.19015188090E+03  0.19688699906E+03  0.00000000000E+00 0. -1.
</event>
<event>
 8    1  0.7039283E-009  0.8798755E+02  0.7561462E-02  0.1307800E+00
          1   -1    0    0  501    0  0.00000000000E+00  0.00000000000E+00  0.10961776548E+03  0.10961776548E+03  0.00000000000E+00 0.  1.
         -1   -1    0    0    0  501 -0.00000000000E+00 -0.00000000000E+00 -0.12694785162E+03  0.12694785162E+03  0.00000000000E+00 0. -1.
         25    2    1    2    0    0 -0.23247694303E+02 -0.19479255361E+02 -0.43628504386E+02  0.13590773619E+03  0.12509024615E+03 0.  0.
         23    2    1    2    0    0  0.23247694303E+02  0.19479255361E+02  0.26298418240E+02  0.10065788090E+03  0.92306584307E+02 0.  0.
          5    1    3    3  502    0 -0.56288875453E+02 -0.51486509850E+02 -0.65567444172E+01  0.76679602853E+02  0.41800000000E+01 0. -1.
         -5    1    3    3    0  502  0.33041181150E+02  0.32007254489E+02 -0.37071759968E+02  0.59228133340E+02  0.41800000000E+01 0. -1.
        -11    1    4    4    0    0  0.29413305923E+02  0.29475084951E+02  0.55383519960E+02  0.69291106798E+02  0.00000000000E+00 0.  1.
         11    1    4    4    0    0 -0.61656116202E+01 -0.99958295901E+01 -0.29085101719E+02  0.31366774107E+02  0.00000000000E+00 0. -1.
</event>
<event>
 8    1  0.7039283E-009  0.1229464E+03  0.7561462E-02  0.1238314E+00
         -2   -1    0    0    0  501 -0.00000000000E+00  0.00000000000E+00  0.20557430750E+02  0.20557430750E+02  0.00000000000E+00 0.  1.
          2   -1    0    0  501    0  0.00000000000E+00 -0.00000000000E+00 -0.88541567977E+03  0.88541567977E+03  0.00000000000E+00 0. -1.
         25    2    1    2    0    0 -0.68684673603E+02 -0.69068448573E+01 -0.63126873057E+03  0.64723516257E+03  0.12509139292E+03 0.  0.
         23    2    1    2    0    0  0.68684673603E+02  0.69068448573E+01 -0.23358951845E+03  0.25873794794E+03  0.87269546141E+02 0.  0.
          5    1    3    3  502    0 -0.16866960406E+01 -0.53013328282E+02 -0.15072569961E+03  0.15984044182E+03  0.41800000000E+01 0. -1.
         -5    1    3    3    0  502 -0.66997977563E+02  0.46106483425E+02 -0.48054303096E+03  0.48739472075E+03  0.41800000000E+01 0. -1.
        -11    1    4    4    0    0  0.62530565159E+02  0.42191677061E+02 -0.16067089330E+03  0.17749745110E+03  0.00000000000E+00 0.  1.
         11    1    4    4    0    0  0.61541084446E+01 -0.35284832204E+02 -0.72918625148E+02  0.81240496847E+02  0.00000000000E+00 0. -1.
</event>
<event>
 8    1  0.7039283E-009  0.1251977E+03  0.7561462E-02  0.1234761E+00
         -2   -1    0    0    0  501 -0.00000000000E+00  0.00000000000E+00  0.29138969282E+02  0.29138969282E+02  0.00000000000E+00 0.  1.
          2   -1    0    0  501    0  0.00000000000E+00 -0.00000000000E+00 -0.80589826002E+03  0.80589826002E+03  0.00000000000E+00 0. -1.
         25    2    1    2    0    0  0.65390377824E+02  0.32065347257E+01 -0.64848804380E+03  0.66367847180E+03  0.12508472171E+03 0.  0.
         23    2    1    2    0    0 -0.65390377824E+02 -0.32065347257E+01 -0.12827124694E+03  0.17135875750E+03  0.92866181166E+02 0.  0.
          5    1    3    3  502    0  0.60107841277E+01  0.58796972752E+02 -0.24634430413E+03  0.25336969453E+03  0.41800000000E+01 0. -1.
         -5    1    3    3    0  502  0.59379593696E+02 -0.55590438027E+02 -0.40214373967E+03  0.41030877727E+03  0.41800000000E+01 0. -1.
        -11    1    4    4    0    0  0.11918643537E+02  0.24764458795E+02 -0.53879176109E+02  0.60483866455E+02  0.00000000000E+00 0.  1.
         11    1    4    4    0    0 -0.77309021360E+02 -0.27970993520E+02 -0.74392070829E+02  0.11087489105E+03  0.00000000000E+00 0. -1.
</event>
<event>
 8    1  0.7039283E-009  0.9962051E+02  0.7561462E-02  0.1281096E+00
         -3   -1    0    0    0  501 -0.00000000000E+00  0.00000000000E+00  0.68781886742E+02  0.68781886742E+02  0.00000000000E+00 0.  1.
          3   -1    0    0  501    0  0.00000000000E+00 -0.00000000000E+00 -0.22394120717E+03  0.22394120717E+03  0.00000000000E+00 0. -1.
         25    2    1    2    0    0 -0.85606557034E+01 -0.12020108183E+02 -0.15491659464E+03  0.19965940942E+03  0.12508781175E+03 0.  0.
         23    2    1    2    0    0  0.85606557034E+01  0.12020108183E+02 -0.24272578615E+00  0.93063684492E+02  0.91885921820E+02 0.  0.
          5    1    3    3  502    0  0.28730314394E+02  0.45104510115E+02 -0.93388281295E+02  0.10769722040E+03  0.41800000000E+01 0.  1.
         -5    1    3    3    0  502 -0.37290970098E+02 -0.57124618298E+02 -0.61528313349E+02  0.91962189024E+02  0.41800000000E+01 0.  1.
        -11    1    4    4    0    0 -0.32937625992E+02  0.13812150294E+02 -0.26009999702E+02  0.44183512606E+02  0.00000000000E+00 0. -1.
         11    1    4    4    0    0  0.41498281695E+02 -0.17920421109E+01  0.25767273915E+02  0.48880171886E+02  0.00000000000E+00 0.  1.
</event>
<event>
 8    1  0.7039283E-009  0.1401773E+03  0.7561462E-02  0.1213091E+00
          2   -1    0    0  501    0  0.00000000000E+00  0.00000000000E+00  0.48564439071E+03  0.48564439071E+03  0.00000000000E+00 0. -1.
         -2   -1    0    0    0  501 -0.00000000000E+00 -0.00000000000E+00 -0.71601434415E+02  0.71601434415E+02  0.00000000000E+00 0.  1.
         25    2    1    2    0    0  0.13617752049E+03  0.29013235371E+02  0.30683645386E+03  0.35942049002E+03  0.12509354227E+03 0.  0.
         23    2    1    2    0    0 -0.13617752049E+03 -0.29013235371E+02  0.10720650244E+03  0.19782533510E+03  0.90860024929E+02 0.  0.
          5    1    3    3  502    0  0.36025435365E+02  0.14169919741E+02  0.29090318586E+01  0.39045530923E+02  0.41800000000E+01 0. -1.
         -5    1    3    3    0  502  0.10015208513E+03  0.14843315630E+02  0.30392742200E+03  0.32037495910E+03  0.41800000000E+01 0. -1.
        -11    1    4    4    0    0 -0.48038856465E+02 -0.27526385644E+01 -0.96942835537E+01  0.49084497381E+02  0.00000000000E+00 0. -1.
         11    1    4    4    0    0 -0.88138664028E+02 -0.26260596807E+02  0.11690078599E+03  0.14874083772E+03  0.00000000000E+00 0.  1.
</event>
<event>
 8    1  0.7039283E-009  0.1154113E+03  0.7561462E-02  0.1250865E+00
          1   -1    0    0  501    0  0.00000000000E+00  0.00000000000E+00  0.25426017425E+03  0.25426017425E+03  0.00000000000E+00 0. -1.
         -1   -1    0    0    0  501 -0.00000000000E+00 -0.00000000000E+00 -0.89753738438E+02  0.89753738438E+02  0.00000000000E+00 0.  1.
         25    2    1    2    0    0 -0.99064559098E+02  0.83125704628E+01  0.38182552153E+02  0.16428238377E+03  0.12509160096E+03 0.  0.
         23    2    1    2    0    0  0.99064559098E+02 -0.83125704628E+01  0.12632388366E+03  0.17973152892E+03  0.80391623995E+02 0.  0.
          5    1    3    3  502    0 -0.99242070861E+02 -0.14382577978E+01 -0.23180167750E+02  0.10200906720E+03  0.41800000000E+01 0.  1.
         -5    1    3    3    0  502  0.17751176295E+00  0.97508282605E+01  0.61362719902E+02  0.62273316565E+02  0.41800000000E+01 0.  1.
        -11    1    4    4    0    0  0.20661480368E+02 -0.32772363076E+02  0.70443233394E+02  0.80393865957E+02  0.00000000000E+00 0.  1.
         11    1    4    4    0    0  0.78403078730E+02  0.24459792613E+02  0.55880650267E+02  0.99337662965E+02  0.00000000000E+00 0. -1.
</event>
<event>
 8    1  0.7039283E-009  0.8821896E+02  0.7561462E-02  0.1307223E+00
          2   -1    0    0  501    0  0.00000000000E+00  0.00000000000E+00  0.52629540263E+02  0.52629540263E+02  0.00000000000E+00 0.  1.
         -2   -1    0    0    0  501 -0.00000000000E+00 -0.00000000000E+00 -0.24648796642E+03  0.24648796642E+03  0.00000000000E+00 0. -1.
         25    2    1    2    0    0 -0.28885823106E+02  0.17955436963E+02 -0.10145541051E+03  0.16461431779E+03  0.12509150572E+03 0.  0.
         23    2    1    2    0    0  0.28885823106E+02 -0.17955436963E+02 -0.92403015638E+02  0.13450318889E+03  0.91629700592E+02 0.  0.
          5    1    3    3  502    0 -0.55091506780E+02  0.55741286034E+01  0.35095838942E+01  0.55641123354E+02  0.41800000000E+01 0.  1.
         -5    1    3    3    0  502  0.26205683674E+02  0.12381308359E+02 -0.10496499441E+03  0.10897319443E+03  0.41800000000E+01 0.  1.
        -11    1    4    4    0    0  0.89591138403E+01  0.34430236274E+02 -0.14236930394E+02  0.38319669594E+02  0.00000000000E+00 0. -1.
         11    1    4    4    0    0  0.19926709266E+02 -0.52385673237E+02 -0.78166085244E+02  0.96183519301E+02  0.00000000000E+00 0.  1.
</event>
<event>
 8    1  0.7039283E-009  0.1110531E+03  0.7561462E-02  0.1258632E+00
          2   -1    0    0  501    0  0.00000000000E+00  0.00000000000E+00  0.18286246728E+03  0.18286246728E+03  0.00000000000E+00 0. -1.
         -2   -1    0    0    0  501 -0.00000000000E+00 -0.00000000000E+00 -0.85815986644E+02  0.85815986644E+02  0.00000000000E+00 0.  1.
         25    2    1    2    0    0 -0.47840532415E+02  0.15298379768E+02  0.87615681206E+02  0.16076873793E+03  0.12508925829E+03 0.  0.
         23    2    1    2    0    0  0.47840532415E+02 -0.15298379768E+02  0.94307994335E+01  0.10790971599E+03  0.95041095651E+02 0.  0.
          5    1    3    3  502    0 -0.56763558303E+02  0.59941346339E+02  0.78815128545E+02  0.11421192337E+03  0.41800000000E+01 0.  1.
         -5    1    3    3    0  502  0.89230258881E+01 -0.44642966571E+02  0.88005526603E+01  0.46556814564E+02  0.41800000000E+01 0.  1.
        -11    1    4    4    0    0 -0.21627167482E+02 -0.10648105396E+02 -0.20958490566E+02  0.31943306789E+02  0.00000000000E+00 0.  1.
         11    1    4    4    0    0  0.69467699897E+02 -0.46502743725E+01  0.30389290000E+02  0.75966409204E+02  0.00000000000E+00 0. -1.
</event>
<event>
 8    1  0.7039283E-009  0.1599933E+03  0.7561462E-02  0.1188704E+00
          1   -1    0    0  501    0  0.00000000000E+00  0.00000000000E+00  0.35645005169E+02  0.35645005169E+02  0.00000000000E+00 0. -1.
         -1   -1    0    0    0  501 -0.00000000000E+00 -0.00000000000E+00 -0.98316723909E+03  0.98316723909E+03  0.00000000000E+00 0.  1.
         25    2    1    2    0    0  0.12068565614E+03  0.75923956189E+02 -0.64832905054E+03  0.67550349097E+03  0.12507970985E+03 0.  0.
         23    2    1    2    0    0 -0.12068565614E+03 -0.75923956189E+02 -0.29919318338E+03  0.34330875329E+03  0.89525774963E+02 0.  0.
          5    1    3    3  502    0  0.96651235499E+01 -0.21042788698E+02 -0.22574415556E+02  0.32608130997E+02  0.41800000000E+01 0. -1.
         -5    1    3    3    0  502  0.11102053259E+03  0.96966744887E+02 -0.62575463498E+03  0.64289535997E+03  0.41800000000E+01 0. -1.
        -11    1    4    4    0    0 -0.26748946004E+02 -0.40628604441E+02 -0.32871417403E+02  0.58708770156E+02  0.00000000000E+00 0. -1.
         11    1    4    4    0    0 -0.93936710135E+02 -0.35295351748E+02 -0.26632176598E+03  0.28459998314E+03  0.00000000000E+00 0.  1.
</event>
<event>
 8    1  0.7039283E-009  0.7256449E+02  0.7561462E-02  0.1351583E+00
         -1   -1    0    0    0  501 -0.00000000000E+00  0.00000000000E+00  0.51711780548E+02  0.51711780548E+02  0.00000000000E+00 0.  1.
          1   -1    0    0  501    0  0.00000000000E+00 -0.00000000000E+00 -0.23607644739E+03  0.23607644739E+03  0.00000000000E+00 0. -1.
         25    2    1    2    0    0 -0.60534707865E+00  0.14163817956E+02 -0.12657619466E+03  0.17852092690E+03  0.12508880086E+03 0.  0.
         23    2    1    2    0    0  0.60534707865E+00 -0.14163817956E+02 -0.57788472185E+02  0.10926730104E+03  0.91645269247E+02 0.  0.
          5    1    3    3  502    0 -0.26836818546E+02  0.45267639371E+02 -0.83851110617E+01  0.53452375919E+02  0.41800000000E+01 0. -1.
         -5    1    3    3    0  502  0.26231471467E+02 -0.31103821415E+02 -0.11819108360E+03  0.12506855098E+03  0.41800000000E+01 0. -1.
        -11    1    4    4    0    0  0.16038687635E+02  0.12697614353E+02  0.18090343815E+02  0.27308047361E+02  0.00000000000E+00 0.  1.
         11    1    4    4    0    0 -0.15433340556E+02 -0.26861432309E+02 -0.75878816000E+02  0.81959253682E+02  0.00000000000E+00 0. -1.
</event>
<event>
 8    1  0.7039283E-009  0.1399367E+03  0.7561462E-02  0.1213414E+00
         -2   -1    0    0    0  501 -0.00000000000E+00  0.00000000000E+00  0.70750039659E+02  0.70750039659E+02  0.00000000000E+00 0.  1.
          2   -1    0    0  501    0  0.00000000000E+00 -0.00000000000E+00 -0.52360845351E+03  0.52360845351E+03  0.00000000000E+00 0. -1.
         25    2    1    2    0    0  0.97576797425E+02  0.36866581193E+01 -0.44514809038E+02  0.16481973073E+03  0.12509657298E+03 0.  0.
         23    2    1    2    0    0 -0.97576797425E+02 -0.36866581193E+01 -0.40834360481E+03  0.42953876244E+03  0.90687518441E+02 0.  0.
          5    1    3    3  502    0  0.33207190448E+02  0.61598355085E+02 -0.32615475120E+02  0.77319573614E+02  0.41800000000E+01 0. -1.
         -5    1    3    3    0  502  0.64369606978E+02 -0.57911696965E+02 -0.11899333918E+02  0.87500157117E+02  0.41800000000E+01 0. -1.
        -11    1    4    4    0    0  0.89052044407E+00 -0.22766214229E+02 -0.27513779973E+02  0.35722564653E+02  0.00000000000E+00 0.  1.
         11    1    4    4    0    0 -0.98467317869E+02  0.19079556110E+02 -0.38082982484E+03  0.39381619778E+03  0.00000000000E+00 0. -1.
</event>
<event>
 8    1  0.7039283E-009  0.1233698E+03  0.7561462E-02  0.1237639E+00
          2   -1    0    0  501    0  0.00000000000E+00  0.00000000000E+00  0.41587576497E+03  0.41587576497E+03  0.00000000000E+00 0. -1.
         -2   -1    0    0    0  501 -0.00000000000E+00 -0.00000000000E+00 -0.45829632540E+02  0.45829632540E+02  0.00000000000E+00 0.  1.
         25    2    1    2    0    0 -0.71587432962E+02 -0.40585871716E+02  0.22454700089E+03  0.26989277113E+03  0.12509507889E+03 0.  0.
         23    2    1    2    0    0  0.71587432962E+02  0.40585871716E+02  0.14549913154E+03  0.19181262637E+03  0.94075038225E+02 0.  0.
          5    1    3    3  502    0  0.15521984478E+02 -0.55008140893E+02  0.12002286007E+03  0.13300295826E+03  0.41800000000E+01 0. -1.
         -5    1    3    3    0  502 -0.87109417440E+02  0.14422269177E+02  0.10452414082E+03  0.13688981288E+03  0.41800000000E+01 0. -1.
        -11    1    4    4    0    0  0.57562729868E+02  0.55922319228E+02  0.15038895763E+03  0.17046293508E+03  0.00000000000E+00 0. -1.
         11    1    4    4    0    0  0.14024703094E+02 -0.15336447512E+02 -0.48898260950E+01  0.21349691295E+02  0.00000000000E+00 0.  1.
</event>
<event>
 8    1  0.7039283E-009  0.1064534E+03  0.7561462E-02  0.1267282E+00
         -1   -1    0    0    0  501 -0.00000000000E+00  0.00000000000E+00  0.14861297861E+03  0.14861297861E+03  0.00000000000E+00 0.  1.
          1   -1    0    0  501    0  0.00000000000E+00 -0.00000000000E+00 -0.13393927883E+03  0.13393927883E+03  0.00000000000E+00 0. -1.
         25    2    1    2    0    0 -0.36496630846E+02 -0.51353793554E+02 -0.56439020212E+02  0.15100584109E+03  0.12509270509E+03 0.  0.
         23    2    1    2    0    0  0.36496630846E+02  0.51353793554E+02  0.71112719988E+02  0.13154641635E+03  0.90984748910E+02 0.  0.
          5    1    3    3  502    0  0.13492047237E+02 -0.78682022075E+02 -0.17386981685E+02  0.81808773787E+02  0.41800000000E+01 0. -1.
         -5    1    3    3    0  502 -0.49988678083E+02  0.27328228521E+02 -0.39052038526E+02  0.69197067305E+02  0.41800000000E+01 0. -1.
        -11    1    4    4    0    0  0.21303162010E+02 -0.10024051401E+01  0.73942718239E+02  0.76956839256E+02  0.00000000000E+00 0.  1.
         11    1    4    4    0    0  0.15193468836E+02  0.52356198694E+02 -0.28299982503E+01  0.54589577091E+02  0.00000000000E+00 0. -1.
</event>
<event>
 8    1  0.7039283E-009  0.7879858E+02  0.7561462E-02  0.1332496E+00
          1   -1    0    0  501    0  0.00000000000E+00  0.00000000000E+00  0.22353159240E+03  0.22353159240E+03  0.00000000000E+00 0. -1.
         -1   -1    0    0    0  501 -0.00000000000E+00 -0.00000000000E+00 -0.57533497246E+02  0.57533497246E+02  0.00000000000E+00 0.  1.
         25    2    1    2    0    0  0.27829357775E+02 -0.30292137654E+01  0.73094386779E+02  0.14755737477E+03  0.12508693049E+03 0.  0.
         23    2    1    2    0    0 -0.27829357775E+02  0.30292137654E+01  0.92903708372E+02  0.13350771487E+03  0.91703661927E+02 0.  0.
          5    1    3    3  502    0  0.30566762112E+02  0.51768367366E+02  0.70110934203E+02  0.92451643039E+02  0.41800000000E+01 0. -1.
         -5    1    3    3    0  502 -0.27374043363E+01 -0.54797581131E+02  0.29834525754E+01  0.55105731731E+02  0.41800000000E+01 0. -1.
        -11    1    4    4    0    0 -0.66493135538E+01  0.16100370656E+02 -0.14866542335E+02  0.22900859962E+02  0.00000000000E+00 0.  1.
         11    1    4    4    0    0 -0.21180044222E+02 -0.13071156891E+02  0.10777025071E+03  0.11060685491E+03  0.00000000000E+00 0. -1.
</event>
<event>
 8    1  0.7039283E-009  0.1104007E+03  0.7561462E-02  0.1259830E+00
         -2   -1    0    0    0  501 -0.00000000000E+00  0.00000000000E+00  0.17967273391E+02  0.17967273391E+02  0.00000000000E+00 0.  1.
          2   -1    0    0  501    0  0.00000000000E+00 -0.00000000000E+00 -0.82260227058E+03  0.82260227058E+03  0.00000000000E+00 0. -1.
         25    2    1    2    0    0  0.26922176467E+02 -0.20974390217E+02 -0.57923959488E+03  0.59357457571E+03  0.12509012758E+03 0.  0.
         23    2    1    2    0    0 -0.26922176467E+02  0.20974390217E+02 -0.22539540230E+03  0.24699496826E+03  0.95072069165E+02 0.  0.
          5    1    3    3  502    0 -0.15592011820E+02  0.41327009922E+02 -0.33484675118E+03  0.33777337337E+03  0.41800000000E+01 0.  1.
         -5    1    3    3    0  502  0.42514188287E+02 -0.62301400138E+02 -0.24439284370E+03  0.25580120234E+03  0.41800000000E+01 0.  1.
        -11    1    4    4    0    0  0.27345216345E+02 -0.19166143641E+02 -0.80334807416E+02  0.86998754023E+02  0.00000000000E+00 0.  1.
         11    1    4    4    0    0 -0.54267392812E+02  0.40140533857E+02 -0.14506059489E+03  0.15999621424E+03  0.00000000000E+00 0. -1.
</event>
<event>
 8    1  0.7039283E-009  0.1729545E+03  0.7561462E-02  0.1174801E+00
          2   -1    0    0  501    0  0.00000000000E+00  0.00000000000E+00  0.21541560697E+03  0.21541560697E+03  0.00000000000E+00 0. -1.
         -2   -1    0    0    0  501 -0.00000000000E+00 -0.00000000000E+00 -0.13938432954E+03  0.13938432954E+03  0.00000000000E+00 0.  1.
         25    2    1    2    0    0  0.92738418137E+02  0.96765535091E+02  0.49599036625E+02  0.18992634895E+03  0.12509184870E+03 0.  0.
         23    2    1    2    0    0 -0.92738418137E+02 -0.96765535091E+02  0.26432240805E+02  0.16487358757E+03  0.92307386178E+02 0.  0.
          5    1    3    3  502    0  0.42149858649E+02 -0.26540129141E+02  0.14193488638E+02  0.51960721306E+02  0.41800000000E+01 0.  1.
         -5    1    3    3    0  502  0.50588559488E+02  0.12330566423E+03  0.35405547988E+02  0.13796562764E+03  0.41800000000E+01 0.  1.
        -11    1    4    4    0    0  0.15209696517E+02  0.30991323783E+01  0.38058878224E+00  0.15526890785E+02  0.00000000000E+00 0.  1.
         11    1    4    4    0    0 -0.10794811465E+03 -0.99864667469E+02  0.26051652023E+02  0.14934669678E+03  0.00000000000E+00 0. -1.
</event>
<event>
 8    1  0.7039283E-009  0.1055655E+03  0.7561462E-02  0.1269010E+00
         -1   -1    0    0    0  501 -0.00000000000E+00  0.00000000000E+00  0.23968441991E+03  0.23968441991E+03  0.00000000000E+00 0.  1.
          1   -1    0    0  501    0  0.00000000000E+00 -0.00000000000E+00 -0.50070747234E+02  0.50070747234E+02  0.00000000000E+00 0. -1.
         25    2    1    2    0    0 -0.25386231741E+01 -0.22553429638E+02  0.10868424447E+03  0.16725684162E+03  0.12508990477E+03 0.  0.
         23    2    1    2    0    0  0.25386231741E+01  0.22553429638E+02  0.80929428212E+02  0.12249832553E+03  0.89113217936E+02 0.  0.
          5    1    3    3  502    0  0.31300421521E+02  0.39950510316E+02  0.23070469333E+02  0.55905980155E+02  0.41800000000E+01 0. -1.
         -5    1    3    3    0  502 -0.33839044695E+02 -0.62503939953E+02  0.85613775135E+02  0.11135086146E+03  0.41800000000E+01 0. -1.
        -11    1    4    4    0    0 -0.37994736607E+02 -0.72716397158E+01  0.50772314965E+02  0.63830280595E+02  0.00000000000E+00 0.  1.
         11    1    4    4    0    0  0.40533359781E+02  0.29825069353E+02  0.30157113247E+02  0.58668044935E+02  0.00000000000E+00 0. -1.
</event>
<event>
 8    1  0.7039283E-009  0.1308869E+03  0.7561462E-02  0.1226146E+00
          2   -1    0    0  501    0  0.00000000000E+00  0.00000000000E+00  0.25767823321E+03  0.25767823321E+03  0.00000000000E+00 0. -1.
         -2   -1    0    0    0  501 -0.00000000000E+00 -0.00000000000E+00 -0.70562358876E+02  0.70562358876E+02  0.00000000000E+00 0.  1.
         25    2    1    2    0    0  0.77555363973E+02 -0.19340334761E+02  0.91449797996E+02  0.17435389957E+03  0.12508930295E+03 0.  0.
         23    2    1    2    0    0 -0.77555363973E+02  0.19340334761E+02  0.95666076340E+02  0.15388669251E+03  0.90223239474E+02 0.  0.
          5    1    3    3  502    0 -0.31007071360E+02 -0.18662874187E+02  0.40123689067E+02  0.54195241226E+02  0.41800000000E+01 0.  1.
         -5    1    3    3    0  502  0.10856243533E+03 -0.67746057378E+00  0.51326108929E+02  0.12015865835E+03  0.41800000000E+01 0.  1.
        -11    1    4    4    0    0  0.10075505376E+02 -0.18641186922E+02  0.41136048095E+01  0.21585444238E+02  0.00000000000E+00 0.  1.
         11    1    4    4    0    0 -0.87630869349E+02  0.37981521682E+02  0.91552471530E+02  0.13230124828E+03  0.00000000000E+00 0. -1.
</event>
<event>
 8    1  0.7039283E-009  0.8399711E+02  0.7561462E-02  0.1318076E+00
         -2   -1    0    0    0  501 -0.00000000000E+00  0.00000000000E+00  0.45467896766E+02  0.45467896766E+02  0.00000000000E+00 0.  1.
          2   -1    0    0  501    0  0.00000000000E+00 -0.00000000000E+00 -0.43452747545E+03  0.43452747545E+03  0.00000000000E+00 0. -1.
         25    2    1    2    0    0  0.45392169543E+02 -0.51885003106E+02 -0.11577443501E+03  0.18385777665E+03  0.12508980626E+03 0.  0.
         23    2    1    2    0    0 -0.45392169543E+02  0.51885003106E+02 -0.27328514367E+03  0.29613759557E+03  0.90885659774E+02 0.  0.
          5    1    3    3  502    0  0.12235574308E+02 -0.38971882674E+02 -0.13644906372E+03  0.14249328513E+03  0.41800000000E+01 0.  1.
         -5    1    3    3    0  502  0.33156595235E+02 -0.12913120432E+02  0.20674628703E+02  0.41364491522E+02  0.41800000000E+01 0.  1.
        -11    1    4    4    0    0 -0.52330976085E+02  0.16241063797E+02 -0.24224940862E+03  0.24836883699E+03  0.00000000000E+00 0. -1.
         11    1    4    4    0    0  0.69388065423E+01  0.35643939309E+02 -0.31035735055E+02  0.47768758579E+02  0.00000000000E+00 0.  1.
</event>
<event>
 8    1  0.7039283E-009  0.1058010E+03  0.7561462E-02  0.1268549E+00
         -1   -1    0    0    0  501 -0.00000000000E+00  0.00000000000E+00  0.94772050028E+02  0.94772050028E+02  0.00000000000E+00 0.  1.
          1   -1    0    0  501    0  0.00000000000E+00 -0.00000000000E+00 -0.22057299258E+03  0.22057299258E+03  0.00000000000E+00 0. -1.
         25    2    1    2    0    0  0.34473223923E+02  0.63140789802E+01 -0.16421536813E+03  0.20937806498E+03  0.12507684119E+03 0.  0.
         23    2    1    2    0    0 -0.34473223923E+02 -0.63140789802E+01  0.38414425573E+02  0.10596697763E+03  0.92331259580E+02 0.  0.
          5    1    3    3  502    0  0.45003222780E+02  0.54006050791E+02 -0.13512982562E+03  0.15237941382E+03  0.41800000000E+01 0.  1.
         -5    1    3    3    0  502 -0.10529998858E+02 -0.47691971811E+02 -0.29085542505E+02  0.56998651159E+02  0.41800000000E+01 0.  1.
        -11    1    4    4    0    0 -0.63084259816E+02 -0.12029518858E+01  0.43260289591E+02  0.76501788118E+02  0.00000000000E+00 0.  1.
         11    1    4    4    0    0  0.28611035893E+02 -0.51111270943E+01 -0.48458640186E+01  0.29465189515E+02  0.00000000000E+00 0. -1.
</event>
<event>
 8    1  0.7039283E-009  0.3075667E+03  0.7561462E-02  0.1081518E+00
         -3   -1    0    0    0  501 -0.00000000000E+00  0.00000000000E+00  0.31380950356E+03  0.31380950356E+03  0.00000000000E+00 0.  1.
          3   -1    0    0  501    0  0.00000000000E+00 -0.00000000000E+00 -0.33252835761E+03  0.33252835761E+03  0.00000000000E+00 0. -1.
         25    2    1    2    0    0 -0.22736075740E+03 -0.19495646368E+03  0.38226851050E+02  0.32681804376E+03  0.12509118616E+03 0.  0.
         23    2    1    2    0    0  0.22736075740E+03  0.19495646368E+03 -0.56945705096E+02  0.31951981741E+03  0.95651260595E+02 0.  0.
          5    1    3    3  502    0 -0.23624041073E+03 -0.17720767937E+03  0.55091631580E+02  0.30044076547E+03  0.41800000000E+01 0.  1.
         -5    1    3    3    0  502  0.88796533317E+01 -0.17748784311E+02 -0.16864780529E+02  0.26377278292E+02  0.41800000000E+01 0.  1.
        -11    1    4    4    0    0  0.11873242420E+03  0.10284814608E+03 -0.78281951229E+02  0.17550838612E+03  0.00000000000E+00 0. -1.
         11    1    4    4    0    0  0.10862833320E+03  0.92108317594E+02  0.21336246133E+02  0.14401143129E+03  0.00000000000E+00 0.  1.
</event>
<event>
 8    1  0.7039283E-009  0.1164396E+03  0.7561462E-02  0.1249089E+00
         -1   -1    0    0    0  501 -0.00000000000E+00  0.00000000000E+00  0.23845325890E+02  0.23845325890E+02  0.00000000000E+00 0.  1.
          1   -1    0    0  501    0  0.00000000000E+00 -0.00000000000E+00 -0.12102886620E+04  0.12102886620E+04  0.00000000000E+00 0. -1.
         25    2    1    2    0    0  0.25762911757E+02 -0.55361350641E+02 -0.10509416558E+04  0.10601201270E+04  0.12509081860E+03 0.  0.
         23    2    1    2    0    0 -0.25762911757E+02  0.55361350641E+02 -0.13550168022E+03  0.17401386086E+03  0.90506970224E+02 0.  0.
          5    1    3    3  502    0 -0.86338431668E+01 -0.80762394283E+02 -0.88419559771E+03  0.88792816995E+03  0.41800000000E+01 0.  1.
         -5    1    3    3    0  502  0.34396754924E+02  0.25401043641E+02 -0.16674605813E+03  0.17219195704E+03  0.41800000000E+01 0.  1.
        -11    1    4    4    0    0 -0.35572434975E+02 -0.14225343017E+02 -0.39362836440E+02  0.54928966917E+02  0.00000000000E+00 0.  1.
         11    1    4    4    0    0  0.98095232182E+01  0.69586693658E+02 -0.96138843784E+02  0.11908489394E+03  0.00000000000E+00 0. -1.
</event>
<event>
 8    1  0.7039283E-009  0.2365614E+03  0.7561462E-02  0.1122105E+00
          1   -1    0    0  501    0  0.00000000000E+00  0.00000000000E+00  0.24730373870E+04  0.24730373870E+04  0.00000000000E+00 0. -1.
         -1   -1    0    0    0  501 -0.00000000000E+00 -0.00000000000E+00 -0.42446110276E+02  0.42446110276E+02  0.00000000000E+00 0.  1.
         25    2    1    2    0    0  0.22929257716E+03 -0.18482253658E+01  0.20240852876E+04  0.20408693691E+04  0.12509207903E+03 0.  0.
         23    2    1    2    0    0 -0.22929257716E+03  0.18482253658E+01  0.40650598912E+03  0.47461412820E+03  0.86214555758E+02 0.  0.
          5    1    3    3  502    0  0.39018354770E+02  0.33793844103E+01  0.10140801576E+03  0.10878837396E+03  0.41800000000E+01 0. -1.
         -5    1    3    3    0  502  0.19027422239E+03 -0.52276097761E+01  0.19226772719E+04  0.19320809952E+04  0.41800000000E+01 0. -1.
        -11    1    4    4    0    0 -0.16476377998E+03 -0.35838254565E+02  0.25540522615E+03  0.30604462620E+03  0.00000000000E+00 0.  1.
         11    1    4    4    0    0 -0.64528797180E+02  0.37686479931E+02  0.15110076297E+03  0.16856950200E+03  0.00000000000E+00 0. -1.
</event>
<event>
 8    1  0.7039283E-009  0.1231207E+03  0.7561462E-02  0.1238036E+00
         -1   -1    0    0    0  501 -0.00000000000E+00  0.00000000000E+00  0.48118167182E+02  0.48118167182E+02  0.00000000000E+00 0.  1.
          1   -1    0    0  501    0  0.00000000000E+00 -0.00000000000E+00 -0.53627829959E+03  0.53627829959E+03  0.00000000000E+00 0. -1.
         25    2    1    2    0    0 -0.71972731849E+02  0.85054948671E+02 -0.33778078602E+03  0.37703833913E+03  0.12509049263E+03 0.  0.
         23    2    1    2    0    0  0.71972731849E+02 -0.85054948671E+02 -0.15037934639E+03  0.20735812764E+03  0.89269406043E+02 0.  0.
          5    1    3    3  502    0 -0.63720189724E+02  0.97167312845E+02 -0.34199963324E+03  0.36122426662E+03  0.41800000000E+01 0. -1.
         -5    1    3    3    0  502 -0.82525421260E+01 -0.12112364174E+02  0.42188472172E+01  0.15814072507E+02  0.41800000000E+01 0. -1.
        -11    1    4    4    0    0  0.40226973438E+02 -0.26651995407E+02 -0.12868393739E+03  0.13743396230E+03  0.00000000000E+00 0. -1.
         11    1    4    4    0    0  0.31745758412E+02 -0.58402953264E+02 -0.21695408998E+02  0.69924165341E+02  0.00000000000E+00 0.  1.
</event>
<event>
 8    1  0.7039283E-009  0.9450664E+02  0.7561462E-02  0.1292291E+00
         -4   -1    0    0    0  501 -0.00000000000E+00  0.00000000000E+00  0.90988078356E+02  0.90988078356E+02  0.00000000000E+00 0.  1.
          4   -1    0    0  501    0  0.00000000000E+00 -0.00000000000E+00 -0.13008333013E+03  0.13008333013E+03  0.00000000000E+00 0. -1.
         25    2    1    2    0    0  0.76286902189E+01  0.11263765340E+02 -0.33161463868E+02  0.13012698707E+03  0.12509308836E+03 0.  0.
         23    2    1    2    0    0 -0.76286902189E+01 -0.11263765340E+02 -0.59337879053E+01  0.90944421413E+02  0.89725183884E+02 0.  0.
          5    1    3    3  502    0  0.42374897935E+02  0.40147523868E+02 -0.54512261789E+02  0.79978214115E+02  0.41800000000E+01 0. -1.
         -5    1    3    3    0  502 -0.34746207716E+02 -0.28883758527E+02  0.21350797921E+02  0.50148772958E+02  0.41800000000E+01 0. -1.
        -11    1    4    4    0    0 -0.45994966622E+02 -0.57346425300E+01  0.12521502139E+02  0.48012613919E+02  0.00000000000E+00 0. -1.
         11    1    4    4    0    0  0.38366276403E+02 -0.55291228103E+01 -0.18455290045E+02  0.42931807494E+02  0.00000000000E+00 0.  1.
</event>
<event>
 8    1  0.7039283E-009  0.1341908E+03  0.7561462E-02  0.1221367E+00
          1   -1    0    0  501    0  0.00000000000E+00  0.00000000000E+00  0.17971443361E+04  0.17971443361E+04  0.00000000000E+00 0. -1.
         -1   -1    0    0    0  501 -0.00000000000E+00 -0.00000000000E+00 -0.10973090410E+02  0.10973090410E+02  0.00000000000E+00 0.  1.
         25    2    1    2    0    0 -0.75795255234E+02  0.31572153433E+02  0.12114602365E+04  0.12206655902E+04  0.12508739683E+03 0.  0.
         23    2    1    2    0    0  0.75795255234E+02 -0.31572153433E+02  0.57471100912E+03  0.58745183626E+03  0.89806427005E+02 0.  0.
          5    1    3    3  502    0  0.67822511494E+01 -0.39394456365E+02  0.28510687377E+03  0.28792590018E+03  0.41800000000E+01 0. -1.
         -5    1    3    3    0  502 -0.82577506384E+02  0.70966609798E+02  0.92635336277E+03  0.93273969005E+03  0.41800000000E+01 0. -1.
        -11    1    4    4    0    0  0.69145914914E+02 -0.59066942002E+02  0.48266094637E+03  0.49115338779E+03  0.00000000000E+00 0.  1.
         11    1    4    4    0    0  0.66493403207E+01  0.27494788569E+02  0.92050062744E+02  0.96298448463E+02  0.00000000000E+00 0. -1.
</event>
<event>
 8    1  0.7039283E-009  0.1282758E+03  0.7561462E-02  0.1230037E+00
         -1   -1    0    0    0  501 -0.00000000000E+00  0.00000000000E+00  0.14609603766E+03  0.14609603766E+03  0.00000000000E+00 0.  1.
          1   -1    0    0  501    0  0.00000000000E+00 -0.00000000000E+00 -0.16749193554E+03  0.16749193554E+03  0.00000000000E+00 0. -1.
         25    2    1    2    0    0  0.98639962733E+02 -0.12215017562E+02  0.48924135579E+02  0.16709392595E+03  0.12509100745E+03 0.  0.
         23    2    1    2    0    0 -0.98639962733E+02  0.12215017562E+02 -0.70320033457E+02  0.14649404725E+03  0.81465022392E+02 0.  0.
          5    1    3    3  502    0 -0.15028921177E+02 -0.37496530762E+02  0.26334925072E+02  0.48403088429E+02  0.41800000000E+01 0.  1.
         -5    1    3    3    0  502  0.11366888391E+03  0.25281513200E+02  0.22589210507E+02  0.11869083752E+03  0.41800000000E+01 0.  1.
        -11    1    4    4    0    0 -0.68764827591E+02  0.95442562519E+01 -0.87681095211E+02  0.11183768953E+03  0.00000000000E+00 0. -1.
         11    1    4    4    0    0 -0.29875135142E+02  0.26707613105E+01  0.17361061754E+02  0.34656357728E+02  0.00000000000E+00 0.  1.
</event>
<event>
 8    1  0.7039283E-009  0.8444681E+02  0.7561462E-02  0.1316886E+00
          4   -1    0    0  501    0  0.00000000000E+00  0.00000000000E+00  0.53541591519E+02  0.53541591519E+02  0.00000000000E+00 0. -1.
         -4   -1    0    0    0  501 -0.00000000000E+00 -0.00000000000E+00 -0.26323222907E+03  0.26323222907E+03  0.00000000000E+00 0.  1.
         25    2    1    2    0    0 -0.15935097115E+02 -0.41537910199E+02 -0.97656731060E+02  0.16482451334E+03  0.12510378800E+03 0.  0.
         23    2    1    2    0    0  0.15935097115E+02  0.41537910199E+02 -0.11203390650E+03  0.15194930725E+03  0.92507677878E+02 0.  0.
          5    1    3    3  502    0 -0.25546846539E+02 -0.47919449417E+02 -0.12418066540E+03  0.13559950243E+03  0.41800000000E+01 0.  1.
         -5    1    3    3    0  502  0.96117494245E+01  0.63815392175E+01  0.26523934340E+02  0.29225010909E+02  0.41800000000E+01 0.  1.
        -11    1    4    4    0    0 -0.17196400851E+02  0.61241573048E+02 -0.76832824882E+02  0.99747328039E+02  0.00000000000E+00 0. -1.
         11    1    4    4    0    0  0.33131497966E+02 -0.19703662849E+02 -0.35201081614E+02  0.52201979215E+02  0.00000000000E+00 0.  1.
</event>
<event>
 8    1  0.7039283E-009  0.1092844E+03  0.7561462E-02  0.1261901E+00
         -1   -1    0    0    0  501 -0.00000000000E+00  0.00000000000E+00  0.73081865762E+02  0.73081865762E+02  0.00000000000E+00 0.  1.
          1   -1    0    0  501    0  0.00000000000E+00 -0.00000000000E+00 -0.25068509745E+03  0.25068509745E+03  0.00000000000E+00 0. -1.
         25    2    1    2    0    0 -0.85919615533E+01  0.45145037089E+02 -0.17072115507E+02  0.13435531492E+03  0.12509195554E+03 0.  0.
         23    2    1    2    0    0  0.85919615533E+01 -0.45145037089E+02 -0.16053111618E+03  0.18941164829E+03  0.89412734381E+02 0.  0.
          5    1    3    3  502    0 -0.46707966296E+02 -0.18824155715E+02  0.15666899599E+02  0.52904698250E+02  0.41800000000E+01 0.  1.
         -5    1    3    3    0  502  0.38116004743E+02  0.63969192804E+02 -0.32739015106E+02  0.81450616669E+02  0.41800000000E+01 0.  1.
        -11    1    4    4    0    0 -0.12417505185E+02 -0.64019901415E+02 -0.14016086204E+03  0.15458916346E+03  0.00000000000E+00 0. -1.
         11    1    4    4    0    0  0.21009466738E+02  0.18874864326E+02 -0.20370254138E+02  0.34822484827E+02  0.00000000000E+00 0.  1.
</event>
<event>
 8    1  0.7039283E-009  0.1232933E+03  0.7561462E-02  0.1237761E+00
         -1   -1    0    0    0  501 -0.00000000000E+00  0.00000000000E+00  0.37989266323E+03  0.37989266323E+03  0.00000000000E+00 0.  1.
          1   -1    0    0  501    0  0.00000000000E+00 -0.00000000000E+00 -0.52650401298E+02  0.52650401298E+02  0.00000000000E+00 0. -1.
         25    2    1    2    0    0  0.60306288981E+02  0.67796896458E+02  0.18606718941E+03  0.24187727732E+03  0.12510136149E+03 0.  0.
         23    2    1    2    0    0 -0.60306288981E+02 -0.67796896458E+02  0.14117507252E+03  0.19066578721E+03  0.90497368201E+02 0.  0.
          5    1    3    3  502    0 -0.12082976321E+02  0.61711883928E+02  0.14551315308E+03  0.15857460407E+03  0.41800000000E+01 0.  1.
         -5    1    3    3    0  502  0.72389265301E+02  0.60850125303E+01  0.40554036328E+02  0.83302673252E+02  0.41800000000E+01 0.  1.
        -11    1    4    4    0    0  0.91106559431E+01 -0.30840168614E+02  0.38105231503E+01  0.32382713576E+02  0.00000000000E+00 0. -1.
         11    1    4    4    0    0 -0.69416944924E+02 -0.36956727844E+02  0.13736454937E+03  0.15828307363E+03  0.00000000000E+00 0.  1.
</event>
<event>
 8    1  0.7039283E-009  0.1209255E+03  0.7561462E-02  0.1241578E+00
          2   -1    0    0  501    0  0.00000000000E+00  0.00000000000E+00  0.12356725311E+04  0.12356725311E+04  0.00000000000E+00 0. -1.
         -2   -1    0    0    0  501 -0.00000000000E+00 -0.00000000000E+00 -0.23647933168E+02  0.23647933168E+02  0.00000000000E+00 0.  1.
         25    2    1    2    0    0  0.72509570099E+02  0.73067611054E+02  0.94783031622E+03  0.96157475658E+03  0.12508873090E+03 0.  0.
         23    2    1    2    0    0 -0.72509570099E+02 -0.73067611054E+02  0.26419428168E+03  0.29774570766E+03  0.90870096382E+02 0.  0.
          5    1    3    3  502    0  0.79874760641E+02  0.25431558143E+02  0.28819906495E+03  0.30017147595E+03  0.41800000000E+01 0. -1.
         -5    1    3    3    0  502 -0.73651905421E+01  0.47636052912E+02  0.65963125128E+03  0.66140328063E+03  0.41800000000E+01 0. -1.
        -11    1    4    4    0    0 -0.61208950478E+02 -0.36502789610E+02  0.24455888279E+03  0.25473130239E+03  0.00000000000E+00 0.  1.
         11    1    4    4    0    0 -0.11300619621E+02 -0.36564821444E+02  0.19635398896E+02  0.43014405271E+02  0.00000000000E+00 0. -1.
</event>
<event>
 8    1  0.7039283E-009  0.1427494E+03  0.7561462E-02  0.1209677E+00
         -1   -1    0    0    0  501 -0.00000000000E+00  0.00000000000E+00  0.10991032529E+03  0.10991032529E+03  0.00000000000E+00 0.  1.
          1   -1    0    0  501    0  0.00000000000E+00 -0.00000000000E+00 -0.29030982537E+03  0.29030982537E+03  0.00000000000E+00 0. -1.
         25    2    1    2    0    0 -0.12455507004E+03 -0.16212915280E+02 -0.16608648112E+03  0.24291716422E+03  0.12508878995E+03 0.  0.
         23    2    1    2    0    0  0.12455507004E+03  0.16212915280E+02 -0.14313018962E+02  0.15730298644E+03  0.93608455476E+02 0.  0.
          5    1    3    3  502    0 -0.78537225121E+02 -0.50693235463E+02 -0.15945642075E+03  0.18488299643E+03  0.41800000000E+01 0. -1.
         -5    1    3    3    0  502 -0.46017844915E+02  0.34480320184E+02 -0.66300603655E+01  0.58034167790E+02  0.41800000000E+01 0. -1.
        -11    1    4    4    0    0  0.62938286695E+02 -0.15724025678E+02 -0.47471749090E+02  0.80386814076E+02  0.00000000000E+00 0. -1.
         11    1    4    4    0    0  0.61616783340E+02  0.31936940957E+02  0.33158730128E+02  0.76916172361E+02  0.00000000000E+00 0.  1.
</event>
<event>
 8    1  0.7039283E-009  0.1445174E+03  0.7561462E-02  0.1207377E+00
         -1   -1    0    0    0  501 -0.00000000000E+00  0.00000000000E+00  0.33090378777E+03  0.33090378777E+03  0.00000000000E+00 0.  1.
          1   -1    0    0  501    0  0.00000000000E+00 -0.00000000000E+00 -0.91205087982E+02  0.91205087982E+02  0.00000000000E+00 0. -1.
         25    2    1    2    0    0  0.30532461013E+02 -0.12301054381E+03  0.18151824072E+03  0.25428364747E+03  0.12508987407E+03 0.  0.
         23    2    1    2    0    0 -0.30532461013E+02  0.12301054381E+03  0.58180459068E+02  0.16782522827E+03  0.93362285552E+02 0.  0.
          5    1    3    3  502    0  0.17066958915E+02 -0.79507361953E+00  0.11119381814E+03  0.11257642214E+03  0.41800000000E+01 0. -1.
         -5    1    3    3    0  502  0.13465502098E+02 -0.12221547019E+03  0.70324422574E+02  0.14170722533E+03  0.41800000000E+01 0. -1.
        -11    1    4    4    0    0  0.21834232600E+02  0.72293699742E+02  0.57506681884E+02  0.94921710883E+02  0.00000000000E+00 0.  1.
         11    1    4    4    0    0 -0.52366693613E+02  0.50716844071E+02  0.67377718355E+00  0.72903517392E+02  0.00000000000E+00 0. -1.
</event>
<event>
 8    1  0.7039283E-009  0.1003968E+03  0.7561462E-02  0.1279464E+00
         -1   -1    0    0    0  501 -0.00000000000E+00  0.00000000000E+00  0.18328735697E+02  0.18328735697E+02  0.00000000000E+00 0.  1.
          1   -1    0    0  501    0  0.00000000000E+00 -0.00000000000E+00 -0.68753809580E+03  0.68753809580E+03  0.00000000000E+00 0. -1.
         25    2    1    2    0    0  0.19830508320E+02 -0.83919665215E+01 -0.44193733436E+03  0.45980412263E+03  0.12509016559E+03 0.  0.
         23    2    1    2    0    0 -0.19830508320E+02  0.83919665215E+01 -0.22727202575E+03  0.24606270887E+03  0.91818346998E+02 0.  0.
          5    1    3    3  502    0 -0.15247061286E+02 -0.59390143705E+02 -0.16687583016E+03  0.17783328468E+03  0.41800000000E+01 0. -1.
         -5    1    3    3    0  502  0.35077569605E+02  0.50998177183E+02 -0.27506150420E+03  0.28197083795E+03  0.41800000000E+01 0. -1.
        -11    1    4    4    0    0 -0.12553381080E+02  0.41521545215E+02 -0.19310856030E+03  0.19792054505E+03  0.00000000000E+00 0. -1.
         11    1    4    4    0    0 -0.72771272400E+01 -0.33129578693E+02 -0.34163465450E+02  0.48142163816E+02  0.00000000000E+00 0.  1.
</event>
<event>
 8    1  0.7039283E-009  0.1417161E+03  0.7561462E-02  0.1211038E+00
          3   -1    0    0  501    0  0.00000000000E+00  0.00000000000E+00  0.70818439790E+02  0.70818439790E+02  0.00000000000E+00 0. -1.
         -3   -1    0    0    0  501 -0.00000000000E+00 -0.00000000000E+00 -0.45064218590E+03  0.45064218590E+03  0.00000000000E+00 0.  1.
         25    2    1    2    0    0 -0.11705815673E+03 -0.28508016630E+02 -0.92945581343E+02  0.19698518665E+03  0.12509581767E+03 0.  0.
         23    2    1    2    0    0  0.11705815673E+03  0.28508016630E+02 -0.28687816477E+03  0.32447543904E+03  0.92032114245E+02 0.  0.
          5    1    3    3  502    0 -0.87065586533E+02  0.14705945140E+02  0.19342068356E+01  0.88418859622E+02  0.41800000000E+01 0. -1.
         -5    1    3    3    0  502 -0.29992570196E+02 -0.43213961770E+02 -0.94879788179E+02  0.10856632703E+03  0.41800000000E+01 0. -1.
        -11    1    4    4    0    0  0.11752090256E+03  0.38291638733E+01 -0.27022787030E+03  0.29470141995E+03  0.00000000000E+00 0.  1.
         11    1    4    4    0    0 -0.46274582989E+00  0.24678852757E+02 -0.16650294471E+02  0.29774019095E+02  0.00000000000E+00 0. -1.
</event>
<event>
 8    1  0.7039283E-009  0.1450580E+03  0.7561462E-02  0.1206681E+00
         -2   -1    0    0    0  501 -0.00000000000E+00  0.00000000000E+00  0.88942712089E+02  0.88942712089E+02  0.00000000000E+00 0.  1.
          2   -1    0    0  501    0  0.00000000000E+00 -0.00000000000E+00 -0.24604769715E+03  0.24604769715E+03  0.00000000000E+00 0. -1.
         25    2    1    2    0    0  0.31365440032E+02 -0.95443199254E+02 -0.69698603124E+02  0.17492273249E+03  0.12508745721E+03 0.  0.
         23    2    1    2    0    0 -0.31365440032E+02  0.95443199254E+02 -0.87406381934E+02  0.16006767675E+03  0.88817737105E+02 0.  0.
          5    1    3    3  502    0 -0.16891703967E+02 -0.10536116175E+03 -0.65559642636E+02  0.12530699586E+03  0.41800000000E+01 0. -1.
         -5    1    3    3    0  502  0.48257144000E+02  0.99179624998E+01 -0.41389604884E+01  0.49615736627E+02  0.41800000000E+01 0. -1.
        -11    1    4    4    0    0  0.29984327752E+02  0.46842179588E+02 -0.40759962440E+02  0.68953783344E+02  0.00000000000E+00 0.  1.
         11    1    4    4    0    0 -0.61349767784E+02  0.48601019666E+02 -0.46646419494E+02  0.91113893405E+02  0.00000000000E+00 0. -1.
</event>
<event>
 8    1  0.7039283E-009  0.1293592E+03  0.7561462E-02  0.1228410E+00
         -2   -1    0    0    0  501 -0.00000000000E+00  0.00000000000E+00  0.42243675362E+02  0.42243675362E+02  0.00000000000E+00 0. -1.
          2   -1    0    0  501    0  0.00000000000E+00 -0.00000000000E+00 -0.56619057351E+03  0.56619057351E+03  0.00000000000E+00 0.  1.
         25    2    1    2    0    0  0.82717858297E+02  0.69602113404E+02 -0.32384804442E+03  0.36360617883E+03  0.12508077045E+03 0.  0.
         23    2    1    2    0    0 -0.82717858297E+02 -0.69602113404E+02 -0.20009885372E+03  0.24482807004E+03  0.90634068348E+02 0.  0.
          5    1    3    3  502    0  0.73738549738E+02  0.10269926996E+02 -0.68454254745E+02  0.10122402141E+03  0.41800000000E+01 0.  1.
         -5    1    3    3    0  502  0.89793085591E+01  0.59332186409E+02 -0.25539378968E+03  0.26238215742E+03  0.41800000000E+01 0.  1.
        -11    1    4    4    0    0 -0.44311697355E+02 -0.73047829802E+02 -0.74211473963E+02  0.11316737529E+03  0.00000000000E+00 0.  1.
         11    1    4    4    0    0 -0.38406160943E+02  0.34457163974E+01 -0.12588737976E+03  0.13166069475E+03  0.00000000000E+00 0. -1.
</event>
<event>
 8    1  0.7039283E-009  0.9103766E+02  0.7561462E-02  0.1300358E+00
         -1   -1    0    0    0  501 -0.00000000000E+00  0.00000000000E+00  0.34698801807E+03  0.34698801807E+03  0.00000000000E+00 0.  1.
          1   -1    0    0  501    0  0.00000000000E+00 -0.00000000000E+00 -0.39979536841E+02  0.39979536841E+02  0.00000000000E+00 0. -1.
         25    2    1    2    0    0 -0.16832933090E+02  0.40947598950E+02  0.15132616836E+03  0.20126366216E+03  0.12508956384E+03 0.  0.
         23    2    1    2    0    0  0.16832933090E+02 -0.40947598950E+02  0.15568231287E+03  0.18570389275E+03  0.91043394843E+02 0.  0.
          5    1    3    3  502    0 -0.28004105654E+02  0.74545343402E+02  0.14438570068E+03  0.16494223570E+03  0.41800000000E+01 0.  1.
         -5    1    3    3    0  502  0.11171172563E+02 -0.33597744453E+02  0.69404676749E+01  0.36321426463E+02  0.41800000000E+01 0.  1.
        -11    1    4    4    0    0  0.28123688661E+02 -0.44450752729E+01  0.14245145026E+03  0.14526911661E+03  0.00000000000E+00 0.  1.
         11    1    4    4    0    0 -0.11290755570E+02 -0.36502523677E+02  0.13230862610E+02  0.40434776140E+02  0.00000000000E+00 0. -1.
</event>
<event>
 8    1  0.7039283E-009  0.8716864E+02  0.7561462E-02  0.1309857E+00
          3   -1    0    0  501    0  0.00000000000E+00  0.00000000000E+00  0.34806240348E+02  0.34806240348E+02  0.00000000000E+00 0. -1.
         -3   -1    0    0    0  501 -0.00000000000E+00 -0.00000000000E+00 -0.35616997506E+03  0.35616997506E+03  0.00000000000E+00 0.  1.
         25    2    1    2    0    0  0.43645115821E+01 -0.25360409809E+02 -0.17843917261E+03  0.21943148473E+03  0.12508972310E+03 0.  0.
         23    2    1    2    0    0 -0.43645115821E+01  0.25360409809E+02 -0.14292456211E+03  0.17154473068E+03  0.91312457107E+02 0.  0.
          5    1    3    3  502    0 -0.42483970989E+02  0.99782878848E+01 -0.14559768779E+03  0.15205463857E+03  0.41800000000E+01 0.  1.
         -5    1    3    3    0  502  0.46848482571E+02 -0.35338697694E+02 -0.32841484815E+02  0.67376846162E+02  0.41800000000E+01 0.  1.
        -11    1    4    4    0    0 -0.23004684548E+02 -0.14825464723E+02 -0.11712698721E+03  0.12028192320E+03  0.00000000000E+00 0.  1.
         11    1    4    4    0    0  0.18640172966E+02  0.40185874532E+02 -0.25797574895E+02  0.51262807478E+02  0.00000000000E+00 0. -1.
</event>
<event>
 8    1  0.7039283E-009  0.1109798E+03  0.7561462E-02  0.1258766E+00
          2   -1    0    0  501    0  0.00000000000E+00  0.00000000000E+00  0.22568121706E+03  0.22568121706E+03  0.00000000000E+00 0. -1.
         -2   -1    0    0    0  501 -0.00000000000E+00 -0.00000000000E+00 -0.10958258368E+03  0.10958258368E+03  0.00000000000E+00 0.  1.
         25    2    1    2    0    0 -0.25532020441E+02 -0.21561909887E+02 -0.52470950625E+02  0.13970608403E+03  0.12509112371E+03 0.  0.
         23    2    1    2    0    0  0.25532020441E+02  0.21561909887E+02  0.16856958400E+03  0.19555771670E+03  0.93329073091E+02 0.  0.
          5    1    3    3  502    0 -0.12241836342E+02 -0.72159589114E+02 -0.46672363015E+02  0.86905987869E+02  0.41800000000E+01 0. -1.
         -5    1    3    3    0  502 -0.13290184100E+02  0.50597679227E+02 -0.57985876106E+01  0.52800096163E+02  0.41800000000E+01 0. -1.
        -11    1    4    4    0    0  0.57898359436E+02  0.11616762986E+01  0.77237511975E+02  0.96536018011E+02  0.00000000000E+00 0.  1.
         11    1    4    4    0    0 -0.32366338995E+02  0.20400233589E+02  0.91332072028E+02  0.99021698690E+02  0.00000000000E+00 0. -1.
</event>
<event>
 8    1  0.7039283E-009  0.1010039E+03  0.7561462E-02  0.1278199E+00
         -2   -1    0    0    0  501 -0.00000000000E+00  0.00000000000E+00  0.17373989812E+03  0.17373989812E+03  0.00000000000E+00 0.  1.
          2   -1    0    0  501    0  0.00000000000E+00 -0.00000000000E+00 -0.97531432780E+02  0.97531432780E+02  0.00000000000E+00 0. -1.
         25    2    1    2    0    0 -0.33673883223E+01  0.55788162223E+02 -0.58281521340E+01  0.13712926777E+03  0.12508721107E+03 0.  0.
         23    2    1    2    0    0  0.33673883223E+01 -0.55788162223E+02  0.82036617472E+02  0.13414206312E+03  0.90224321249E+02 0.  0.
          5    1    3    3  502    0  0.41164855589E+01  0.91590834727E+02 -0.25679759644E+02  0.95303456992E+02  0.41800000000E+01 0.  1.
         -5    1    3    3    0  502 -0.74838738812E+01 -0.35802672504E+02  0.19851607510E+02  0.41825810780E+02  0.41800000000E+01 0.  1.
        -11    1    4    4    0    0  0.22905864851E+02 -0.46382278248E+02  0.25960930369E+01  0.51795116364E+02  0.00000000000E+00 0. -1.
         11    1    4    4    0    0 -0.19538476528E+02 -0.94058839744E+01  0.79440524435E+02  0.82346946761E+02  0.00000000000E+00 0.  1.
</event>
<event>
 8    1  0.7039283E-009  0.1237686E+03  0.7561462E-02  0.1237006E+00
          2   -1    0    0  501    0  0.00000000000E+00  0.00000000000E+00  0.65282612074E+02  0.65282612074E+02  0.00000000000E+00 0. -1.
         -2   -1    0    0    0  501 -0.00000000000E+00 -0.00000000000E+00 -0.28404859745E+03  0.28404859745E+03  0.00000000000E+00 0.  1.
         25    2    1    2    0    0  0.25744314344E+02  0.60243353283E+02 -0.18427597616E+03  0.23216205239E+03  0.12509816882E+03 0.  0.
         23    2    1    2    0    0 -0.25744314344E+02 -0.60243353283E+02 -0.34490009222E+02  0.11716915714E+03  0.90813101001E+02 0.  0.
          5    1    3    3  502    0  0.32299607391E+02 -0.32209109608E+02 -0.83090165784E+02  0.94879604918E+02  0.41800000000E+01 0.  1.
         -5    1    3    3    0  502 -0.65552930469E+01  0.92452462891E+02 -0.10118581037E+03  0.13728244747E+03  0.41800000000E+01 0.  1.
        -11    1    4    4    0    0 -0.52372458798E+02 -0.11818284288E+02 -0.30533242774E+02  0.61764271212E+02  0.00000000000E+00 0.  1.
         11    1    4    4    0    0  0.26628144454E+02 -0.48425068995E+02 -0.39567664478E+01  0.55404885930E+02  0.00000000000E+00 0. -1.
</event>
<event>
 8    1  0.7039283E-009  0.2652028E+03  0.7561462E-02  0.1104057E+00
          2   -1    0    0  501    0  0.00000000000E+00  0.00000000000E+00  0.13250525248E+04  0.13250525248E+04  0.00000000000E+00 0. -1.
         -2   -1    0    0    0  501 -0.00000000000E+00 -0.00000000000E+00 -0.55162084142E+02  0.55162084142E+02  0.00000000000E+00 0.  1.
         25    2    1    2    0    0  0.24446140014E+03 -0.26444009316E+02  0.73309204831E+03  0.78328278332E+03  0.12508919043E+03 0.  0.
         23    2    1    2    0    0 -0.24446140014E+03  0.26444009316E+02  0.53679839237E+03  0.59693182564E+03  0.87831820134E+02 0.  0.
          5    1    3    3  502    0  0.15980146538E+03 -0.76298001383E+02  0.45066009327E+03  0.48422090560E+03  0.41800000000E+01 0. -1.
         -5    1    3    3    0  502  0.84659934756E+02  0.49853992067E+02  0.28243195505E+03  0.29906187773E+03  0.41800000000E+01 0. -1.
        -11    1    4    4    0    0 -0.12338439519E+03  0.47180826678E+02  0.21325014630E+03  0.25084928599E+03  0.00000000000E+00 0. -1.
         11    1    4    4    0    0 -0.12107700495E+03 -0.20736817363E+02  0.32354824606E+03  0.34608253965E+03  0.00000000000E+00 0.  1.
</event>
<event>
 8    1  0.7039283E-009  0.2549973E+03  0.7561462E-02  0.1110187E+00
         -1   -1    0    0    0  501 -0.00000000000E+00  0.00000000000E+00  0.32312976432E+03  0.32312976432E+03  0.00000000000E+00 0.  1.
          1   -1    0    0  501    0  0.00000000000E+00 -0.00000000000E+00 -0.20437455803E+03  0.20437455803E+03  0.00000000000E+00 0. -1.
         25    2    1    2    0    0  0.15811720729E+03 -0.16788945150E+03  0.88893397534E+02  0.27701177341E+03  0.12508224222E+03 0.  0.
         23    2    1    2    0    0 -0.15811720729E+03  0.16788945150E+03  0.29861808756E+02  0.25049254894E+03  0.93096027251E+02 0.  0.
          5    1    3    3  502    0 -0.30847414849E+01  0.16440511665E+02  0.86567255121E+01  0.19292935247E+02  0.41800000000E+01 0.  1.
         -5    1    3    3    0  502  0.16120194877E+03 -0.18432996316E+03  0.80236672022E+02  0.25771883816E+03  0.41800000000E+01 0.  1.
        -11    1    4    4    0    0 -0.16368852752E+03  0.12860856860E+03  0.17339972131E+02  0.20888937884E+03  0.00000000000E+00 0. -1.
         11    1    4    4    0    0  0.55713202317E+01  0.39280882896E+02  0.12521836625E+02  0.41603170103E+02  0.00000000000E+00 0.  1.
</event>
<event>
 8    1  0.7039283E-009  0.8463251E+02  0.7561462E-02  0.1316396E+00
          1   -1    0    0  501    0  0.00000000000E+00  0.00000000000E+00  0.58943470486E+02  0.58943470486E+02  0.00000000000E+00 0. -1.
         -1   -1    0    0    0  501 -0.00000000000E+00 -0.00000000000E+00 -0.32459876285E+03  0.32459876285E+03  0.00000000000E+00 0.  1.
         25    2    1    2    0    0  0.27257880628E+02 -0.50993234418E+02 -0.23242316280E+03  0.27020545555E+03  0.12508860695E+03 0.  0.
         23    2    1    2    0    0 -0.27257880628E+02  0.50993234418E+02 -0.33232129569E+02  0.11333677779E+03  0.91638140269E+02 0.  0.
          5    1    3    3  502    0  0.30829732014E+02 -0.77742829222E+02 -0.22754595049E+03  0.24246453731E+03  0.41800000000E+01 0. -1.
         -5    1    3    3    0  502 -0.35718513860E+01  0.26749594804E+02 -0.48772123111E+01  0.27740918233E+02  0.41800000000E+01 0. -1.
        -11    1    4    4    0    0 -0.12626475502E+02  0.16708050053E+02 -0.62517708982E+02  0.65932167843E+02  0.00000000000E+00 0.  1.
         11    1    4    4    0    0 -0.14631405126E+02  0.34285184364E+02  0.29285579413E+02  0.47404609949E+02  0.00000000000E+00 0. -1.
</event>
<event>
 8    1  0.7039283E-009  0.1337152E+03  0.7561462E-02  0.1222045E+00
         -1   -1    0    0    0  501 -0.00000000000E+00  0.00000000000E+00  0.35845595663E+02  0.35845595663E+02  0.00000000000E+00 0.  1.
          1   -1    0    0  501    0  0.00000000000E+00 -0.00000000000E+00 -0.96993696273E+03  0.96993696273E+03  0.00000000000E+00 0. -1.
         25    2    1    2    0    0  0.81288215834E+02 -0.10116528437E+03 -0.69926959393E+03  0.72212662108E+03  0.12508678224E+03 0.  0.
         23    2    1    2    0    0 -0.81288215834E+02  0.10116528437E+03 -0.23482177314E+03  0.28365593731E+03  0.92071911210E+02 0.  0.
          5    1    3    3  502    0  0.54919557284E+02 -0.86897162699E+02 -0.67642052516E+03  0.68419987862E+03  0.41800000000E+01 0. -1.
         -5    1    3    3    0  502  0.26368658550E+02 -0.14268121675E+02 -0.22849068770E+02  0.37926742458E+02  0.41800000000E+01 0. -1.
        -11    1    4    4    0    0 -0.49243193720E+02  0.85360926021E+02 -0.86606694445E+02  0.13119489068E+03  0.00000000000E+00 0.  1.
         11    1    4    4    0    0 -0.32045022114E+02  0.15804358352E+02 -0.14821507869E+03  0.15246104662E+03  0.00000000000E+00 0. -1.
</event>
<event>
 8    1  0.7039283E-009  0.1138385E+03  0.7561462E-02  0.1253622E+00
          2   -1    0    0  501    0  0.00000000000E+00  0.00000000000E+00  0.39313291516E+03  0.39313291516E+03  0.00000000000E+00 0. -1.
         -2   -1    0    0    0  501 -0.00000000000E+00 -0.00000000000E+00 -0.48324616931E+02  0.48324616931E+02  0.00000000000E+00 0.  1.
         25    2    1    2    0    0 -0.49710337482E+02 -0.60799489696E+02  0.22553127377E+03  0.26958969341E+03  0.12508617727E+03 0.  0.
         23    2    1    2    0    0  0.49710337482E+02  0.60799489696E+02  0.11927702445E+03  0.17186783868E+03  0.95623479383E+02 0.  0.
          5    1    3    3  502    0 -0.49633098268E+02 -0.82540734574E+02  0.22777523235E+03  0.24733670609E+03  0.41800000000E+01 0. -1.
         -5    1    3    3    0  502 -0.77239213269E-01  0.21741244877E+02 -0.22439585741E+01  0.22252987323E+02  0.41800000000E+01 0. -1.
        -11    1    4    4    0    0  0.25710894856E+02  0.76331768182E+02  0.11848469147E+03  0.14326971439E+03  0.00000000000E+00 0. -1.
         11    1    4    4    0    0  0.23999442626E+02 -0.15532278486E+02  0.79233298264E+00  0.28598124289E+02  0.00000000000E+00 0.  1.
</event>
<event>
 8    1  0.7039283E-009  0.1434554E+03  0.7561462E-02  0.1208754E+00
         -1   -1    0    0    0  501 -0.00000000000E+00  0.00000000000E+00  0.22169118212E+03  0.22169118212E+03  0.00000000000E+00 0.  1.
          1   -1    0    0  501    0  0.00000000000E+00 -0.00000000000E+00 -0.14830916413E+03  0.14830916413E+03  0.00000000000E+00 0. -1.
         25    2    1    2    0    0  0.13080733779E+03  0.53487491248E+02  0.74363087330E+02  0.20285223811E+03  0.12509072871E+03 0.  0.
         23    2    1    2    0    0 -0.13080733779E+03 -0.53487491248E+02 -0.98106933803E+00  0.16714810815E+03  0.89252765889E+02 0.  0.
          5    1    3    3  502    0  0.11567592491E+03  0.56616310127E+02  0.21367726920E+01  0.12887344325E+03  0.41800000000E+01 0.  1.
         -5    1    3    3    0  502  0.15131412884E+02 -0.31288188783E+01  0.72226314638E+02  0.73978794865E+02  0.41800000000E+01 0.  1.
        -11    1    4    4    0    0 -0.28025784581E+02 -0.18020164742E+02  0.39005823323E+02  0.51299368337E+02  0.00000000000E+00 0.  1.
         11    1    4    4    0    0 -0.10278155321E+03 -0.35467326507E+02 -0.39986892661E+02  0.11584873981E+03  0.00000000000E+00 0. -1.
</event>
<event>
 8    1  0.7039283E-009  0.1225145E+03  0.7561462E-02  0.1239006E+00
         -1   -1    0    0    0  501 -0.00000000000E+00  0.00000000000E+00  0.12222799179E+03  0.12222799179E+03  0.00000000000E+00 0.  1.
          1   -1    0    0  501    0  0.00000000000E+00 -0.00000000000E+00 -0.19316873670E+03  0.19316873670E+03  0.00000000000E+00 0. -1.
         25    2    1    2    0    0 -0.68477883098E+02 -0.55611602531E+02  0.30455978399E+02  0.15606793550E+03  0.12509101910E+03 0.  0.
         23    2    1    2    0    0  0.68477883098E+02  0.55611602531E+02 -0.10139672331E+03  0.15932879300E+03  0.85571595591E+02 0.  0.
          5    1    3    3  502    0 -0.90877464952E+02 -0.61194976283E+02  0.54530947133E+02  0.12245258410E+03  0.41800000000E+01 0.  1.
         -5    1    3    3    0  502  0.22399581854E+02  0.55833737518E+01 -0.24074968734E+02  0.33615351392E+02  0.41800000000E+01 0.  1.
        -11    1    4    4    0    0  0.21425920281E+01  0.44640359920E+02 -0.98847287369E+01  0.45771828635E+02  0.00000000000E+00 0.  1.
         11    1    4    4    0    0  0.66335291070E+02  0.10971242611E+02 -0.91511994572E+02  0.11355696437E+03  0.00000000000E+00 0. -1.
</event>
<event>
 8    1  0.7039283E-009  0.8995200E+02  0.7561462E-02  0.1302968E+00
         -4   -1    0    0    0  501 -0.00000000000E+00  0.00000000000E+00  0.62150752527E+02  0.62150752527E+02  0.00000000000E+00 0.  1.
          4   -1    0    0  501    0  0.00000000000E+00 -0.00000000000E+00 -0.26066845608E+03  0.26066845608E+03  0.00000000000E+00 0. -1.
         25    2    1    2    0    0 -0.46383174518E+02  0.37865501348E+02 -0.14006170631E+03  0.19710399930E+03  0.12509000717E+03 0.  0.
         23    2    1    2    0    0  0.46383174518E+02 -0.37865501348E+02 -0.58455997250E+02  0.12571520931E+03  0.93819055463E+02 0.  0.
          5    1    3    3  502    0 -0.63921210316E+02  0.28175696596E+02 -0.15612093839E+03  0.17108772841E+03  0.41800000000E+01 0.  1.
         -5    1    3    3    0  502  0.17538035799E+02  0.96898047514E+01  0.16059232085E+02  0.26016270889E+02  0.41800000000E+01 0.  1.
        -11    1    4    4    0    0 -0.26936195328E+01  0.16208721605E+02 -0.49485395233E+02  0.52141946489E+02  0.00000000000E+00 0. -1.
         11    1    4    4    0    0  0.49076794051E+02 -0.54074222953E+02 -0.89706020165E+01  0.73573262826E+02  0.00000000000E+00 0.  1.
</event>
<event>
 8    1  0.7039283E-009  0.9218161E+02  0.7561462E-02  0.1297653E+00
          2   -1    0    0  501    0  0.00000000000E+00  0.00000000000E+00  0.70867045186E+03  0.70867045186E+03  0.00000000000E+00 0. -1.
         -2   -1    0    0    0  501 -0.00000000000E+00 -0.00000000000E+00 -0.27691210856E+02  0.27691210856E+02  0.00000000000E+00 0.  1.
         25    2    1    2    0    0  0.12685475479E+02 -0.30853640352E+02  0.58837142574E+03  0.60244494033E+03  0.12508438389E+03 0.  0.
         23    2    1    2    0    0 -0.12685475479E+02  0.30853640352E+02  0.92607815265E+02  0.13391672238E+03  0.90799849532E+02 0.  0.
          5    1    3    3  502    0  0.63944823513E+02 -0.28303888965E+02  0.23117951887E+03  0.24156053678E+03  0.41800000000E+01 0. -1.
         -5    1    3    3    0  502 -0.51259348034E+02 -0.25497513869E+01  0.35719190687E+03  0.36088440355E+03  0.41800000000E+01 0. -1.
        -11    1    4    4    0    0  0.17419912585E+02 -0.28211585366E+01  0.86563736097E+02  0.88344171834E+02  0.00000000000E+00 0. -1.
         11    1    4    4    0    0 -0.30105388064E+02  0.33674798889E+02  0.60440791671E+01  0.45572550550E+02  0.00000000000E+00 0.  1.
</event>
<event>
 8    1  0.7039283E-009  0.9155805E+02  0.7561462E-02  0.1299122E+00
         -1   -1    0    0    0  501 -0.00000000000E+00  0.00000000000E+00  0.12357711765E+02  0.12357711765E+02  0.00000000000E+00 0.  1.
          1   -1    0    0  501    0  0.00000000000E+00 -0.00000000000E+00 -0.11947827957E+04  0.11947827957E+04  0.00000000000E+00 0. -1.
         25    2    1    2    0    0 -0.17893295008E+02  0.52914368437E+02 -0.74816556659E+03  0.76060505735E+03  0.12509291683E+03 0.  0.
         23    2    1    2    0    0  0.17893295008E+02 -0.52914368437E+02 -0.43425951737E+03  0.44653545014E+03  0.87706780890E+02 0.  0.
          5    1    3    3  502    0 -0.55247749313E+01 -0.12362944294E+02 -0.58845291471E+01  0.15344888821E+02  0.41800000000E+01 0.  1.
         -5    1    3    3    0  502 -0.12368520077E+02  0.65277312730E+02 -0.74228103745E+03  0.74526016853E+03  0.41800000000E+01 0.  1.
        -11    1    4    4    0    0 -0.86031114892E+00  0.23589588467E+02 -0.70555918177E+02  0.74399908663E+02  0.00000000000E+00 0. -1.
         11    1    4    4    0    0  0.18753606157E+02 -0.76503956904E+02 -0.36370359920E+03  0.37213554148E+03  0.00000000000E+00 0.  1.
</event>
<event>
 8    1  0.7039283E-009  0.1911415E+03  0.7561462E-02  0.1157436E+00
         -1   -1    0    0    0  501 -0.00000000000E+00  0.00000000000E+00  0.29338143505E+03  0.29338143505E+03  0.00000000000E+00 0.  1.
          1   -1    0    0  501    0  0.00000000000E+00 -0.00000000000E+00 -0.17511061386E+03  0.17511061386E+03  0.00000000000E+00 0. -1.
         25    2    1    2    0    0  0.11332998530E+03  0.13717705466E+03 -0.30373794619E+02  0.21961637488E+03  0.12509018675E+03 0.  0.
         23    2    1    2    0    0 -0.11332998530E+03 -0.13717705466E+03  0.14864461581E+03  0.24887567404E+03  0.90457998127E+02 0.  0.
          5    1    3    3  502    0  0.28581580837E+02  0.11557520627E+02  0.41485235812E+02  0.51855378087E+02  0.41800000000E+01 0.  1.
         -5    1    3    3    0  502  0.84748404461E+02  0.12561953403E+03 -0.71859030431E+02  0.16776099679E+03  0.41800000000E+01 0.  1.
        -11    1    4    4    0    0 -0.85361212257E+02 -0.32678320789E+02  0.65928538759E+02  0.11269863101E+03  0.00000000000E+00 0. -1.
         11    1    4    4    0    0 -0.27968773040E+02 -0.10449873387E+03  0.82716077051E+02  0.13617704303E+03  0.00000000000E+00 0.  1.
</event>
<event>
 8    1  0.7039283E-009  0.1337243E+03  0.7561462E-02  0.1222032E+00
         -2   -1    0    0    0  501 -0.00000000000E+00  0.00000000000E+00  0.31766929088E+02  0.31766929088E+02  0.00000000000E+00 0. -1.
          2   -1    0    0  501    0  0.00000000000E+00 -0.00000000000E+00 -0.89251654373E+03  0.89251654373E+03  0.00000000000E+00 0.  1.
         25    2    1    2    0    0 -0.10229205897E+03  0.37878662312E+01 -0.67412610896E+03  0.69323389647E+03  0.12509680720E+03 0.  0.
         23    2    1    2    0    0  0.10229205897E+03 -0.37878662312E+01 -0.18662350569E+03  0.23104957635E+03  0.89875250205E+02 0.  0.
          5    1    3    3  502    0 -0.21666394732E+02  0.59539230740E+02 -0.25843345782E+03  0.26611966703E+03  0.41800000000E+01 0. -1.
         -5    1    3    3    0  502 -0.80625664239E+02 -0.55751364509E+02 -0.41569265114E+03  0.42711422944E+03  0.41800000000E+01 0. -1.
        -11    1    4    4    0    0  0.45876153427E+02  0.11682303148E+02 -0.15985478483E+03  0.16671727533E+03  0.00000000000E+00 0.  1.
         11    1    4    4    0    0  0.56415905545E+02 -0.15470169379E+02 -0.26768720859E+02  0.64332301027E+02  0.00000000000E+00 0. -1.
</event>
<event>
 8    1  0.7039283E-009  0.1508095E+03  0.7561462E-02  0.1199482E+00
          1   -1    0    0  501    0  0.00000000000E+00  0.00000000000E+00  0.40008832064E+03  0.40008832064E+03  0.00000000000E+00 0. -1.
         -1   -1    0    0    0  501 -0.00000000000E+00 -0.00000000000E+00 -0.62201240515E+02  0.62201240515E+02  0.00000000000E+00 0.  1.
         25    2    1    2    0    0 -0.87372471970E+02 -0.72258099575E+02  0.16379716562E+03  0.23522606155E+03  0.12508639717E+03 0.  0.
         23    2    1    2    0    0  0.87372471970E+02  0.72258099575E+02  0.17408991451E+03  0.22706349960E+03  0.91626157328E+02 0.  0.
          5    1    3    3  502    0 -0.11535840615E+03 -0.32520113496E+02  0.11246621241E+03  0.16441180305E+03  0.41800000000E+01 0. -1.
         -5    1    3    3    0  502  0.27985934175E+02 -0.39737986079E+02  0.51330953211E+02  0.70814258499E+02  0.41800000000E+01 0. -1.
        -11    1    4    4    0    0  0.41207338902E+02 -0.64021741105E+01  0.16228484932E+02  0.44748143380E+02  0.00000000000E+00 0.  1.
         11    1    4    4    0    0  0.46165133068E+02  0.78660273685E+02  0.15786142957E+03  0.18231535622E+03  0.00000000000E+00 0. -1.
</event>
<event>
 8    1  0.7039283E-009  0.1051765E+03  0.7561462E-02  0.1269772E+00
         -3   -1    0    0    0  501 -0.00000000000E+00  0.00000000000E+00  0.23753928133E+03  0.23753928133E+03  0.00000000000E+00 0.  1.
          3   -1    0    0  501    0  0.00000000000E+00 -0.00000000000E+00 -0.78519123971E+02  0.78519123971E+02  0.00000000000E+00 0. -1.
         25    2    1    2    0    0 -0.47204120914E+02 -0.67805756035E+02  0.70640542172E+02  0.16572130289E+03  0.12509042510E+03 0.  0.
         23    2    1    2    0    0  0.47204120914E+02  0.67805756035E+02  0.88379615191E+02  0.15033710241E+03  0.89243702289E+02 0.  0.
          5    1    3    3  502    0 -0.13983866402E+02 -0.86505091783E+02  0.27772732068E+01  0.87771664394E+02  0.41800000000E+01 0. -1.
         -5    1    3    3    0  502 -0.33220254512E+02  0.18699335748E+02  0.67863268965E+02  0.77949638497E+02  0.41800000000E+01 0. -1.
        -11    1    4    4    0    0  0.93137240748E+01  0.27137110680E+02  0.90270815388E+02  0.94720580357E+02  0.00000000000E+00 0.  1.
         11    1    4    4    0    0  0.37890396839E+02  0.40668645355E+02 -0.18912001970E+01  0.55616522058E+02  0.00000000000E+00 0. -1.
</event>
<event>
 8    1  0.7039283E-009  0.1374756E+03  0.7561462E-02  0.1216767E+00
          1   -1    0    0  501    0  0.00000000000E+00  0.00000000000E+00  0.49093183985E+03  0.49093183985E+03  0.00000000000E+00 0. -1.
         -1   -1    0    0    0  501 -0.00000000000E+00 -0.00000000000E+00 -0.46249704254E+02  0.46249704254E+02  0.00000000000E+00 0.  1.
         25    2    1    2    0    0  0.55668388452E+02 -0.76733574251E+02  0.16247843092E+03  0.22590834326E+03  0.12509327780E+03 0.  0.
         23    2    1    2    0    0 -0.55668388452E+02  0.76733574251E+02  0.28220370467E+03  0.31127320084E+03  0.90912395957E+02 0.  0.
          5    1    3    3  502    0  0.32478226610E+01  0.33978961439E+02  0.35885730532E+02  0.49702879477E+02  0.41800000000E+01 0. -1.
         -5    1    3    3    0  502  0.52420565791E+02 -0.11071253569E+03  0.12659270039E+03  0.17620546379E+03  0.41800000000E+01 0. -1.
        -11    1    4    4    0    0  0.43942689843E+01  0.53367132882E+02  0.19871543338E+03  0.20580375103E+03  0.00000000000E+00 0.  1.
         11    1    4    4    0    0 -0.60062657437E+02  0.23366441369E+02  0.83488271291E+02  0.10546944981E+03  0.00000000000E+00 0. -1.
</event>
<event>
 8    1  0.7039283E-009  0.1332943E+03  0.7561462E-02  0.1222648E+00
         -1   -1    0    0    0  501 -0.00000000000E+00  0.00000000000E+00  0.37661344327E+02  0.37661344327E+02  0.00000000000E+00 0.  1.
          1   -1    0    0  501    0  0.00000000000E+00 -0.00000000000E+00 -0.55431856609E+03  0.55431856609E+03  0.00000000000E+00 0. -1.
         25    2    1    2    0    0 -0.62090959127E+02  0.57613915294E+02 -0.19188792472E+03  0.24421996787E+03  0.12509103331E+03 0.  0.
         23    2    1    2    0    0  0.62090959127E+02 -0.57613915294E+02 -0.32476929705E+03  0.34775994255E+03  0.91034229239E+02 0.  0.
          5    1    3    3  502    0 -0.84738276430E+02  0.76111428683E+02 -0.17850730856E+03  0.21179201279E+03  0.41800000000E+01 0. -1.
         -5    1    3    3    0  502  0.22647317303E+02 -0.18497513389E+02 -0.13380616151E+02  0.32427955087E+02  0.41800000000E+01 0. -1.
        -11    1    4    4    0    0  0.20086734786E+02 -0.74976558937E+02 -0.22794547601E+03  0.24079888151E+03  0.00000000000E+00 0. -1.
         11    1    4    4    0    0  0.42004224342E+02  0.17362643643E+02 -0.96823821037E+02  0.10696106103E+03  0.00000000000E+00 0.  1.
</event>
<event>
 8    1  0.7039283E-009  0.1826053E+03  0.7561462E-02  0.1165305E+00
          1   -1    0    0  501    0  0.00000000000E+00  0.00000000000E+00  0.10042218867E+04  0.10042218867E+04  0.00000000000E+00 0. -1.
         -1   -1    0    0    0  501 -0.00000000000E+00 -0.00000000000E+00 -0.33628266673E+02  0.33628266673E+02  0.00000000000E+00 0.  1.
         25    2    1    2    0    0 -0.10982344692E+03  0.99371429839E+02  0.49047694028E+03  0.52740053128E+03  0.12509125022E+03 0.  0.
         23    2    1    2    0    0  0.10982344692E+03 -0.99371429839E+02  0.48011667973E+03  0.51044962208E+03  0.90060646048E+02 0.  0.
          5    1    3    3  502    0 -0.71640086400E+02  0.12656356765E+03  0.39527929699E+03  0.42120521562E+03  0.41800000000E+01 0. -1.
         -5    1    3    3    0  502 -0.38183360519E+02 -0.27192137811E+02  0.95197643296E+02  0.10619531566E+03  0.41800000000E+01 0. -1.
        -11    1    4    4    0    0  0.75157608703E+02 -0.87928505551E+01  0.23313980623E+03  0.24511252439E+03  0.00000000000E+00 0. -1.
         11    1    4    4    0    0  0.34665838216E+02 -0.90578579284E+02  0.24697687350E+03  0.26533709769E+03  0.00000000000E+00 0.  1.
</event>
<event>
 8    1  0.7039283E-009  0.2726262E+03  0.7561462E-02  0.1099786E+00
          2   -1    0    0  501    0  0.00000000000E+00  0.00000000000E+00  0.18087600018E+04  0.18087600018E+04  0.00000000000E+00 0. -1.
         -2   -1    0    0    0  501 -0.00000000000E+00 -0.00000000000E+00 -0.44585502128E+02  0.44585502128E+02  0.00000000000E+00 0.  1.
         25    2    1    2    0    0  0.23291915957E+03 -0.11988851989E+03  0.90067638471E+03  0.94630365908E+03  0.12509225842E+03 0.  0.
         23    2    1    2    0    0 -0.23291915957E+03  0.11988851989E+03  0.86349811500E+03  0.90704184489E+03  0.92039783082E+02 0.  0.
          5    1    3    3  502    0  0.77033927686E+02 -0.96750891036E+02  0.51485674323E+03  0.52951855433E+03  0.41800000000E+01 0.  1.
         -5    1    3    3    0  502  0.15588523189E+03 -0.23137628854E+02  0.38581964148E+03  0.41678510475E+03  0.41800000000E+01 0.  1.
        -11    1    4    4    0    0 -0.17052703184E+02  0.19159152749E+02  0.26806169191E+02  0.37100384454E+02  0.00000000000E+00 0.  1.
         11    1    4    4    0    0 -0.21586645639E+03  0.10072936714E+03  0.83669194581E+03  0.86994146043E+03  0.00000000000E+00 0. -1.
</event>
<event>
 8    1  0.7039283E-009  0.1182695E+03  0.7561462E-02  0.1245979E+00
          2   -1    0    0  501    0  0.00000000000E+00  0.00000000000E+00  0.24137945290E+02  0.24137945290E+02  0.00000000000E+00 0. -1.
         -2   -1    0    0    0  501 -0.00000000000E+00 -0.00000000000E+00 -0.95278893428E+03  0.95278893428E+03  0.00000000000E+00 0.  1.
         25    2    1    2    0    0 -0.78042568969E+02  0.38951103306E+02 -0.69275565607E+03  0.70934206570E+03  0.12509171094E+03 0.  0.
         23    2    1    2    0    0  0.78042568969E+02 -0.38951103306E+02 -0.23589533293E+03  0.26758481387E+03  0.91362976619E+02 0.  0.
          5    1    3    3  502    0 -0.95863916617E+02  0.55090258731E+02 -0.38397813666E+03  0.39960168787E+03  0.41800000000E+01 0.  1.
         -5    1    3    3    0  502  0.17821347648E+02 -0.16139155424E+02 -0.30877751941E+03  0.30974037783E+03  0.41800000000E+01 0.  1.
        -11    1    4    4    0    0  0.42796897881E+02 -0.48786872095E+02 -0.61559269808E+02  0.89449857777E+02  0.00000000000E+00 0. -1.
         11    1    4    4    0    0  0.35245671088E+02  0.98357687887E+01 -0.17433606312E+03  0.17813495609E+03  0.00000000000E+00 0.  1.
</event>
<event>
 8    1  0.7039283E-009  0.8884415E+02  0.7561462E-02  0.1305675E+00
         -3   -1    0    0    0  501 -0.00000000000E+00  0.00000000000E+00  0.34898162759E+02  0.34898162759E+02  0.00000000000E+00 0.  1.
          3   -1    0    0  501    0  0.00000000000E+00 -0.00000000000E+00 -0.37877364354E+03  0.37877364354E+03  0.00000000000E+00 0. -1.
         25    2    1    2    0    0 -0.61285536314E+00  0.37514088583E+02 -0.18121481450E+03  0.22336991201E+03  0.12509047192E+03 0.  0.
         23    2    1    2    0    0  0.61285536314E+00 -0.37514088583E+02 -0.16266066629E+03  0.19030189429E+03  0.91370871614E+02 0.  0.
          5    1    3    3  502    0 -0.30096829642E+02  0.51015789186E+02 -0.18119154209E+03  0.19067322105E+03  0.41800000000E+01 0. -1.
         -5    1    3    3    0  502  0.29483974278E+02 -0.13501700603E+02 -0.23272410485E-01  0.32696690965E+02  0.41800000000E+01 0. -1.
        -11    1    4    4    0    0  0.34816432740E+02  0.40333537327E-01 -0.11675709804E+03  0.12183761964E+03  0.00000000000E+00 0. -1.
         11    1    4    4    0    0 -0.34203577377E+02 -0.37554422121E+02 -0.45903568245E+02  0.68464274653E+02  0.00000000000E+00 0.  1.
</event>
<event>
 8    1  0.7039283E-009  0.1137529E+03  0.7561462E-02  0.1253774E+00
          1   -1    0    0  501    0  0.00000000000E+00  0.00000000000E+00  0.53891340497E+03  0.53891340497E+03  0.00000000000E+00 0. -1.
         -1   -1    0    0    0  501 -0.00000000000E+00 -0.00000000000E+00 -0.34707691476E+02  0.34707691476E+02  0.00000000000E+00 0.  1.
         25    2    1    2    0    0 -0.58737961346E+02  0.44384865136E+02  0.21014904210E+03  0.25540009381E+03  0.12508566530E+03 0.  0.
         23    2    1    2    0    0  0.58737961346E+02 -0.44384865136E+02  0.29405667139E+03  0.31822100264E+03  0.96825183581E+02 0.  0.
          5    1    3    3  502    0 -0.85783540230E+02  0.18802582368E+01  0.86936941841E+02  0.12222051956E+03  0.41800000000E+01 0. -1.
         -5    1    3    3    0  502  0.27045578884E+02  0.42504606899E+02  0.12321210026E+03  0.13317957424E+03  0.41800000000E+01 0. -1.
        -11    1    4    4    0    0  0.39931954484E+01 -0.35334334173E+02  0.24915240367E+02  0.43419235183E+02  0.00000000000E+00 0.  1.
         11    1    4    4    0    0  0.54744765898E+02 -0.90505309632E+01  0.26914143103E+03  0.27480176746E+03  0.00000000000E+00 0. -1.
</event>
<event>
 8    1  0.7039283E-009  0.9337401E+02  0.7561462E-02  0.1294881E+00
         -1   -1    0    0    0  501 -0.00000000000E+00  0.00000000000E+00  0.21460475857E+03  0.21460475857E+03  0.00000000000E+00 0.  1.
          1   -1    0    0  501    0  0.00000000000E+00 -0.00000000000E+00 -0.81601454089E+02  0.81601454089E+02  0.00000000000E+00 0. -1.
         25    2    1    2    0    0  0.64039759220E+01 -0.56171039355E+02  0.16247113041E+02  0.13822932359E+03  0.12508869113E+03 0.  0.
         23    2    1    2    0    0 -0.64039759220E+01  0.56171039355E+02  0.11675619144E+03  0.15797688907E+03  0.90158153661E+02 0.  0.
          5    1    3    3  502    0  0.14822250637E+02 -0.82738159265E+02 -0.25431439675E+02  0.87917760643E+02  0.41800000000E+01 0. -1.
         -5    1    3    3    0  502 -0.84182747155E+01  0.26567119910E+02  0.41678552716E+02  0.50311562945E+02  0.41800000000E+01 0. -1.
        -11    1    4    4    0    0 -0.21911880056E+02  0.72378576604E+01 -0.69031212121E+01  0.24086721520E+02  0.00000000000E+00 0. -1.
         11    1    4    4    0    0  0.15507904134E+02  0.48933181695E+02  0.12365931266E+03  0.13389016756E+03  0.00000000000E+00 0.  1.
</event>
<event>
 8    1  0.7039283E-009  0.1954669E+03  0.7561462E-02  0.1153621E+00
          1   -1    0    0  501    0  0.00000000000E+00  0.00000000000E+00  0.57651345601E+02  0.57651345601E+02  0.00000000000E+00 0. -1.
         -1   -1    0    0    0  501 -0.00000000000E+00 -0.00000000000E+00 -0.96754278405E+03  0.96754278405E+03  0.00000000000E+00 0.  1.
         25    2    1    2    0    0  0.10430989407E+02  0.17569552033E+03 -0.70978375581E+03  0.74190161806E+03  0.12508920603E+03 0.  0.
         23    2    1    2    0    0 -0.10430989407E+02 -0.17569552033E+03 -0.20010768264E+03  0.28329251159E+03  0.96092877300E+02 0.  0.
          5    1    3    3  502    0  0.64049477752E+02  0.68698153445E+02 -0.36495345702E+03  0.37686903571E+03  0.41800000000E+01 0. -1.
         -5    1    3    3    0  502 -0.53618488345E+02  0.10699736689E+03 -0.34483029879E+03  0.36503258235E+03  0.41800000000E+01 0. -1.
        -11    1    4    4    0    0 -0.15428846719E+02 -0.89284420694E+02 -0.16818267724E+03  0.19103709068E+03  0.00000000000E+00 0.  1.
         11    1    4    4    0    0  0.49978573125E+01 -0.86411099638E+02 -0.31925005394E+02  0.92255420912E+02  0.00000000000E+00 0. -1.
</event>
<event>
 8    1  0.7039283E-009  0.1131033E+03  0.7561462E-02  0.1254929E+00
          2   -1    0    0  501    0  0.00000000000E+00  0.00000000000E+00  0.38234791820E+03  0.38234791820E+03  0.00000000000E+00 0.  1.
         -2   -1    0    0    0  501 -0.00000000000E+00 -0.00000000000E+00 -0.68165479177E+02  0.68165479177E+02  0.00000000000E+00 0. -1.
         25    2    1    2    0    0  0.78223298365E+02 -0.57339113347E+02  0.26443886652E+03  0.30819170480E+03  0.12509018529E+03 0.  0.
         23    2    1    2    0    0 -0.78223298365E+02  0.57339113347E+02  0.49743572500E+02  0.14232169257E+03  0.91511654148E+02 0.  0.
          5    1    3    3  502    0 -0.79413919597E+01 -0.13249173584E+02 -0.88166077500E+01  0.18270502980E+02  0.41800000000E+01 0. -1.
         -5    1    3    3    0  502  0.86164690325E+02 -0.44089939763E+02  0.27325547427E+03  0.28992120182E+03  0.41800000000E+01 0. -1.
        -11    1    4    4    0    0 -0.58252892086E+02  0.63916920399E+01  0.62974254955E+02  0.86023310508E+02  0.00000000000E+00 0.  1.
         11    1    4    4    0    0 -0.19970406279E+02  0.50947421307E+02 -0.13230682455E+02  0.56298382064E+02  0.00000000000E+00 0. -1.
</event>
<event>
 8    1  0.7039283E-009  0.1582641E+03  0.7561462E-02  0.1190671E+00
         -2   -1    0    0    0  501 -0.00000000000E+00  0.00000000000E+00  0.20346228023E+03  0.20346228023E+03  0.00000000000E+00 0.  1.
          2   -1    0    0  501    0  0.00000000000E+00 -0.00000000000E+00 -0.16120913899E+03  0.16120913899E+03  0.00000000000E+00 0. -1.
         25    2    1    2    0    0  0.11758998662E+03 -0.24332759837E+02  0.10399719748E+03  0.20219373649E+03  0.12508957525E+03 0.  0.
         23    2    1    2    0    0 -0.11758998662E+03  0.24332759837E+02 -0.61744056247E+02  0.16247768274E+03  0.90372455710E+02 0.  0.
          5    1    3    3  502    0  0.12907114452E+03 -0.49482583864E+02  0.61568655921E+02  0.15138050815E+03  0.41800000000E+01 0. -1.
         -5    1    3    3    0  502 -0.11481157905E+02  0.25149824026E+02  0.42428541559E+02  0.50813228339E+02  0.41800000000E+01 0. -1.
        -11    1    4    4    0    0  0.92213104844E+01  0.21540102776E+02 -0.87812029026E+01  0.25022352389E+02  0.00000000000E+00 0.  1.
         11    1    4    4    0    0 -0.12681129710E+03  0.27926570612E+01 -0.52962853344E+02  0.13745533035E+03  0.00000000000E+00 0. -1.
</event>
<event>
 8    1  0.7039283E-009  0.1477674E+03  0.7561462E-02  0.1203243E+00
          2   -1    0    0  501    0  0.00000000000E+00  0.00000000000E+00  0.75212010988E+03  0.75212010988E+03  0.00000000000E+00 0. -1.
         -2   -1    0    0    0  501 -0.00000000000E+00 -0.00000000000E+00 -0.76673423663E+02  0.76673423663E+02  0.00000000000E+00 0.  1.
         25    2    1    2    0    0  0.13653242415E+03  0.64431154370E+01  0.63183092220E+03  0.65843821209E+03  0.12509175954E+03 0.  0.
         23    2    1    2    0    0 -0.13653242415E+03 -0.64431154370E+01  0.43615764013E+02  0.17035532145E+03  0.91847613447E+02 0.  0.
          5    1    3    3  502    0  0.20370528153E+02  0.40292157703E+01  0.61631466858E+01  0.22060139937E+02  0.41800000000E+01 0. -1.
         -5    1    3    3    0  502  0.11616189600E+03  0.24138996667E+01  0.62566777552E+03  0.63637807215E+03  0.41800000000E+01 0. -1.
        -11    1    4    4    0    0 -0.41875472363E+02  0.35175312119E+02 -0.71660903622E+01  0.55156238263E+02  0.00000000000E+00 0.  1.
         11    1    4    4    0    0 -0.94656951790E+02 -0.41618427556E+02  0.50781854376E+02  0.11519908319E+03  0.00000000000E+00 0. -1.
</event>
<event>
 8    1  0.7039283E-009  0.1082445E+03  0.7561462E-02  0.1263856E+00
          1   -1    0    0  501    0  0.00000000000E+00  0.00000000000E+00  0.14990715053E+03  0.14990715053E+03  0.00000000000E+00 0. -1.
         -1   -1    0    0    0  501 -0.00000000000E+00 -0.00000000000E+00 -0.98447761964E+02  0.98447761964E+02  0.00000000000E+00 0.  1.
         25    2    1    2    0    0  0.13315096498E+02 -0.36662344636E+02  0.14388900363E+02  0.13181133983E+03  0.12508305059E+03 0.  0.
         23    2    1    2    0    0 -0.13315096498E+02  0.36662344636E+02  0.37070488203E+02  0.11654357266E+03  0.10337680555E+03 0.  0.
          5    1    3    3  502    0 -0.44474869121E+02 -0.48042647404E+02  0.27817185289E+02  0.71255723631E+02  0.41800000000E+01 0. -1.
         -5    1    3    3    0  502  0.57789965618E+02  0.11380302768E+02 -0.13428284925E+02  0.60555616199E+02  0.41800000000E+01 0. -1.
        -11    1    4    4    0    0  0.32104884470E+02 -0.20355712659E+01 -0.16677768283E+02  0.36235550390E+02  0.00000000000E+00 0.  1.
         11    1    4    4    0    0 -0.45419980967E+02  0.38697915902E+02  0.53748256486E+02  0.80308022273E+02  0.00000000000E+00 0. -1.
</event>
<event>
 8    1  0.7039283E-009  0.1083892E+03  0.7561462E-02  0.1263582E+00
          4   -1    0    0  501    0  0.00000000000E+00  0.00000000000E+00  0.87154604936E+02  0.87154604936E+02  0.00000000000E+00 0. -1.
         -4   -1    0    0    0  501 -0.00000000000E+00 -0.00000000000E+00 -0.20305350741E+03  0.20305350741E+03  0.00000000000E+00 0.  1.
         25    2    1    2    0    0 -0.24604135454E+02  0.71222631293E+02 -0.76529097565E+02  0.16487254454E+03  0.12509287141E+03 0.  0.
         23    2    1    2    0    0  0.24604135454E+02 -0.71222631293E+02 -0.39369804913E+02  0.12533556781E+03  0.92092325035E+02 0.  0.
          5    1    3    3  502    0 -0.53190691128E+02  0.32942531333E+02 -0.94707316493E+02  0.11358436596E+03  0.41800000000E+01 0. -1.
         -5    1    3    3    0  502  0.28586555675E+02  0.38280099960E+02  0.18178218928E+02  0.51288178577E+02  0.41800000000E+01 0. -1.
        -11    1    4    4    0    0 -0.24926708042E+02 -0.41322731617E+02 -0.46531621599E+02  0.67038054347E+02  0.00000000000E+00 0.  1.
         11    1    4    4    0    0  0.49530843495E+02 -0.29899899676E+02  0.71618166859E+01  0.58297513465E+02  0.00000000000E+00 0. -1.
</event>
<event>
 8    1  0.7039283E-009  0.1110005E+03  0.7561462E-02  0.1258728E+00
          2   -1    0    0  501    0  0.00000000000E+00  0.00000000000E+00  0.61405459552E+02  0.61405459552E+02  0.00000000000E+00 0.  1.
         -2   -1    0    0    0  501 -0.00000000000E+00 -0.00000000000E+00 -0.24685089284E+03  0.24685089284E+03  0.00000000000E+00 0. -1.
         25    2    1    2    0    0  0.44753054190E+02  0.35482248245E+01 -0.15163883946E+03  0.20163838953E+03  0.12509307231E+03 0.  0.
         23    2    1    2    0    0 -0.44753054190E+02 -0.35482248245E+01 -0.33806593825E+02  0.10661796286E+03  0.90603964923E+02 0.  0.
          5    1    3    3  502    0  0.14940087591E+02  0.60606998526E+02 -0.45223950849E+02  0.77195159291E+02  0.41800000000E+01 0. -1.
         -5    1    3    3    0  502  0.29812966599E+02 -0.57058773701E+02 -0.10641488862E+03  0.12444323024E+03  0.41800000000E+01 0. -1.
        -11    1    4    4    0    0 -0.57692986905E+02 -0.30332006652E+02 -0.39664815902E+02  0.76300779721E+02  0.00000000000E+00 0. -1.
         11    1    4    4    0    0  0.12939932715E+02  0.26783781827E+02  0.58582220767E+01  0.30317183140E+02  0.00000000000E+00 0.  1.
</event>
<event>
 8    1  0.7039283E-009  0.2525729E+03  0.7561462E-02  0.1111690E+00
          2   -1    0    0  501    0  0.00000000000E+00  0.00000000000E+00  0.26317771088E+03  0.26317771088E+03  0.00000000000E+00 0. -1.
         -2   -1    0    0    0  501 -0.00000000000E+00 -0.00000000000E+00 -0.25794283680E+03  0.25794283680E+03  0.00000000000E+00 0.  1.
         25    2    1    2    0    0  0.80919005713E+02  0.22113331256E+03  0.22926665621E+02  0.26762402114E+03  0.12509659181E+03 0.  0.
         23    2    1    2    0    0 -0.80919005713E+02 -0.22113331256E+03 -0.17691791548E+02  0.25349652654E+03  0.92193611875E+02 0.  0.
          5    1    3    3  502    0  0.76359612788E+01  0.15059377905E+03  0.55509725674E+02  0.16073455210E+03  0.41800000000E+01 0. -1.
         -5    1    3    3    0  502  0.73283044434E+02  0.70539533510E+02 -0.32583060053E+02  0.10688946904E+03  0.41800000000E+01 0. -1.
        -11    1    4    4    0    0  0.17430706635E+02 -0.70335678198E+02 -0.11375419538E+02  0.73350782756E+02  0.00000000000E+00 0.  1.
         11    1    4    4    0    0 -0.98349712347E+02 -0.15079763436E+03 -0.63163720100E+01  0.18014574378E+03  0.00000000000E+00 0. -1.
</event>
<event>
 8    1  0.7039283E-009  0.1758701E+03  0.7561462E-02  0.1171861E+00
          1   -1    0    0  501    0  0.00000000000E+00  0.00000000000E+00  0.17549376947E+04  0.17549376947E+04  0.00000000000E+00 0. -1.
         -1   -1    0    0    0  501 -0.00000000000E+00 -0.00000000000E+00 -0.26672962209E+02  0.26672962209E+02  0.00000000000E+00 0.  1.
         25    2    1    2    0    0  0.11107710623E+02  0.16469847150E+03  0.12563476149E+04  0.12733052099E+04  0.12509140837E+03 0.  0.
         23    2    1    2    0    0 -0.11107710623E+02 -0.16469847150E+03  0.47191711760E+03  0.50830544697E+03  0.91758889437E+02 0.  0.
          5    1    3    3  502    0 -0.31903310072E+00  0.60076758762E+02  0.14543524761E+03  0.15741093473E+03  0.41800000000E+01 0.  1.
         -5    1    3    3    0  502  0.11426743723E+02  0.10462171274E+03  0.11109123673E+04  0.11158942752E+04  0.41800000000E+01 0.  1.
        -11    1    4    4    0    0 -0.39608208032E+02 -0.33329713832E+02  0.95850041610E+02  0.10893534984E+03  0.00000000000E+00 0.  1.
         11    1    4    4    0    0  0.28500497409E+02 -0.13136875767E+03  0.37606707599E+03  0.39937009714E+03  0.00000000000E+00 0. -1.
</event>
<event>
 8    1  0.7039283E-009  0.8163048E+02  0.7561462E-02  0.1324487E+00
         -1   -1    0    0    0  501 -0.00000000000E+00  0.00000000000E+00  0.28133111400E+02  0.28133111400E+02  0.00000000000E+00 0.  1.
          1   -1    0    0  501    0  0.00000000000E+00 -0.00000000000E+00 -0.45416444269E+03  0.45416444269E+03  0.00000000000E+00 0. -1.
         25    2    1    2    0    0  0.25248693261E+02 -0.99958395124E+01 -0.23876716711E+03  0.27091418731E+03  0.12508926204E+03 0.  0.
         23    2    1    2    0    0 -0.25248693261E+02  0.99958395124E+01 -0.18726416418E+03  0.21138336678E+03  0.94221267478E+02 0.  0.
          5    1    3    3  502    0 -0.99840208628E+01 -0.32584245386E+02 -0.22357249253E+03  0.22619360189E+03  0.41800000000E+01 0. -1.
         -5    1    3    3    0  502  0.35232714124E+02  0.22588405873E+02 -0.15194674572E+02  0.44720585414E+02  0.41800000000E+01 0. -1.
        -11    1    4    4    0    0  0.14730919740E+02 -0.28046086168E+02 -0.26144568575E+02  0.41074583524E+02  0.00000000000E+00 0.  1.
         11    1    4    4    0    0 -0.39979613001E+02  0.38041925680E+02 -0.16111959561E+03  0.17030878326E+03  0.00000000000E+00 0. -1.
</event>
<event>
 8    1  0.7039283E-009  0.1158654E+03  0.7561462E-02  0.1250078E+00
         -1   -1    0    0    0  501 -0.00000000000E+00  0.00000000000E+00  0.91035873548E+02  0.91035873548E+02  0.00000000000E+00 0.  1.
          1   -1    0    0  501    0  0.00000000000E+00 -0.00000000000E+00 -0.15821788694E+03  0.15821788694E+03  0.00000000000E+00 0. -1.
         25    2    1    2    0    0  0.38072281123E+02 -0.34600684327E+02 -0.34273203329E+02  0.13953114946E+03  0.12509030041E+03 0.  0.
         23    2    1    2    0    0 -0.38072281123E+02  0.34600684327E+02 -0.32908810059E+02  0.10972261102E+03  0.91155667101E+02 0.  0.
          5    1    3    3  502    0 -0.38071567558E+02 -0.42417838922E+02 -0.24765100375E+02  0.62285631663E+02  0.41800000000E+01 0. -1.
         -5    1    3    3    0  502  0.76143848681E+02  0.78171545949E+01 -0.95081029542E+01  0.77245517796E+02  0.41800000000E+01 0. -1.
        -11    1    4    4    0    0  0.12915170403E+02 -0.19622701488E+02 -0.25894254301E+02  0.34962328956E+02  0.00000000000E+00 0. -1.
         11    1    4    4    0    0 -0.50987451526E+02  0.54223385815E+02 -0.70145557581E+01  0.74760282068E+02  0.00000000000E+00 0.  1.
</event>
<event>
 8    1  0.7039283E-009  0.1066364E+03  0.7561462E-02  0.1266929E+00
          1   -1    0    0  501    0  0.00000000000E+00  0.00000000000E+00  0.25079190155E+03  0.25079190155E+03  0.00000000000E+00 0. -1.
         -1   -1    0    0    0  501 -0.00000000000E+00 -0.00000000000E+00 -0.61050867512E+02  0.61050867512E+02  0.00000000000E+00 0.  1.
         25    2    1    2    0    0  0.34079050405E+02 -0.31613571962E+02  0.59417764577E+02  0.14607523468E+03  0.12508678520E+03 0.  0.
         23    2    1    2    0    0 -0.34079050405E+02  0.31613571962E+02  0.13032326947E+03  0.16576753439E+03  0.91290313197E+02 0.  0.
          5    1    3    3  502    0  0.13373527961E+01 -0.66523230526E+02 -0.36794301004E+01  0.66769299217E+02  0.41800000000E+01 0. -1.
         -5    1    3    3    0  502  0.32741697609E+02  0.34909658564E+02  0.63097194678E+02  0.79305935462E+02  0.41800000000E+01 0. -1.
        -11    1    4    4    0    0  0.18092929860E+02 -0.18743311237E+02  0.16586808325E+02  0.30883458962E+02  0.00000000000E+00 0.  1.
         11    1    4    4    0    0 -0.52171980265E+02  0.50356883200E+02  0.11373646114E+03  0.13488407542E+03  0.00000000000E+00 0. -1.
</event>
<event>
 8    1  0.7039283E-009  0.2112770E+03  0.7561462E-02  0.1140559E+00
          2   -1    0    0  501    0  0.00000000000E+00  0.00000000000E+00  0.10032409000E+04  0.10032409000E+04  0.00000000000E+00 0. -1.
         -2   -1    0    0    0  501 -0.00000000000E+00 -0.00000000000E+00 -0.55456484888E+02  0.55456484888E+02  0.00000000000E+00 0.  1.
         25    2    1    2    0    0 -0.19307212593E+03 -0.22820609471E+02  0.66331511929E+03  0.70244793530E+03  0.12509407781E+03 0.  0.
         23    2    1    2    0    0  0.19307212593E+03  0.22820609471E+02  0.28446929579E+03  0.35624944956E+03  0.90516650598E+02 0.  0.
          5    1    3    3  502    0 -0.45343614340E+02 -0.56096815589E+02  0.30470406522E+03  0.31315321465E+03  0.41800000000E+01 0. -1.
         -5    1    3    3    0  502 -0.14772851159E+03  0.33276206119E+02  0.35861105407E+03  0.38929472065E+03  0.41800000000E+01 0. -1.
        -11    1    4    4    0    0  0.17360708927E+03  0.33202611225E+02  0.19110061956E+03  0.26030997221E+03  0.00000000000E+00 0.  1.
         11    1    4    4    0    0  0.19465036660E+02 -0.10382001754E+02  0.93368676229E+02  0.95939477345E+02  0.00000000000E+00 0. -1.
</event>
<event>
 8    1  0.7039283E-009  0.1365590E+03  0.7561462E-02  0.1218036E+00
          1   -1    0    0  501    0  0.00000000000E+00  0.00000000000E+00  0.42478906473E+03  0.42478906473E+03  0.00000000000E+00 0. -1.
         -1   -1    0    0    0  501 -0.00000000000E+00 -0.00000000000E+00 -0.51346194930E+02  0.51346194930E+02  0.00000000000E+00 0.  1.
         25    2    1    2    0    0 -0.88116673203E+02 -0.47116572892E+02  0.19397758810E+03  0.25151551120E+03  0.12509287811E+03 0.  0.
         23    2    1    2    0    0  0.88116673203E+02  0.47116572892E+02  0.17946528171E+03  0.22461974846E+03  0.90894029085E+02 0.  0.
          5    1    3    3  502    0  0.20939802865E+02 -0.71025374947E+01 -0.30953123834E+01  0.22715077407E+02  0.41800000000E+01 0. -1.
         -5    1    3    3    0  502 -0.10905647607E+03 -0.40014035398E+02  0.19707290048E+03  0.22880043380E+03  0.41800000000E+01 0. -1.
        -11    1    4    4    0    0  0.50635654581E+02  0.72987002698E+02  0.12919176102E+03  0.15678514979E+03  0.00000000000E+00 0.  1.
         11    1    4    4    0    0  0.37481018622E+02 -0.25870429806E+02  0.50273520683E+02  0.67834598673E+02  0.00000000000E+00 0. -1.
</event>
<event>
 8    1  0.7039283E-009  0.1717928E+03  0.7561462E-02  0.1175991E+00
         -4   -1    0    0    0  501 -0.00000000000E+00  0.00000000000E+00  0.23528244707E+03  0.23528244707E+03  0.00000000000E+00 0.  1.
          4   -1    0    0  501    0  0.00000000000E+00 -0.00000000000E+00 -0.16130373979E+03  0.16130373979E+03  0.00000000000E+00 0. -1.
         25    2    1    2    0    0  0.31349066943E+02 -0.15625240552E+03  0.66845850123E+02  0.21334160966E+03  0.12509475011E+03 0.  0.
         23    2    1    2    0    0 -0.31349066943E+02  0.15625240552E+03  0.71328571556E+01  0.18324457719E+03  0.90167173571E+02 0.  0.
          5    1    3    3  502    0 -0.18325548352E+02 -0.85886941059E+02  0.88165435917E+02  0.12451107926E+03  0.41800000000E+01 0. -1.
         -5    1    3    3    0  502  0.49674615295E+02 -0.70365464463E+02 -0.21319585794E+02  0.88830530406E+02  0.41800000000E+01 0. -1.
        -11    1    4    4    0    0 -0.62025268358E+01  0.13852698445E+03  0.33579966370E+02  0.14267379193E+03  0.00000000000E+00 0.  1.
         11    1    4    4    0    0 -0.25146540107E+02  0.17725421067E+02 -0.26447109214E+02  0.40570785267E+02  0.00000000000E+00 0. -1.
</event>
<event>
 8    1  0.7039283E-009  0.1689306E+03  0.7561462E-02  0.1178968E+00
          2   -1    0    0  501    0  0.00000000000E+00  0.00000000000E+00  0.13623831580E+03  0.13623831580E+03  0.00000000000E+00 0. -1.
         -2   -1    0    0    0  501 -0.00000000000E+00 -0.00000000000E+00 -0.25874898442E+03  0.25874898442E+03  0.00000000000E+00 0.  1.
         25    2    1    2    0    0 -0.95836576729E+02 -0.11947074113E+03 -0.74668716320E+02  0.21138041519E+03  0.12509338632E+03 0.  0.
         23    2    1    2    0    0  0.95836576729E+02  0.11947074113E+03 -0.47841952295E+02  0.18360688503E+03  0.89245327076E+02 0.  0.
          5    1    3    3  502    0 -0.89974786092E+01 -0.71993715277E+02  0.18927350822E+02  0.75098379941E+02  0.41800000000E+01 0. -1.
         -5    1    3    3    0  502 -0.86839098120E+02 -0.47477025856E+02 -0.93596067142E+02  0.13628203525E+03  0.41800000000E+01 0. -1.
        -11    1    4    4    0    0  0.49344614900E+02  0.10725061651E+03 -0.33485973552E+01  0.11810503319E+03  0.00000000000E+00 0. -1.
         11    1    4    4    0    0  0.46491961829E+02  0.12220124626E+02 -0.44493354940E+02  0.65501851840E+02  0.00000000000E+00 0.  1.
</event>
<event>
 8    1  0.7039283E-009  0.1252583E+03  0.7561462E-02  0.1234666E+00
         -2   -1    0    0    0  501 -0.00000000000E+00  0.00000000000E+00  0.93130201250E+02  0.93130201250E+02  0.00000000000E+00 0.  1.
          2   -1    0    0  501    0  0.00000000000E+00 -0.00000000000E+00 -0.24937804029E+03  0.24937804029E+03  0.00000000000E+00 0. -1.
         25    2    1    2    0    0  0.97475214452E+02 -0.43410265244E+02 -0.78999413159E+02  0.18239940014E+03  0.12507104114E+03 0.  0.
         23    2    1    2    0    0 -0.97475214452E+02  0.43410265244E+02 -0.77248425879E+02  0.16010884140E+03  0.91003589112E+02 0.  0.
          5    1    3    3  502    0  0.49141626824E+02 -0.69249477790E+02  0.13742650868E+01  0.85027940500E+02  0.41800000000E+01 0.  1.
         -5    1    3    3    0  502  0.48333587628E+02  0.25839212546E+02 -0.80373678246E+02  0.97371459642E+02  0.41800000000E+01 0.  1.
        -11    1    4    4    0    0 -0.81805872805E+02  0.23338697392E+02 -0.69646780075E+01  0.85354568484E+02  0.00000000000E+00 0.  1.
         11    1    4    4    0    0 -0.15669341647E+02  0.20071567852E+02 -0.70283747872E+02  0.74754272912E+02  0.00000000000E+00 0. -1.
</event>
<event>
 8    1  0.7039283E-009  0.1700800E+03  0.7561462E-02  0.1177764E+00
         -2   -1    0    0    0  501 -0.00000000000E+00  0.00000000000E+00  0.12937191684E+03  0.12937191684E+03  0.00000000000E+00 0.  1.
          2   -1    0    0  501    0  0.00000000000E+00 -0.00000000000E+00 -0.31032887171E+03  0.31032887171E+03  0.00000000000E+00 0. -1.
         25    2    1    2    0    0  0.37253764546E+02  0.15694789046E+03 -0.42130810941E+02  0.20843827688E+03  0.12510406366E+03 0.  0.
         23    2    1    2    0    0 -0.37253764546E+02 -0.15694789046E+03 -0.13882614393E+03  0.23126251168E+03  0.90494020676E+02 0.  0.
          5    1    3    3  502    0  0.47313231111E+02  0.45571716290E+02 -0.66866790816E+02  0.93829437160E+02  0.41800000000E+01 0.  1.
         -5    1    3    3    0  502 -0.10059466565E+02  0.11137617417E+03  0.24735979874E+02  0.11460883972E+03  0.41800000000E+01 0.  1.
        -11    1    4    4    0    0 -0.21031616579E+02 -0.12322177343E+03 -0.14699181950E+03  0.19295732519E+03  0.00000000000E+00 0. -1.
         11    1    4    4    0    0 -0.16222147966E+02 -0.33726117033E+02  0.81656755746E+01  0.38305186494E+02  0.00000000000E+00 0.  1.
</event>
<event>
 8    1  0.7039283E-009  0.1085568E+03  0.7561462E-02  0.1263266E+00
          2   -1    0    0  501    0  0.00000000000E+00  0.00000000000E+00  0.43933614554E+03  0.43933614554E+03  0.00000000000E+00 0. -1.
         -2   -1    0    0    0  501 -0.00000000000E+00 -0.00000000000E+00 -0.30992385020E+02  0.30992385020E+02  0.00000000000E+00 0.  1.
         25    2    1    2    0    0 -0.34160512966E+02 -0.38135955600E+01  0.27181038776E+03  0.30118072531E+03  0.12508980075E+03 0.  0.
         23    2    1    2    0    0  0.34160512966E+02  0.38135955600E+01  0.13653337277E+03  0.16914780525E+03  0.93745047787E+02 0.  0.
          5    1    3    3  502    0  0.17339279586E+02 -0.52661874510E+02  0.87960044084E+02  0.10405943205E+03  0.41800000000E+01 0.  1.
         -5    1    3    3    0  502 -0.51499792551E+02  0.48848278950E+02  0.18385034367E+03  0.19712129326E+03  0.41800000000E+01 0.  1.
        -11    1    4    4    0    0  0.15821967922E+02 -0.39944185998E+02  0.29633441492E+02  0.52192082911E+02  0.00000000000E+00 0.  1.
         11    1    4    4    0    0  0.18338545044E+02  0.43757781558E+02  0.10689993128E+03  0.11695572234E+03  0.00000000000E+00 0. -1.
</event>
<event>
 8    1  0.7039283E-009  0.1007745E+03  0.7561462E-02  0.1278676E+00
         -1   -1    0    0    0  501 -0.00000000000E+00  0.00000000000E+00  0.27879972339E+02  0.27879972339E+02  0.00000000000E+00 0.  1.
          1   -1    0    0  501    0  0.00000000000E+00 -0.00000000000E+00 -0.72092580444E+03  0.72092580444E+03  0.00000000000E+00 0. -1.
         25    2    1    2    0    0 -0.15009442979E+02  0.75511008523E+02 -0.25122732264E+03  0.29101361291E+03  0.12508620814E+03 0.  0.
         23    2    1    2    0    0  0.15009442979E+02 -0.75511008523E+02 -0.44181850946E+03  0.45779216387E+03  0.91885114225E+02 0.  0.
          5    1    3    3  502    0  0.24526143609E+02  0.35605684378E+02 -0.11746400434E+02  0.44997186618E+02  0.41800000000E+01 0. -1.
         -5    1    3    3    0  502 -0.39535586587E+02  0.39905324145E+02 -0.23948092221E+03  0.24601642629E+03  0.41800000000E+01 0. -1.
        -11    1    4    4    0    0 -0.16260748277E+02 -0.67599037059E+02 -0.39415477660E+03  0.40023996510E+03  0.00000000000E+00 0. -1.
         11    1    4    4    0    0  0.31270191255E+02 -0.79119714637E+01 -0.47663732855E+02  0.57552198770E+02  0.00000000000E+00 0.  1.
</event>
<event>
 8    1  0.7039283E-009  0.8176610E+02  0.7561462E-02  0.1324113E+00
          1   -1    0    0  501    0  0.00000000000E+00  0.00000000000E+00  0.47460201346E+02  0.47460201346E+02  0.00000000000E+00 0.  1.
         -1   -1    0    0    0  501 -0.00000000000E+00 -0.00000000000E+00 -0.30372519633E+03  0.30372519633E+03  0.00000000000E+00 0. -1.
         25    2    1    2    0    0  0.19647961781E+02  0.48240194584E+02 -0.14665771685E+03  0.19967668108E+03  0.12509649188E+03 0.  0.
         23    2    1    2    0    0 -0.19647961781E+02 -0.48240194584E+02 -0.10960727814E+03  0.15150871660E+03  0.90708197031E+02 0.  0.
          5    1    3    3  502    0  0.36068333185E+02  0.23825765232E+02 -0.16094583756E+03  0.16670220987E+03  0.41800000000E+01 0. -1.
         -5    1    3    3    0  502 -0.16420371404E+02  0.24414429352E+02  0.14288120717E+02  0.32974471205E+02  0.41800000000E+01 0. -1.
        -11    1    4    4    0    0  0.28046998092E+02 -0.12106389832E+02 -0.49407424036E+01  0.30945269626E+02  0.00000000000E+00 0.  1.
         11    1    4    4    0    0 -0.47694959872E+02 -0.36133804752E+02 -0.10466653573E+03  0.12056344697E+03  0.00000000000E+00 0. -1.
</event>
<event>
 8    1  0.7039283E-009  0.2661290E+03  0.7561462E-02  0.1103516E+00
          2   -1    0    0  501    0  0.00000000000E+00  0.00000000000E+00  0.12136140687E+04  0.12136140687E+04  0.00000000000E+00 0. -1.
         -2   -1    0    0    0  501 -0.00000000000E+00 -0.00000000000E+00 -0.59768377068E+02  0.59768377068E+02  0.00000000000E+00 0.  1.
         25    2    1    2    0    0  0.23693368963E+03 -0.68437300393E+02  0.62720068728E+03  0.68545573488E+03  0.12509046722E+03 0.  0.
         23    2    1    2    0    0 -0.23693368963E+03  0.68437300393E+02  0.52664500432E+03  0.58792671085E+03  0.86496354826E+02 0.  0.
          5    1    3    3  502    0  0.21091133338E+03 -0.10157600897E+03  0.52616283930E+03  0.57590457718E+03  0.41800000000E+01 0.  1.
         -5    1    3    3    0  502  0.26022356246E+02  0.33138708575E+02  0.10103784798E+03  0.10955115771E+03  0.41800000000E+01 0.  1.
        -11    1    4    4    0    0 -0.94377074421E+02 -0.67405643683E+01  0.13934467424E+03  0.16843219889E+03  0.00000000000E+00 0.  1.
         11    1    4    4    0    0 -0.14255661521E+03  0.75177864762E+02  0.38730033008E+03  0.41949451196E+03  0.00000000000E+00 0. -1.
</event>
<event>
 8    1  0.7039283E-009  0.9234988E+02  0.7561462E-02  0.1297259E+00
         -2   -1    0    0    0  501 -0.00000000000E+00  0.00000000000E+00  0.53997272272E+02  0.53997272272E+02  0.00000000000E+00 0.  1.
          2   -1    0    0  501    0  0.00000000000E+00 -0.00000000000E+00 -0.27666141556E+03  0.27666141556E+03  0.00000000000E+00 0. -1.
         25    2    1    2    0    0  0.15271171277E+02  0.54261330847E+02 -0.12443302862E+03  0.18522017992E+03  0.12508171626E+03 0.  0.
         23    2    1    2    0    0 -0.15271171277E+02 -0.54261330847E+02 -0.98231114673E+02  0.14543850791E+03  0.91244216234E+02 0.  0.
          5    1    3    3  502    0  0.37570068759E+02  0.41800908294E+01 -0.12456285976E+03  0.13023963167E+03  0.41800000000E+01 0.  1.
         -5    1    3    3    0  502 -0.22298897482E+02  0.50081240017E+02  0.12983113818E+00  0.54980548258E+02  0.41800000000E+01 0.  1.
        -11    1    4    4    0    0  0.16586237664E+02  0.10418752034E+02  0.43399753715E+01  0.20062129997E+02  0.00000000000E+00 0.  1.
         11    1    4    4    0    0 -0.31857408942E+02 -0.64680082881E+02 -0.10257109004E+03  0.12537637791E+03  0.00000000000E+00 0. -1.
</event>
<event>
 8    1  0.7039283E-009  0.1231423E+03  0.7561462E-02  0.1238001E+00
          3   -1    0    0  501    0  0.00000000000E+00  0.00000000000E+00  0.12796634589E+03  0.12796634589E+03  0.00000000000E+00 0. -1.
         -3   -1    0    0    0  501 -0.00000000000E+00 -0.00000000000E+00 -0.20595822605E+03  0.20595822605E+03  0.00000000000E+00 0.  1.
         25    2    1    2    0    0  0.54654587610E+02  0.39725553820E+02 -0.15031979935E+03  0.20690269900E+03  0.12508973261E+03 0.  0.
         23    2    1    2    0    0 -0.54654587610E+02 -0.39725553820E+02  0.72327919181E+02  0.12702187294E+03  0.79611461106E+02 0.  0.
          5    1    3    3  502    0 -0.14299596017E+02 -0.36404876162E+02 -0.43678675711E+02  0.58780035441E+02  0.41800000000E+01 0.  1.
         -5    1    3    3    0  502  0.68954183627E+02  0.76130429982E+02 -0.10664112364E+03  0.14812266356E+03  0.41800000000E+01 0.  1.
        -11    1    4    4    0    0 -0.74205703899E+02 -0.40583922578E+02  0.62192237782E+02  0.10498293053E+03  0.00000000000E+00 0. -1.
         11    1    4    4    0    0  0.19551116289E+02  0.85836875797E+00  0.10135681399E+02  0.22038942409E+02  0.00000000000E+00 0.  1.
</event>
<event>
 8    1  0.7039283E-009  0.1145550E+03  0.7561462E-02  0.1252360E+00
         -1   -1    0    0    0  501 -0.00000000000E+00  0.00000000000E+00  0.39973721169E+02  0.39973721169E+02  0.00000000000E+00 0.  1.
          1   -1    0    0  501    0  0.00000000000E+00 -0.00000000000E+00 -0.45256950012E+03  0.45256950012E+03  0.00000000000E+00 0. -1.
         25    2    1    2    0    0  0.34551572220E+01 -0.64677060231E+02 -0.31201810280E+03  0.34234074789E+03  0.12508729337E+03 0.  0.
         23    2    1    2    0    0 -0.34551572220E+01  0.64677060231E+02 -0.10057767615E+03  0.15020247339E+03  0.90828706047E+02 0.  0.
          5    1    3    3  502    0  0.22531256950E+02  0.25709845991E+02 -0.16577059746E+03  0.16931041640E+03  0.41800000000E+01 0.  1.
         -5    1    3    3    0  502 -0.19076099728E+02 -0.90386906222E+02 -0.14624750534E+03  0.17303033149E+03  0.41800000000E+01 0.  1.
        -11    1    4    4    0    0  0.25426759703E+01  0.82937774210E+02 -0.10132771287E+03  0.13096734321E+03  0.00000000000E+00 0. -1.
         11    1    4    4    0    0 -0.59978331923E+01 -0.18260713979E+02  0.75003672158E+00  0.19235130182E+02  0.00000000000E+00 0.  1.
</event>
<event>
 8    1  0.7039283E-009  0.2433167E+03  0.7561462E-02  0.1117603E+00
          1   -1    0    0  501    0  0.00000000000E+00  0.00000000000E+00  0.11779615437E+03  0.11779615437E+03  0.00000000000E+00 0. -1.
         -1   -1    0    0    0  501 -0.00000000000E+00 -0.00000000000E+00 -0.60815548601E+03  0.60815548601E+03  0.00000000000E+00 0.  1.
         25    2    1    2    0    0 -0.23159685289E+03  0.62035673827E+02 -0.18490190165E+03  0.32759953685E+03  0.12508883329E+03 0.  0.
         23    2    1    2    0    0  0.23159685289E+03 -0.62035673827E+02 -0.30545743000E+03  0.39835210353E+03  0.88851729006E+02 0.  0.
          5    1    3    3  502    0 -0.95070310874E+02  0.43334181223E+02 -0.10212695235E+02  0.10506182378E+03  0.41800000000E+01 0. -1.
         -5    1    3    3    0  502 -0.13652654202E+03  0.18701492604E+02 -0.17468920641E+03  0.22253771307E+03  0.41800000000E+01 0. -1.
        -11    1    4    4    0    0  0.15252960841E+03 -0.17694985329E+02 -0.24583599755E+03  0.28985122329E+03  0.00000000000E+00 0.  1.
         11    1    4    4    0    0  0.79067244483E+02 -0.44340688498E+02 -0.59621432446E+02  0.10850088024E+03  0.00000000000E+00 0. -1.
</event>
<event>
 8    1  0.7039283E-009  0.1203304E+03  0.7561462E-02  0.1242553E+00
         -2   -1    0    0    0  501 -0.00000000000E+00  0.00000000000E+00  0.39344236514E+02  0.39344236514E+02  0.00000000000E+00 0.  1.
          2   -1    0    0  501    0  0.00000000000E+00 -0.00000000000E+00 -0.52941945014E+03  0.52941945014E+03  0.00000000000E+00 0. -1.
         25    2    1    2    0    0 -0.69928534177E+02 -0.51532701093E+02 -0.19754952831E+03  0.24943816492E+03  0.12509181752E+03 0.  0.
         23    2    1    2    0    0  0.69928534177E+02  0.51532701093E+02 -0.29252568531E+03  0.31932552173E+03  0.94084499714E+02 0.  0.
          5    1    3    3  502    0 -0.77793080537E+02 -0.20524714924E+02 -0.20143025174E+03  0.21694387758E+03  0.41800000000E+01 0.  1.
         -5    1    3    3    0  502  0.78645463601E+01 -0.31007986169E+02  0.38807234302E+01  0.32494287344E+02  0.41800000000E+01 0.  1.
        -11    1    4    4    0    0 -0.16258674776E+02 -0.12464016727E+02 -0.54046751547E+02  0.57799200438E+02  0.00000000000E+00 0.  1.
         11    1    4    4    0    0  0.86187208952E+02  0.63996717820E+02 -0.23847893377E+03  0.26152632129E+03  0.00000000000E+00 0. -1.
</event>
<event>
 8    1  0.7039283E-009  0.8542706E+02  0.7561462E-02  0.1314319E+00
         -1   -1    0    0    0  501 -0.00000000000E+00  0.00000000000E+00  0.47683605601E+02  0.47683605601E+02  0.00000000000E+00 0.  1.
          1   -1    0    0  501    0  0.00000000000E+00 -0.00000000000E+00 -0.26049476478E+03  0.26049476478E+03  0.00000000000E+00 0. -1.
         25    2    1    2    0    0  0.24344125266E+02 -0.65294325776E+01 -0.17390284506E+03  0.21569598818E+03  0.12508912771E+03 0.  0.
         23    2    1    2    0    0 -0.24344125266E+02  0.65294325776E+01 -0.38908314119E+02  0.92482382206E+02  0.80024147520E+02 0.  0.
          5    1    3    3  502    0  0.68538346587E+01  0.44719181782E+02 -0.14932065688E+03  0.15607982330E+03  0.41800000000E+01 0.  1.
         -5    1    3    3    0  502  0.17490290607E+02 -0.51248614359E+02 -0.24582188181E+02  0.59616164880E+02  0.41800000000E+01 0.  1.
        -11    1    4    4    0    0 -0.37513470441E+02 -0.19246530939E+02 -0.46287070776E+02  0.62611359503E+02  0.00000000000E+00 0. -1.
         11    1    4    4    0    0  0.13169345175E+02  0.25775963517E+02  0.73787566575E+01  0.29871022704E+02  0.00000000000E+00 0.  1.
</event>
<event>
 8    1  0.7039283E-009  0.1707643E+03  0.7561462E-02  0.1177053E+00
         -2   -1    0    0    0  501 -0.00000000000E+00  0.00000000000E+00  0.36523792945E+02  0.36523792945E+02  0.00000000000E+00 0. -1.
          2   -1    0    0  501    0  0.00000000000E+00 -0.00000000000E+00 -0.13200937853E+04  0.13200937853E+04  0.00000000000E+00 0.  1.
         25    2    1    2    0    0  0.12895498615E+03  0.10317441373E+03 -0.97692531902E+03  0.99865259428E+03  0.12509826945E+03 0.  0.
         23    2    1    2    0    0 -0.12895498615E+03 -0.10317441373E+03 -0.30664467336E+03  0.35796498399E+03  0.82665748410E+02 0.  0.
          5    1    3    3  502    0  0.16098201391E+00 -0.42492339926E+01 -0.33850048370E+03  0.33855299699E+03  0.41800000000E+01 0.  1.
         -5    1    3    3    0  502  0.12879400414E+03  0.10742364772E+03 -0.63842483532E+03  0.66009959729E+03  0.41800000000E+01 0.  1.
        -11    1    4    4    0    0 -0.10243329652E+03 -0.95853124445E+02 -0.29759150062E+03  0.32900015645E+03  0.00000000000E+00 0.  1.
         11    1    4    4    0    0 -0.26521689630E+02 -0.73212892843E+01 -0.90531727361E+01  0.28964827536E+02  0.00000000000E+00 0. -1.
</event>
<event>
 8    1  0.7039283E-009  0.3141246E+03  0.7561462E-02  0.1078386E+00
         -2   -1    0    0    0  501 -0.00000000000E+00  0.00000000000E+00  0.19703055611E+03  0.19703055611E+03  0.00000000000E+00 0. -1.
          2   -1    0    0  501    0  0.00000000000E+00 -0.00000000000E+00 -0.62013097288E+03  0.62013097288E+03  0.00000000000E+00 0.  1.
         25    2    1    2    0    0 -0.39198809025E+01  0.29923464175E+03 -0.38144927452E+03  0.50070742917E+03  0.12509054442E+03 0.  0.
         23    2    1    2    0    0  0.39198809025E+01 -0.29923464175E+03 -0.41651142251E+02  0.31645409981E+03  0.94083172492E+02 0.  0.
          5    1    3    3  502    0  0.41877474555E+02  0.70382555206E+02 -0.15569934755E+03  0.17597495896E+03  0.41800000000E+01 0.  1.
         -5    1    3    3    0  502 -0.45797355458E+02  0.22885208655E+03 -0.22574992697E+03  0.32473247021E+03  0.41800000000E+01 0.  1.
        -11    1    4    4    0    0 -0.43127119376E+02 -0.12016123172E+03 -0.53485884981E+01  0.12777823536E+03  0.00000000000E+00 0.  1.
         11    1    4    4    0    0  0.47047000279E+02 -0.17907341003E+03 -0.36302553753E+02  0.18867586445E+03  0.00000000000E+00 0. -1.
</event>
<event>
 8    1  0.7039283E-009  0.1971028E+03  0.7561462E-02  0.1152207E+00
          2   -1    0    0  501    0  0.00000000000E+00  0.00000000000E+00  0.10051458974E+04  0.10051458974E+04  0.00000000000E+00 0. -1.
         -2   -1    0    0    0  501 -0.00000000000E+00 -0.00000000000E+00 -0.40998875741E+02  0.40998875741E+02  0.00000000000E+00 0.  1.
         25    2    1    2    0    0 -0.43311630566E+02  0.16229257628E+03  0.59622738878E+03  0.63194109076E+03  0.12509062872E+03 0.  0.
         23    2    1    2    0    0  0.43311630566E+02 -0.16229257628E+03  0.36791963292E+03  0.41420368243E+03  0.89359143854E+02 0.  0.
          5    1    3    3  502    0 -0.71628652037E+02  0.47423691867E+02  0.32124962739E+03  0.33256347641E+03  0.41800000000E+01 0. -1.
         -5    1    3    3    0  502  0.28317021471E+02  0.11486888442E+03  0.27497776140E+03  0.29937761435E+03  0.41800000000E+01 0. -1.
        -11    1    4    4    0    0  0.23959449277E+02 -0.16795379827E+03  0.31940208817E+03  0.36166314090E+03  0.00000000000E+00 0.  1.
         11    1    4    4    0    0  0.19352181289E+02  0.56612219838E+01  0.48517544757E+02  0.52540541529E+02  0.00000000000E+00 0. -1.
</event>
<event>
 8    1  0.7039283E-009  0.1474306E+03  0.7561462E-02  0.1203666E+00
          2   -1    0    0  501    0  0.00000000000E+00  0.00000000000E+00  0.31658802321E+03  0.31658802321E+03  0.00000000000E+00 0. -1.
         -2   -1    0    0    0  501 -0.00000000000E+00 -0.00000000000E+00 -0.14538529456E+03  0.14538529456E+03  0.00000000000E+00 0.  1.
         25    2    1    2    0    0  0.14331770645E+03 -0.18078862687E+02 -0.33943478740E+02  0.19407236150E+03  0.12508042008E+03 0.  0.
         23    2    1    2    0    0 -0.14331770645E+03  0.18078862687E+02  0.20514620740E+03  0.26790095627E+03  0.93910306693E+02 0.  0.
          5    1    3    3  502    0  0.59360218769E+02  0.12289473867E+02  0.44369700507E+02  0.75238351014E+02  0.41800000000E+01 0. -1.
         -5    1    3    3    0  502  0.83957487685E+02 -0.30368336554E+02 -0.78313179247E+02  0.11883401048E+03  0.41800000000E+01 0. -1.
        -11    1    4    4    0    0 -0.70122799806E+02  0.13265002415E+02  0.28893663293E+02  0.76993578435E+02  0.00000000000E+00 0.  1.
         11    1    4    4    0    0 -0.73194906648E+02  0.48138602723E+01  0.17625254410E+03  0.19090737784E+03  0.00000000000E+00 0. -1.
</event>
<event>
 8    1  0.7039283E-009  0.1074263E+03  0.7561462E-02  0.1265412E+00
          3   -1    0    0  501    0  0.00000000000E+00  0.00000000000E+00  0.54536722373E+02  0.54536722373E+02  0.00000000000E+00 0. -1.
         -3   -1    0    0    0  501 -0.00000000000E+00 -0.00000000000E+00 -0.39475916322E+03  0.39475916322E+03  0.00000000000E+00 0.  1.
         25    2    1    2    0    0  0.27479894913E+02 -0.70384619663E+01 -0.32234714393E+03  0.34693372642E+03  0.12510253697E+03 0.  0.
         23    2    1    2    0    0 -0.27479894913E+02  0.70384619663E+01 -0.17875296923E+02  0.10236215918E+03  0.96715049606E+02 0.  0.
          5    1    3    3  502    0  0.56134529900E+02  0.32571833710E+02 -0.25767187049E+03  0.26575228135E+03  0.41800000000E+01 0. -1.
         -5    1    3    3    0  502 -0.28654634987E+02 -0.39610295677E+02 -0.64675273437E+02  0.81181445072E+02  0.41800000000E+01 0. -1.
        -11    1    4    4    0    0  0.91138589468E+01 -0.40073704401E+02 -0.59149301794E+01  0.41520484201E+02  0.00000000000E+00 0.  1.
         11    1    4    4    0    0 -0.36593753860E+02  0.47112166367E+02 -0.11960366743E+02  0.60841674977E+02  0.00000000000E+00 0. -1.
</event>
<event>
 8    1  0.7039283E-009  0.1373639E+03  0.7561462E-02  0.1216921E+00
         -1   -1    0    0    0  501 -0.00000000000E+00  0.00000000000E+00  0.57252329359E+02  0.57252329359E+02  0.00000000000E+00 0.  1.
          1   -1    0    0  501    0  0.00000000000E+00 -0.00000000000E+00 -0.70829115670E+03  0.70829115670E+03  0.00000000000E+00 0. -1.
         25    2    1    2    0    0  0.89220441629E+02  0.81086784672E+02 -0.56822001744E+03  0.59418449439E+03  0.12508345734E+03 0.  0.
         23    2    1    2    0    0 -0.89220441629E+02 -0.81086784672E+02 -0.82818809899E+02  0.17135899167E+03  0.89272587613E+02 0.  0.
          5    1    3    3  502    0  0.90881614497E+02  0.71977127123E+02 -0.57177212930E+03  0.58342181560E+03  0.41800000000E+01 0.  1.
         -5    1    3    3    0  502 -0.16611728680E+01  0.91096575493E+01  0.35521118580E+01  0.10762678784E+02  0.41800000000E+01 0.  1.
        -11    1    4    4    0    0 -0.57055147847E+02  0.43986701052E+01 -0.43678881287E+02  0.71989463569E+02  0.00000000000E+00 0.  1.
         11    1    4    4    0    0 -0.32165293782E+02 -0.85485454777E+02 -0.39139928612E+02  0.99369528098E+02  0.00000000000E+00 0. -1.
</event>
<event>
 8    1  0.7039283E-009  0.1214641E+03  0.7561462E-02  0.1240701E+00
          2   -1    0    0  501    0  0.00000000000E+00  0.00000000000E+00  0.32602509494E+03  0.32602509494E+03  0.00000000000E+00 0.  1.
         -2   -1    0    0    0  501 -0.00000000000E+00 -0.00000000000E+00 -0.22851854719E+03  0.22851854719E+03  0.00000000000E+00 0. -1.
         25    2    1    2    0    0  0.44158457475E+02  0.55113632658E+02  0.29337003917E+03  0.32665030887E+03  0.12508781926E+03 0.  0.
         23    2    1    2    0    0 -0.44158457475E+02 -0.55113632658E+02 -0.19586349143E+03  0.22789333326E+03  0.92657337539E+02 0.  0.
          5    1    3    3  502    0  0.67663604817E+02 -0.71975682997E+01  0.91957440651E+02  0.11447188169E+03  0.41800000000E+01 0.  1.
         -5    1    3    3    0  502 -0.23505147341E+02  0.62311200958E+02  0.20141259852E+03  0.21217842718E+03  0.41800000000E+01 0.  1.
        -11    1    4    4    0    0 -0.67203735206E+02 -0.51570257975E+02 -0.10952194372E+03  0.13845898198E+03  0.00000000000E+00 0.  1.
         11    1    4    4    0    0  0.23045277730E+02 -0.35433746834E+01 -0.86341547706E+02  0.89434351287E+02  0.00000000000E+00 0. -1.
</event>
<event>
 8    1  0.7039283E-009  0.2243173E+03  0.7561462E-02  0.1130705E+00
          1   -1    0    0  501    0  0.00000000000E+00  0.00000000000E+00  0.19081305741E+04  0.19081305741E+04  0.00000000000E+00 0. -1.
         -1   -1    0    0    0  501 -0.00000000000E+00 -0.00000000000E+00 -0.28521877187E+02  0.28521877187E+02  0.00000000000E+00 0.  1.
         25    2    1    2    0    0  0.78371217544E+02 -0.18951663846E+03  0.88889866039E+03  0.92078720664E+03  0.12509855111E+03 0.  0.
         23    2    1    2    0    0 -0.78371217544E+02  0.18951663846E+03  0.99071003655E+03  0.10158652447E+04  0.91745380302E+02 0.  0.
          5    1    3    3  502    0 -0.19326533132E+02 -0.18020873297E+02  0.26627118106E+03  0.26761181032E+03  0.41800000000E+01 0. -1.
         -5    1    3    3    0  502  0.97697750676E+02 -0.17149576516E+03  0.62262747932E+03  0.65317539632E+03  0.41800000000E+01 0. -1.
        -11    1    4    4    0    0  0.13245519763E+02  0.82641470463E+02  0.34875530437E+03  0.35865766235E+03  0.00000000000E+00 0.  1.
         11    1    4    4    0    0 -0.91616737306E+02  0.10687516800E+03  0.64195473218E+03  0.65720758232E+03  0.00000000000E+00 0. -1.
</event>
<event>
 8    1  0.7039283E-009  0.9512537E+02  0.7561462E-02  0.1290894E+00
         -1   -1    0    0    0  501 -0.00000000000E+00  0.00000000000E+00  0.43468912410E+03  0.43468912410E+03  0.00000000000E+00 0.  1.
          1   -1    0    0  501    0  0.00000000000E+00 -0.00000000000E+00 -0.33855576663E+02  0.33855576663E+02  0.00000000000E+00 0. -1.
         25    2    1    2    0    0  0.22087882331E+02  0.41952506382E+02  0.18126663632E+03  0.22528186366E+03  0.12508571987E+03 0.  0.
         23    2    1    2    0    0 -0.22087882331E+02 -0.41952506382E+02  0.21956691112E+03  0.24326283710E+03  0.93377149880E+02 0.  0.
          5    1    3    3  502    0  0.29923005418E+02 -0.11027593906E+02  0.16648883248E+03  0.16956708944E+03  0.41800000000E+01 0.  1.
         -5    1    3    3    0  502 -0.78351230869E+01  0.52980100288E+02  0.14777803842E+02  0.55714774223E+02  0.41800000000E+01 0.  1.
        -11    1    4    4    0    0 -0.42301675320E+02 -0.62548732167E+02  0.14955275661E+03  0.16753448195E+03  0.00000000000E+00 0.  1.
         11    1    4    4    0    0  0.20213792989E+02  0.20596225785E+02  0.70014154508E+02  0.75728355159E+02  0.00000000000E+00 0. -1.
</event>
<event>
 8    1  0.7039283E-009  0.9571987E+02  0.7561462E-02  0.1289563E+00
          2   -1    0    0  501    0  0.00000000000E+00  0.00000000000E+00  0.37909944181E+03  0.37909944181E+03  0.00000000000E+00 0.  1.
         -2   -1    0    0    0  501 -0.00000000000E+00 -0.00000000000E+00 -0.45891948770E+02  0.45891948770E+02  0.00000000000E+00 0. -1.
         25    2    1    2    0    0 -0.27828039165E+02  0.39597752139E+02  0.28102455450E+03  0.31139042387E+03  0.12508722600E+03 0.  0.
         23    2    1    2    0    0  0.27828039165E+02 -0.39597752139E+02  0.52182938538E+02  0.11360096671E+03  0.88542299632E+02 0.  0.
          5    1    3    3  502    0  0.43257907799E+02  0.35065546892E+02  0.17416683869E+03  0.18289997065E+03  0.41800000000E+01 0.  1.
         -5    1    3    3    0  502 -0.71085946964E+02  0.45322052474E+01  0.10685771582E+03  0.12849045322E+03  0.41800000000E+01 0.  1.
        -11    1    4    4    0    0  0.10230601186E+02 -0.44753452338E+02  0.72764164737E+02  0.86035808630E+02  0.00000000000E+00 0.  1.
         11    1    4    4    0    0  0.17597437979E+02  0.51557001991E+01 -0.20581226199E+02  0.27565158077E+02  0.00000000000E+00 0. -1.
</event>
<event>
 8    1  0.7039283E-009  0.1368669E+03  0.7561462E-02  0.1217608E+00
          4   -1    0    0  501    0  0.00000000000E+00  0.00000000000E+00  0.18701732455E+03  0.18701732455E+03  0.00000000000E+00 0. -1.
         -4   -1    0    0    0  501 -0.00000000000E+00 -0.00000000000E+00 -0.11324028387E+03  0.11324028387E+03  0.00000000000E+00 0.  1.
         25    2    1    2    0    0  0.77487975071E+02  0.47499990731E+02  0.41428893234E+01  0.15467816753E+03  0.12509011383E+03 0.  0.
         23    2    1    2    0    0 -0.77487975071E+02 -0.47499990731E+02  0.69634151362E+02  0.14557944089E+03  0.89910083820E+02 0.  0.
          5    1    3    3  502    0 -0.31944344259E+02 -0.21835512384E+01 -0.94805261024E+01  0.33653555552E+02  0.41800000000E+01 0.  1.
         -5    1    3    3    0  502  0.10943231933E+03  0.49683541969E+02  0.13623415426E+02  0.12102461198E+03  0.41800000000E+01 0.  1.
        -11    1    4    4    0    0 -0.40733843837E+02 -0.67878132675E+02  0.22220642698E+02  0.82221918556E+02  0.00000000000E+00 0.  1.
         11    1    4    4    0    0 -0.36754131235E+02  0.20378141944E+02  0.47413508664E+02  0.63357522329E+02  0.00000000000E+00 0. -1.
</event>
<event>
 8    1  0.7039283E-009  0.2210026E+03  0.7561462E-02  0.1133138E+00
          1   -1    0    0  501    0  0.00000000000E+00  0.00000000000E+00  0.17975794790E+03  0.17975794790E+03  0.00000000000E+00 0. -1.
         -1   -1    0    0    0  501 -0.00000000000E+00 -0.00000000000E+00 -0.29612683436E+03  0.29612683436E+03  0.00000000000E+00 0.  1.
         25    2    1    2    0    0  0.20314077556E+03 -0.31067146511E+01 -0.70476689447E+02  0.24877459313E+03  0.12508400401E+03 0.  0.
         23    2    1    2    0    0 -0.20314077556E+03  0.31067146511E+01 -0.45892197009E+02  0.22711018913E+03  0.90537936180E+02 0.  0.
          5    1    3    3  502    0  0.42773882792E+02 -0.54648679782E+02 -0.28412391654E+02  0.75105390290E+02  0.41800000000E+01 0.  1.
         -5    1    3    3    0  502  0.16036689277E+03  0.51541965131E+02 -0.42064297793E+02  0.17366920284E+03  0.41800000000E+01 0.  1.
        -11    1    4    4    0    0 -0.18447353689E+03 -0.25060203886E+01 -0.68916759300E+02  0.19694234096E+03  0.00000000000E+00 0. -1.
         11    1    4    4    0    0 -0.18667238670E+02  0.56127350397E+01  0.23024562292E+02  0.30167848165E+02  0.00000000000E+00 0.  1.
</event>
<event>
 8    1  0.7039283E-009  0.9252515E+02  0.7561462E-02  0.1296849E+00
         -2   -1    0    0    0  501 -0.00000000000E+00  0.00000000000E+00  0.26200153036E+03  0.26200153036E+03  0.00000000000E+00 0.  1.
          2   -1    0    0  501    0  0.00000000000E+00 -0.00000000000E+00 -0.46475089589E+02  0.46475089589E+02  0.00000000000E+00 0. -1.
         25    2    1    2    0    0  0.11222040586E+02  0.18283237977E+02  0.13759893086E+03  0.18719153172E+03  0.12508794021E+03 0.  0.
         23    2    1    2    0    0 -0.11222040586E+02 -0.18283237977E+02  0.77927509912E+02  0.12128508823E+03  0.90427677406E+02 0.  0.
          5    1    3    3  502    0  0.40980580483E+02  0.38816985863E+02  0.13946092624E+02  0.58293501076E+02  0.41800000000E+01 0.  1.
         -5    1    3    3    0  502 -0.29758539897E+02 -0.20533747885E+02  0.12365283824E+03  0.12889803064E+03  0.41800000000E+01 0.  1.
        -11    1    4    4    0    0 -0.91510443265E+01 -0.54759304575E+02  0.38678654514E+02  0.67663589654E+02  0.00000000000E+00 0.  1.
         11    1    4    4    0    0 -0.20709962600E+01  0.36476066598E+02  0.39248855398E+02  0.53621498580E+02  0.00000000000E+00 0. -1.
</event>
<event>
 8    1  0.7039283E-009  0.1153301E+03  0.7561462E-02  0.1251006E+00
          2   -1    0    0  501    0  0.00000000000E+00  0.00000000000E+00  0.15896557893E+03  0.15896557893E+03  0.00000000000E+00 0. -1.
         -2   -1    0    0    0  501 -0.00000000000E+00 -0.00000000000E+00 -0.13309844061E+03  0.13309844061E+03  0.00000000000E+00 0.  1.
         25    2    1    2    0    0 -0.40137786558E+02 -0.50384136422E+02  0.86510227011E+02  0.16516936705E+03  0.12508915749E+03 0.  0.
         23    2    1    2    0    0  0.40137786558E+02  0.50384136422E+02 -0.60643088698E+02  0.12689465249E+03  0.90967387070E+02 0.  0.
          5    1    3    3  502    0 -0.24135912835E+02  0.36989272637E+02  0.51888674011E+01  0.44667049639E+02  0.41800000000E+01 0. -1.
         -5    1    3    3    0  502 -0.16001873722E+02 -0.87373409058E+02  0.81321359610E+02  0.12050231741E+03  0.41800000000E+01 0. -1.
        -11    1    4    4    0    0  0.46574305881E+02 -0.26705337721E-02  0.15421147676E+01  0.46599829328E+02  0.00000000000E+00 0.  1.
         11    1    4    4    0    0 -0.64365193234E+01  0.50386806955E+02 -0.62185203466E+02  0.80294823159E+02  0.00000000000E+00 0. -1.
</event>
<event>
 8    1  0.7039283E-009  0.9141052E+02  0.7561462E-02  0.1299471E+00
          1   -1    0    0  501    0  0.00000000000E+00  0.00000000000E+00  0.60021810607E+02  0.60021810607E+02  0.00000000000E+00 0. -1.
         -1   -1    0    0    0  501 -0.00000000000E+00 -0.00000000000E+00 -0.20213906612E+03  0.20213906612E+03  0.00000000000E+00 0.  1.
         25    2    1    2    0    0  0.74070581822E+01 -0.82280121990E+01 -0.11548298120E+03  0.17060553601E+03  0.12508942910E+03 0.  0.
         23    2    1    2    0    0 -0.74070581822E+01  0.82280121990E+01 -0.26634274308E+02  0.91555340717E+02  0.86893216941E+02 0.  0.
          5    1    3    3  502    0 -0.42465048588E+02 -0.18661941585E+02 -0.10967479391E+03  0.11915360353E+03  0.41800000000E+01 0.  1.
         -5    1    3    3    0  502  0.49872106770E+02  0.10433929386E+02 -0.58081872941E+01  0.51451932478E+02  0.41800000000E+01 0.  1.
        -11    1    4    4    0    0 -0.40441020370E+02  0.25539209373E+02 -0.25590383316E+02  0.54245691646E+02  0.00000000000E+00 0. -1.
         11    1    4    4    0    0  0.33033962188E+02 -0.17311197174E+02 -0.10438909924E+01  0.37309649071E+02  0.00000000000E+00 0.  1.
</event>
<event>
 8    1  0.7039283E-009  0.1000170E+03  0.7561462E-02  0.1280260E+00
          2   -1    0    0  501    0  0.00000000000E+00  0.00000000000E+00  0.24287814318E+03  0.24287814318E+03  0.00000000000E+00 0. -1.
         -2   -1    0    0    0  501 -0.00000000000E+00 -0.00000000000E+00 -0.83306975148E+02  0.83306975148E+02  0.00000000000E+00 0.  1.
         25    2    1    2    0    0  0.30289896350E+02  0.44962890875E+02  0.39083763267E+01  0.13639110048E+03  0.12509243585E+03 0.  0.
         23    2    1    2    0    0 -0.30289896350E+02 -0.44962890875E+02  0.15566279170E+03  0.18979401785E+03  0.94083607037E+02 0.  0.
          5    1    3    3  502    0  0.63809092351E+02  0.41355375414E+02  0.40673085286E+02  0.86334463623E+02  0.41800000000E+01 0. -1.
         -5    1    3    3    0  502 -0.33519196001E+02  0.36075154618E+01 -0.36764708959E+02  0.50056636855E+02  0.41800000000E+01 0. -1.
        -11    1    4    4    0    0  0.10505615524E+02  0.14433988669E+02 -0.44534053360E+00  0.17857948219E+02  0.00000000000E+00 0.  1.
         11    1    4    4    0    0 -0.40795511874E+02 -0.59396879544E+02  0.15610813224E+03  0.17193606963E+03  0.00000000000E+00 0. -1.
</event>
<event>
 8    1  0.7039283E-009  0.1009462E+03  0.7561462E-02  0.1278319E+00
          2   -1    0    0  501    0  0.00000000000E+00  0.00000000000E+00  0.46513154239E+02  0.46513154239E+02  0.00000000000E+00 0. -1.
         -2   -1    0    0    0  501 -0.00000000000E+00 -0.00000000000E+00 -0.40277385870E+03  0.40277385870E+03  0.00000000000E+00 0.  1.
         25    2    1    2    0    0  0.70609729886E+02  0.32118924415E+02 -0.25321965419E+03  0.29289276391E+03  0.12509443881E+03 0.  0.
         23    2    1    2    0    0 -0.70609729886E+02 -0.32118924415E+02 -0.10304105028E+03  0.15639424904E+03  0.88455321089E+02 0.  0.
          5    1    3    3  502    0  0.24731869643E+01  0.16723074598E+02 -0.20983452651E+03  0.21055588046E+03  0.41800000000E+01 0. -1.
         -5    1    3    3    0  502  0.68136542922E+02  0.15395849816E+02 -0.43385127674E+02  0.82336883450E+02  0.41800000000E+01 0. -1.
        -11    1    4    4    0    0 -0.70543061693E+02  0.10986676947E+02 -0.46125389720E+02  0.84997542319E+02  0.00000000000E+00 0. -1.
         11    1    4    4    0    0 -0.66668193088E-01 -0.43105601361E+02 -0.56915660557E+02  0.71396706717E+02  0.00000000000E+00 0.  1.
</event>
<event>
 8    1  0.7039283E-009  0.1206280E+03  0.7561462E-02  0.1242065E+00
         -1   -1    0    0    0  501 -0.00000000000E+00  0.00000000000E+00  0.41261440287E+03  0.41261440287E+03  0.00000000000E+00 0.  1.
          1   -1    0    0  501    0  0.00000000000E+00 -0.00000000000E+00 -0.54991121624E+02  0.54991121624E+02  0.00000000000E+00 0. -1.
         25    2    1    2    0    0 -0.86453861983E+02 -0.54853659451E+02  0.16801596651E+03  0.23315302479E+03  0.12509106186E+03 0.  0.
         23    2    1    2    0    0  0.86453861983E+02  0.54853659451E+02  0.18960731473E+03  0.23445249970E+03  0.92378821220E+02 0.  0.
          5    1    3    3  502    0 -0.77192233053E+02 -0.52667298548E+02  0.35221694421E+02  0.99952615463E+02  0.41800000000E+01 0.  1.
         -5    1    3    3    0  502 -0.92616289308E+01 -0.21863609039E+01  0.13279427209E+03  0.13320040933E+03  0.41800000000E+01 0.  1.
        -11    1    4    4    0    0 -0.11846698539E+02  0.35113332949E+02  0.61091497215E+02  0.71452511846E+02  0.00000000000E+00 0.  1.
         11    1    4    4    0    0  0.98300560522E+02  0.19740326502E+02  0.12851581752E+03  0.16299998786E+03  0.00000000000E+00 0. -1.
</event>
<event>
 8    1  0.7039283E-009  0.1227607E+03  0.7561462E-02  0.1238611E+00
         -2   -1    0    0    0  501 -0.00000000000E+00  0.00000000000E+00  0.16023671692E+02  0.16023671692E+02  0.00000000000E+00 0. -1.
          2   -1    0    0  501    0  0.00000000000E+00 -0.00000000000E+00 -0.10693892094E+04  0.10693892094E+04  0.00000000000E+00 0.  1.
         25    2    1    2    0    0 -0.57748617965E+02 -0.43753270373E+02 -0.60243995851E+03  0.61953866021E+03  0.12507995978E+03 0.  0.
         23    2    1    2    0    0  0.57748617965E+02  0.43753270373E+02 -0.45092557922E+03  0.46587422090E+03  0.91954663637E+02 0.  0.
          5    1    3    3  502    0 -0.95424220110E+02 -0.47087540781E+02 -0.44574763069E+03  0.45829187310E+03  0.41800000000E+01 0.  1.
         -5    1    3    3    0  502  0.37675602145E+02  0.33342704084E+01 -0.15669232782E+03  0.16124678711E+03  0.41800000000E+01 0.  1.
        -11    1    4    4    0    0  0.27665451733E+02  0.60514948304E+02 -0.39213244215E+03  0.39773771304E+03  0.00000000000E+00 0. -1.
         11    1    4    4    0    0  0.30083166231E+02 -0.16761677931E+02 -0.58793137066E+02  0.68136507862E+02  0.00000000000E+00 0.  1.
</event>
<event>
 8    1  0.7039283E-009  0.2207917E+03  0.7561462E-02  0.1133294E+00
         -1   -1    0    0    0  501 -0.00000000000E+00  0.00000000000E+00  0.16477214160E+03  0.16477214160E+03  0.00000000000E+00 0.  1.
          1   -1    0    0  501    0  0.00000000000E+00 -0.00000000000E+00 -0.80118395229E+03  0.80118395229E+03  0.00000000000E+00 0. -1.
         25    2    1    2    0    0  0.21331023274E+03 -0.22860650394E+02  0.39149436212E+02  0.25140402423E+03  0.12508972904E+03 0.  0.
         23    2    1    2    0    0 -0.21331023274E+03  0.22860650394E+02 -0.67556124690E+03  0.71455206966E+03  0.90431173890E+02 0.  0.
          5    1    3    3  502    0  0.50573162067E+02  0.18815098424E+02 -0.38371781920E+02  0.66343942435E+02  0.41800000000E+01 0. -1.
         -5    1    3    3    0  502  0.16273707068E+03 -0.41675748818E+02  0.77521218132E+02  0.18506008179E+03  0.41800000000E+01 0. -1.
        -11    1    4    4    0    0 -0.13844275552E+03  0.36838477645E+02 -0.31517709312E+03  0.34620813107E+03  0.00000000000E+00 0.  1.
         11    1    4    4    0    0 -0.74867477228E+02 -0.13977827251E+02 -0.36038415378E+03  0.36834393859E+03  0.00000000000E+00 0. -1.
</event>
<event>
 8    1  0.7039283E-009  0.1089329E+03  0.7561462E-02  0.1262559E+00
          2   -1    0    0  501    0  0.00000000000E+00  0.00000000000E+00  0.37157041030E+03  0.37157041030E+03  0.00000000000E+00 0. -1.
         -2   -1    0    0    0  501 -0.00000000000E+00 -0.00000000000E+00 -0.36570427112E+02  0.36570427112E+02  0.00000000000E+00 0.  1.
         25    2    1    2    0    0 -0.29419670427E+02 -0.12240089740E+02  0.24218719855E+03  0.27443835997E+03  0.12508572052E+03 0.  0.
         23    2    1    2    0    0  0.29419670427E+02  0.12240089740E+02  0.92812784642E+02  0.13370247744E+03  0.90811908233E+02 0.  0.
          5    1    3    3  502    0  0.49314378691E+02 -0.77071162243E+01  0.96208574846E+02  0.10846598481E+03  0.41800000000E+01 0.  1.
         -5    1    3    3    0  502 -0.78734049118E+02 -0.45329735155E+01  0.14597862370E+03  0.16597237517E+03  0.41800000000E+01 0.  1.
        -11    1    4    4    0    0  0.57406125909E+02 -0.19199431869E+01  0.33202487722E+02  0.66344213498E+02  0.00000000000E+00 0.  1.
         11    1    4    4    0    0 -0.27986455483E+02  0.14160032927E+02  0.59610296920E+02  0.67358263946E+02  0.00000000000E+00 0. -1.
</event>
<event>
 8    1  0.7039283E-009  0.1138973E+03  0.7561462E-02  0.1253518E+00
         -2   -1    0    0    0  501 -0.00000000000E+00  0.00000000000E+00  0.39869620992E+03  0.39869620992E+03  0.00000000000E+00 0. -1.
          2   -1    0    0  501    0  0.00000000000E+00 -0.00000000000E+00 -0.42228141697E+02  0.42228141697E+02  0.00000000000E+00 0.  1.
         25    2    1    2    0    0 -0.10876266739E+02  0.70522444845E+02  0.19351904885E+03  0.24122376776E+03  0.12509026925E+03 0.  0.
         23    2    1    2    0    0  0.10876266739E+02 -0.70522444845E+02  0.16294901938E+03  0.19970058386E+03  0.90753687922E+02 0.  0.
          5    1    3    3  502    0 -0.68001131913E+02  0.34766179163E+02  0.10341202050E+03  0.12862487916E+03  0.41800000000E+01 0.  1.
         -5    1    3    3    0  502  0.57124865175E+02  0.35756265682E+02  0.90107028354E+02  0.11259888861E+03  0.41800000000E+01 0.  1.
        -11    1    4    4    0    0  0.28009039364E+02 -0.46380762988E+02  0.26945084438E+02  0.60512139582E+02  0.00000000000E+00 0. -1.
         11    1    4    4    0    0 -0.17132772625E+02 -0.24141681857E+02  0.13600393494E+03  0.13918844427E+03  0.00000000000E+00 0.  1.
</event>
<event>
 8    1  0.7039283E-009  0.1258627E+03  0.7561462E-02  0.1233727E+00
         -1   -1    0    0    0  501 -0.00000000000E+00  0.00000000000E+00  0.60158040562E+02  0.60158040562E+02  0.00000000000E+00 0.  1.
          1   -1    0    0  501    0  0.00000000000E+00 -0.00000000000E+00 -0.35606810592E+03  0.35606810592E+03  0.00000000000E+00 0. -1.
         25    2    1    2    0    0 -0.93053153260E+02  0.31229562352E+02 -0.17198775337E+03  0.23422657948E+03  0.12509247911E+03 0.  0.
         23    2    1    2    0    0  0.93053153260E+02 -0.31229562352E+02 -0.12392231199E+03  0.18199956700E+03  0.90182748257E+02 0.  0.
          5    1    3    3  502    0 -0.10220889668E+03  0.53787416335E+02 -0.84100208866E+02  0.14293376874E+03  0.41800000000E+01 0.  1.
         -5    1    3    3    0  502  0.91557434154E+01 -0.22557853983E+02 -0.87887544500E+02  0.91292810736E+02  0.41800000000E+01 0.  1.
        -11    1    4    4    0    0  0.84861761757E+01  0.13376066457E+02  0.90338294169E+01  0.18235800336E+02  0.00000000000E+00 0.  1.
         11    1    4    4    0    0  0.84566977085E+02 -0.44605628809E+02 -0.13295614141E+03  0.16376376666E+03  0.00000000000E+00 0. -1.
</event>
<event>
 8    1  0.7039283E-009  0.1333656E+03  0.7561462E-02  0.1222545E+00
          1   -1    0    0  501    0  0.00000000000E+00  0.00000000000E+00  0.17682001066E+02  0.17682001066E+02  0.00000000000E+00 0. -1.
         -1   -1    0    0    0  501 -0.00000000000E+00 -0.00000000000E+00 -0.14174355291E+04  0.14174355291E+04  0.00000000000E+00 0.  1.
         25    2    1    2    0    0 -0.56751900454E+02 -0.72875870325E+02 -0.10577573698E+04  0.10691257208E+04  0.12508989873E+03 0.  0.
         23    2    1    2    0    0  0.56751900454E+02  0.72875870325E+02 -0.34199615824E+03  0.36599180941E+03  0.91961739969E+02 0.  0.
          5    1    3    3  502    0 -0.67349089932E+02  0.11781445670E+02 -0.39642981152E+03  0.40230432540E+03  0.41800000000E+01 0.  1.
         -5    1    3    3    0  502  0.10597189478E+02 -0.84657315996E+02 -0.66132755830E+03  0.66682139538E+03  0.41800000000E+01 0.  1.
        -11    1    4    4    0    0  0.69058028124E+02  0.73021523346E+02 -0.33863399358E+03  0.35323382586E+03  0.00000000000E+00 0.  1.
         11    1    4    4    0    0 -0.12306127670E+02 -0.14565302073E+00 -0.33621646617E+01  0.12757983549E+02  0.00000000000E+00 0. -1.
</event>
<event>
 8    1  0.7039283E-009  0.1125942E+03  0.7561462E-02  0.1255840E+00
          2   -1    0    0  501    0  0.00000000000E+00  0.00000000000E+00  0.24720068128E+03  0.24720068128E+03  0.00000000000E+00 0. -1.
         -2   -1    0    0    0  501 -0.00000000000E+00 -0.00000000000E+00 -0.82327924031E+02  0.82327924031E+02  0.00000000000E+00 0.  1.
         25    2    1    2    0    0  0.75500789649E+02 -0.44521688175E+02  0.12354684676E+03  0.19645293070E+03  0.12508949069E+03 0.  0.
         23    2    1    2    0    0 -0.75500789649E+02  0.44521688175E+02  0.41325910488E+02  0.13307567460E+03  0.91207205517E+02 0.  0.
          5    1    3    3  502    0  0.95796623926E+02 -0.54718757437E+02  0.13179809725E+03  0.17192831765E+03  0.41800000000E+01 0. -1.
         -5    1    3    3    0  502 -0.20295834277E+02  0.10197069261E+02 -0.82512504960E+01  0.24524613050E+02  0.41800000000E+01 0. -1.
        -11    1    4    4    0    0 -0.42170134249E+02  0.92689654704E+01  0.65828014475E+02  0.78724592303E+02  0.00000000000E+00 0. -1.
         11    1    4    4    0    0 -0.33330655400E+02  0.35252722705E+02 -0.24502103988E+02  0.54351082301E+02  0.00000000000E+00 0.  1.
</event>
<event>
 8    1  0.7039283E-009  0.1037662E+03  0.7561462E-02  0.1272570E+00
          1   -1    0    0  501    0  0.00000000000E+00  0.00000000000E+00  0.31640476948E+03  0.31640476948E+03  0.00000000000E+00 0. -1.
         -1   -1    0    0    0  501 -0.00000000000E+00 -0.00000000000E+00 -0.44164856349E+02  0.44164856349E+02  0.00000000000E+00 0.  1.
         25    2    1    2    0    0 -0.41816436207E+02 -0.96935970184E+01  0.17682952996E+03  0.22081479915E+03  0.12509161722E+03 0.  0.
         23    2    1    2    0    0  0.41816436207E+02  0.96935970184E+01  0.95410383164E+02  0.13975482667E+03  0.92658999574E+02 0.  0.
          5    1    3    3  502    0 -0.79410940954E+02 -0.34206548371E+02  0.12609278233E+03  0.15294785926E+03  0.41800000000E+01 0.  1.
         -5    1    3    3    0  502  0.37594504746E+02  0.24512951352E+02  0.50736747628E+02  0.67866939897E+02  0.41800000000E+01 0.  1.
        -11    1    4    4    0    0  0.31723078245E+02 -0.24600245127E+02  0.95942691984E+02  0.10400252833E+03  0.00000000000E+00 0. -1.
         11    1    4    4    0    0  0.10093357962E+02  0.34293842145E+02 -0.53230882010E+00  0.35752298342E+02  0.00000000000E+00 0.  1.
</event>
<event>
 8    1  0.7039283E-009  0.1166792E+03  0.7561462E-02  0.1248678E+00
          2   -1    0    0  501    0  0.00000000000E+00  0.00000000000E+00  0.22833558009E+04  0.22833558009E+04  0.00000000000E+00 0.  1.
         -2   -1    0    0    0  501 -0.00000000000E+00 -0.00000000000E+00 -0.19051349713E+02  0.19051349713E+02  0.00000000000E+00 0. -1.
         25    2    1    2    0    0 -0.54723180628E+02  0.35067137863E+02  0.20916503255E+04  0.20963950846E+04  0.12508771336E+03 0.  0.
         23    2    1    2    0    0  0.54723180628E+02 -0.35067137863E+02  0.17265412573E+03  0.20601206602E+03  0.91690749594E+02 0.  0.
          5    1    3    3  502    0  0.38277285221E+02  0.15989632824E+02  0.42575445259E+03  0.42779100648E+03  0.41800000000E+01 0.  1.
         -5    1    3    3    0  502 -0.93000465849E+02  0.19077505040E+02  0.16658958729E+04  0.16686040781E+04  0.41800000000E+01 0.  1.
        -11    1    4    4    0    0  0.68078705705E+02 -0.10790163681E+02  0.16247809976E+03  0.17649439284E+03  0.00000000000E+00 0.  1.
         11    1    4    4    0    0 -0.13355525077E+02 -0.24276974182E+02  0.10176025963E+02  0.29517673180E+02  0.00000000000E+00 0. -1.
</event>
<event>
 8    1  0.7039283E-009  0.1047732E+03  0.7561462E-02  0.1270567E+00
          1   -1    0    0  501    0  0.00000000000E+00  0.00000000000E+00  0.13556393967E+03  0.13556393967E+03  0.00000000000E+00 0. -1.
         -1   -1    0    0    0  501 -0.00000000000E+00 -0.00000000000E+00 -0.10902755936E+03  0.10902755936E+03  0.00000000000E+00 0.  1.
         25    2    1    2    0    0  0.26456458134E+02 -0.46143102051E+02  0.70002537674E+01  0.13611431050E+03  0.12509585096E+03 0.  0.
         23    2    1    2    0    0 -0.26456458134E+02  0.46143102051E+02  0.19536126545E+02  0.10847718853E+03  0.92501406190E+02 0.  0.
          5    1    3    3  502    0 -0.83385531675E+00  0.39886861003E+02 -0.15498249555E+02  0.43003780469E+02  0.41800000000E+01 0.  1.
         -5    1    3    3    0  502  0.27290313451E+02 -0.86029963054E+02  0.22498503323E+02  0.93110530033E+02  0.41800000000E+01 0.  1.
        -11    1    4    4    0    0 -0.27569454200E+02 -0.49206320008E+01 -0.27349670513E+02  0.39144500270E+02  0.00000000000E+00 0.  1.
         11    1    4    4    0    0  0.11129960658E+01  0.51063734051E+02  0.46885797059E+02  0.69332688260E+02  0.00000000000E+00 0. -1.
</event>
<event>
 8    1  0.7039283E-009  0.2815089E+03  0.7561462E-02  0.1094868E+00
          2   -1    0    0  501    0  0.00000000000E+00  0.00000000000E+00  0.15486547801E+04  0.15486547801E+04  0.00000000000E+00 0. -1.
         -2   -1    0    0    0  501 -0.00000000000E+00 -0.00000000000E+00 -0.58418978748E+02  0.58418978748E+02  0.00000000000E+00 0.  1.
         25    2    1    2    0    0  0.26159090782E+03 -0.19748863557E+02  0.49840198825E+03  0.57695134331E+03  0.12509392466E+03 0.  0.
         23    2    1    2    0    0 -0.26159090782E+03  0.19748863557E+02  0.99183381305E+03  0.10301224155E+04  0.92725711170E+02 0.  0.
          5    1    3    3  502    0  0.27120195633E+03 -0.10991228165E+02  0.44021398451E+03  0.51718191458E+03  0.41800000000E+01 0. -1.
         -5    1    3    3    0  502 -0.96110485054E+01 -0.87576353921E+01  0.58188003742E+02  0.59769428728E+02  0.41800000000E+01 0. -1.
        -11    1    4    4    0    0 -0.51646414092E+02 -0.33184080502E+02  0.19870763519E+03  0.20797418005E+03  0.00000000000E+00 0.  1.
         11    1    4    4    0    0 -0.20994449373E+03  0.52932944059E+02  0.79312617786E+03  0.82214823543E+03  0.00000000000E+00 0. -1.
</event>
<event>
 8    1  0.7039283E-009  0.1096644E+03  0.7561462E-02  0.1261193E+00
          2   -1    0    0  501    0  0.00000000000E+00  0.00000000000E+00  0.18974212655E+03  0.18974212655E+03  0.00000000000E+00 0.  1.
         -2   -1    0    0    0  501 -0.00000000000E+00 -0.00000000000E+00 -0.88770145772E+02  0.88770145772E+02  0.00000000000E+00 0. -1.
         25    2    1    2    0    0  0.71798707228E+01 -0.44695483743E+02  0.11306974103E+03  0.17459008879E+03  0.12509075089E+03 0.  0.
         23    2    1    2    0    0 -0.71798707228E+01  0.44695483743E+02 -0.12097760251E+02  0.10392218352E+03  0.92758975926E+02 0.  0.
          5    1    3    3  502    0  0.62177912952E+02 -0.32981201229E+02  0.36202286616E+02  0.79258630128E+02  0.41800000000E+01 0.  1.
         -5    1    3    3    0  502 -0.54998042229E+02 -0.11714282514E+02  0.76867454410E+02  0.95331458666E+02  0.41800000000E+01 0.  1.
        -11    1    4    4    0    0  0.27164671086E+02  0.50747441709E+02 -0.29795249917E+02  0.64814960563E+02  0.00000000000E+00 0. -1.
         11    1    4    4    0    0 -0.34344541809E+02 -0.60519579658E+01  0.17697489666E+02  0.39107222961E+02  0.00000000000E+00 0.  1.
</event>
<event>
 8    1  0.7039283E-009  0.1982761E+03  0.7561462E-02  0.1151202E+00
         -1   -1    0    0    0  501 -0.00000000000E+00  0.00000000000E+00  0.20308196412E+03  0.20308196412E+03  0.00000000000E+00 0.  1.
          1   -1    0    0  501    0  0.00000000000E+00 -0.00000000000E+00 -0.25878024713E+03  0.25878024713E+03  0.00000000000E+00 0. -1.
         25    2    1    2    0    0 -0.14392373250E+03  0.12812521367E+03 -0.87613892566E+02  0.24587377521E+03  0.12509039936E+03 0.  0.
         23    2    1    2    0    0  0.14392373250E+03 -0.12812521367E+03  0.31915609555E+02  0.21598843604E+03  0.92207847917E+02 0.  0.
          5    1    3    3  502    0 -0.13662097979E+03  0.12123691519E+03 -0.27474694070E+02  0.18475933789E+03  0.41800000000E+01 0.  1.
         -5    1    3    3    0  502 -0.73027527070E+01  0.68882984796E+01 -0.60139198496E+02  0.61114437318E+02  0.41800000000E+01 0.  1.
        -11    1    4    4    0    0  0.25188447815E+02 -0.62328369390E+02 -0.20792315873E+02  0.70367634134E+02  0.00000000000E+00 0. -1.
         11    1    4    4    0    0  0.11873528469E+03 -0.65796844277E+02  0.52707925428E+02  0.14562080191E+03  0.00000000000E+00 0.  1.
</event>
<event>
 8    1  0.7039283E-009  0.1028831E+03  0.7561462E-02  0.1274347E+00
         -1   -1    0    0    0  501 -0.00000000000E+00  0.00000000000E+00  0.32965283976E+03  0.32965283976E+03  0.00000000000E+00 0.  1.
          1   -1    0    0  501    0  0.00000000000E+00 -0.00000000000E+00 -0.13072660272E+03  0.13072660272E+03  0.00000000000E+00 0. -1.
         25    2    1    2    0    0  0.59326185019E+01  0.48246311994E+02  0.29201385282E+03  0.32137047970E+03  0.12507594654E+03 0.  0.
         23    2    1    2    0    0 -0.59326185019E+01 -0.48246311994E+02 -0.93087615777E+02  0.13900896278E+03  0.91078454848E+02 0.  0.
          5    1    3    3  502    0  0.47574558157E+02  0.71271304775E+02  0.17227176970E+03  0.19245252013E+03  0.41800000000E+01 0. -1.
         -5    1    3    3    0  502 -0.41641939655E+02 -0.23024992781E+02  0.11974208312E+03  0.12891795957E+03  0.41800000000E+01 0. -1.
        -11    1    4    4    0    0 -0.16734689304E+02 -0.56298824813E+02 -0.16167715801E+02  0.60917998454E+02  0.00000000000E+00 0.  1.
         11    1    4    4    0    0  0.10802070802E+02  0.80525128186E+01 -0.76919899976E+02  0.78090964321E+02  0.00000000000E+00 0. -1.
</event>
<event>
 8    1  0.7039283E-009  0.8110083E+02  0.7561462E-02  0.1325956E+00
         -2   -1    0    0    0  501 -0.00000000000E+00  0.00000000000E+00  0.60086770729E+02  0.60086770729E+02  0.00000000000E+00 0.  1.
          2   -1    0    0  501    0  0.00000000000E+00 -0.00000000000E+00 -0.19200301669E+03  0.19200301669E+03  0.00000000000E+00 0. -1.
         25    2    1    2    0    0 -0.41748231546E+01 -0.17852996153E+02 -0.74267071456E+02  0.14662452464E+03  0.12508794788E+03 0.  0.
         23    2    1    2    0    0  0.41748231546E+01  0.17852996153E+02 -0.57649174505E+02  0.10546526277E+03  0.86390599668E+02 0.  0.
          5    1    3    3  502    0 -0.48718045198E+02  0.10452214710E+02 -0.78976549352E+02  0.93474405416E+02  0.41800000000E+01 0.  1.
         -5    1    3    3    0  502  0.44543222043E+02 -0.28305210864E+02  0.47094778956E+01  0.53150119229E+02  0.41800000000E+01 0.  1.
        -11    1    4    4    0    0  0.30340238431E+02  0.95978892345E+01  0.92659115365E+01  0.33143727346E+02  0.00000000000E+00 0.  1.
         11    1    4    4    0    0 -0.26165415276E+02  0.82551069186E+01 -0.66915086041E+02  0.72321535428E+02  0.00000000000E+00 0. -1.
</event>
<event>
 8    1  0.7039283E-009  0.9738315E+02  0.7561462E-02  0.1285897E+00
          1   -1    0    0  501    0  0.00000000000E+00  0.00000000000E+00  0.31254531366E+03  0.31254531366E+03  0.00000000000E+00 0. -1.
         -1   -1    0    0    0  501 -0.00000000000E+00 -0.00000000000E+00 -0.55552063692E+02  0.55552063692E+02  0.00000000000E+00 0.  1.
         25    2    1    2    0    0  0.68568725690E+02 -0.40855189412E+01  0.17987039979E+03  0.22960131805E+03  0.12508014600E+03 0.  0.
         23    2    1    2    0    0 -0.68568725690E+02  0.40855189412E+01  0.77122850177E+02  0.13849605930E+03  0.92276014295E+02 0.  0.
          5    1    3    3  502    0  0.14734055310E+02  0.38655069825E+02  0.14798055061E+03  0.15371084076E+03  0.41800000000E+01 0. -1.
         -5    1    3    3    0  502  0.53834670381E+02 -0.42740588766E+02  0.31889849186E+02  0.75890477296E+02  0.41800000000E+01 0. -1.
        -11    1    4    4    0    0 -0.40359185419E+02 -0.21943745164E+02 -0.65839843256E+01  0.46408411405E+02  0.00000000000E+00 0.  1.
         11    1    4    4    0    0 -0.28209540271E+02  0.26029264105E+02  0.83706834503E+02  0.92087647894E+02  0.00000000000E+00 0. -1.
</event>
<event>
 8    1  0.7039283E-009  0.9017383E+02  0.7561462E-02  0.1302431E+00
         -2   -1    0    0    0  501 -0.00000000000E+00  0.00000000000E+00  0.76463940536E+02  0.76463940536E+02  0.00000000000E+00 0.  1.
          2   -1    0    0  501    0  0.00000000000E+00 -0.00000000000E+00 -0.23660084339E+03  0.23660084339E+03  0.00000000000E+00 0. -1.
         25    2    1    2    0    0  0.70300706698E+02 -0.27395554905E+02 -0.65354383840E+02  0.16003532432E+03  0.12508958290E+03 0.  0.
         23    2    1    2    0    0 -0.70300706698E+02  0.27395554905E+02 -0.94782519010E+02  0.15302945960E+03  0.93496437398E+02 0.  0.
          5    1    3    3  502    0  0.11015855885E+02 -0.30342404769E+01 -0.90310485425E+02  0.91126351150E+02  0.41800000000E+01 0.  1.
         -5    1    3    3    0  502  0.59284850813E+02 -0.24361314429E+02  0.24956101585E+02  0.68908973167E+02  0.41800000000E+01 0.  1.
        -11    1    4    4    0    0  0.78630765050E+01  0.24501699756E+02 -0.63988275094E+02  0.68968547995E+02  0.00000000000E+00 0. -1.
         11    1    4    4    0    0 -0.78163783203E+02  0.28938551499E+01 -0.30794243915E+02  0.84060911609E+02  0.00000000000E+00 0.  1.
</event>
<event>
 8    1  0.7039283E-009  0.9811566E+02  0.7561462E-02  0.1284309E+00
          1   -1    0    0  501    0  0.00000000000E+00  0.00000000000E+00  0.33897518645E+03  0.33897518645E+03  0.00000000000E+00 0. -1.
         -1   -1    0    0    0  501 -0.00000000000E+00 -0.00000000000E+00 -0.40184688830E+02  0.40184688830E+02  0.00000000000E+00 0.  1.
         25    2    1    2    0    0 -0.24370544708E+02  0.59128976619E+01  0.14417021076E+03  0.19251227141E+03  0.12508812560E+03 0.  0.
         23    2    1    2    0    0  0.24370544708E+02 -0.59128976619E+01  0.15462028686E+03  0.18664760387E+03  0.10149388707E+03 0.  0.
          5    1    3    3  502    0 -0.64153475514E+02  0.39107828043E+02  0.92160647329E+02  0.11897961149E+03  0.41800000000E+01 0.  1.
         -5    1    3    3    0  502  0.39782930806E+02 -0.33194930381E+02  0.52009563434E+02  0.73532659921E+02  0.41800000000E+01 0.  1.
        -11    1    4    4    0    0  0.83834582139E+01  0.29220975196E+02  0.14320318246E+03  0.14639432786E+03  0.00000000000E+00 0.  1.
         11    1    4    4    0    0  0.15987086494E+02 -0.35133872857E+02  0.11417104398E+02  0.40253276008E+02  0.00000000000E+00 0. -1.
</event>
<event>
 8    1  0.7039283E-009  0.8933156E+02  0.7561462E-02  0.1304479E+00
         -2   -1    0    0    0  501 -0.00000000000E+00  0.00000000000E+00  0.30031061705E+02  0.30031061705E+02  0.00000000000E+00 0.  1.
          2   -1    0    0  501    0  0.00000000000E+00 -0.00000000000E+00 -0.75691349231E+03  0.75691349231E+03  0.00000000000E+00 0. -1.
         25    2    1    2    0    0 -0.15785345789E+02 -0.13507756758E+02 -0.65815150553E+03  0.67025533582E+03  0.12508866591E+03 0.  0.
         23    2    1    2    0    0  0.15785345789E+02  0.13507756758E+02 -0.68730925075E+02  0.11668921819E+03  0.91982590448E+02 0.  0.
          5    1    3    3  502    0 -0.56306703532E+02  0.13187434842E+02 -0.52997912529E+03  0.53314134987E+03  0.41800000000E+01 0. -1.
         -5    1    3    3    0  502  0.40521357743E+02 -0.26695191600E+02 -0.12817238024E+03  0.13711398596E+03  0.41800000000E+01 0. -1.
        -11    1    4    4    0    0 -0.41256122814E+01 -0.26749476303E+02 -0.66414153374E+02  0.71717465987E+02  0.00000000000E+00 0. -1.
         11    1    4    4    0    0  0.19910958070E+02  0.40257233061E+02 -0.23167717007E+01  0.44971752202E+02  0.00000000000E+00 0.  1.
</event>
<event>
 8    1  0.7039283E-009  0.1068842E+03  0.7561462E-02  0.1266451E+00
         -1   -1    0    0    0  501 -0.00000000000E+00  0.00000000000E+00  0.46446985344E+03  0.46446985344E+03  0.00000000000E+00 0.  1.
          1   -1    0    0  501    0  0.00000000000E+00 -0.00000000000E+00 -0.31311757765E+02  0.31311757765E+02  0.00000000000E+00 0. -1.
         25    2    1    2    0    0 -0.48434843265E+02  0.11810706522E+02  0.26767372883E+03  0.29963915322E+03  0.12509584409E+03 0.  0.
         23    2    1    2    0    0  0.48434843265E+02 -0.11810706522E+02  0.16548436685E+03  0.19614245799E+03  0.92743524419E+02 0.  0.
          5    1    3    3  502    0 -0.46578631741E+02  0.54824454311E+02  0.23393174607E+03  0.24477913299E+03  0.41800000000E+01 0. -1.
         -5    1    3    3    0  502 -0.18562115240E+01 -0.43013747789E+02  0.33741982752E+02  0.54860020234E+02  0.41800000000E+01 0. -1.
        -11    1    4    4    0    0  0.46970208541E+02 -0.45107611832E+02  0.13925600929E+03  0.15373071670E+03  0.00000000000E+00 0.  1.
         11    1    4    4    0    0  0.14646347232E+01  0.33296905310E+02  0.26228357567E+02  0.42411741284E+02  0.00000000000E+00 0. -1.
</event>
<event>
 8    1  0.7039283E-009  0.1909683E+03  0.7561462E-02  0.1157591E+00
          2   -1    0    0  501    0  0.00000000000E+00  0.00000000000E+00  0.68880024813E+03  0.68880024813E+03  0.00000000000E+00 0. -1.
         -2   -1    0    0    0  501 -0.00000000000E+00 -0.00000000000E+00 -0.56397388782E+02  0.56397388782E+02  0.00000000000E+00 0.  1.
         25    2    1    2    0    0  0.15902119457E+03  0.38294271986E+02  0.35932003349E+03  0.41414110024E+03  0.12509105826E+03 0.  0.
         23    2    1    2    0    0 -0.15902119457E+03 -0.38294271986E+02  0.27308282586E+03  0.33105653666E+03  0.90939590385E+02 0.  0.
          5    1    3    3  502    0  0.15513562118E+03 -0.23410937173E+01  0.32679406854E+03  0.36177945949E+03  0.41800000000E+01 0. -1.
         -5    1    3    3    0  502  0.38855733919E+01  0.40635365703E+02  0.32525964949E+02  0.52361640752E+02  0.41800000000E+01 0. -1.
        -11    1    4    4    0    0  0.71769877328E+01 -0.16599494505E+02  0.15910235304E+02  0.24087091110E+02  0.00000000000E+00 0.  1.
         11    1    4    4    0    0 -0.16619818230E+03 -0.21694777481E+02  0.25717259055E+03  0.30696944555E+03  0.00000000000E+00 0. -1.
</event>
<event>
 8    1  0.7039283E-009  0.2333006E+03  0.7561462E-02  0.1124338E+00
         -1   -1    0    0    0  501 -0.00000000000E+00  0.00000000000E+00  0.31413862621E+03  0.31413862621E+03  0.00000000000E+00 0.  1.
          1   -1    0    0  501    0  0.00000000000E+00 -0.00000000000E+00 -0.44990244899E+03  0.44990244899E+03  0.00000000000E+00 0. -1.
         25    2    1    2    0    0  0.19407316813E+03  0.82016608545E+02  0.22751605945E+03  0.33437466023E+03  0.12510690401E+03 0.  0.
         23    2    1    2    0    0 -0.19407316813E+03 -0.82016608545E+02 -0.36327988224E+03  0.42966641497E+03  0.90828611410E+02 0.  0.
          5    1    3    3  502    0  0.53241043502E+02 -0.31783319145E+02  0.76501174736E+02  0.98563128121E+02  0.41800000000E+01 0.  1.
         -5    1    3    3    0  502  0.14083212463E+03  0.11379992769E+03  0.15101488472E+03  0.23581153211E+03  0.41800000000E+01 0.  1.
        -11    1    4    4    0    0 -0.12162642434E+03 -0.11378219388E+02 -0.14882304983E+03  0.19253766160E+03  0.00000000000E+00 0. -1.
         11    1    4    4    0    0 -0.72446743791E+02 -0.70638389157E+02 -0.21445683241E+03  0.23712875337E+03  0.00000000000E+00 0.  1.
</event>
<event>
 8    1  0.7039283E-009  0.1590616E+03  0.7561462E-02  0.1189760E+00
         -2   -1    0    0    0  501 -0.00000000000E+00  0.00000000000E+00  0.26409478797E+02  0.26409478797E+02  0.00000000000E+00 0. -1.
          2   -1    0    0  501    0  0.00000000000E+00 -0.00000000000E+00 -0.10065799477E+04  0.10065799477E+04  0.00000000000E+00 0.  1.
         25    2    1    2    0    0  0.12011580912E+03  0.16913824468E+02 -0.51728157567E+03  0.54584086947E+03  0.12509253057E+03 0.  0.
         23    2    1    2    0    0 -0.12011580912E+03 -0.16913824468E+02 -0.46288889321E+03  0.48714855699E+03  0.91289123488E+02 0.  0.
          5    1    3    3  502    0  0.70940526475E+02 -0.52878643422E+02 -0.27595262744E+03  0.28982069322E+03  0.41800000000E+01 0. -1.
         -5    1    3    3    0  502  0.49175282647E+02  0.69792467889E+02 -0.24132894823E+03  0.25602017626E+03  0.41800000000E+01 0. -1.
        -11    1    4    4    0    0  0.25974015154E+01  0.16644909454E+02 -0.19019256157E+02  0.25407314107E+02  0.00000000000E+00 0. -1.
         11    1    4    4    0    0 -0.12271321064E+03 -0.33558733922E+02 -0.44386963705E+03  0.46174124289E+03  0.00000000000E+00 0.  1.
</event>
<event>
 8    1  0.7039283E-009  0.1107730E+03  0.7561462E-02  0.1259145E+00
          1   -1    0    0  501    0  0.00000000000E+00  0.00000000000E+00  0.19536788320E+03  0.19536788320E+03  0.00000000000E+00 0. -1.
         -1   -1    0    0    0  501 -0.00000000000E+00 -0.00000000000E+00 -0.69119301358E+02  0.69119301358E+02  0.00000000000E+00 0.  1.
         25    2    1    2    0    0  0.11768851531E+02  0.41951545005E+02  0.97763421024E+02  0.16463280436E+03  0.12509130980E+03 0.  0.
         23    2    1    2    0    0 -0.11768851531E+02 -0.41951545005E+02  0.28485160817E+02  0.99854380195E+02  0.85211823491E+02 0.  0.
          5    1    3    3  502    0 -0.26263270402E+02 -0.35835823935E+02  0.23235970257E+02  0.50312507025E+02  0.41800000000E+01 0.  1.
         -5    1    3    3    0  502  0.38032121933E+02  0.77787368940E+02  0.74527450767E+02  0.11432029734E+03  0.41800000000E+01 0.  1.
        -11    1    4    4    0    0  0.67957696030E+01  0.22321015663E+02 -0.66871775997E+01  0.24271970850E+02  0.00000000000E+00 0.  1.
         11    1    4    4    0    0 -0.18564621134E+02 -0.64272560668E+02  0.35172338417E+02  0.75582409345E+02  0.00000000000E+00 0. -1.
</event>
<event>
 8    1  0.7039283E-009  0.1052340E+03  0.7561462E-02  0.1269659E+00
          1   -1    0    0  501    0  0.00000000000E+00  0.00000000000E+00  0.13199922236E+03  0.13199922236E+03  0.00000000000E+00 0. -1.
         -1   -1    0    0    0  501 -0.00000000000E+00 -0.00000000000E+00 -0.13299110933E+03  0.13299110933E+03  0.00000000000E+00 0.  1.
         25    2    1    2    0    0 -0.26570047253E+02  0.22270195203E+02  0.67024247754E+02  0.14608406145E+03  0.12508546765E+03 0.  0.
         23    2    1    2    0    0  0.26570047253E+02 -0.22270195203E+02 -0.68016134725E+02  0.11890627024E+03  0.91162368954E+02 0.  0.
          5    1    3    3  502    0 -0.69005181834E+02  0.33671355500E+02  0.15864001463E+02  0.78515057432E+02  0.41800000000E+01 0.  1.
         -5    1    3    3    0  502  0.42435134581E+02 -0.11401160297E+02  0.51160246291E+02  0.67569004015E+02  0.41800000000E+01 0.  1.
        -11    1    4    4    0    0  0.56585037064E+02 -0.15383833299E+02 -0.20178462982E+02  0.62013701025E+02  0.00000000000E+00 0. -1.
         11    1    4    4    0    0 -0.30014989812E+02 -0.68863619038E+01 -0.47837671743E+02  0.56892569211E+02  0.00000000000E+00 0.  1.
</event>
<event>
 8    1  0.7039283E-009  0.1085338E+03  0.7561462E-02  0.1263309E+00
          1   -1    0    0  501    0  0.00000000000E+00  0.00000000000E+00  0.19541143213E+03  0.19541143213E+03  0.00000000000E+00 0. -1.
         -1   -1    0    0    0  501 -0.00000000000E+00 -0.00000000000E+00 -0.81287073958E+02  0.81287073958E+02  0.00000000000E+00 0.  1.
         25    2    1    2    0    0  0.64837283282E+02 -0.85184793488E+01  0.79612682169E+02  0.16205396647E+03  0.12508745378E+03 0.  0.
         23    2    1    2    0    0 -0.64837283282E+02  0.85184793488E+01  0.34511676003E+02  0.11464453962E+03  0.87612081875E+02 0.  0.
          5    1    3    3  502    0 -0.96942696645E+01  0.34813140138E+02 -0.99037614733E+01  0.37702658817E+02  0.41800000000E+01 0. -1.
         -5    1    3    3    0  502  0.74531552946E+02 -0.43331619487E+02  0.89516443642E+02  0.12435130765E+03  0.41800000000E+01 0. -1.
        -11    1    4    4    0    0  0.11883667153E+02  0.12887138362E+02 -0.15132753083E+02  0.23158153986E+02  0.00000000000E+00 0.  1.
         11    1    4    4    0    0 -0.76720950435E+02 -0.43686590133E+01  0.49644429085E+02  0.91486385634E+02  0.00000000000E+00 0. -1.
</event>
<event>
 8    1  0.7039283E-009  0.2301519E+03  0.7561462E-02  0.1126533E+00
          4   -1    0    0  501    0  0.00000000000E+00  0.00000000000E+00  0.29898865303E+03  0.29898865303E+03  0.00000000000E+00 0. -1.
         -4   -1    0    0    0  501 -0.00000000000E+00 -0.00000000000E+00 -0.21806518315E+03  0.21806518315E+03  0.00000000000E+00 0.  1.
         25    2    1    2    0    0 -0.77770531313E+02  0.20569813033E+03 -0.30808262689E+02  0.25486555963E+03  0.12508928042E+03 0.  0.
         23    2    1    2    0    0  0.77770531313E+02 -0.20569813033E+03  0.11173173257E+03  0.26218827655E+03  0.88874832966E+02 0.  0.
          5    1    3    3  502    0 -0.45672990171E+02  0.17086361708E+03  0.28132171467E+02  0.17913483509E+03  0.41800000000E+01 0. -1.
         -5    1    3    3    0  502 -0.32097541143E+02  0.34834513248E+02 -0.58940434157E+02  0.75730724539E+02  0.41800000000E+01 0. -1.
        -11    1    4    4    0    0  0.57190673440E+02 -0.42257353026E+02  0.46768471722E+02  0.85110204797E+02  0.00000000000E+00 0.  1.
         11    1    4    4    0    0  0.20579857873E+02 -0.16344077730E+03  0.64963260852E+02  0.17707807175E+03  0.00000000000E+00 0. -1.
</event>
<event>
 8    1  0.7039283E-009  0.1299582E+03  0.7561462E-02  0.1227518E+00
          1   -1    0    0  501    0  0.00000000000E+00  0.00000000000E+00  0.28346482622E+02  0.28346482622E+02  0.00000000000E+00 0. -1.
         -1   -1    0    0    0  501 -0.00000000000E+00 -0.00000000000E+00 -0.62260502072E+03  0.62260502072E+03  0.00000000000E+00 0.  1.
         25    2    1    2    0    0 -0.73234016768E+02 -0.20026093890E+02 -0.35277214197E+03  0.38191691848E+03  0.12509229720E+03 0.  0.
         23    2    1    2    0    0  0.73234016768E+02  0.20026093890E+02 -0.24148639613E+03  0.26903458487E+03  0.91102484554E+02 0.  0.
          5    1    3    3  502    0 -0.17443612393E+02 -0.66944221542E+02 -0.12766439586E+03  0.14526348055E+03  0.41800000000E+01 0.  1.
         -5    1    3    3    0  502 -0.55790404375E+02  0.46918127651E+02 -0.22510774611E+03  0.23665343793E+03  0.41800000000E+01 0.  1.
        -11    1    4    4    0    0  0.50778342533E+02  0.55743818614E+02 -0.13756713684E+03  0.15687743790E+03  0.00000000000E+00 0.  1.
         11    1    4    4    0    0  0.22455674235E+02 -0.35717724724E+02 -0.10391925929E+03  0.11215714697E+03  0.00000000000E+00 0. -1.
</event>
<event>
 8    1  0.7039283E-009  0.7983708E+02  0.7561462E-02  0.1329514E+00
          1   -1    0    0  501    0  0.00000000000E+00  0.00000000000E+00  0.87314214279E+02  0.87314214279E+02  0.00000000000E+00 0. -1.
         -1   -1    0    0    0  501 -0.00000000000E+00 -0.00000000000E+00 -0.15352995518E+03  0.15352995518E+03  0.00000000000E+00 0.  1.
         25    2    1    2    0    0  0.35154622598E+02  0.19012371952E+02 -0.43068196205E+02  0.13820409012E+03  0.12509269852E+03 0.  0.
         23    2    1    2    0    0 -0.35154622598E+02 -0.19012371952E+02 -0.23147544701E+02  0.10264007934E+03  0.91661656567E+02 0.  0.
          5    1    3    3  502    0 -0.10786533167E+02  0.17849561540E+02 -0.77667884920E+02  0.80527814405E+02  0.41800000000E+01 0. -1.
         -5    1    3    3    0  502  0.45941155765E+02  0.11628104114E+01  0.34599688715E+02  0.57676275715E+02  0.41800000000E+01 0. -1.
        -11    1    4    4    0    0 -0.13719341693E+02 -0.51522328018E+02  0.64799374312E+01  0.53709963787E+02  0.00000000000E+00 0. -1.
         11    1    4    4    0    0 -0.21435280905E+02  0.32509956066E+02 -0.29627482132E+02  0.48930115557E+02  0.00000000000E+00 0.  1.
</event>
<event>
 8    1  0.7039283E-009  0.1182632E+03  0.7561462E-02  0.1245990E+00
          3   -1    0    0  501    0  0.00000000000E+00  0.00000000000E+00  0.52691813618E+03  0.52691813618E+03  0.00000000000E+00 0. -1.
         -3   -1    0    0    0  501 -0.00000000000E+00 -0.00000000000E+00 -0.30676793040E+02  0.30676793040E+02  0.00000000000E+00 0.  1.
         25    2    1    2    0    0 -0.50440864030E+02  0.40686411131E+02  0.30899524460E+03  0.33959517585E+03  0.12508859843E+03 0.  0.
         23    2    1    2    0    0  0.50440864030E+02 -0.40686411131E+02  0.18724609854E+03  0.21799975338E+03  0.90901739467E+02 0.  0.
          5    1    3    3  502    0 -0.59371474412E+02 -0.30202139207E+02  0.11706539164E+03  0.13475503518E+03  0.41800000000E+01 0.  1.
         -5    1    3    3    0  502  0.89306103822E+01  0.70888550338E+02  0.19192985297E+03  0.20484014067E+03  0.41800000000E+01 0.  1.
        -11    1    4    4    0    0  0.11853140286E+02 -0.55595277951E+02  0.53719800490E+02  0.78212203842E+02  0.00000000000E+00 0.  1.
         11    1    4    4    0    0  0.38587723744E+02  0.14908866820E+02  0.13352629805E+03  0.13978754953E+03  0.00000000000E+00 0. -1.
</event>
<event>
 8    1  0.7039283E-009  0.1526004E+03  0.7561462E-02  0.1197314E+00
          1   -1    0    0  501    0  0.00000000000E+00  0.00000000000E+00  0.15403099451E+03  0.15403099451E+03  0.00000000000E+00 0. -1.
         -1   -1    0    0    0  501 -0.00000000000E+00 -0.00000000000E+00 -0.21635484370E+03  0.21635484370E+03  0.00000000000E+00 0.  1.
         25    2    1    2    0    0 -0.43300803972E+02 -0.13663934426E+03 -0.49823497818E+01  0.19030885512E+03  0.12508943403E+03 0.  0.
         23    2    1    2    0    0  0.43300803972E+02  0.13663934426E+03 -0.57341499404E+02  0.18007698309E+03  0.92705999056E+02 0.  0.
          5    1    3    3  502    0 -0.24153571457E+01 -0.11038962514E+03 -0.52399609741E+02  0.12229020726E+03  0.41800000000E+01 0.  1.
         -5    1    3    3    0  502 -0.40885446826E+02 -0.26249719115E+02  0.47417259959E+02  0.68018647868E+02  0.41800000000E+01 0.  1.
        -11    1    4    4    0    0  0.41016038548E+00  0.42364595844E+02 -0.63483447098E+02  0.76322180708E+02  0.00000000000E+00 0.  1.
         11    1    4    4    0    0  0.42890643586E+02  0.94274748415E+02  0.61419476938E+01  0.10375480238E+03  0.00000000000E+00 0. -1.
</event>
<event>
 8    1  0.7039283E-009  0.6977298E+02  0.7561462E-02  0.1360867E+00
         -1   -1    0    0    0  501 -0.00000000000E+00  0.00000000000E+00  0.52172124318E+02  0.52172124318E+02  0.00000000000E+00 0.  1.
          1   -1    0    0  501    0  0.00000000000E+00 -0.00000000000E+00 -0.23100243025E+03  0.23100243025E+03  0.00000000000E+00 0. -1.
         25    2    1    2    0    0  0.31709411820E+01 -0.17664081455E+02 -0.10789949982E+03  0.16616756568E+03  0.12508910097E+03 0.  0.
         23    2    1    2    0    0 -0.31709411820E+01  0.17664081455E+02 -0.70930806111E+02  0.11700698889E+03  0.91309263228E+02 0.  0.
          5    1    3    3  502    0 -0.35627200827E+01  0.13820056936E+02 -0.12741983214E+03  0.12828473397E+03  0.41800000000E+01 0. -1.
         -5    1    3    3    0  502  0.67336612647E+01 -0.31484138392E+02  0.19520332319E+02  0.37882831707E+02  0.41800000000E+01 0. -1.
        -11    1    4    4    0    0 -0.46338273869E+02  0.23251553487E+01 -0.43566434876E+02  0.63644922974E+02  0.00000000000E+00 0.  1.
         11    1    4    4    0    0  0.43167332687E+02  0.15338926106E+02 -0.27364371235E+02  0.53362065913E+02  0.00000000000E+00 0. -1.
</event>
<event>
 8    1  0.7039283E-009  0.9988853E+02  0.7561462E-02  0.1280531E+00
         -1   -1    0    0    0  501 -0.00000000000E+00  0.00000000000E+00  0.14479427947E+03  0.14479427947E+03  0.00000000000E+00 0.  1.
          1   -1    0    0  501    0  0.00000000000E+00 -0.00000000000E+00 -0.10694249181E+03  0.10694249181E+03  0.00000000000E+00 0. -1.
         25    2    1    2    0    0 -0.46428849133E+02 -0.39755696936E+02  0.16882241323E+02  0.14024721597E+03  0.12509243800E+03 0.  0.
         23    2    1    2    0    0  0.46428849133E+02  0.39755696936E+02  0.20969546341E+02  0.11148955532E+03  0.90851778193E+02 0.  0.
          5    1    3    3  502    0  0.16981070677E+02 -0.99587279718E+01  0.56272452494E+02  0.59762817319E+02  0.41800000000E+01 0. -1.
         -5    1    3    3    0  502 -0.63409919810E+02 -0.29796968964E+02 -0.39390211171E+02  0.80484398649E+02  0.41800000000E+01 0. -1.
        -11    1    4    4    0    0 -0.48575736923E+01 -0.25788016244E+02  0.62162743204E+01  0.26967756125E+02  0.00000000000E+00 0.  1.
         11    1    4    4    0    0  0.51286422825E+02  0.65543713180E+02  0.14753272020E+02  0.84521799194E+02  0.00000000000E+00 0. -1.
</event>
<event>
 8    1  0.7039283E-009  0.1086025E+03  0.7561462E-02  0.1263180E+00
          1   -1    0    0  501    0  0.00000000000E+00  0.00000000000E+00  0.11392175556E+02  0.11392175556E+02  0.00000000000E+00 0. -1.
         -1   -1    0    0    0  501 -0.00000000000E+00 -0.00000000000E+00 -0.10407149205E+04  0.10407149205E+04  0.00000000000E+00 0.  1.
         25    2    1    2    0    0 -0.36039091271E+01 -0.44233638116E+01 -0.57210002639E+03  0.58564289533E+03  0.12508639554E+03 0.  0.
         23    2    1    2    0    0  0.36039091271E+01  0.44233638116E+01 -0.45722271860E+03  0.46646420077E+03  0.92215410251E+02 0.  0.
          5    1    3    3  502    0 -0.46144313695E+02 -0.45927306414E+02 -0.27562926437E+03  0.28324473329E+03  0.41800000000E+01 0.  1.
         -5    1    3    3    0  502  0.42540404568E+02  0.41503942603E+02 -0.29647076202E+03  0.30239816204E+03  0.41800000000E+01 0.  1.
        -11    1    4    4    0    0  0.26341805341E+02 -0.36830732233E+02 -0.22163618656E+03  0.22621448392E+03  0.00000000000E+00 0.  1.
         11    1    4    4    0    0 -0.22737896214E+02  0.41254096044E+02 -0.23558653204E+03  0.24024971684E+03  0.00000000000E+00 0. -1.
</event>
<event>
 8    1  0.7039283E-009  0.1638921E+03  0.7561462E-02  0.1184371E+00
         -1   -1    0    0    0  501 -0.00000000000E+00  0.00000000000E+00  0.12723629901E+04  0.12723629901E+04  0.00000000000E+00 0.  1.
          1   -1    0    0  501    0  0.00000000000E+00 -0.00000000000E+00 -0.34409728261E+02  0.34409728261E+02  0.00000000000E+00 0. -1.
         25    2    1    2    0    0 -0.12839911159E+03 -0.38704795806E+02  0.10147784227E+04  0.10312164214E+04  0.12509063717E+03 0.  0.
         23    2    1    2    0    0  0.12839911159E+03  0.38704795806E+02  0.22317483912E+03  0.27555629694E+03  0.90221233048E+02 0.  0.
          5    1    3    3  502    0 -0.10661121400E+03  0.20352470909E+02  0.44988382572E+03  0.46281000752E+03  0.41800000000E+01 0. -1.
         -5    1    3    3    0  502 -0.21787897598E+02 -0.59057266715E+02  0.56489459703E+03  0.56840641392E+03  0.41800000000E+01 0. -1.
        -11    1    4    4    0    0  0.12620648745E+03  0.56410255821E+02  0.21573594107E+03  0.25622683448E+03  0.00000000000E+00 0.  1.
         11    1    4    4    0    0  0.21926241454E+01 -0.17705460015E+02  0.74388980420E+01  0.19329462462E+02  0.00000000000E+00 0. -1.
</event>
<event>
 8    1  0.7039283E-009  0.8316116E+02  0.7561462E-02  0.1320313E+00
          1   -1    0    0  501    0  0.00000000000E+00  0.00000000000E+00  0.50681633364E+03  0.50681633364E+03  0.00000000000E+00 0. -1.
         -1   -1    0    0    0  501 -0.00000000000E+00 -0.00000000000E+00 -0.25335459194E+02  0.25335459194E+02  0.00000000000E+00 0.  1.
         25    2    1    2    0    0 -0.19891615348E+02 -0.27841877841E+02  0.26197720109E+03  0.29231901450E+03  0.12508999090E+03 0.  0.
         23    2    1    2    0    0  0.19891615348E+02  0.27841877841E+02  0.21950367336E+03  0.23983277834E+03  0.90371745725E+02 0.  0.
          5    1    3    3  502    0  0.22341778157E+02 -0.24954912859E+02  0.24369037895E+03  0.24601702364E+03  0.41800000000E+01 0. -1.
         -5    1    3    3    0  502 -0.42233393504E+02 -0.28869649823E+01  0.18286822144E+02  0.46301990863E+02  0.41800000000E+01 0. -1.
        -11    1    4    4    0    0  0.43678013361E+02 -0.10487671637E+02  0.65983572218E+02  0.79822251974E+02  0.00000000000E+00 0.  1.
         11    1    4    4    0    0 -0.23786398014E+02  0.38329549478E+02  0.15352010114E+03  0.16001052636E+03  0.00000000000E+00 0. -1.
</event>
<event>
 8    1  0.7039283E-009  0.1319853E+03  0.7561462E-02  0.1224539E+00
          2   -1    0    0  501    0  0.00000000000E+00  0.00000000000E+00  0.33175778023E+03  0.33175778023E+03  0.00000000000E+00 0. -1.
         -2   -1    0    0    0  501 -0.00000000000E+00 -0.00000000000E+00 -0.89583198837E+02  0.89583198837E+02  0.00000000000E+00 0.  1.
         25    2    1    2    0    0 -0.11081192390E+03 -0.64803375356E+02  0.89267459143E+02  0.20023669024E+03  0.12508913990E+03 0.  0.
         23    2    1    2    0    0  0.11081192390E+03  0.64803375356E+02  0.15290712225E+03  0.22110428882E+03  0.95014517657E+02 0.  0.
          5    1    3    3  502    0 -0.35300220607E+02  0.54499657126E+00  0.93670768266E+02  0.10019025813E+03  0.41800000000E+01 0. -1.
         -5    1    3    3    0  502 -0.75511703292E+02 -0.65348371927E+02 -0.44033091234E+01  0.10004643211E+03  0.41800000000E+01 0. -1.
        -11    1    4    4    0    0  0.66443929070E+02  0.41726814557E+02  0.22782698831E+02  0.81700514866E+02  0.00000000000E+00 0.  1.
         11    1    4    4    0    0  0.44367994830E+02  0.23076560799E+02  0.13012442342E+03  0.13940377396E+03  0.00000000000E+00 0. -1.
</event>
<event>
 8    1  0.7039283E-009  0.1201659E+03  0.7561462E-02  0.1242824E+00
          2   -1    0    0  501    0  0.00000000000E+00  0.00000000000E+00  0.97746100055E+03  0.97746100055E+03  0.00000000000E+00 0. -1.
         -2   -1    0    0    0  501 -0.00000000000E+00 -0.00000000000E+00 -0.22468103614E+02  0.22468103614E+02  0.00000000000E+00 0.  1.
         25    2    1    2    0    0 -0.14554737641E+02  0.72930644181E+02  0.74717619485E+03  0.76121656916E+03  0.12509068614E+03 0.  0.
         23    2    1    2    0    0  0.14554737641E+02 -0.72930644181E+02  0.20781670208E+03  0.23871253501E+03  0.90912999377E+02 0.  0.
          5    1    3    3  502    0 -0.62725436048E+02  0.41282168606E+02  0.26104925821E+03  0.27166686471E+03  0.41800000000E+01 0.  1.
         -5    1    3    3    0  502  0.48170698408E+02  0.31648475575E+02  0.48612693664E+03  0.48954970444E+03  0.41800000000E+01 0.  1.
        -11    1    4    4    0    0 -0.31593591996E+02 -0.21387274938E+02  0.32075251056E+02  0.49843678784E+02  0.00000000000E+00 0.  1.
         11    1    4    4    0    0  0.46148329636E+02 -0.51543369243E+02  0.17574145103E+03  0.18886885622E+03  0.00000000000E+00 0. -1.
</event>
<event>
 8    1  0.7039283E-009  0.1486309E+03  0.7561462E-02  0.1202165E+00
          1   -1    0    0  501    0  0.00000000000E+00  0.00000000000E+00  0.62970100552E+03  0.62970100552E+03  0.00000000000E+00 0. -1.
         -1   -1    0    0    0  501 -0.00000000000E+00 -0.00000000000E+00 -0.36309527176E+02  0.36309527176E+02  0.00000000000E+00 0.  1.
         25    2    1    2    0    0 -0.10201677060E+03 -0.36725496545E+01  0.37022952176E+03  0.40390505223E+03  0.12509389803E+03 0.  0.
         23    2    1    2    0    0  0.10201677060E+03  0.36725496545E+01  0.22316195658E+03  0.26210548047E+03  0.92071249163E+02 0.  0.
          5    1    3    3  502    0  0.13743171185E+02 -0.36650387583E+02  0.68161033102E+02  0.78711654142E+02  0.41800000000E+01 0. -1.
         -5    1    3    3    0  502 -0.11575994178E+03  0.32977837929E+02  0.30206848866E+03  0.32519339809E+03  0.41800000000E+01 0. -1.
        -11    1    4    4    0    0  0.12315968800E+02  0.39116228465E+02  0.68128396181E+02  0.79518807731E+02  0.00000000000E+00 0.  1.
         11    1    4    4    0    0  0.89700801800E+02 -0.35443678811E+02  0.15503356040E+03  0.18258667273E+03  0.00000000000E+00 0. -1.
</event>
<event>
 8    1  0.7039283E-009  0.8008366E+02  0.7561462E-02  0.1328814E+00
         -1   -1    0    0    0  501 -0.00000000000E+00  0.00000000000E+00  0.11074638969E+03  0.11074638969E+03  0.00000000000E+00 0.  1.
          1   -1    0    0  501    0  0.00000000000E+00 -0.00000000000E+00 -0.14448332039E+03  0.14448332039E+03  0.00000000000E+00 0. -1.
         25    2    1    2    0    0  0.43754928266E+02 -0.21104365731E+02  0.25275129487E+02  0.13654844078E+03  0.12508699576E+03 0.  0.
         23    2    1    2    0    0 -0.43754928266E+02  0.21104365731E+02 -0.59012060181E+02  0.11868126930E+03  0.90790596621E+02 0.  0.
          5    1    3    3  502    0 -0.89338208652E+01  0.14044193180E+02 -0.41202628049E+02  0.44633860190E+02  0.41800000000E+01 0.  1.
         -5    1    3    3    0  502  0.52688749131E+02 -0.35148558911E+02  0.66477757536E+02  0.91914580592E+02  0.41800000000E+01 0.  1.
        -11    1    4    4    0    0  0.12046488425E+02  0.20440096777E+02  0.13409469615E+02  0.27253060653E+02  0.00000000000E+00 0.  1.
         11    1    4    4    0    0 -0.55801416691E+02  0.66426895413E+00 -0.72421529796E+02  0.91428208644E+02  0.00000000000E+00 0. -1.
</event>
<event>
 8    1  0.7039283E-009  0.1392862E+03  0.7561462E-02  0.1214293E+00
          1   -1    0    0  501    0  0.00000000000E+00  0.00000000000E+00  0.95309754899E+02  0.95309754899E+02  0.00000000000E+00 0. -1.
         -1   -1    0    0    0  501 -0.00000000000E+00 -0.00000000000E+00 -0.26345663778E+03  0.26345663778E+03  0.00000000000E+00 0.  1.
         25    2    1    2    0    0  0.11139921451E+03 -0.21018889508E+02 -0.11107154171E+03  0.20207834368E+03  0.12508873210E+03 0.  0.
         23    2    1    2    0    0 -0.11139921451E+03  0.21018889508E+02 -0.57075341168E+02  0.15668804900E+03  0.91880201459E+02 0.  0.
          5    1    3    3  502    0  0.52416446018E+02 -0.58401084123E+02 -0.10087152965E+02  0.79230003754E+02  0.41800000000E+01 0. -1.
         -5    1    3    3    0  502  0.58982768488E+02  0.37382194615E+02 -0.10098438875E+03  0.12284833993E+03  0.41800000000E+01 0. -1.
        -11    1    4    4    0    0 -0.53051105510E+02  0.42375009499E+02  0.59842846104E+01  0.68160640315E+02  0.00000000000E+00 0. -1.
         11    1    4    4    0    0 -0.58348108996E+02 -0.21356119991E+02 -0.63059625778E+02  0.88527408681E+02  0.00000000000E+00 0.  1.
</event>
<event>
 8    1  0.7039283E-009  0.7906343E+02  0.7561462E-02  0.1331730E+00
          2   -1    0    0  501    0  0.00000000000E+00  0.00000000000E+00  0.12436739108E+03  0.12436739108E+03  0.00000000000E+00 0. -1.
         -2   -1    0    0    0  501 -0.00000000000E+00 -0.00000000000E+00 -0.98572595669E+02  0.98572595669E+02  0.00000000000E+00 0.  1.
         25    2    1    2    0    0  0.16489445833E+02  0.23976731136E+01 -0.83426037203E+01  0.12645703352E+03  0.12507650311E+03 0.  0.
         23    2    1    2    0    0 -0.16489445833E+02 -0.23976731136E+01  0.34137399127E+02  0.96482953226E+02  0.88690177493E+02 0.  0.
          5    1    3    3  502    0 -0.48802396732E+01 -0.55016977347E+02 -0.27889406572E+02  0.62015932909E+02  0.41800000000E+01 0. -1.
         -5    1    3    3    0  502  0.21369685506E+02  0.57414650460E+02  0.19546802852E+02  0.64441100610E+02  0.41800000000E+01 0. -1.
        -11    1    4    4    0    0 -0.26990012650E+02 -0.95456431335E+01  0.60659565134E+02  0.67075799868E+02  0.00000000000E+00 0. -1.
         11    1    4    4    0    0  0.10500566817E+02  0.71479700199E+01 -0.26522166007E+02  0.29407153357E+02  0.00000000000E+00 0.  1.
</event>
<event>
 8    1  0.7039283E-009  0.1862522E+03  0.7561462E-02  0.1161886E+00
         -2   -1    0    0    0  501 -0.00000000000E+00  0.00000000000E+00  0.29933031188E+02  0.29933031188E+02  0.00000000000E+00 0.  1.
          2   -1    0    0  501    0  0.00000000000E+00 -0.00000000000E+00 -0.11658763634E+04  0.11658763634E+04  0.00000000000E+00 0. -1.
         25    2    1    2    0    0  0.84097674903E+02 -0.12631838117E+03 -0.57018153362E+03  0.60314440345E+03  0.12508971897E+03 0.  0.
         23    2    1    2    0    0 -0.84097674903E+02  0.12631838117E+03 -0.56576179860E+03  0.59266499114E+03  0.90203251740E+02 0.  0.
          5    1    3    3  502    0  0.96957648070E+02 -0.34156822563E+02 -0.27504536776E+03  0.29365779535E+03  0.41800000000E+01 0. -1.
         -5    1    3    3    0  502 -0.12859973167E+02 -0.92161558602E+02 -0.29513616586E+03  0.30948660810E+03  0.41800000000E+01 0. -1.
        -11    1    4    4    0    0 -0.10345961677E+03  0.11138343349E+03 -0.48169689026E+03  0.50511588339E+03  0.00000000000E+00 0.  1.
         11    1    4    4    0    0  0.19361941871E+02  0.14934947674E+02 -0.84064908333E+02  0.87549107752E+02  0.00000000000E+00 0. -1.
</event>
<event>
 8    1  0.7039283E-009  0.1238491E+03  0.7561462E-02  0.1236879E+00
         -2   -1    0    0    0  501 -0.00000000000E+00  0.00000000000E+00  0.10816965669E+03  0.10816965669E+03  0.00000000000E+00 0.  1.
          2   -1    0    0  501    0  0.00000000000E+00 -0.00000000000E+00 -0.18916788153E+03  0.18916788153E+03  0.00000000000E+00 0. -1.
         25    2    1    2    0    0  0.82864591083E+02  0.29352077442E+02 -0.16754386602E+02  0.15380879692E+03  0.12509337166E+03 0.  0.
         23    2    1    2    0    0 -0.82864591083E+02 -0.29352077442E+02 -0.64243838237E+02  0.14352874130E+03  0.93515474233E+02 0.  0.
          5    1    3    3  502    0  0.98242379390E+02  0.58482946372E+02  0.43041112000E+01  0.11448937897E+03  0.41800000000E+01 0. -1.
         -5    1    3    3    0  502 -0.15377788307E+02 -0.29130868930E+02 -0.21058497802E+02  0.39319417945E+02  0.41800000000E+01 0. -1.
        -11    1    4    4    0    0 -0.48738581379E+02 -0.41345094438E+02  0.63293334599E+01  0.64225591558E+02  0.00000000000E+00 0.  1.
         11    1    4    4    0    0 -0.34126009704E+02  0.11993016996E+02 -0.70573171697E+02  0.79303149738E+02  0.00000000000E+00 0. -1.
</event>
<event>
 8    1  0.7039283E-009  0.1501061E+03  0.7561462E-02  0.1200343E+00
          2   -1    0    0  501    0  0.00000000000E+00  0.00000000000E+00  0.19882384060E+04  0.19882384060E+04  0.00000000000E+00 0.  1.
         -2   -1    0    0    0  501 -0.00000000000E+00 -0.00000000000E+00 -0.26690514852E+02  0.26690514852E+02  0.00000000000E+00 0. -1.
         25    2    1    2    0    0  0.12780832470E+03 -0.39464793770E+02  0.16769772637E+04  0.16869474839E+04  0.12508650036E+03 0.  0.
         23    2    1    2    0    0 -0.12780832470E+03  0.39464793770E+02  0.28457062742E+03  0.32798143695E+03  0.93268125233E+02 0.  0.
          5    1    3    3  502    0 -0.16645144351E+02 -0.32691178206E+01  0.53607981426E+03  0.53636441681E+03  0.41800000000E+01 0.  1.
         -5    1    3    3    0  502  0.14445346905E+03 -0.36195675950E+02  0.11408974494E+04  0.11505830671E+04  0.41800000000E+01 0.  1.
        -11    1    4    4    0    0 -0.10292219903E+03  0.31547987218E+02  0.28187062085E+03  0.30172719706E+03  0.00000000000E+00 0.  1.
         11    1    4    4    0    0 -0.24886125663E+02  0.79168065518E+01  0.27000065729E+01  0.26254239886E+02  0.00000000000E+00 0. -1.
</event>
<event>
 8    1  0.7039283E-009  0.1908654E+03  0.7561462E-02  0.1157683E+00
         -2   -1    0    0    0  501 -0.00000000000E+00  0.00000000000E+00  0.40553434223E+02  0.40553434223E+02  0.00000000000E+00 0.  1.
          2   -1    0    0  501    0  0.00000000000E+00 -0.00000000000E+00 -0.15729518134E+04  0.15729518134E+04  0.00000000000E+00 0. -1.
         25    2    1    2    0    0  0.17846510244E+03 -0.59068113693E+02 -0.11984911125E+04  0.12195763819E+04  0.12508704806E+03 0.  0.
         23    2    1    2    0    0 -0.17846510244E+03  0.59068113693E+02 -0.33390726669E+03  0.39392886579E+03  0.91362211578E+02 0.  0.
          5    1    3    3  502    0  0.63822339152E+02  0.95795129654E+00 -0.14928967853E+03  0.16241640669E+03  0.41800000000E+01 0.  1.
         -5    1    3    3    0  502  0.11464276329E+03 -0.60026064989E+02 -0.10492014340E+04  0.10571599752E+04  0.41800000000E+01 0.  1.
        -11    1    4    4    0    0 -0.14068392881E+03  0.41895611268E+02 -0.16885546213E+03  0.22373952972E+03  0.00000000000E+00 0.  1.
         11    1    4    4    0    0 -0.37781173631E+02  0.17172502425E+02 -0.16505180456E+03  0.17018933607E+03  0.00000000000E+00 0. -1.
</event>
<event>
 8    1  0.7039283E-009  0.6450240E+02  0.7561462E-02  0.1379853E+00
          2   -1    0    0  501    0  0.00000000000E+00  0.00000000000E+00  0.37672399539E+03  0.37672399539E+03  0.00000000000E+00 0. -1.
         -2   -1    0    0    0  501 -0.00000000000E+00 -0.00000000000E+00 -0.34387797987E+02  0.34387797987E+02  0.00000000000E+00 0.  1.
         25    2    1    2    0    0  0.26491651185E+02  0.21813871345E+02  0.19047180417E+03  0.23044734137E+03  0.12509522930E+03 0.  0.
         23    2    1    2    0    0 -0.26491651185E+02 -0.21813871345E+02  0.15186439324E+03  0.18066445201E+03  0.91647137011E+02 0.  0.
          5    1    3    3  502    0 -0.76514446916E+01  0.33789506177E+02 -0.16190917533E+01  0.34933782957E+02  0.41800000000E+01 0.  1.
         -5    1    3    3    0  502  0.34143095877E+02 -0.11975634832E+02  0.19209089592E+03  0.19551355841E+03  0.41800000000E+01 0.  1.
        -11    1    4    4    0    0 -0.26783105999E+02  0.79360675740E+01  0.21435635395E+01  0.28016259567E+02  0.00000000000E+00 0.  1.
         11    1    4    4    0    0  0.29145481341E+00 -0.29749938919E+02  0.14972082970E+03  0.15264819245E+03  0.00000000000E+00 0. -1.
</event>
<event>
 8    1  0.7039283E-009  0.1032599E+03  0.7561462E-02  0.1273586E+00
          2   -1    0    0  501    0  0.00000000000E+00  0.00000000000E+00  0.27416932670E+03  0.27416932670E+03  0.00000000000E+00 0. -1.
         -2   -1    0    0    0  501 -0.00000000000E+00 -0.00000000000E+00 -0.64425479479E+02  0.64425479479E+02  0.00000000000E+00 0.  1.
         25    2    1    2    0    0 -0.39548381041E+01  0.22208195236E+02  0.22841830476E+02  0.12915132195E+03  0.12509784195E+03 0.  0.
         23    2    1    2    0    0  0.39548381041E+01 -0.22208195236E+02  0.18690201675E+03  0.20944348423E+03  0.91789784525E+02 0.  0.
          5    1    3    3  502    0  0.57057789440E+02  0.16990206045E+02  0.30970308092E+02  0.67237570008E+02  0.41800000000E+01 0. -1.
         -5    1    3    3    0  502 -0.61012627544E+02  0.52179891907E+01 -0.81284776161E+01  0.61913751941E+02  0.41800000000E+01 0. -1.
        -11    1    4    4    0    0  0.22421473879E+02  0.25706950011E+02  0.34053338167E+02  0.48199581016E+02  0.00000000000E+00 0.  1.
         11    1    4    4    0    0 -0.18466635774E+02 -0.47915145247E+02  0.15284867858E+03  0.16124390321E+03  0.00000000000E+00 0. -1.
</event>
<event>
 8    1  0.7039283E-009  0.2092504E+03  0.7561462E-02  0.1142161E+00
         -2   -1    0    0    0  501 -0.00000000000E+00  0.00000000000E+00  0.22837273498E+03  0.22837273498E+03  0.00000000000E+00 0. -1.
          2   -1    0    0  501    0  0.00000000000E+00 -0.00000000000E+00 -0.23234302688E+03  0.23234302688E+03  0.00000000000E+00 0.  1.
         25    2    1    2    0    0  0.13425977759E+03  0.12232538241E+03 -0.92128446787E+02  0.23900764144E+03  0.12509122631E+03 0.  0.
         23    2    1    2    0    0 -0.13425977759E+03 -0.12232538241E+03  0.88158154883E+02  0.22170812043E+03  0.91615737362E+02 0.  0.
          5    1    3    3  502    0  0.56976499160E+02 -0.13542404800E+02 -0.49866113668E+02  0.77031291542E+02  0.41800000000E+01 0. -1.
         -5    1    3    3    0  502  0.77283278425E+02  0.13586778721E+03 -0.42262333119E+02  0.16197634989E+03  0.41800000000E+01 0. -1.
        -11    1    4    4    0    0  0.50193602576E+01 -0.42689917459E+02  0.19251739852E+02  0.47098328181E+02  0.00000000000E+00 0. -1.
         11    1    4    4    0    0 -0.13927913784E+03 -0.79635464947E+02  0.68906415031E+02  0.17460979225E+03  0.00000000000E+00 0.  1.
</event>
<event>
 8    1  0.7039283E-009  0.9249339E+02  0.7561462E-02  0.1296923E+00
          1   -1    0    0  501    0  0.00000000000E+00  0.00000000000E+00  0.10209300985E+03  0.10209300985E+03  0.00000000000E+00 0. -1.
         -1   -1    0    0    0  501 -0.00000000000E+00 -0.00000000000E+00 -0.14846769258E+03  0.14846769258E+03  0.00000000000E+00 0.  1.
         25    2    1    2    0    0  0.78740596156E+01 -0.38902973369E+02  0.18713040330E+02  0.13256494967E+03  0.12509135002E+03 0.  0.
         23    2    1    2    0    0 -0.78740596156E+01  0.38902973369E+02 -0.65087723064E+02  0.11799575276E+03  0.90061888853E+02 0.  0.
          5    1    3    3  502    0 -0.29140699116E+02  0.24138984832E+02  0.41072445448E+02  0.56002581269E+02  0.41800000000E+01 0. -1.
         -5    1    3    3    0  502  0.37014758732E+02 -0.63041958201E+02 -0.22359405118E+02  0.76562368400E+02  0.41800000000E+01 0. -1.
        -11    1    4    4    0    0  0.23733830323E+02  0.34358656500E+02 -0.73888420710E+02  0.84872319948E+02  0.00000000000E+00 0.  1.
         11    1    4    4    0    0 -0.31607889938E+02  0.45443168694E+01  0.88006976460E+01  0.33123432811E+02  0.00000000000E+00 0. -1.
</event>
<event>
 8    1  0.7039283E-009  0.9757613E+02  0.7561462E-02  0.1285477E+00
          1   -1    0    0  501    0  0.00000000000E+00  0.00000000000E+00  0.55380768294E+03  0.55380768294E+03  0.00000000000E+00 0. -1.
         -1   -1    0    0    0  501 -0.00000000000E+00 -0.00000000000E+00 -0.40421460227E+02  0.40421460227E+02  0.00000000000E+00 0.  1.
         25    2    1    2    0    0  0.18781446565E+02 -0.66458288402E+02  0.43128637212E+03  0.45434003842E+03  0.12508992326E+03 0.  0.
         23    2    1    2    0    0 -0.18781446565E+02  0.66458288402E+02  0.82099850592E+02  0.13988910475E+03  0.89772653562E+02 0.  0.
          5    1    3    3  502    0  0.43832185720E+02 -0.44031660040E+02  0.40916501993E+03  0.41387622971E+03  0.41800000000E+01 0. -1.
         -5    1    3    3    0  502 -0.25050739155E+02 -0.22426628362E+02  0.22121352192E+02  0.40463808702E+02  0.41800000000E+01 0. -1.
        -11    1    4    4    0    0 -0.41948484918E+02  0.18715607868E+02  0.48797080148E+01  0.46192650011E+02  0.00000000000E+00 0.  1.
         11    1    4    4    0    0  0.23167038352E+02  0.47742680534E+02  0.77220142578E+02  0.93696454737E+02  0.00000000000E+00 0. -1.
</event>
<event>
 8    1  0.7039283E-009  0.1114751E+03  0.7561462E-02  0.1257862E+00
          1   -1    0    0  501    0  0.00000000000E+00  0.00000000000E+00  0.57048310429E+02  0.57048310429E+02  0.00000000000E+00 0. -1.
         -1   -1    0    0    0  501 -0.00000000000E+00 -0.00000000000E+00 -0.24367167565E+03  0.24367167565E+03  0.00000000000E+00 0.  1.
         25    2    1    2    0    0 -0.35716520592E+02 -0.35727822312E+02 -0.11357442192E+03  0.17633712454E+03  0.12507391832E+03 0.  0.
         23    2    1    2    0    0  0.35716520592E+02  0.35727822312E+02 -0.73048943303E+02  0.12438286155E+03  0.87079279961E+02 0.  0.
          5    1    3    3  502    0  0.11458998567E+02 -0.73338842169E+02 -0.59860779916E+02  0.95449881042E+02  0.41800000000E+01 0. -1.
         -5    1    3    3    0  502 -0.47175519159E+02  0.37611019856E+02 -0.53713642005E+02  0.80887243494E+02  0.41800000000E+01 0. -1.
        -11    1    4    4    0    0  0.18128574435E+02  0.57411771602E+02 -0.75256331783E+02  0.96375682633E+02  0.00000000000E+00 0.  1.
         11    1    4    4    0    0  0.17587946157E+02 -0.21683949290E+02  0.22073884800E+01  0.28007178914E+02  0.00000000000E+00 0. -1.
</event>
<event>
 8    1  0.7039283E-009  0.9627531E+02  0.7561462E-02  0.1288329E+00
          2   -1    0    0  501    0  0.00000000000E+00  0.00000000000E+00  0.18886433494E+03  0.18886433494E+03  0.00000000000E+00 0.  1.
         -2   -1    0    0    0  501 -0.00000000000E+00 -0.00000000000E+00 -0.10932015925E+03  0.10932015925E+03  0.00000000000E+00 0. -1.
         25    2    1    2    0    0  0.44931737867E+02  0.38200033822E+02 -0.28860637295E+02  0.14127596802E+03  0.12509140300E+03 0.  0.
         23    2    1    2    0    0 -0.44931737867E+02 -0.38200033822E+02  0.10840481299E+03  0.15690852617E+03  0.96904997050E+02 0.  0.
          5    1    3    3  502    0  0.56666962423E+02  0.31079739335E+02 -0.71390565096E+02  0.96390767255E+02  0.41800000000E+01 0. -1.
         -5    1    3    3    0  502 -0.11735224556E+02  0.71202944872E+01  0.42529927802E+02  0.44885200765E+02  0.41800000000E+01 0. -1.
        -11    1    4    4    0    0 -0.75852334519E+02 -0.28504368876E+02  0.78016330163E+02  0.11248388093E+03  0.00000000000E+00 0.  1.
         11    1    4    4    0    0  0.30920596652E+02 -0.96956649466E+01  0.30388482823E+02  0.44424645236E+02  0.00000000000E+00 0. -1.
</event>
<event>
 8    1  0.7039283E-009  0.1475029E+03  0.7561462E-02  0.1203575E+00
         -2   -1    0    0    0  501 -0.00000000000E+00  0.00000000000E+00  0.36418015677E+02  0.36418015677E+02  0.00000000000E+00 0.  1.
          2   -1    0    0  501    0  0.00000000000E+00 -0.00000000000E+00 -0.69022293681E+03  0.69022293681E+03  0.00000000000E+00 0. -1.
         25    2    1    2    0    0 -0.80653026689E+02 -0.68571894835E+02 -0.24676711530E+03  0.29622385252E+03  0.12509015201E+03 0.  0.
         23    2    1    2    0    0  0.80653026689E+02  0.68571894835E+02 -0.40703780583E+03  0.43041709997E+03  0.91499120746E+02 0.  0.
          5    1    3    3  502    0 -0.55972885029E+01  0.30719219504E+02 -0.19439350053E+02  0.37018384838E+02  0.41800000000E+01 0.  1.
         -5    1    3    3    0  502 -0.75055738186E+02 -0.99291114339E+02 -0.22732776525E+03  0.25920546768E+03  0.41800000000E+01 0.  1.
        -11    1    4    4    0    0  0.63407007512E+02 -0.48046532065E+01 -0.21157621316E+03  0.22092538847E+03  0.00000000000E+00 0.  1.
         11    1    4    4    0    0  0.17246019177E+02  0.73376548041E+02 -0.19546159267E+03  0.20949171150E+03  0.00000000000E+00 0. -1.
</event>
<event>
 8    1  0.7039283E-009  0.9798784E+02  0.7561462E-02  0.1284585E+00
         -3   -1    0    0    0  501 -0.00000000000E+00  0.00000000000E+00  0.76619356340E+02  0.76619356340E+02  0.00000000000E+00 0.  1.
          3   -1    0    0  501    0  0.00000000000E+00 -0.00000000000E+00 -0.16758295293E+03  0.16758295293E+03  0.00000000000E+00 0. -1.
         25    2    1    2    0    0 -0.60655401754E+01  0.27340594391E+02 -0.29444221774E+02  0.13151479451E+03  0.12507949512E+03 0.  0.
         23    2    1    2    0    0  0.60655401754E+01 -0.27340594391E+02 -0.61519374814E+02  0.11268751476E+03  0.90163981869E+02 0.  0.
          5    1    3    3  502    0 -0.64622894178E+02  0.64658664926E+01 -0.77545037050E+01  0.65540297597E+02  0.41800000000E+01 0. -1.
         -5    1    3    3    0  502  0.58557354002E+02  0.20874727898E+02 -0.21689718069E+02  0.65974496910E+02  0.41800000000E+01 0. -1.
        -11    1    4    4    0    0  0.88131975262E+01 -0.47465575138E+02 -0.39687141010E+00  0.48278471193E+02  0.00000000000E+00 0.  1.
         11    1    4    4    0    0 -0.27476573508E+01  0.20124980747E+02 -0.61122503404E+02  0.64409043569E+02  0.00000000000E+00 0. -1.
</event>
<event>
 8    1  0.7039283E-009  0.9737631E+02  0.7561462E-02  0.1285912E+00
         -2   -1    0    0    0  501 -0.00000000000E+00  0.00000000000E+00  0.24606957194E+02  0.24606957194E+02  0.00000000000E+00 0.  1.
          2   -1    0    0  501    0  0.00000000000E+00 -0.00000000000E+00 -0.84667682707E+03  0.84667682707E+03  0.00000000000E+00 0. -1.
         25    2    1    2    0    0  0.12805812824E+02 -0.57582213224E+01 -0.72717216614E+03  0.73798594554E+03  0.12508697235E+03 0.  0.
         23    2    1    2    0    0 -0.12805812824E+02  0.57582213224E+01 -0.94897703741E+02  0.13329783873E+03  0.92550492594E+02 0.  0.
          5    1    3    3  502    0  0.46621847513E+02  0.36726903410E+02 -0.22018053241E+03  0.22807762133E+03  0.41800000000E+01 0.  1.
         -5    1    3    3    0  502 -0.33816034689E+02 -0.42485124733E+02 -0.50699163373E+03  0.50990832421E+03  0.41800000000E+01 0.  1.
        -11    1    4    4    0    0  0.30228212594E+02  0.19079275564E+02 -0.98857849550E+01  0.37087630510E+02  0.00000000000E+00 0.  1.
         11    1    4    4    0    0 -0.43034025418E+02 -0.13321054241E+02 -0.85011918786E+02  0.96210208218E+02  0.00000000000E+00 0. -1.
</event>
<event>
 8    1  0.7039283E-009  0.6587402E+02  0.7561462E-02  0.1374714E+00
          2   -1    0    0  501    0  0.00000000000E+00  0.00000000000E+00  0.43907064224E+03  0.43907064224E+03  0.00000000000E+00 0. -1.
         -2   -1    0    0    0  501 -0.00000000000E+00 -0.00000000000E+00 -0.37871017035E+02  0.37871017035E+02  0.00000000000E+00 0.  1.
         25    2    1    2    0    0  0.53182500115E+02  0.28364268251E+02  0.28124032635E+03  0.31364936288E+03  0.12508753589E+03 0.  0.
         23    2    1    2    0    0 -0.53182500115E+02 -0.28364268251E+02  0.11995929886E+03  0.16329229640E+03  0.92958219910E+02 0.  0.
          5    1    3    3  502    0  0.25621292326E+02  0.53822892886E+01 -0.33965431250E+01  0.26728796524E+02  0.41800000000E+01 0.  1.
         -5    1    3    3    0  502  0.27561207789E+02  0.22981978963E+02  0.28463686947E+03  0.28692056635E+03  0.41800000000E+01 0.  1.
        -11    1    4    4    0    0 -0.11350303423E+02 -0.24617153628E+02 -0.82850847934E+01  0.28345656997E+02  0.00000000000E+00 0.  1.
         11    1    4    4    0    0 -0.41832196692E+02 -0.37471146233E+01  0.12824438365E+03  0.13494663940E+03  0.00000000000E+00 0. -1.
</event>
<event>
 8    1  0.7039283E-009  0.9560184E+02  0.7561462E-02  0.1289826E+00
          2   -1    0    0  501    0  0.00000000000E+00  0.00000000000E+00  0.52994440553E+03  0.52994440553E+03  0.00000000000E+00 0. -1.
         -2   -1    0    0    0  501 -0.00000000000E+00 -0.00000000000E+00 -0.31136666858E+02  0.31136666858E+02  0.00000000000E+00 0.  1.
         25    2    1    2    0    0 -0.41813538083E+02  0.11979958865E+02  0.38937215924E+03  0.41127881761E+03  0.12509075121E+03 0.  0.
         23    2    1    2    0    0  0.41813538083E+02 -0.11979958865E+02  0.10943557943E+03  0.14980225478E+03  0.92588758017E+02 0.  0.
          5    1    3    3  502    0  0.38177296551E+02  0.10634371204E+02  0.22408266162E+03  0.22759856647E+03  0.41800000000E+01 0. -1.
         -5    1    3    3    0  502 -0.79990834634E+02  0.13455876612E+01  0.16528949763E+03  0.18368025114E+03  0.41800000000E+01 0. -1.
        -11    1    4    4    0    0  0.55835323284E+02 -0.66028195608E+01  0.11926537527E+03  0.13185374583E+03  0.00000000000E+00 0.  1.
         11    1    4    4    0    0 -0.14021785201E+02 -0.53771393045E+01 -0.98297958368E+01  0.17948508949E+02  0.00000000000E+00 0. -1.
</event>
<event>
 8    1  0.7039283E-009  0.1280196E+03  0.7561462E-02  0.1230424E+00
          2   -1    0    0  501    0  0.00000000000E+00  0.00000000000E+00  0.96498070495E+03  0.96498070495E+03  0.00000000000E+00 0. -1.
         -2   -1    0    0    0  501 -0.00000000000E+00 -0.00000000000E+00 -0.22332950364E+02  0.22332950364E+02  0.00000000000E+00 0.  1.
         25    2    1    2    0    0 -0.88468841035E+02 -0.40367283635E+02  0.56737575844E+03  0.58908315034E+03  0.12508978108E+03 0.  0.
         23    2    1    2    0    0  0.88468841035E+02  0.40367283635E+02  0.37527199615E+03  0.39823050497E+03  0.91116467093E+02 0.  0.
          5    1    3    3  502    0 -0.76719813510E+02  0.24311505432E+02  0.19616476689E+03  0.21207325916E+03  0.41800000000E+01 0.  1.
         -5    1    3    3    0  502 -0.11749027526E+02 -0.64678789066E+02  0.37121099155E+03  0.37700989118E+03  0.41800000000E+01 0.  1.
        -11    1    4    4    0    0  0.14316280456E+02  0.31876591539E+02  0.33514668375E+02  0.48418033526E+02  0.00000000000E+00 0.  1.
         11    1    4    4    0    0  0.74152560579E+02  0.84906920952E+01  0.34175732777E+03  0.34981247144E+03  0.00000000000E+00 0. -1.
</event>
<event>
 8    1  0.7039283E-009  0.1394775E+03  0.7561462E-02  0.1214034E+00
          1   -1    0    0  501    0  0.00000000000E+00  0.00000000000E+00  0.67765544861E+03  0.67765544861E+03  0.00000000000E+00 0. -1.
         -1   -1    0    0    0  501 -0.00000000000E+00 -0.00000000000E+00 -0.39142207992E+02  0.39142207992E+02  0.00000000000E+00 0.  1.
         25    2    1    2    0    0  0.14336658701E+02 -0.12084800755E+03  0.32787125043E+03  0.37142429816E+03  0.12508665674E+03 0.  0.
         23    2    1    2    0    0 -0.14336658701E+02  0.12084800755E+03  0.31064199019E+03  0.34537335844E+03  0.89300223644E+02 0.  0.
          5    1    3    3  502    0  0.24421357066E+02 -0.30236974589E+02  0.94993440654E+01  0.40229184070E+02  0.41800000000E+01 0.  1.
         -5    1    3    3    0  502 -0.10084698365E+02 -0.90611032957E+02  0.31837190637E+03  0.33119511409E+03  0.41800000000E+01 0.  1.
        -11    1    4    4    0    0 -0.47418161768E+02  0.96501981690E+02  0.24987213700E+03  0.27202426249E+03  0.00000000000E+00 0. -1.
         11    1    4    4    0    0  0.33081503067E+02  0.24346025855E+02  0.60769853192E+02  0.73349095953E+02  0.00000000000E+00 0.  1.
</event>
<event>
 8    1  0.7039283E-009  0.1431483E+03  0.7561462E-02  0.1209154E+00
          2   -1    0    0  501    0  0.00000000000E+00  0.00000000000E+00  0.12706127084E+04  0.12706127084E+04  0.00000000000E+00 0.  1.
         -2   -1    0    0    0  501 -0.00000000000E+00 -0.00000000000E+00 -0.17081363038E+02  0.17081363038E+02  0.00000000000E+00 0. -1.
         25    2    1    2    0    0  0.72490380611E+02 -0.66608700416E+02  0.70265317678E+03  0.72045789490E+03  0.12508603931E+03 0.  0.
         23    2    1    2    0    0 -0.72490380611E+02  0.66608700416E+02  0.55087816862E+03  0.56723617658E+03  0.92728361914E+02 0.  0.
          5    1    3    3  502    0  0.48858280989E+02  0.26419408308E+02  0.16132389149E+03  0.17066923309E+03  0.41800000000E+01 0.  1.
         -5    1    3    3    0  502  0.23632099621E+02 -0.93028108724E+02  0.54132928529E+03  0.54978866181E+03  0.41800000000E+01 0.  1.
        -11    1    4    4    0    0  0.47009452996E+01  0.56472709005E+02  0.26136591527E+03  0.26743860495E+03  0.00000000000E+00 0.  1.
         11    1    4    4    0    0 -0.77191325910E+02  0.10135991412E+02  0.28951225335E+03  0.29979757163E+03  0.00000000000E+00 0. -1.
</event>
<event>
 8    1  0.7039283E-009  0.6979432E+02  0.7561462E-02  0.1360794E+00
          1   -1    0    0  501    0  0.00000000000E+00  0.00000000000E+00  0.45408973437E+02  0.45408973437E+02  0.00000000000E+00 0. -1.
         -1   -1    0    0    0  501 -0.00000000000E+00 -0.00000000000E+00 -0.27021165606E+03  0.27021165606E+03  0.00000000000E+00 0.  1.
         25    2    1    2    0    0  0.20289062504E+02 -0.31202264232E+01 -0.14148691886E+03  0.18996856622E+03  0.12509247009E+03 0.  0.
         23    2    1    2    0    0 -0.20289062504E+02  0.31202264232E+01 -0.83315763763E+02  0.12565206327E+03  0.91790754672E+02 0.  0.
          5    1    3    3  502    0 -0.90949805940E+01  0.37707925247E+02  0.77060646878E+00  0.39021436836E+02  0.41800000000E+01 0.  1.
         -5    1    3    3    0  502  0.29384043098E+02 -0.40828151670E+02 -0.14225752533E+03  0.15094712939E+03  0.41800000000E+01 0.  1.
        -11    1    4    4    0    0  0.10881243543E+02  0.13414244975E+02 -0.90429211578E+02  0.92064030630E+02  0.00000000000E+00 0.  1.
         11    1    4    4    0    0 -0.31170306047E+02 -0.10294018552E+02  0.71134478151E+01  0.33588032643E+02  0.00000000000E+00 0. -1.
</event>
<event>
 8    1  0.7039283E-009  0.6930113E+02  0.7561462E-02  0.1362486E+00
         -2   -1    0    0    0  501 -0.00000000000E+00  0.00000000000E+00  0.72692094796E+03  0.72692094796E+03  0.00000000000E+00 0.  1.
          2   -1    0    0  501    0  0.00000000000E+00 -0.00000000000E+00 -0.18512349952E+02  0.18512349952E+02  0.00000000000E+00 0. -1.
         25    2    1    2    0    0 -0.21516659352E+02 -0.30624314940E+02  0.33379451015E+03  0.35842335602E+03  0.12509081439E+03 0.  0.
         23    2    1    2    0    0  0.21516659352E+02  0.30624314940E+02  0.37461408786E+03  0.38700994188E+03  0.89666967166E+02 0.  0.
          5    1    3    3  502    0 -0.17062977732E+01  0.11884086630E+01  0.31718340398E+03  0.31721776105E+03  0.41800000000E+01 0. -1.
         -5    1    3    3    0  502 -0.19810361578E+02 -0.31812723603E+02  0.16611106170E+02  0.41205594973E+02  0.41800000000E+01 0. -1.
        -11    1    4    4    0    0 -0.23420788727E+02  0.43564521998E+02  0.21929958119E+03  0.22480815650E+03  0.00000000000E+00 0. -1.
         11    1    4    4    0    0  0.44937448079E+02 -0.12940207058E+02  0.15531450667E+03  0.16220178538E+03  0.00000000000E+00 0.  1.
</event>
<event>
 8    1  0.7039283E-009  0.1046509E+03  0.7561462E-02  0.1270809E+00
         -1   -1    0    0    0  501 -0.00000000000E+00  0.00000000000E+00  0.74366925236E+02  0.74366925236E+02  0.00000000000E+00 0.  1.
          1   -1    0    0  501    0  0.00000000000E+00 -0.00000000000E+00 -0.18524513217E+03  0.18524513217E+03  0.00000000000E+00 0. -1.
         25    2    1    2    0    0 -0.31270152998E+02  0.25094037559E+02 -0.83725051272E+02  0.15577175128E+03  0.12508965224E+03 0.  0.
         23    2    1    2    0    0  0.31270152998E+02 -0.25094037559E+02 -0.27153155663E+02  0.10384030612E+03  0.91858489668E+02 0.  0.
          5    1    3    3  502    0 -0.19766304847E+02 -0.50689589371E+02 -0.36284871659E+02  0.65530188381E+02  0.41800000000E+01 0.  1.
         -5    1    3    3    0  502 -0.11503848151E+02  0.75783626930E+02 -0.47440179614E+02  0.90241562901E+02  0.41800000000E+01 0.  1.
        -11    1    4    4    0    0  0.58213258891E+01  0.22908938506E+02 -0.41399375709E+02  0.47671958295E+02  0.00000000000E+00 0. -1.
         11    1    4    4    0    0  0.25448827109E+02 -0.48002976065E+02  0.14246220046E+02  0.56168347830E+02  0.00000000000E+00 0.  1.
</event>
<event>
 8    1  0.7039283E-009  0.1123589E+03  0.7561462E-02  0.1256263E+00
         -2   -1    0    0    0  501 -0.00000000000E+00  0.00000000000E+00  0.88817671370E+02  0.88817671370E+02  0.00000000000E+00 0.  1.
          2   -1    0    0  501    0  0.00000000000E+00 -0.00000000000E+00 -0.21904169109E+03  0.21904169109E+03  0.00000000000E+00 0. -1.
         25    2    1    2    0    0 -0.63265888054E+02 -0.37576020481E+02 -0.11843553862E+03  0.18732192998E+03  0.12509196112E+03 0.  0.
         23    2    1    2    0    0  0.63265888054E+02  0.37576020481E+02 -0.11788481107E+02  0.12053743249E+03  0.94740563844E+02 0.  0.
          5    1    3    3  502    0 -0.26345327309E+02  0.29686181890E+02  0.67073317558E+01  0.40469820428E+02  0.41800000000E+01 0.  1.
         -5    1    3    3    0  502 -0.36920560745E+02 -0.67262202371E+02 -0.12514287037E+03  0.14685210955E+03  0.41800000000E+01 0.  1.
        -11    1    4    4    0    0 -0.50484965804E+01  0.39305813226E+02  0.20881096899E+02  0.44793464688E+02  0.00000000000E+00 0.  1.
         11    1    4    4    0    0  0.68314384635E+02 -0.17297927451E+01 -0.32669578006E+02  0.75743967800E+02  0.00000000000E+00 0. -1.
</event>
<event>
 8    1  0.7039283E-009  0.9203598E+02  0.7561462E-02  0.1297995E+00
          1   -1    0    0  501    0  0.00000000000E+00  0.00000000000E+00  0.83715358840E+02  0.83715358840E+02  0.00000000000E+00 0. -1.
         -1   -1    0    0    0  501 -0.00000000000E+00 -0.00000000000E+00 -0.28276466667E+03  0.28276466667E+03  0.00000000000E+00 0.  1.
         25    2    1    2    0    0 -0.47004703270E+02  0.99257984695E+01 -0.22439766155E+03  0.26136047003E+03  0.12508805372E+03 0.  0.
         23    2    1    2    0    0  0.47004703270E+02 -0.99257984695E+01  0.25348353722E+02  0.10511955547E+03  0.89997879427E+02 0.  0.
          5    1    3    3  502    0  0.28880829124E+01 -0.49005142310E+02 -0.48122657350E+02  0.68870222493E+02  0.41800000000E+01 0.  1.
         -5    1    3    3    0  502 -0.49892786183E+02  0.58930940779E+02 -0.17627500420E+03  0.19249024754E+03  0.41800000000E+01 0.  1.
        -11    1    4    4    0    0  0.22249835650E+02 -0.20781652508E+02 -0.30486710917E+02  0.43085633452E+02  0.00000000000E+00 0.  1.
         11    1    4    4    0    0  0.24754867621E+02  0.10855854038E+02  0.55835064640E+02  0.62033922019E+02  0.00000000000E+00 0. -1.
</event>
<event>
 8    1  0.7039283E-009  0.1023449E+03  0.7561462E-02  0.1275441E+00
         -3   -1    0    0    0  501 -0.00000000000E+00  0.00000000000E+00  0.23112649153E+03  0.23112649153E+03  0.00000000000E+00 0.  1.
          3   -1    0    0  501    0  0.00000000000E+00 -0.00000000000E+00 -0.97097598759E+02  0.97097598759E+02  0.00000000000E+00 0. -1.
         25    2    1    2    0    0 -0.45477703154E+02  0.40066495910E+02 -0.18228756871E+02  0.14018882573E+03  0.12508826366E+03 0.  0.
         23    2    1    2    0    0  0.45477703154E+02 -0.40066495910E+02  0.15225764965E+03  0.18803526456E+03  0.92202620694E+02 0.  0.
          5    1    3    3  502    0 -0.80669178871E+02  0.19837756914E+02 -0.41772853111E+02  0.93077906488E+02  0.41800000000E+01 0.  1.
         -5    1    3    3    0  502  0.35191475717E+02  0.20228738996E+02  0.23544096240E+02  0.47110919247E+02  0.41800000000E+01 0.  1.
        -11    1    4    4    0    0  0.30838719753E+02 -0.52903789382E+02  0.15654735616E+03  0.16809792470E+03  0.00000000000E+00 0.  1.
         11    1    4    4    0    0  0.14638983402E+02  0.12837293472E+02 -0.42897065137E+01  0.19937339860E+02  0.00000000000E+00 0. -1.
</event>
<event>
 8    1  0.7039283E-009  0.9381477E+02  0.7561462E-02  0.1293868E+00
         -1   -1    0    0    0  501 -0.00000000000E+00  0.00000000000E+00  0.71161987812E+03  0.71161987812E+03  0.00000000000E+00 0.  1.
          1   -1    0    0  501    0  0.00000000000E+00 -0.00000000000E+00 -0.21708523709E+02  0.21708523709E+02  0.00000000000E+00 0. -1.
         25    2    1    2    0    0 -0.55683597956E+02 -0.10280737369E+02  0.31842665237E+03  0.34677025779E+03  0.12509085539E+03 0.  0.
         23    2    1    2    0    0  0.55683597956E+02  0.10280737369E+02  0.37148470204E+03  0.38655814404E+03  0.90663985315E+02 0.  0.
          5    1    3    3  502    0 -0.75782475943E+02 -0.56845319408E+00  0.92269514874E+02  0.11947569868E+03  0.41800000000E+01 0. -1.
         -5    1    3    3    0  502  0.20098877987E+02 -0.97122841746E+01  0.22615713750E+03  0.22729455911E+03  0.41800000000E+01 0. -1.
        -11    1    4    4    0    0 -0.13478400251E+02 -0.10183822813E+02  0.14207409694E+02  0.22073241960E+02  0.00000000000E+00 0. -1.
         11    1    4    4    0    0  0.69161998207E+02  0.20464560181E+02  0.35727729234E+03  0.36448490208E+03  0.00000000000E+00 0.  1.
</event>
<event>
 8    1  0.7039283E-009  0.1730557E+03  0.7561462E-02  0.1174698E+00
         -2   -1    0    0    0  501 -0.00000000000E+00  0.00000000000E+00  0.29195986602E+02  0.29195986602E+02  0.00000000000E+00 0.  1.
          2   -1    0    0  501    0  0.00000000000E+00 -0.00000000000E+00 -0.22323198898E+04  0.22323198898E+04  0.00000000000E+00 0. -1.
         25    2    1    2    0    0  0.75904376637E+02 -0.13080671692E+03 -0.19040184802E+04  0.19141069832E+04  0.12508916295E+03 0.  0.
         23    2    1    2    0    0 -0.75904376637E+02  0.13080671692E+03 -0.29910542300E+03  0.34740889318E+03  0.91416702033E+02 0.  0.
          5    1    3    3  502    0 -0.27816160328E+02 -0.13094913111E+01 -0.19053301404E+03  0.19260258405E+03  0.41800000000E+01 0.  1.
         -5    1    3    3    0  502  0.10372053697E+03 -0.12949722561E+03 -0.17134854661E+04  0.17215043991E+04  0.41800000000E+01 0.  1.
        -11    1    4    4    0    0 -0.26421824882E+02  0.60435474539E+02 -0.46894226259E+02  0.80929771217E+02  0.00000000000E+00 0.  1.
         11    1    4    4    0    0 -0.49482551755E+02  0.70371242382E+02 -0.25221119674E+03  0.26647912196E+03  0.00000000000E+00 0. -1.
</event>
<event>
 8    1  0.7039283E-009  0.1084378E+03  0.7561462E-02  0.1263491E+00
         -1   -1    0    0    0  501 -0.00000000000E+00  0.00000000000E+00  0.77469625050E+02  0.77469625050E+02  0.00000000000E+00 0.  1.
          1   -1    0    0  501    0  0.00000000000E+00 -0.00000000000E+00 -0.20874294333E+03  0.20874294333E+03  0.00000000000E+00 0. -1.
         25    2    1    2    0    0 -0.87427182132E+01  0.65281996041E+02 -0.80879305166E+02  0.16286728709E+03  0.12508443976E+03 0.  0.
         23    2    1    2    0    0  0.87427182132E+01 -0.65281996041E+02 -0.50394013117E+02  0.12334528129E+03  0.91303492434E+02 0.  0.
          5    1    3    3  502    0 -0.32454374356E+01 -0.32233975675E+02  0.46237066078E+01  0.32991106602E+02  0.41800000000E+01 0. -1.
         -5    1    3    3    0  502 -0.54972807776E+01  0.97515971716E+02 -0.85503011773E+02  0.12987618049E+03  0.41800000000E+01 0. -1.
        -11    1    4    4    0    0 -0.20231689263E+02 -0.49457744746E+02 -0.67557761524E+02  0.86136176534E+02  0.00000000000E+00 0. -1.
         11    1    4    4    0    0  0.28974407476E+02 -0.15824251294E+02  0.17163748408E+02  0.37209104759E+02  0.00000000000E+00 0.  1.
</event>
<event>
 8    1  0.7039283E-009  0.2036043E+03  0.7561462E-02  0.1146733E+00
          4   -1    0    0  501    0  0.00000000000E+00  0.00000000000E+00  0.17223778272E+03  0.17223778272E+03  0.00000000000E+00 0. -1.
         -4   -1    0    0    0  501 -0.00000000000E+00 -0.00000000000E+00 -0.29147271526E+03  0.29147271526E+03  0.00000000000E+00 0.  1.
         25    2    1    2    0    0  0.18466431278E+03 -0.52471729279E+01  0.96833667034E+00  0.22310971018E+03  0.12509421994E+03 0.  0.
         23    2    1    2    0    0 -0.18466431278E+03  0.52471729279E+01 -0.12020326921E+03  0.24060078780E+03  0.96495968424E+02 0.  0.
          5    1    3    3  502    0  0.29380820811E+02 -0.43599961697E+02 -0.29201516667E+02  0.60285904382E+02  0.41800000000E+01 0. -1.
         -5    1    3    3    0  502  0.15528349197E+03  0.38352788769E+02  0.30169853337E+02  0.16282380580E+03  0.41800000000E+01 0. -1.
        -11    1    4    4    0    0 -0.13334057906E+03  0.31212159593E+02 -0.12149140914E+03  0.18306848834E+03  0.00000000000E+00 0.  1.
         11    1    4    4    0    0 -0.51323733725E+02 -0.25964986665E+02  0.12881399334E+01  0.57532299454E+02  0.00000000000E+00 0. -1.
</event>
<event>
 8    1  0.7039283E-009  0.8528143E+02  0.7561462E-02  0.1314698E+00
         -2   -1    0    0    0  501 -0.00000000000E+00  0.00000000000E+00  0.57522403485E+02  0.57522403485E+02  0.00000000000E+00 0.  1.
          2   -1    0    0  501    0  0.00000000000E+00 -0.00000000000E+00 -0.23799826336E+03  0.23799826336E+03  0.00000000000E+00 0. -1.
         25    2    1    2    0    0  0.16820335783E+01 -0.11447143484E+02 -0.48942378638E+02  0.13482193658E+03  0.12509089425E+03 0.  0.
         23    2    1    2    0    0 -0.16820335783E+01  0.11447143484E+02 -0.13153348124E+03  0.16069873027E+03  0.91592351717E+02 0.  0.
          5    1    3    3  502    0  0.43662673879E+02  0.28219339884E+02 -0.55952983254E+02  0.76491626789E+02  0.41800000000E+01 0. -1.
         -5    1    3    3    0  502 -0.41980640301E+02 -0.39666483368E+02  0.70106046164E+01  0.58330309787E+02  0.41800000000E+01 0. -1.
        -11    1    4    4    0    0 -0.20085256790E+01 -0.24484333284E+02 -0.23043082292E+00  0.24567658622E+02  0.00000000000E+00 0.  1.
         11    1    4    4    0    0  0.32649210066E+00  0.35931476768E+02 -0.13130305042E+03  0.13613107165E+03  0.00000000000E+00 0. -1.
</event>
<event>
 8    1  0.7039283E-009  0.7826130E+02  0.7561462E-02  0.1334059E+00
          2   -1    0    0  501    0  0.00000000000E+00  0.00000000000E+00  0.25028021790E+03  0.25028021790E+03  0.00000000000E+00 0. -1.
         -2   -1    0    0    0  501 -0.00000000000E+00 -0.00000000000E+00 -0.57623500799E+02  0.57623500799E+02  0.00000000000E+00 0.  1.
         25    2    1    2    0    0 -0.63573715111E+00 -0.20648163015E+02  0.18723656238E+03  0.22612344162E+03  0.12509008658E+03 0.  0.
         23    2    1    2    0    0  0.63573715111E+00  0.20648163015E+02  0.54201547214E+01  0.81780277080E+02  0.78942288062E+02 0.  0.
          5    1    3    3  502    0 -0.28538120480E+02  0.42568950981E+02  0.11551168079E+03  0.12643955357E+03  0.41800000000E+01 0.  1.
         -5    1    3    3    0  502  0.27902383329E+02 -0.63217113996E+02  0.71724881585E+02  0.99683888045E+02  0.41800000000E+01 0.  1.
        -11    1    4    4    0    0 -0.14190306135E+02  0.12749420405E+02  0.39455358746E+02  0.43825082346E+02  0.00000000000E+00 0. -1.
         11    1    4    4    0    0  0.14826043286E+02  0.78987426100E+01 -0.34035204024E+02  0.37955194734E+02  0.00000000000E+00 0.  1.
</event>
<event>
 8    1  0.7039283E-009  0.1378328E+03  0.7561462E-02  0.1216275E+00
          1   -1    0    0  501    0  0.00000000000E+00  0.00000000000E+00  0.53097720875E+03  0.53097720875E+03  0.00000000000E+00 0. -1.
         -1   -1    0    0    0  501 -0.00000000000E+00 -0.00000000000E+00 -0.51663899838E+02  0.51663899838E+02  0.00000000000E+00 0.  1.
         25    2    1    2    0    0 -0.42485982641E+02 -0.11510746961E+03  0.23309543980E+03  0.29160864238E+03  0.12508928002E+03 0.  0.
         23    2    1    2    0    0  0.42485982641E+02  0.11510746961E+03  0.24621786911E+03  0.29103246620E+03  0.94983519795E+02 0.  0.
          5    1    3    3  502    0  0.15700620765E+02 -0.48207041700E+02  0.18245955629E+03  0.18941855887E+03  0.41800000000E+01 0. -1.
         -5    1    3    3    0  502 -0.58186603406E+02 -0.66900427911E+02  0.50635883512E+02  0.10219008352E+03  0.41800000000E+01 0. -1.
        -11    1    4    4    0    0 -0.14752196023E+02  0.30514155680E+02  0.12770794839E+02  0.36219251583E+02  0.00000000000E+00 0.  1.
         11    1    4    4    0    0  0.57238178663E+02  0.84593313931E+02  0.23344707427E+03  0.25481321462E+03  0.00000000000E+00 0. -1.
</event>
<event>
 8    1  0.7039283E-009  0.1432794E+03  0.7561462E-02  0.1208983E+00
          2   -1    0    0  501    0  0.00000000000E+00  0.00000000000E+00  0.22075367531E+03  0.22075367531E+03  0.00000000000E+00 0. -1.
         -2   -1    0    0    0  501 -0.00000000000E+00 -0.00000000000E+00 -0.11819070081E+03  0.11819070081E+03  0.00000000000E+00 0.  1.
         25    2    1    2    0    0 -0.10940236038E+03  0.12136052606E+02  0.78375095964E+01  0.16680949427E+03  0.12509124906E+03 0.  0.
         23    2    1    2    0    0  0.10940236038E+03 -0.12136052606E+02  0.94725464904E+02  0.17213488185E+03  0.92419389838E+02 0.  0.
          5    1    3    3  502    0  0.12516422334E+02 -0.19336679446E+02 -0.27352004858E+02  0.36002396723E+02  0.41800000000E+01 0. -1.
         -5    1    3    3    0  502 -0.12191878271E+03  0.31472732051E+02  0.35189514454E+02  0.13080709755E+03  0.41800000000E+01 0. -1.
        -11    1    4    4    0    0  0.58991845376E+02  0.34626483448E+02  0.21538379634E+02  0.71714245266E+02  0.00000000000E+00 0.  1.
         11    1    4    4    0    0  0.50410515003E+02 -0.46762536054E+02  0.73187085271E+02  0.10042063658E+03  0.00000000000E+00 0. -1.
</event>
<event>
 8    1  0.7039283E-009  0.1213368E+03  0.7561462E-02  0.1240908E+00
         -2   -1    0    0    0  501 -0.00000000000E+00  0.00000000000E+00  0.90792580024E+02  0.90792580024E+02  0.00000000000E+00 0.  1.
          2   -1    0    0  501    0  0.00000000000E+00 -0.00000000000E+00 -0.20101649708E+03  0.20101649708E+03  0.00000000000E+00 0. -1.
         25    2    1    2    0    0  0.54851430014E+02  0.59104040611E+02 -0.46994942800E+02  0.15607976638E+03  0.12510156607E+03 0.  0.
         23    2    1    2    0    0 -0.54851430014E+02 -0.59104040611E+02 -0.63228974252E+02  0.13572931072E+03  0.89008851319E+02 0.  0.
          5    1    3    3  502    0  0.68091005840E+02  0.86970467498E+02 -0.15189365344E+02  0.11157256165E+03  0.41800000000E+01 0.  1.
         -5    1    3    3    0  502 -0.13239575826E+02 -0.27866426887E+02 -0.31805577456E+02  0.44507204729E+02  0.41800000000E+01 0.  1.
        -11    1    4    4    0    0 -0.15389454654E+02 -0.59586170309E+02 -0.41051139710E+00  0.61542794267E+02  0.00000000000E+00 0.  1.
         11    1    4    4    0    0 -0.39461975360E+02  0.48212969725E+00 -0.62818462855E+02  0.74186516456E+02  0.00000000000E+00 0. -1.
</event>
<event>
 8    1  0.7039283E-009  0.2121186E+03  0.7561462E-02  0.1139899E+00
         -2   -1    0    0    0  501 -0.00000000000E+00  0.00000000000E+00  0.54324564122E+02  0.54324564122E+02  0.00000000000E+00 0. -1.
          2   -1    0    0  501    0  0.00000000000E+00 -0.00000000000E+00 -0.20472634679E+04  0.20472634679E+04  0.00000000000E+00 0.  1.
         25    2    1    2    0    0  0.73657337199E+02  0.18682465105E+03 -0.17804462573E+04  0.17960982853E+04  0.12510524210E+03 0.  0.
         23    2    1    2    0    0 -0.73657337199E+02 -0.18682465105E+03 -0.21249264644E+03  0.30548974673E+03  0.88555107149E+02 0.  0.
          5    1    3    3  502    0  0.86668199775E+02  0.12415713027E+03 -0.84599229478E+03  0.85944563823E+03  0.41800000000E+01 0.  1.
         -5    1    3    3    0  502 -0.13010862576E+02  0.62667520776E+02 -0.93445396252E+03  0.93665264703E+03  0.41800000000E+01 0.  1.
        -11    1    4    4    0    0 -0.25548428522E+02 -0.13701006337E+03 -0.18346491715E+03  0.23039933917E+03  0.00000000000E+00 0.  1.
         11    1    4    4    0    0 -0.48108908677E+02 -0.49814587679E+02 -0.29027729289E+02  0.75090407559E+02  0.00000000000E+00 0. -1.
</event>
<event>
 8    1  0.7039283E-009  0.1125303E+03  0.7561462E-02  0.1255955E+00
         -1   -1    0    0    0  501 -0.00000000000E+00  0.00000000000E+00  0.76978897412E+03  0.76978897412E+03  0.00000000000E+00 0.  1.
          1   -1    0    0  501    0  0.00000000000E+00 -0.00000000000E+00 -0.23451765073E+02  0.23451765073E+02  0.00000000000E+00 0. -1.
         25    2    1    2    0    0  0.71636283225E+02 -0.13202897868E+02  0.41821572404E+03  0.44255747603E+03  0.12508658668E+03 0.  0.
         23    2    1    2    0    0 -0.71636283225E+02  0.13202897868E+02  0.32812148500E+03  0.35068326316E+03  0.10004483272E+03 0.  0.
          5    1    3    3  502    0  0.76314993314E+02 -0.53676930595E+02  0.35617696368E+03  0.36821826807E+03  0.41800000000E+01 0.  1.
         -5    1    3    3    0  502 -0.46787100894E+01  0.40474032727E+02  0.62038760363E+02  0.74339207964E+02  0.41800000000E+01 0.  1.
        -11    1    4    4    0    0 -0.47676683149E+02 -0.18352730509E+02  0.29396722627E+03  0.29837328794E+03  0.00000000000E+00 0.  1.
         11    1    4    4    0    0 -0.23959600076E+02  0.31555628377E+02  0.34154258727E+02  0.52309975218E+02  0.00000000000E+00 0. -1.
</event>
<event>
 8    1  0.7039283E-009  0.7075815E+02  0.7561462E-02  0.1357534E+00
         -2   -1    0    0    0  501 -0.00000000000E+00  0.00000000000E+00  0.62439408044E+02  0.62439408044E+02  0.00000000000E+00 0.  1.
          2   -1    0    0  501    0  0.00000000000E+00 -0.00000000000E+00 -0.18870348278E+03  0.18870348278E+03  0.00000000000E+00 0. -1.
         25    2    1    2    0    0 -0.68285575292E+01  0.13762376680E+02 -0.74240935171E+02  0.14626785181E+03  0.12508611357E+03 0.  0.
         23    2    1    2    0    0  0.68285575292E+01 -0.13762376680E+02 -0.52023139567E+02  0.10487503902E+03  0.89757086342E+02 0.  0.
          5    1    3    3  502    0  0.21282630928E+02  0.41709648902E+02 -0.91470295850E+02  0.10284421527E+03  0.41800000000E+01 0.  1.
         -5    1    3    3    0  502 -0.28111188457E+02 -0.27947272222E+02  0.17229360680E+02  0.43423636542E+02  0.41800000000E+01 0.  1.
        -11    1    4    4    0    0  0.27608573207E+02  0.32369365894E+01 -0.68118867134E+02  0.73572353045E+02  0.00000000000E+00 0. -1.
         11    1    4    4    0    0 -0.20780015677E+02 -0.16999313269E+02  0.16095727567E+02  0.31302685972E+02  0.00000000000E+00 0.  1.
</event>
<event>
 8    1  0.7039283E-009  0.1156624E+03  0.7561462E-02  0.1250429E+00
         -2   -1    0    0    0  501 -0.00000000000E+00  0.00000000000E+00  0.41259549630E+02  0.41259549630E+02  0.00000000000E+00 0. -1.
          2   -1    0    0  501    0  0.00000000000E+00 -0.00000000000E+00 -0.47349908727E+03  0.47349908727E+03  0.00000000000E+00 0.  1.
         25    2    1    2    0    0  0.82623326050E+02  0.30145063008E+01 -0.27435049442E+03  0.31265158348E+03  0.12508843913E+03 0.  0.
         23    2    1    2    0    0 -0.82623326050E+02 -0.30145063008E+01 -0.15788904322E+03  0.20210705343E+03  0.95302727245E+02 0.  0.
          5    1    3    3  502    0 -0.21185817487E+02 -0.16502131949E+01 -0.27624442187E+01  0.21832671945E+02  0.41800000000E+01 0. -1.
         -5    1    3    3    0  502  0.10380914354E+03  0.46647194957E+01 -0.27158805021E+03  0.29081891153E+03  0.41800000000E+01 0. -1.
        -11    1    4    4    0    0 -0.35250904900E+02  0.31326842743E+02 -0.12798621370E+03  0.13639819745E+03  0.00000000000E+00 0.  1.
         11    1    4    4    0    0 -0.47372421150E+02 -0.34341349043E+02 -0.29902829524E+02  0.65708855973E+02  0.00000000000E+00 0. -1.
</event>
<event>
 8    1  0.7039283E-009  0.1067186E+03  0.7561462E-02  0.1266770E+00
          2   -1    0    0  501    0  0.00000000000E+00  0.00000000000E+00  0.35215049812E+03  0.35215049812E+03  0.00000000000E+00 0. -1.
         -2   -1    0    0    0  501 -0.00000000000E+00 -0.00000000000E+00 -0.44983866910E+02  0.44983866910E+02  0.00000000000E+00 0.  1.
         25    2    1    2    0    0 -0.52100606927E+02  0.93194513592E+01  0.22538194280E+03  0.26314653057E+03  0.12509097088E+03 0.  0.
         23    2    1    2    0    0  0.52100606927E+02 -0.93194513592E+01  0.81784688404E+02  0.13398783445E+03  0.91992820960E+02 0.  0.
          5    1    3    3  502    0  0.97211795425E+01 -0.49274761780E+02  0.77825001012E+02  0.92718426770E+02  0.41800000000E+01 0.  1.
         -5    1    3    3    0  502 -0.61821786469E+02  0.58594213140E+02  0.14755694179E+03  0.17042810380E+03  0.41800000000E+01 0.  1.
        -11    1    4    4    0    0  0.31326561955E+02 -0.33510177537E+02  0.90038314437E+02  0.10105040103E+03  0.00000000000E+00 0. -1.
         11    1    4    4    0    0  0.20774044972E+02  0.24190726178E+02 -0.82536260333E+01  0.32937433419E+02  0.00000000000E+00 0.  1.
</event>
<event>
 8    1  0.7039283E-009  0.1326432E+03  0.7561462E-02  0.1223586E+00
          1   -1    0    0  501    0  0.00000000000E+00  0.00000000000E+00  0.46672543425E+02  0.46672543425E+02  0.00000000000E+00 0. -1.
         -1   -1    0    0    0  501 -0.00000000000E+00 -0.00000000000E+00 -0.71208761066E+03  0.71208761066E+03  0.00000000000E+00 0.  1.
         25    2    1    2    0    0 -0.72024560369E+00 -0.11139726750E+03 -0.54970776018E+03  0.57466115117E+03  0.12508775758E+03 0.  0.
         23    2    1    2    0    0  0.72024560369E+00  0.11139726750E+03 -0.11570730705E+03  0.18409900292E+03  0.89968839098E+02 0.  0.
          5    1    3    3  502    0 -0.15602055899E+02  0.17550081187E+02 -0.20355449929E+03  0.20494715435E+03  0.41800000000E+01 0.  1.
         -5    1    3    3    0  502  0.14881810296E+02 -0.12894734869E+03 -0.34615326089E+03  0.36971399681E+03  0.41800000000E+01 0.  1.
        -11    1    4    4    0    0 -0.26762004142E+01  0.54443568918E+02  0.64237881647E+00  0.54513089215E+02  0.00000000000E+00 0. -1.
         11    1    4    4    0    0  0.33964460178E+01  0.56953698586E+02 -0.11634968587E+03  0.12958591370E+03  0.00000000000E+00 0.  1.
</event>
<event>
 8    1  0.7039283E-009  0.1293604E+03  0.7561462E-02  0.1228408E+00
          1   -1    0    0  501    0  0.00000000000E+00  0.00000000000E+00  0.85605228243E+02  0.85605228243E+02  0.00000000000E+00 0. -1.
         -1   -1    0    0    0  501 -0.00000000000E+00 -0.00000000000E+00 -0.23910048365E+03  0.23910048365E+03  0.00000000000E+00 0.  1.
         25    2    1    2    0    0 -0.30573946578E+02  0.74070001866E+02 -0.13513074707E+03  0.20081869593E+03  0.12508676367E+03 0.  0.
         23    2    1    2    0    0  0.30573946578E+02 -0.74070001866E+02 -0.18364508340E+02  0.12388701596E+03  0.92680128247E+02 0.  0.
          5    1    3    3  502    0 -0.74957460099E+02  0.18906213671E+02 -0.75834819218E+02  0.10837185034E+03  0.41800000000E+01 0. -1.
         -5    1    3    3    0  502  0.44383513520E+02  0.55163788196E+02 -0.59295927851E+02  0.92446845594E+02  0.41800000000E+01 0. -1.
        -11    1    4    4    0    0  0.53226280800E+02 -0.30692969503E+02  0.16717336497E+02  0.63675463754E+02  0.00000000000E+00 0. -1.
         11    1    4    4    0    0 -0.22652334222E+02 -0.43377032363E+02 -0.35081844836E+02  0.60211552209E+02  0.00000000000E+00 0.  1.
</event>
<event>
 8    1  0.7039283E-009  0.1236300E+03  0.7561462E-02  0.1237226E+00
          1   -1    0    0  501    0  0.00000000000E+00  0.00000000000E+00  0.10585632170E+04  0.10585632170E+04  0.00000000000E+00 0. -1.
         -1   -1    0    0    0  501 -0.00000000000E+00 -0.00000000000E+00 -0.18698044166E+02  0.18698044166E+02  0.00000000000E+00 0.  1.
         25    2    1    2    0    0  0.28695249150E+02  0.80172583175E+02  0.57765915963E+03  0.59715064215E+03  0.12509086417E+03 0.  0.
         23    2    1    2    0    0 -0.28695249150E+02 -0.80172583175E+02  0.46220601325E+03  0.48011061906E+03  0.98085408877E+02 0.  0.
          5    1    3    3  502    0 -0.16847889046E+02  0.72219146953E+02  0.50825133166E+03  0.51365002198E+03  0.41800000000E+01 0. -1.
         -5    1    3    3    0  502  0.45543138196E+02  0.79534362225E+01  0.69407827978E+02  0.83500620172E+02  0.41800000000E+01 0. -1.
        -11    1    4    4    0    0 -0.51016520924E+02 -0.88979376455E+02  0.41031228549E+03  0.42293756805E+03  0.00000000000E+00 0.  1.
         11    1    4    4    0    0  0.22321271774E+02  0.88067932797E+01  0.51893727756E+02  0.57173051011E+02  0.00000000000E+00 0. -1.
</event>
<event>
 8    1  0.7039283E-009  0.1267550E+03  0.7561462E-02  0.1232352E+00
          2   -1    0    0  501    0  0.00000000000E+00  0.00000000000E+00  0.12280028819E+03  0.12280028819E+03  0.00000000000E+00 0. -1.
         -2   -1    0    0    0  501 -0.00000000000E+00 -0.00000000000E+00 -0.13421432065E+03  0.13421432065E+03  0.00000000000E+00 0.  1.
         25    2    1    2    0    0 -0.49314619794E+02 -0.44698718563E+02 -0.23992358224E+02  0.14371060021E+03  0.12508875326E+03 0.  0.
         23    2    1    2    0    0  0.49314619794E+02  0.44698718563E+02  0.12578325757E+02  0.11330400863E+03  0.90827732139E+02 0.  0.
          5    1    3    3  502    0 -0.91386054246E+02 -0.37175291619E+02 -0.16201762659E+02  0.10006689128E+03  0.41800000000E+01 0. -1.
         -5    1    3    3    0  502  0.42071434452E+02 -0.75234269445E+01 -0.77905955650E+01  0.43643708929E+02  0.41800000000E+01 0. -1.
        -11    1    4    4    0    0  0.56713855412E+02  0.67316927188E+02  0.43731380797E+01  0.88131461002E+02  0.00000000000E+00 0.  1.
         11    1    4    4    0    0 -0.73992356184E+01 -0.22618208624E+02  0.82051876774E+01  0.25172547625E+02  0.00000000000E+00 0. -1.
</event>
<event>
 8    1  0.7039283E-009  0.9348319E+02  0.7561462E-02  0.1294629E+00
          2   -1    0    0  501    0  0.00000000000E+00  0.00000000000E+00  0.42893739037E+02  0.42893739037E+02  0.00000000000E+00 0. -1.
         -2   -1    0    0    0  501 -0.00000000000E+00 -0.00000000000E+00 -0.33644277115E+03  0.33644277115E+03  0.00000000000E+00 0.  1.
         25    2    1    2    0    0 -0.12698874633E+02 -0.10376416711E+02 -0.89846043926E+02  0.15488105832E+03  0.12508756603E+03 0.  0.
         23    2    1    2    0    0  0.12698874633E+02  0.10376416711E+02 -0.20370298819E+03  0.22445545187E+03  0.92824625168E+02 0.  0.
          5    1    3    3  502    0 -0.53854963421E+02 -0.23402040895E+02 -0.43684576479E+01  0.59030233147E+02  0.41800000000E+01 0. -1.
         -5    1    3    3    0  502  0.41156088788E+02  0.13025624184E+02 -0.85477586278E+02  0.95850825169E+02  0.41800000000E+01 0. -1.
        -11    1    4    4    0    0 -0.67298822104E+01 -0.34855823541E+02 -0.39858789140E+02  0.53375488953E+02  0.00000000000E+00 0. -1.
         11    1    4    4    0    0  0.19428756844E+02  0.45232240252E+02 -0.16384419905E+03  0.17107996292E+03  0.00000000000E+00 0.  1.
</event>
<event>
 8    1  0.7039283E-009  0.1123184E+03  0.7561462E-02  0.1256336E+00
          2   -1    0    0  501    0  0.00000000000E+00  0.00000000000E+00  0.23536324914E+03  0.23536324914E+03  0.00000000000E+00 0. -1.
         -2   -1    0    0    0  501 -0.00000000000E+00 -0.00000000000E+00 -0.11427914488E+03  0.11427914488E+03  0.00000000000E+00 0.  1.
         25    2    1    2    0    0  0.55351460331E+02 -0.66194573825E+02  0.15740620590E+03  0.21878174702E+03  0.12507291237E+03 0.  0.
         23    2    1    2    0    0 -0.55351460331E+02  0.66194573825E+02 -0.36322101639E+02  0.13086064700E+03  0.91431439353E+02 0.  0.
          5    1    3    3  502    0 -0.24790012818E+02  0.93805879824E+01  0.26916095854E+00  0.26834399827E+02  0.41800000000E+01 0. -1.
         -5    1    3    3    0  502  0.80141473150E+02 -0.75575161808E+02  0.15713704494E+03  0.19194734719E+03  0.41800000000E+01 0. -1.
        -11    1    4    4    0    0 -0.27642620783E+02  0.21660300452E+02  0.30081735378E+02  0.46240608806E+02  0.00000000000E+00 0. -1.
         11    1    4    4    0    0 -0.27708839548E+02  0.44534273373E+02 -0.66403837017E+02  0.84620038197E+02  0.00000000000E+00 0.  1.
</event>
<event>
 8    1  0.7039283E-009  0.2263122E+03  0.7561462E-02  0.1129263E+00
          1   -1    0    0  501    0  0.00000000000E+00  0.00000000000E+00  0.57481128354E+03  0.57481128354E+03  0.00000000000E+00 0. -1.
         -1   -1    0    0    0  501 -0.00000000000E+00 -0.00000000000E+00 -0.10520505396E+03  0.10520505396E+03  0.00000000000E+00 0.  1.
         25    2    1    2    0    0 -0.70154691547E+02 -0.18811076889E+03  0.36739653570E+03  0.43696115748E+03  0.12508995399E+03 0.  0.
         23    2    1    2    0    0  0.70154691547E+02  0.18811076889E+03  0.10220969388E+03  0.24305518002E+03  0.91223115993E+02 0.  0.
          5    1    3    3  502    0 -0.64388601870E+02 -0.24028022905E+02  0.76648049195E+02  0.10303219779E+03  0.41800000000E+01 0.  1.
         -5    1    3    3    0  502 -0.57660896768E+01 -0.16408274599E+03  0.29074848650E+03  0.33392895970E+03  0.41800000000E+01 0.  1.
        -11    1    4    4    0    0  0.71190147389E+02  0.64942059499E+02  0.56310031407E+02  0.11160792003E+03  0.00000000000E+00 0. -1.
         11    1    4    4    0    0 -0.10354558423E+01  0.12316870939E+03  0.45899662477E+02  0.13144725999E+03  0.00000000000E+00 0.  1.
</event>
<event>
 8    1  0.7039283E-009  0.5311693E+02  0.7561462E-02  0.1429220E+00
         -1   -1    0    0    0  501 -0.00000000000E+00  0.00000000000E+00  0.16606756081E+03  0.16606756081E+03  0.00000000000E+00 0.  1.
          1   -1    0    0  501    0  0.00000000000E+00 -0.00000000000E+00 -0.10607504217E+03  0.10607504217E+03  0.00000000000E+00 0. -1.
         25    2    1    2    0    0 -0.18037376299E+02 -0.36122308304E+02  0.99118227809E+02  0.16463096269E+03  0.12509501466E+03 0.  0.
         23    2    1    2    0    0  0.18037376299E+02  0.36122308304E+02 -0.39125709170E+02  0.10751164029E+03  0.91639312406E+02 0.  0.
          5    1    3    3  502    0 -0.96817710503E+01 -0.48585455137E+02  0.12494367507E+03  0.13447184642E+03  0.41800000000E+01 0.  1.
         -5    1    3    3    0  502 -0.83556052484E+01  0.12463146834E+02 -0.25825447257E+02  0.30159116268E+02  0.41800000000E+01 0.  1.
        -11    1    4    4    0    0  0.87936786685E+01  0.24868249661E+02  0.28208965404E+02  0.38619999416E+02  0.00000000000E+00 0.  1.
         11    1    4    4    0    0  0.92436976302E+01  0.11254058642E+02 -0.67334674575E+02  0.68891640871E+02  0.00000000000E+00 0. -1.
</event>
<event>
 8    1  0.7039283E-009  0.1468569E+03  0.7561462E-02  0.1204389E+00
         -1   -1    0    0    0  501 -0.00000000000E+00  0.00000000000E+00  0.29428130387E+03  0.29428130387E+03  0.00000000000E+00 0.  1.
          1   -1    0    0  501    0  0.00000000000E+00 -0.00000000000E+00 -0.88998969802E+02  0.88998969802E+02  0.00000000000E+00 0. -1.
         25    2    1    2    0    0  0.69790185392E+02  0.92664755265E+02  0.12441953327E+03  0.21115112651E+03  0.12508857310E+03 0.  0.
         23    2    1    2    0    0 -0.69790185392E+02 -0.92664755265E+02  0.80862800802E+02  0.17212914717E+03  0.98143893886E+02 0.  0.
          5    1    3    3  502    0  0.97945197309E+02  0.66666163456E+02  0.52725655307E+02  0.12975016822E+03  0.41800000000E+01 0.  1.
         -5    1    3    3    0  502 -0.28155011918E+02  0.25998591809E+02  0.71693877963E+02  0.81400958284E+02  0.41800000000E+01 0.  1.
        -11    1    4    4    0    0 -0.35304943371E+02 -0.95686751023E+02  0.22768098858E+02  0.10450253429E+03  0.00000000000E+00 0. -1.
         11    1    4    4    0    0 -0.34485242021E+02  0.30219957579E+01  0.58094701945E+02  0.67626612880E+02  0.00000000000E+00 0.  1.
</event>
<event>
 8    1  0.7039283E-009  0.1020037E+03  0.7561462E-02  0.1276138E+00
         -2   -1    0    0    0  501 -0.00000000000E+00  0.00000000000E+00  0.18564458770E+02  0.18564458770E+02  0.00000000000E+00 0.  1.
          2   -1    0    0  501    0  0.00000000000E+00 -0.00000000000E+00 -0.78899825822E+03  0.78899825822E+03  0.00000000000E+00 0. -1.
         25    2    1    2    0    0 -0.80411969791E+01  0.48497188752E+02 -0.35355343276E+03  0.37824054215E+03  0.12509692140E+03 0.  0.
         23    2    1    2    0    0  0.80411969791E+01 -0.48497188752E+02 -0.41688036668E+03  0.42932217484E+03  0.90064707370E+02 0.  0.
          5    1    3    3  502    0 -0.23603968530E+02  0.71797683917E+02 -0.33706938298E+03  0.34546388536E+03  0.41800000000E+01 0. -1.
         -5    1    3    3    0  502  0.15562771551E+02 -0.23300495165E+02 -0.16484049788E+02  0.32776656796E+02  0.41800000000E+01 0. -1.
        -11    1    4    4    0    0  0.28744096974E+02 -0.66564690569E+02 -0.34091191962E+03  0.34853696802E+03  0.00000000000E+00 0. -1.
         11    1    4    4    0    0 -0.20702899995E+02  0.18067501817E+02 -0.75968447066E+02  0.80785206812E+02  0.00000000000E+00 0.  1.
</event>
<event>
 8    1  0.7039283E-009  0.2315975E+03  0.7561462E-02  0.1125520E+00
          2   -1    0    0  501    0  0.00000000000E+00  0.00000000000E+00  0.22265109467E+04  0.22265109467E+04  0.00000000000E+00 0.  1.
         -2   -1    0    0    0  501 -0.00000000000E+00 -0.00000000000E+00 -0.27881652022E+02  0.27881652022E+02  0.00000000000E+00 0. -1.
         25    2    1    2    0    0  0.85994822262E+02  0.19106424408E+03  0.15047991353E+04  0.15244567940E+04  0.12508966540E+03 0.  0.
         23    2    1    2    0    0 -0.85994822262E+02 -0.19106424408E+03  0.69383015938E+03  0.72993580471E+03  0.86633331434E+02 0.  0.
          5    1    3    3  502    0  0.11016968811E+03  0.12867651123E+03  0.12290458278E+04  0.12406716422E+04  0.41800000000E+01 0. -1.
         -5    1    3    3    0  502 -0.24174865846E+02  0.62387732845E+02  0.27575330757E+03  0.28378515181E+03  0.41800000000E+01 0. -1.
        -11    1    4    4    0    0 -0.98808123341E+02 -0.12460751514E+03  0.49106989962E+03  0.51617799680E+03  0.00000000000E+00 0. -1.
         11    1    4    4    0    0  0.12813301080E+02 -0.66456728939E+02  0.20276025976E+03  0.21375780791E+03  0.00000000000E+00 0.  1.
</event>
<event>
 8    1  0.7039283E-009  0.1083326E+03  0.7561462E-02  0.1263689E+00
         -2   -1    0    0    0  501 -0.00000000000E+00  0.00000000000E+00  0.46658119775E+02  0.46658119775E+02  0.00000000000E+00 0.  1.
          2   -1    0    0  501    0  0.00000000000E+00 -0.00000000000E+00 -0.26260418584E+03  0.26260418584E+03  0.00000000000E+00 0. -1.
         25    2    1    2    0    0 -0.55914907017E+01  0.15412985203E+02 -0.14207655517E+03  0.19000534256E+03  0.12508979890E+03 0.  0.
         23    2    1    2    0    0  0.55914907017E+01 -0.15412985203E+02 -0.73869510901E+02  0.11925696306E+03  0.92177511994E+02 0.  0.
          5    1    3    3  502    0 -0.51355263360E+02 -0.31227557434E+02 -0.60237926107E+02  0.85197438692E+02  0.41800000000E+01 0.  1.
         -5    1    3    3    0  502  0.45763772658E+02  0.46640542638E+02 -0.81838629062E+02  0.10480790386E+03  0.41800000000E+01 0.  1.
        -11    1    4    4    0    0  0.16354114377E+02 -0.51106172158E+02 -0.57169333324E+02  0.78406827269E+02  0.00000000000E+00 0. -1.
         11    1    4    4    0    0 -0.10762623676E+02  0.35693186955E+02 -0.16700177576E+02  0.40850135795E+02  0.00000000000E+00 0.  1.
</event>
<event>
 8    1  0.7039283E-009  0.1218097E+03  0.7561462E-02  0.1240141E+00
          2   -1    0    0  501    0  0.00000000000E+00  0.00000000000E+00  0.62240834343E+03  0.62240834343E+03  0.00000000000E+00 0. -1.
         -2   -1    0    0    0  501 -0.00000000000E+00 -0.00000000000E+00 -0.80377812843E+02  0.80377812843E+02  0.00000000000E+00 0.  1.
         25    2    1    2    0    0  0.72801516376E+02  0.25444057947E+01  0.56491531389E+03  0.58316684135E+03  0.12509083979E+03 0.  0.
         23    2    1    2    0    0 -0.72801516376E+02 -0.25444057947E+01 -0.22884783309E+02  0.11961931491E+03  0.92078946595E+02 0.  0.
          5    1    3    3  502    0 -0.19420465720E+02 -0.24266133827E+02  0.29464788632E+03  0.29631208050E+03  0.41800000000E+01 0. -1.
         -5    1    3    3    0  502  0.92221982096E+02  0.26810539621E+02  0.27026742757E+03  0.28685476085E+03  0.41800000000E+01 0. -1.
        -11    1    4    4    0    0 -0.93338541006E+02 -0.10866475597E+02 -0.11391494998E+02  0.94656905123E+02  0.00000000000E+00 0.  1.
         11    1    4    4    0    0  0.20537024630E+02  0.83220698019E+01 -0.11493288310E+02  0.24962409792E+02  0.00000000000E+00 0. -1.
</event>
<event>
 8    1  0.7039283E-009  0.1065175E+03  0.7561462E-02  0.1267158E+00
         -3   -1    0    0    0  501 -0.00000000000E+00  0.00000000000E+00  0.21976140325E+03  0.21976140325E+03  0.00000000000E+00 0.  1.
          3   -1    0    0  501    0  0.00000000000E+00 -0.00000000000E+00 -0.66239349159E+02  0.66239349159E+02  0.00000000000E+00 0. -1.
         25    2    1    2    0    0  0.16210423019E+02 -0.45978743214E+02  0.71876779610E+02  0.15228842953E+03  0.12509465088E+03 0.  0.
         23    2    1    2    0    0 -0.16210423019E+02  0.45978743214E+02  0.81645274484E+02  0.13371232289E+03  0.94001126609E+02 0.  0.
          5    1    3    3  502    0  0.53798422486E+02 -0.81558174422E+01  0.81358942538E+02  0.97967022773E+02  0.41800000000E+01 0.  1.
         -5    1    3    3    0  502 -0.37587999466E+02 -0.37822925772E+02 -0.94821629281E+01  0.54321406753E+02  0.41800000000E+01 0.  1.
        -11    1    4    4    0    0 -0.50252579995E+02  0.49762632918E+02  0.46515996107E+02  0.84648563632E+02  0.00000000000E+00 0.  1.
         11    1    4    4    0    0  0.34042156975E+02 -0.37838897038E+01  0.35129278377E+02  0.49063759254E+02  0.00000000000E+00 0. -1.
</event>
<event>
 8    1  0.7039283E-009  0.8270767E+02  0.7561462E-02  0.1321538E+00
          2   -1    0    0  501    0  0.00000000000E+00  0.00000000000E+00  0.59058694391E+03  0.59058694391E+03  0.00000000000E+00 0. -1.
         -2   -1    0    0    0  501 -0.00000000000E+00 -0.00000000000E+00 -0.20312064393E+02  0.20312064393E+02  0.00000000000E+00 0.  1.
         25    2    1    2    0    0 -0.49907267657E+01  0.51671785117E+01  0.28594225934E+03  0.31218944159E+03  0.12509062585E+03 0.  0.
         23    2    1    2    0    0  0.49907267657E+01 -0.51671785117E+01  0.28433262018E+03  0.29870956672E+03  0.91272993068E+02 0.  0.
          5    1    3    3  502    0  0.66059891557E+01  0.39069274044E+02  0.21454168552E+02  0.45252635452E+02  0.41800000000E+01 0. -1.
         -5    1    3    3    0  502 -0.11596715921E+02 -0.33902095532E+02  0.26448809078E+03  0.26693680613E+03  0.41800000000E+01 0. -1.
        -11    1    4    4    0    0 -0.26216898288E+02 -0.36720282087E+02  0.17477149419E+03  0.18050146829E+03  0.00000000000E+00 0. -1.
         11    1    4    4    0    0  0.31207625054E+02  0.31553103575E+02  0.10956112599E+03  0.11820809843E+03  0.00000000000E+00 0.  1.
</event>
<event>
 8    1  0.7039283E-009  0.1042138E+03  0.7561462E-02  0.1271676E+00
         -2   -1    0    0    0  501 -0.00000000000E+00  0.00000000000E+00  0.27665043975E+02  0.27665043975E+02  0.00000000000E+00 0. -1.
          2   -1    0    0  501    0  0.00000000000E+00 -0.00000000000E+00 -0.67103147937E+03  0.67103147937E+03  0.00000000000E+00 0.  1.
         25    2    1    2    0    0 -0.29752419109E+02  0.70308378788E+02 -0.40157008858E+03  0.42747349825E+03  0.12508629461E+03 0.  0.
         23    2    1    2    0    0  0.29752419109E+02 -0.70308378788E+02 -0.24179634682E+03  0.27122302509E+03  0.96270355953E+02 0.  0.
          5    1    3    3  502    0  0.10457456067E+02  0.22284134195E+02 -0.43752733720E+01  0.25348697033E+02  0.41800000000E+01 0.  1.
         -5    1    3    3    0  502 -0.40209875176E+02  0.48024244593E+02 -0.39719481521E+03  0.40212480122E+03  0.41800000000E+01 0.  1.
        -11    1    4    4    0    0 -0.14391524030E+02 -0.74930154461E+02 -0.12716869525E+03  0.14830212764E+03  0.00000000000E+00 0. -1.
         11    1    4    4    0    0  0.44143943139E+02  0.46217756726E+01 -0.11462765157E+03  0.12292089745E+03  0.00000000000E+00 0.  1.
</event>
<event>
 8    1  0.7039283E-009  0.7907874E+02  0.7561462E-02  0.1331686E+00
         -2   -1    0    0    0  501 -0.00000000000E+00  0.00000000000E+00  0.10277324472E+03  0.10277324472E+03  0.00000000000E+00 0.  1.
          2   -1    0    0  501    0  0.00000000000E+00 -0.00000000000E+00 -0.30934002676E+03  0.30934002676E+03  0.00000000000E+00 0. -1.
         25    2    1    2    0    0 -0.35043460371E+01  0.44085757639E+02 -0.26542875610E+03  0.29673990143E+03  0.12508521123E+03 0.  0.
         23    2    1    2    0    0  0.35043460371E+01 -0.44085757639E+02  0.58861974057E+02  0.11537337005E+03  0.88828194057E+02 0.  0.
          5    1    3    3  502    0  0.23144272595E+02 -0.43949398710E+01  0.16280442910E+01  0.23981154656E+02  0.41800000000E+01 0. -1.
         -5    1    3    3    0  502 -0.26648618632E+02  0.48480697510E+02 -0.26705680039E+03  0.27275874677E+03  0.41800000000E+01 0. -1.
        -11    1    4    4    0    0 -0.14146529599E+02 -0.55801496480E+02  0.70646589565E+02  0.91131070038E+02  0.00000000000E+00 0.  1.
         11    1    4    4    0    0  0.17650875636E+02  0.11715738840E+02 -0.11784615508E+02  0.24242300014E+02  0.00000000000E+00 0. -1.
</event>
<event>
 8    1  0.7039283E-009  0.1367700E+03  0.7561462E-02  0.1217742E+00
         -2   -1    0    0    0  501 -0.00000000000E+00  0.00000000000E+00  0.20032489019E+03  0.20032489019E+03  0.00000000000E+00 0.  1.
          2   -1    0    0  501    0  0.00000000000E+00 -0.00000000000E+00 -0.13583055293E+03  0.13583055293E+03  0.00000000000E+00 0. -1.
         25    2    1    2    0    0 -0.59204182186E+02  0.10535754923E+03  0.65999862486E+02  0.18603500467E+03  0.12509073804E+03 0.  0.
         23    2    1    2    0    0  0.59204182186E+02 -0.10535754923E+03 -0.15055252187E+01  0.15012043846E+03  0.89042299314E+02 0.  0.
          5    1    3    3  502    0 -0.75935750577E+02  0.11022639315E+03  0.18400896916E+02  0.13517455888E+03  0.41800000000E+01 0.  1.
         -5    1    3    3    0  502  0.16731568391E+02 -0.48688439122E+01  0.47598965570E+02  0.50860445783E+02  0.41800000000E+01 0.  1.
        -11    1    4    4    0    0  0.20716840342E+02 -0.51475138301E+02  0.43118292620E+02  0.70271363266E+02  0.00000000000E+00 0.  1.
         11    1    4    4    0    0  0.38487341844E+02 -0.53882410933E+02 -0.44623817838E+02  0.79849075190E+02  0.00000000000E+00 0. -1.
</event>
<event>
 8    1  0.7039283E-009  0.9959535E+02  0.7561462E-02  0.1281149E+00
         -2   -1    0    0    0  501 -0.00000000000E+00  0.00000000000E+00  0.39937869677E+02  0.39937869677E+02  0.00000000000E+00 0.  1.
          2   -1    0    0  501    0  0.00000000000E+00 -0.00000000000E+00 -0.51351438879E+03  0.51351438879E+03  0.00000000000E+00 0. -1.
         25    2    1    2    0    0  0.72233829594E+02 -0.57601242859E+02 -0.25230988657E+03  0.29638517571E+03  0.12509302219E+03 0.  0.
         23    2    1    2    0    0 -0.72233829594E+02  0.57601242859E+02 -0.22126663254E+03  0.25706708276E+03  0.92676496729E+02 0.  0.
          5    1    3    3  502    0  0.41522056368E+02 -0.20042338640E+02 -0.24228382329E+03  0.24666718454E+03  0.41800000000E+01 0.  1.
         -5    1    3    3    0  502  0.30711773226E+02 -0.37558904219E+02 -0.10026063288E+02  0.49717991169E+02  0.41800000000E+01 0.  1.
        -11    1    4    4    0    0  0.29299280753E+00  0.24454927292E+02 -0.14389370653E+03  0.14595728174E+03  0.00000000000E+00 0. -1.
         11    1    4    4    0    0 -0.72526822401E+02  0.33146315567E+02 -0.77372926007E+02  0.11110980102E+03  0.00000000000E+00 0.  1.
</event>
<event>
 8    1  0.7039283E-009  0.1614418E+03  0.7561462E-02  0.1187079E+00
          1   -1    0    0  501    0  0.00000000000E+00  0.00000000000E+00  0.36603288027E+03  0.36603288027E+03  0.00000000000E+00 0. -1.
         -1   -1    0    0    0  501 -0.00000000000E+00 -0.00000000000E+00 -0.17766185432E+03  0.17766185432E+03  0.00000000000E+00 0.  1.
         25    2    1    2    0    0 -0.59381397180E+02  0.11600160325E+03  0.29926803941E+03  0.34955813695E+03  0.12508800664E+03 0.  0.
         23    2    1    2    0    0  0.59381397180E+02 -0.11600160325E+03 -0.11089701347E+03  0.19413659765E+03  0.91697048275E+02 0.  0.
          5    1    3    3  502    0 -0.36987244157E+02 -0.77530242579E+01  0.19361198429E+02  0.42667247627E+02  0.41800000000E+01 0. -1.
         -5    1    3    3    0  502 -0.22394153023E+02  0.12375462751E+03  0.27990684098E+03  0.30689088932E+03  0.41800000000E+01 0. -1.
        -11    1    4    4    0    0  0.27634327602E+02 -0.12337833537E+03 -0.92984988054E+02  0.15694609808E+03  0.00000000000E+00 0. -1.
         11    1    4    4    0    0  0.31747069578E+02  0.73767321161E+01 -0.17912025412E+02  0.37190499564E+02  0.00000000000E+00 0.  1.
</event>
<event>
 8    1  0.7039283E-009  0.1535519E+03  0.7561462E-02  0.1196175E+00
         -1   -1    0    0    0  501 -0.00000000000E+00  0.00000000000E+00  0.61730216193E+02  0.61730216193E+02  0.00000000000E+00 0.  1.
          1   -1    0    0  501    0  0.00000000000E+00 -0.00000000000E+00 -0.47405924103E+03  0.47405924103E+03  0.00000000000E+00 0. -1.
         25    2    1    2    0    0  0.11132895688E+03  0.55779954791E+02 -0.15336931992E+03  0.23382464965E+03  0.12508508501E+03 0.  0.
         23    2    1    2    0    0 -0.11132895688E+03 -0.55779954791E+02 -0.25895970491E+03  0.30196480757E+03  0.92828208258E+02 0.  0.
          5    1    3    3  502    0  0.75999374360E+02  0.78963629537E+02 -0.47053956969E+02  0.11934281277E+03  0.41800000000E+01 0. -1.
         -5    1    3    3    0  502  0.35329582519E+02 -0.23183674746E+02 -0.10631536295E+03  0.11448183688E+03  0.41800000000E+01 0. -1.
        -11    1    4    4    0    0  0.61571028021E+01  0.16098363373E+02 -0.35639502031E+02  0.39588398846E+02  0.00000000000E+00 0. -1.
         11    1    4    4    0    0 -0.11748605968E+03 -0.71878318164E+02 -0.22332020288E+03  0.26237640873E+03  0.00000000000E+00 0.  1.
</event>
<event>
 8    1  0.7039283E-009  0.2021662E+03  0.7561462E-02  0.1147924E+00
         -2   -1    0    0    0  501 -0.00000000000E+00  0.00000000000E+00  0.38853365138E+02  0.38853365138E+02  0.00000000000E+00 0.  1.
          2   -1    0    0  501    0  0.00000000000E+00 -0.00000000000E+00 -0.11889420268E+04  0.11889420268E+04  0.00000000000E+00 0. -1.
         25    2    1    2    0    0  0.54093158620E+02  0.17732015021E+03 -0.65803343095E+03  0.69499843673E+03  0.12508527220E+03 0.  0.
         23    2    1    2    0    0 -0.54093158620E+02 -0.17732015021E+03 -0.49205523068E+03  0.53279695518E+03  0.85940327723E+02 0.  0.
          5    1    3    3  502    0  0.77652383802E+02  0.16215614748E+03 -0.44307320619E+03  0.47817972282E+03  0.41800000000E+01 0. -1.
         -5    1    3    3    0  502 -0.23559225182E+02  0.15164002739E+02 -0.21496022476E+03  0.21681871391E+03  0.41800000000E+01 0. -1.
        -11    1    4    4    0    0 -0.43729708883E+01 -0.12083946281E+03 -0.37151793498E+03  0.39070049227E+03  0.00000000000E+00 0. -1.
         11    1    4    4    0    0 -0.49720187732E+02 -0.56480687401E+02 -0.12053729570E+03  0.14209646291E+03  0.00000000000E+00 0.  1.
</event>
<event>
 8    1  0.7039283E-009  0.1057928E+03  0.7561462E-02  0.1268565E+00
          2   -1    0    0  501    0  0.00000000000E+00  0.00000000000E+00  0.31184187247E+03  0.31184187247E+03  0.00000000000E+00 0. -1.
         -2   -1    0    0    0  501 -0.00000000000E+00 -0.00000000000E+00 -0.39148977141E+02  0.39148977141E+02  0.00000000000E+00 0.  1.
         25    2    1    2    0    0 -0.11396174355E+01  0.66461917992E+01  0.19292881458E+03  0.23002903130E+03  0.12508539945E+03 0.  0.
         23    2    1    2    0    0  0.11396174355E+01 -0.66461917992E+01  0.79764080747E+02  0.12096181830E+03  0.90686174893E+02 0.  0.
          5    1    3    3  502    0 -0.56895441465E+01 -0.58830903686E+02  0.84261618374E+02  0.10300941157E+03  0.41800000000E+01 0. -1.
         -5    1    3    3    0  502  0.45499267110E+01  0.65477095485E+02  0.10866719621E+03  0.12701961973E+03  0.41800000000E+01 0. -1.
        -11    1    4    4    0    0 -0.30627619520E+02  0.26611059346E+02  0.56114501956E+02  0.69246204854E+02  0.00000000000E+00 0. -1.
         11    1    4    4    0    0  0.31767236955E+02 -0.33257251145E+02  0.23649578791E+02  0.51715613450E+02  0.00000000000E+00 0.  1.
</event>
<event>
 8    1  0.7039283E-009  0.8960408E+02  0.7561462E-02  0.1303813E+00
          2   -1    0    0  501    0  0.00000000000E+00  0.00000000000E+00  0.37281730380E+03  0.37281730380E+03  0.00000000000E+00 0. -1.
         -2   -1    0    0    0  501 -0.00000000000E+00 -0.00000000000E+00 -0.84617460997E+02  0.84617460997E+02  0.00000000000E+00 0.  1.
         25    2    1    2    0    0 -0.58816531108E+02  0.23684691559E+02  0.31408520465E+03  0.34396767589E+03  0.12507556648E+03 0.  0.
         23    2    1    2    0    0  0.58816531108E+02 -0.23684691559E+02 -0.25885361851E+02  0.11346708890E+03  0.90467559711E+02 0.  0.
          5    1    3    3  502    0 -0.72732670908E+02  0.13568776454E+02  0.31741639149E+03  0.32595213008E+03  0.41800000000E+01 0. -1.
         -5    1    3    3    0  502  0.13916139800E+02  0.10115915104E+02 -0.33311868401E+01  0.18015545818E+02  0.41800000000E+01 0. -1.
        -11    1    4    4    0    0 -0.24705206692E+01  0.14816247583E+02 -0.37285847184E+02  0.40197749503E+02  0.00000000000E+00 0.  1.
         11    1    4    4    0    0  0.61287051777E+02 -0.38500939141E+02  0.11400485334E+02  0.73269339400E+02  0.00000000000E+00 0. -1.
</event>
<event>
 8    1  0.7039283E-009  0.1301263E+03  0.7561462E-02  0.1227268E+00
          1   -1    0    0  501    0  0.00000000000E+00  0.00000000000E+00  0.31625200911E+02  0.31625200911E+02  0.00000000000E+00 0. -1.
         -1   -1    0    0    0  501 -0.00000000000E+00 -0.00000000000E+00 -0.72213348572E+03  0.72213348572E+03  0.00000000000E+00 0.  1.
         25    2    1    2    0    0 -0.24472963997E+02 -0.96140264464E+02 -0.44485266058E+03  0.47263450817E+03  0.12509041639E+03 0.  0.
         23    2    1    2    0    0  0.24472963997E+02  0.96140264464E+02 -0.24565562423E+03  0.28112417846E+03  0.94033194035E+02 0.  0.
          5    1    3    3  502    0 -0.49947834202E+02 -0.91322320835E+02 -0.43005276854E+03  0.44249000955E+03  0.41800000000E+01 0. -1.
         -5    1    3    3    0  502  0.25474870205E+02 -0.48179436294E+01 -0.14799892040E+02  0.30144498622E+02  0.41800000000E+01 0. -1.
        -11    1    4    4    0    0  0.48048098885E+02  0.23576206358E+02 -0.59998421327E+02  0.80400670858E+02  0.00000000000E+00 0.  1.
         11    1    4    4    0    0 -0.23575134888E+02  0.72564058106E+02 -0.18565720291E+03  0.20072350760E+03  0.00000000000E+00 0. -1.
</event>
<event>
 8    1  0.7039283E-009  0.1309118E+03  0.7561462E-02  0.1226109E+00
         -1   -1    0    0    0  501 -0.00000000000E+00  0.00000000000E+00  0.28211874523E+03  0.28211874523E+03  0.00000000000E+00 0.  1.
          1   -1    0    0  501    0  0.00000000000E+00 -0.00000000000E+00 -0.72255642749E+02  0.72255642749E+02  0.00000000000E+00 0. -1.
         25    2    1    2    0    0  0.34554413922E+02  0.79863162851E+02  0.14858398838E+03  0.21282969048E+03  0.12508854162E+03 0.  0.
         23    2    1    2    0    0 -0.34554413922E+02 -0.79863162851E+02  0.61279114101E+02  0.14154469750E+03  0.93314732289E+02 0.  0.
          5    1    3    3  502    0  0.70696445661E+02  0.90065553344E+02  0.11314245063E+03  0.16102322150E+03  0.41800000000E+01 0.  1.
         -5    1    3    3    0  502 -0.36142031739E+02 -0.10202390493E+02  0.35441537744E+02  0.51806468975E+02  0.41800000000E+01 0.  1.
        -11    1    4    4    0    0 -0.47905646045E+02 -0.27105669773E+02  0.67129630504E+02  0.86810457598E+02  0.00000000000E+00 0.  1.
         11    1    4    4    0    0  0.13351232123E+02 -0.52757493079E+02 -0.58505164021E+01  0.54734239899E+02  0.00000000000E+00 0. -1.
</event>
<event>
 8    1  0.7039283E-009  0.1131772E+03  0.7561462E-02  0.1254797E+00
         -2   -1    0    0    0  501 -0.00000000000E+00  0.00000000000E+00  0.19131090670E+03  0.19131090670E+03  0.00000000000E+00 0.  1.
          2   -1    0    0  501    0  0.00000000000E+00 -0.00000000000E+00 -0.29786856583E+03  0.29786856583E+03  0.00000000000E+00 0. -1.
         25    2    1    2    0    0  0.31022244916E+02  0.96228563779E+02 -0.24639686036E+03  0.29424552135E+03  0.12508676139E+03 0.  0.
         23    2    1    2    0    0 -0.31022244916E+02 -0.96228563779E+02  0.13983920123E+03  0.19493395118E+03  0.90674841909E+02 0.  0.
          5    1    3    3  502    0  0.59937195552E+01  0.98753781258E+02 -0.83982117475E+02  0.12984106609E+03  0.41800000000E+01 0. -1.
         -5    1    3    3    0  502  0.25028525361E+02 -0.25252174786E+01 -0.16241474288E+03  0.16440445526E+03  0.41800000000E+01 0. -1.
        -11    1    4    4    0    0 -0.12268491814E+02 -0.57571897500E+02  0.14010388517E+03  0.15196755546E+03  0.00000000000E+00 0.  1.
         11    1    4    4    0    0 -0.18753753102E+02 -0.38656666279E+02 -0.26468394211E+00  0.42966395716E+02  0.00000000000E+00 0. -1.
</event>
<event>
 8    1  0.7039283E-009  0.8265747E+02  0.7561462E-02  0.1321675E+00
          2   -1    0    0  501    0  0.00000000000E+00  0.00000000000E+00  0.48431444762E+02  0.48431444762E+02  0.00000000000E+00 0.  1.
         -2   -1    0    0    0  501 -0.00000000000E+00 -0.00000000000E+00 -0.36563414948E+03  0.36563414948E+03  0.00000000000E+00 0. -1.
         25    2    1    2    0    0  0.14378592948E+02  0.66524288243E+02 -0.23053252564E+03  0.27097054371E+03  0.12509022871E+03 0.  0.
         23    2    1    2    0    0 -0.14378592948E+02 -0.66524288243E+02 -0.86670179082E+02  0.14309505053E+03  0.91281151855E+02 0.  0.
          5    1    3    3  502    0 -0.17207705652E+02  0.31247185667E+02 -0.33647077317E+00  0.35917646896E+02  0.41800000000E+01 0. -1.
         -5    1    3    3    0  502  0.31586298601E+02  0.35277102576E+02 -0.23019605486E+03  0.23505289681E+03  0.41800000000E+01 0. -1.
        -11    1    4    4    0    0 -0.19273910121E+02 -0.46911683880E+01 -0.77979000114E+02  0.80462507611E+02  0.00000000000E+00 0. -1.
         11    1    4    4    0    0  0.48953171723E+01 -0.61833119855E+02 -0.86911789679E+01  0.62632542924E+02  0.00000000000E+00 0.  1.
</event>
<event>
 8    1  0.7039283E-009  0.9886109E+02  0.7561462E-02  0.1282709E+00
         -3   -1    0    0    0  501 -0.00000000000E+00  0.00000000000E+00  0.48393923109E+03  0.48393923109E+03  0.00000000000E+00 0.  1.
          3   -1    0    0  501    0  0.00000000000E+00 -0.00000000000E+00 -0.29681128978E+02  0.29681128978E+02  0.00000000000E+00 0. -1.
         25    2    1    2    0    0 -0.20152165845E+02 -0.45817341586E+02  0.23247252150E+03  0.26869216910E+03  0.12508664959E+03 0.  0.
         23    2    1    2    0    0  0.20152165845E+02  0.45817341586E+02  0.22178558061E+03  0.24492819096E+03  0.91080384188E+02 0.  0.
          5    1    3    3  502    0 -0.50295975357E+02  0.14342350979E+02  0.16568004617E+03  0.17378935027E+03  0.41800000000E+01 0. -1.
         -5    1    3    3    0  502  0.30143809512E+02 -0.60159692565E+02  0.66792475330E+02  0.94902818831E+02  0.41800000000E+01 0. -1.
        -11    1    4    4    0    0  0.68966405501E+01  0.58846221977E+02  0.21806776803E+03  0.22597343416E+03  0.00000000000E+00 0.  1.
         11    1    4    4    0    0  0.13255525295E+02 -0.13028880392E+02  0.37178125788E+01  0.18954756804E+02  0.00000000000E+00 0. -1.
</event>
<event>
 8    1  0.7039283E-009  0.4144253E+03  0.7561462E-02  0.1038896E+00
         -2   -1    0    0    0  501 -0.00000000000E+00  0.00000000000E+00  0.14003348639E+03  0.14003348639E+03  0.00000000000E+00 0.  1.
          2   -1    0    0  501    0  0.00000000000E+00 -0.00000000000E+00 -0.19819487395E+04  0.19819487395E+04  0.00000000000E+00 0. -1.
         25    2    1    2    0    0 -0.30948247669E+02  0.40973211522E+03 -0.30056831651E+03  0.52423970299E+03  0.12509097899E+03 0.  0.
         23    2    1    2    0    0  0.30948247669E+02 -0.40973211522E+03 -0.15413469366E+04  0.15977425229E+04  0.90512928644E+02 0.  0.
          5    1    3    3  502    0 -0.27342457082E+02  0.25991866669E+03 -0.11469274834E+03  0.28544215206E+03  0.41800000000E+01 0. -1.
         -5    1    3    3    0  502 -0.36057905874E+01  0.14981344853E+03 -0.18587556817E+03  0.23879755092E+03  0.41800000000E+01 0. -1.
        -11    1    4    4    0    0 -0.24547344594E+02 -0.10782803775E+03 -0.50070288306E+03  0.51276976799E+03  0.00000000000E+00 0.  1.
         11    1    4    4    0    0  0.55495592264E+02 -0.30190407747E+03 -0.10406440535E+04  0.10849727549E+04  0.00000000000E+00 0. -1.
</event>
<event>
 8    1  0.7039283E-009  0.1621943E+03  0.7561462E-02  0.1186241E+00
         -1   -1    0    0    0  501 -0.00000000000E+00  0.00000000000E+00  0.94935640589E+03  0.94935640589E+03  0.00000000000E+00 0.  1.
          1   -1    0    0  501    0  0.00000000000E+00 -0.00000000000E+00 -0.32058113619E+02  0.32058113619E+02  0.00000000000E+00 0. -1.
         25    2    1    2    0    0 -0.58853914906E+02 -0.10837269266E+03  0.32422800128E+03  0.36875767343E+03  0.12509996438E+03 0.  0.
         23    2    1    2    0    0  0.58853914906E+02  0.10837269266E+03  0.59307029100E+03  0.61265684608E+03  0.91693059586E+02 0.  0.
          5    1    3    3  502    0  0.30478163902E+02 -0.65147648858E+02  0.17756614039E+03  0.19162552345E+03  0.41800000000E+01 0. -1.
         -5    1    3    3    0  502 -0.89332078808E+02 -0.43225043799E+02  0.14666186089E+03  0.17713214998E+03  0.41800000000E+01 0. -1.
        -11    1    4    4    0    0 -0.19259985415E+02 -0.20087961064E+00  0.57632254180E+02  0.60765649118E+02  0.00000000000E+00 0. -1.
         11    1    4    4    0    0  0.78113900321E+02  0.10857357227E+03  0.53543803682E+03  0.55189119696E+03  0.00000000000E+00 0.  1.
</event>
<event>
 8    1  0.7039283E-009  0.3393028E+03  0.7561462E-02  0.1067093E+00
         -2   -1    0    0    0  501 -0.00000000000E+00  0.00000000000E+00  0.91929548542E+02  0.91929548542E+02  0.00000000000E+00 0. -1.
          2   -1    0    0  501    0  0.00000000000E+00 -0.00000000000E+00 -0.15406235763E+04  0.15406235763E+04  0.00000000000E+00 0.  1.
         25    2    1    2    0    0 -0.22637814239E+03 -0.24271685849E+03 -0.10353282200E+04  0.10943998634E+04  0.12509197092E+03 0.  0.
         23    2    1    2    0    0  0.22637814239E+03  0.24271685849E+03 -0.41336580777E+03  0.53815326142E+03  0.92623458149E+02 0.  0.
          5    1    3    3  502    0 -0.19611571768E+03 -0.14410442033E+03 -0.82409389563E+03  0.85928789116E+03  0.41800000000E+01 0.  1.
         -5    1    3    3    0  502 -0.30262424714E+02 -0.98612438160E+02 -0.21123432432E+03  0.23511197222E+03  0.41800000000E+01 0.  1.
        -11    1    4    4    0    0  0.16642735669E+03  0.18264573729E+03 -0.23677743525E+03  0.34222957828E+03  0.00000000000E+00 0. -1.
         11    1    4    4    0    0  0.59950785700E+02  0.60071121205E+02 -0.17658837251E+03  0.19592368314E+03  0.00000000000E+00 0.  1.
</event>
<event>
 8    1  0.7039283E-009  0.2971902E+03  0.7561462E-02  0.1086654E+00
          2   -1    0    0  501    0  0.00000000000E+00  0.00000000000E+00  0.25833005592E+03  0.25833005592E+03  0.00000000000E+00 0. -1.
         -2   -1    0    0    0  501 -0.00000000000E+00 -0.00000000000E+00 -0.36210697886E+03  0.36210697886E+03  0.00000000000E+00 0.  1.
         25    2    1    2    0    0  0.28041279875E+03  0.58047308579E+02 -0.60646682847E+02  0.31831741960E+03  0.12508849564E+03 0.  0.
         23    2    1    2    0    0 -0.28041279875E+03 -0.58047308579E+02 -0.43130240085E+02  0.30211961518E+03  0.86111651557E+02 0.  0.
          5    1    3    3  502    0  0.26585666388E+03  0.19733465946E+02 -0.32891549178E+02  0.26864195840E+03  0.41800000000E+01 0.  1.
         -5    1    3    3    0  502  0.14556134870E+02  0.38313842633E+02 -0.27755133670E+02  0.49675461193E+02  0.41800000000E+01 0.  1.
        -11    1    4    4    0    0 -0.99132936578E+02 -0.25804144829E+02 -0.57436000160E+02  0.11743971696E+03  0.00000000000E+00 0.  1.
         11    1    4    4    0    0 -0.18127986217E+03 -0.32243163750E+02  0.14305760076E+02  0.18467989823E+03  0.00000000000E+00 0. -1.
</event>
<event>
 8    1  0.7039283E-009  0.1416640E+03  0.7561462E-02  0.1211107E+00
          2   -1    0    0  501    0  0.00000000000E+00  0.00000000000E+00  0.41108486251E+03  0.41108486251E+03  0.00000000000E+00 0. -1.
         -2   -1    0    0    0  501 -0.00000000000E+00 -0.00000000000E+00 -0.54758468561E+02  0.54758468561E+02  0.00000000000E+00 0.  1.
         25    2    1    2    0    0 -0.66985019138E+02  0.77099525478E+02  0.21550670156E+03  0.26929892126E+03  0.12508973161E+03 0.  0.
         23    2    1    2    0    0  0.66985019138E+02 -0.77099525478E+02  0.14081969238E+03  0.19654440981E+03  0.91477809590E+02 0.  0.
          5    1    3    3  502    0 -0.65747605325E+02  0.11003378397E+03  0.16946880812E+03  0.21252607027E+03  0.41800000000E+01 0.  1.
         -5    1    3    3    0  502 -0.12374138132E+01 -0.32934258497E+02  0.46037893446E+02  0.56772850982E+02  0.41800000000E+01 0.  1.
        -11    1    4    4    0    0 -0.22890358401E+01  0.10176642673E+02 -0.61506870440E+01  0.12109281245E+02  0.00000000000E+00 0.  1.
         11    1    4    4    0    0  0.69274054978E+02 -0.87276168151E+02  0.14697037943E+03  0.18443512857E+03  0.00000000000E+00 0. -1.
</event>
<event>
 8    1  0.7039283E-009  0.1334810E+03  0.7561462E-02  0.1222380E+00
          2   -1    0    0  501    0  0.00000000000E+00  0.00000000000E+00  0.25304091140E+03  0.25304091140E+03  0.00000000000E+00 0. -1.
         -2   -1    0    0    0  501 -0.00000000000E+00 -0.00000000000E+00 -0.88649143392E+02  0.88649143392E+02  0.00000000000E+00 0.  1.
         25    2    1    2    0    0  0.30677543535E+02 -0.82000424046E+02  0.25686595111E+02  0.15483127160E+03  0.12509092803E+03 0.  0.
         23    2    1    2    0    0 -0.30677543535E+02  0.82000424046E+02  0.13870517289E+03  0.18685878319E+03  0.89509209844E+02 0.  0.
          5    1    3    3  502    0 -0.38914994941E+02 -0.72319030782E+02  0.11535501657E+02  0.83035891294E+02  0.41800000000E+01 0. -1.
         -5    1    3    3    0  502  0.69592538477E+02 -0.96813932641E+01  0.14151093454E+02  0.71795380305E+02  0.41800000000E+01 0. -1.
        -11    1    4    4    0    0 -0.42105159886E+02  0.12515265831E+02  0.18747028305E+02  0.47759056085E+02  0.00000000000E+00 0.  1.
         11    1    4    4    0    0  0.11427616351E+02  0.69485158214E+02  0.11995814459E+03  0.13909972710E+03  0.00000000000E+00 0. -1.
</event>
<event>
 8    1  0.7039283E-009  0.8963729E+02  0.7561462E-02  0.1303732E+00
          2   -1    0    0  501    0  0.00000000000E+00  0.00000000000E+00  0.65826428586E+03  0.65826428586E+03  0.00000000000E+00 0. -1.
         -2   -1    0    0    0  501 -0.00000000000E+00 -0.00000000000E+00 -0.20314966328E+02  0.20314966328E+02  0.00000000000E+00 0.  1.
         25    2    1    2    0    0  0.12648856961E+02 -0.41881236933E+02  0.37309249915E+03  0.39592844844E+03  0.12508913532E+03 0.  0.
         23    2    1    2    0    0 -0.12648856961E+02  0.41881236933E+02  0.26485682038E+03  0.28265080375E+03  0.88477737120E+02 0.  0.
          5    1    3    3  502    0 -0.27203539276E+02  0.25965063348E+02  0.46421290855E+02  0.59888443864E+02  0.41800000000E+01 0.  1.
         -5    1    3    3    0  502  0.39852396237E+02 -0.67846300281E+02  0.32667120830E+03  0.33604000458E+03  0.41800000000E+01 0.  1.
        -11    1    4    4    0    0 -0.22220536219E+01  0.49611427215E+02  0.26505736576E+03  0.26966949842E+03  0.00000000000E+00 0. -1.
         11    1    4    4    0    0 -0.10426803339E+02 -0.77301902821E+01 -0.20054537565E+00  0.12981305332E+02  0.00000000000E+00 0.  1.
</event>
<event>
 8    1  0.7039283E-009  0.1133345E+03  0.7561462E-02  0.1254517E+00
          3   -1    0    0  501    0  0.00000000000E+00  0.00000000000E+00  0.82205442883E+03  0.82205442883E+03  0.00000000000E+00 0. -1.
         -3   -1    0    0    0  501 -0.00000000000E+00 -0.00000000000E+00 -0.17062467785E+02  0.17062467785E+02  0.00000000000E+00 0.  1.
         25    2    1    2    0    0 -0.34356362074E+02 -0.35463669469E+02  0.47827640692E+03  0.49682370968E+03  0.12508975026E+03 0.  0.
         23    2    1    2    0    0  0.34356362074E+02  0.35463669469E+02  0.32671555412E+03  0.34229318693E+03  0.89350663372E+02 0.  0.
          5    1    3    3  502    0  0.35419218686E+01  0.44903089702E+02  0.14605759808E+03  0.15290234476E+03  0.41800000000E+01 0.  1.
         -5    1    3    3    0  502 -0.37898283943E+02 -0.80366759171E+02  0.33221880884E+03  0.34392136493E+03  0.41800000000E+01 0.  1.
        -11    1    4    4    0    0  0.58975215077E+02  0.33396909306E+02  0.29150356097E+03  0.29927872561E+03  0.00000000000E+00 0. -1.
         11    1    4    4    0    0 -0.24618853002E+02  0.20667601631E+01  0.35211993149E+02  0.43014461315E+02  0.00000000000E+00 0.  1.
</event>
<event>
 8    1  0.7039283E-009  0.1983754E+03  0.7561462E-02  0.1151117E+00
          1   -1    0    0  501    0  0.00000000000E+00  0.00000000000E+00  0.18955378952E+03  0.18955378952E+03  0.00000000000E+00 0. -1.
         -1   -1    0    0    0  501 -0.00000000000E+00 -0.00000000000E+00 -0.48627922165E+03  0.48627922165E+03  0.00000000000E+00 0.  1.
         25    2    1    2    0    0  0.64664862763E+02 -0.15578359538E+03 -0.40540700089E+03  0.45656621400E+03  0.12509116009E+03 0.  0.
         23    2    1    2    0    0 -0.64664862763E+02  0.15578359538E+03  0.10868156875E+03  0.21926679717E+03  0.88409116552E+02 0.  0.
          5    1    3    3  502    0  0.55377035824E+02 -0.17491628766E+01 -0.10245830482E+03  0.11655407455E+03  0.41800000000E+01 0. -1.
         -5    1    3    3    0  502  0.92878269389E+01 -0.15403443250E+03 -0.30294869607E+03  0.34001213945E+03  0.41800000000E+01 0. -1.
        -11    1    4    4    0    0 -0.25458888898E+02 -0.72909966265E+00  0.14005618815E+01  0.25507806331E+02  0.00000000000E+00 0.  1.
         11    1    4    4    0    0 -0.39205973865E+02  0.15651269504E+03  0.10728100687E+03  0.19375899084E+03  0.00000000000E+00 0. -1.
</event>
<event>
 8    1  0.7039283E-009  0.1363388E+03  0.7561462E-02  0.1218342E+00
          2   -1    0    0  501    0  0.00000000000E+00  0.00000000000E+00  0.86521103178E+02  0.86521103178E+02  0.00000000000E+00 0. -1.
         -2   -1    0    0    0  501 -0.00000000000E+00 -0.00000000000E+00 -0.44833666316E+03  0.44833666316E+03  0.00000000000E+00 0.  1.
         25    2    1    2    0    0 -0.10217618884E+03 -0.33322733172E+02 -0.21257084179E+02  0.16628073078E+03  0.12508812770E+03 0.  0.
         23    2    1    2    0    0  0.10217618884E+03  0.33322733172E+02 -0.34055847580E+03  0.36857703556E+03  0.91206236556E+02 0.  0.
          5    1    3    3  502    0  0.22804699470E+02 -0.32232450858E+02 -0.20370909879E+01  0.39756852817E+02  0.41800000000E+01 0. -1.
         -5    1    3    3    0  502 -0.12498088831E+03 -0.10902823144E+01 -0.19219993191E+02  0.12652387797E+03  0.41800000000E+01 0. -1.
        -11    1    4    4    0    0  0.50441445163E+02  0.11307728030E+02 -0.28458281308E+03  0.28923966119E+03  0.00000000000E+00 0.  1.
         11    1    4    4    0    0  0.51734743673E+02  0.22015005142E+02 -0.55975662722E+02  0.79337374368E+02  0.00000000000E+00 0. -1.
</event>
<event>
 8    1  0.7039283E-009  0.3161745E+03  0.7561462E-02  0.1077423E+00
         -1   -1    0    0    0  501 -0.00000000000E+00  0.00000000000E+00  0.52630690486E+03  0.52630690486E+03  0.00000000000E+00 0.  1.
          1   -1    0    0  501    0  0.00000000000E+00 -0.00000000000E+00 -0.20183614993E+03  0.20183614993E+03  0.00000000000E+00 0. -1.
         25    2    1    2    0    0  0.18990748945E+03 -0.24087687839E+03  0.17225064996E+03  0.37336893018E+03  0.12509015357E+03 0.  0.
         23    2    1    2    0    0 -0.18990748945E+03  0.24087687839E+03  0.15222010497E+03  0.35477412461E+03  0.92774964534E+02 0.  0.
          5    1    3    3  502    0  0.21753116786E+02 -0.82796991226E+02  0.59842613103E+00  0.85710969892E+02  0.41800000000E+01 0. -1.
         -5    1    3    3    0  502  0.16815437267E+03 -0.15807988717E+03  0.17165222383E+03  0.28765796029E+03  0.41800000000E+01 0. -1.
        -11    1    4    4    0    0 -0.48669637645E+02  0.17883656940E+02  0.38977888084E+01  0.51997611211E+02  0.00000000000E+00 0. -1.
         11    1    4    4    0    0 -0.14123785181E+03  0.22299322145E+03  0.14832231616E+03  0.30277651340E+03  0.00000000000E+00 0.  1.
</event>
<event>
 8    1  0.7039283E-009  0.1259710E+03  0.7561462E-02  0.1233560E+00
         -3   -1    0    0    0  501 -0.00000000000E+00  0.00000000000E+00  0.38332421493E+03  0.38332421493E+03  0.00000000000E+00 0.  1.
          3   -1    0    0  501    0  0.00000000000E+00 -0.00000000000E+00 -0.54267975832E+02  0.54267975832E+02  0.00000000000E+00 0. -1.
         25    2    1    2    0    0 -0.83534181515E+02 -0.52466665417E+01  0.24825489209E+03  0.29031574020E+03  0.12508897063E+03 0.  0.
         23    2    1    2    0    0  0.83534181515E+02  0.52466665417E+01  0.80801347016E+02  0.14727645056E+03  0.90310620747E+02 0.  0.
          5    1    3    3  502    0 -0.36662709043E+02  0.46210018847E+02  0.19145624214E+03  0.20038085021E+03  0.41800000000E+01 0. -1.
         -5    1    3    3    0  502 -0.46871472472E+02 -0.51456685389E+02  0.56798649951E+02  0.89934889999E+02  0.41800000000E+01 0. -1.
        -11    1    4    4    0    0  0.33063239360E+02 -0.42333116604E+02  0.37448551192E+02  0.65480260726E+02  0.00000000000E+00 0.  1.
         11    1    4    4    0    0  0.50470942155E+02  0.47579783145E+02  0.43352795823E+02  0.81796189837E+02  0.00000000000E+00 0. -1.
</event>
<event>
 8    1  0.7039283E-009  0.1124760E+03  0.7561462E-02  0.1256052E+00
         -1   -1    0    0    0  501 -0.00000000000E+00  0.00000000000E+00  0.10631510416E+02  0.10631510416E+02  0.00000000000E+00 0.  1.
          1   -1    0    0  501    0  0.00000000000E+00 -0.00000000000E+00 -0.13449026698E+04  0.13449026698E+04  0.00000000000E+00 0. -1.
         25    2    1    2    0    0  0.89366515649E+01  0.29293075189E+02 -0.97470854596E+03  0.98317940637E+03  0.12508815912E+03 0.  0.
         23    2    1    2    0    0 -0.89366515649E+01 -0.29293075189E+02 -0.35956261340E+03  0.37235477382E+03  0.91787017797E+02 0.  0.
          5    1    3    3  502    0  0.12160314125E+01  0.78589640801E+02 -0.59459286969E+03  0.59977992919E+03  0.41800000000E+01 0.  1.
         -5    1    3    3    0  502  0.77206201524E+01 -0.49296565612E+02 -0.38011567627E+03  0.38339947718E+03  0.41800000000E+01 0.  1.
        -11    1    4    4    0    0  0.41126136630E+02 -0.86972578822E+01 -0.13703828803E+03  0.14334048205E+03  0.00000000000E+00 0. -1.
         11    1    4    4    0    0 -0.50062788195E+02 -0.20595817307E+02 -0.22252432537E+03  0.22901429177E+03  0.00000000000E+00 0.  1.
</event>
<event>
 8    1  0.7039283E-009  0.2168855E+03  0.7561462E-02  0.1136227E+00
          2   -1    0    0  501    0  0.00000000000E+00  0.00000000000E+00  0.87087960032E+02  0.87087960032E+02  0.00000000000E+00 0. -1.
         -2   -1    0    0    0  501 -0.00000000000E+00 -0.00000000000E+00 -0.60933967882E+03  0.60933967882E+03  0.00000000000E+00 0.  1.
         25    2    1    2    0    0  0.16474498944E+03 -0.10751018398E+03 -0.19553590196E+03  0.30427345233E+03  0.12509473864E+03 0.  0.
         23    2    1    2    0    0 -0.16474498944E+03  0.10751018398E+03 -0.32671581683E+03  0.39215418652E+03  0.91336355497E+02 0.  0.
          5    1    3    3  502    0  0.51950457403E+02 -0.90305504335E+02 -0.14696816154E+03  0.18019724483E+03  0.41800000000E+01 0.  1.
         -5    1    3    3    0  502  0.11279453204E+03 -0.17204679641E+02 -0.48567740420E+02  0.12407620750E+03  0.41800000000E+01 0.  1.
        -11    1    4    4    0    0 -0.18713631038E+02  0.58299113128E+02 -0.11513830015E+03  0.13040634471E+03  0.00000000000E+00 0.  1.
         11    1    4    4    0    0 -0.14603135840E+03  0.49211070848E+02 -0.21157751668E+03  0.26174784181E+03  0.00000000000E+00 0. -1.
</event>
<event>
 8    1  0.7039283E-009  0.1818518E+03  0.7561462E-02  0.1166023E+00
          2   -1    0    0  501    0  0.00000000000E+00  0.00000000000E+00  0.99246721354E+03  0.99246721354E+03  0.00000000000E+00 0. -1.
         -2   -1    0    0    0  501 -0.00000000000E+00 -0.00000000000E+00 -0.43661852698E+02  0.43661852698E+02  0.00000000000E+00 0.  1.
         25    2    1    2    0    0 -0.11552762855E+03 -0.10138787082E+03  0.27569928571E+03  0.33953564747E+03  0.12509287131E+03 0.  0.
         23    2    1    2    0    0  0.11552762855E+03  0.10138787082E+03  0.67310607513E+03  0.69659341877E+03  0.92436299076E+02 0.  0.
          5    1    3    3  502    0  0.20968758642E+02  0.72424274253E+01  0.21264296331E+02  0.31012647298E+02  0.41800000000E+01 0.  1.
         -5    1    3    3    0  502 -0.13649638719E+03 -0.10863029824E+03  0.25443498938E+03  0.30852300017E+03  0.41800000000E+01 0.  1.
        -11    1    4    4    0    0  0.48276656041E+02  0.84458967963E+02  0.25794655725E+03  0.27568166277E+03  0.00000000000E+00 0. -1.
         11    1    4    4    0    0  0.67250972510E+02  0.16928902855E+02  0.41515951788E+03  0.42091175600E+03  0.00000000000E+00 0.  1.
</event>
<event>
 8    1  0.7039283E-009  0.1104489E+03  0.7561462E-02  0.1259741E+00
         -2   -1    0    0    0  501 -0.00000000000E+00  0.00000000000E+00  0.15632405603E+03  0.15632405603E+03  0.00000000000E+00 0. -1.
          2   -1    0    0  501    0  0.00000000000E+00 -0.00000000000E+00 -0.81663002831E+02  0.81663002831E+02  0.00000000000E+00 0.  1.
         25    2    1    2    0    0  0.90150055808E+01 -0.31492975628E+02  0.29416924597E+02  0.13261275536E+03  0.12509080538E+03 0.  0.
         23    2    1    2    0    0 -0.90150055808E+01  0.31492975628E+02  0.45244128601E+02  0.10537430350E+03  0.89351188164E+02 0.  0.
          5    1    3    3  502    0 -0.57317950793E+02 -0.14321490292E+02  0.23471151561E+02  0.63708868479E+02  0.41800000000E+01 0.  1.
         -5    1    3    3    0  502  0.66332956374E+02 -0.17171485337E+02  0.59457730354E+01  0.68903886878E+02  0.41800000000E+01 0.  1.
        -11    1    4    4    0    0 -0.25204326189E+02  0.57277422800E+02  0.40554661630E+02  0.74569711017E+02  0.00000000000E+00 0. -1.
         11    1    4    4    0    0  0.16189320608E+02 -0.25784447172E+02  0.46894669715E+01  0.30804592486E+02  0.00000000000E+00 0.  1.
</event>
<event>
 8    1  0.7039283E-009  0.9404176E+02  0.7561462E-02  0.1293349E+00
         -1   -1    0    0    0  501 -0.00000000000E+00  0.00000000000E+00  0.23859059268E+03  0.23859059268E+03  0.00000000000E+00 0.  1.
          1   -1    0    0  501    0  0.00000000000E+00 -0.00000000000E+00 -0.76631847842E+02  0.76631847842E+02  0.00000000000E+00 0. -1.
         25    2    1    2    0    0 -0.23849401831E+02  0.74151841137E+02  0.64572996917E+02  0.16088938838E+03  0.12509370029E+03 0.  0.
         23    2    1    2    0    0  0.23849401831E+02 -0.74151841137E+02  0.97385747921E+02  0.15433305214E+03  0.90925340654E+02 0.  0.
          5    1    3    3  502    0  0.14346503823E+02  0.32017862940E+02  0.91310763567E+02  0.97908598511E+02  0.41800000000E+01 0.  1.
         -5    1    3    3    0  502 -0.38195905654E+02  0.42133978197E+02 -0.26737766650E+02  0.62980789871E+02  0.41800000000E+01 0.  1.
        -11    1    4    4    0    0  0.32739221461E+02 -0.15177429983E+02 -0.44079492134E+01  0.36354381015E+02  0.00000000000E+00 0. -1.
         11    1    4    4    0    0 -0.88898196301E+01 -0.58974411154E+02  0.10179369713E+03  0.11797867112E+03  0.00000000000E+00 0.  1.
</event>
<event>
 8    1  0.7039283E-009  0.1269527E+03  0.7561462E-02  0.1232049E+00
         -2   -1    0    0    0  501 -0.00000000000E+00  0.00000000000E+00  0.14871061032E+02  0.14871061032E+02  0.00000000000E+00 0.  1.
          2   -1    0    0  501    0  0.00000000000E+00 -0.00000000000E+00 -0.13765792404E+04  0.13765792404E+04  0.00000000000E+00 0. -1.
         25    2    1    2    0    0 -0.43038628943E+02 -0.68444478352E+02 -0.10058357920E+04  0.10168037402E+04  0.12508891014E+03 0.  0.
         23    2    1    2    0    0  0.43038628943E+02  0.68444478352E+02 -0.35587238745E+03  0.37464656130E+03  0.84722603525E+02 0.  0.
          5    1    3    3  502    0  0.33332496202E+02 -0.61870789044E+02 -0.40352840993E+03  0.40962385167E+03  0.41800000000E+01 0. -1.
         -5    1    3    3    0  502 -0.76371125144E+02 -0.65736893078E+01 -0.60230738203E+03  0.60717988849E+03  0.41800000000E+01 0. -1.
        -11    1    4    4    0    0  0.16648573064E+02  0.77165948048E+02 -0.31810867836E+03  0.32775736418E+03  0.00000000000E+00 0.  1.
         11    1    4    4    0    0  0.26390055879E+02 -0.87214696956E+01 -0.37763709086E+02  0.46889197124E+02  0.00000000000E+00 0. -1.
</event>
<event>
 8    1  0.7039283E-009  0.8918779E+02  0.7561462E-02  0.1304831E+00
          3   -1    0    0  501    0  0.00000000000E+00  0.00000000000E+00  0.10852720278E+03  0.10852720278E+03  0.00000000000E+00 0. -1.
         -3   -1    0    0    0  501 -0.00000000000E+00 -0.00000000000E+00 -0.11115955288E+03  0.11115955288E+03  0.00000000000E+00 0.  1.
         25    2    1    2    0    0 -0.14757527440E+02  0.56000187725E+01  0.13309152463E+02  0.12678080606E+03  0.12508834646E+03 0.  0.
         23    2    1    2    0    0  0.14757527440E+02 -0.56000187725E+01 -0.15941502566E+02  0.92905949606E+02  0.90156747622E+02 0.  0.
          5    1    3    3  502    0 -0.48493845681E+02 -0.17772326189E+02 -0.35546561894E+02  0.62837402155E+02  0.41800000000E+01 0. -1.
         -5    1    3    3    0  502  0.33736318241E+02  0.23372344962E+02  0.48855714357E+02  0.63943403903E+02  0.41800000000E+01 0. -1.
        -11    1    4    4    0    0 -0.34136421545E+02 -0.11579075677E+02 -0.23558357595E+02  0.43062355741E+02  0.00000000000E+00 0.  1.
         11    1    4    4    0    0  0.48893948985E+02  0.59790569041E+01  0.76168550296E+01  0.49843593865E+02  0.00000000000E+00 0. -1.
</event>
<event>
 8    1  0.7039283E-009  0.1276710E+03  0.7561462E-02  0.1230953E+00
          1   -1    0    0  501    0  0.00000000000E+00  0.00000000000E+00  0.48955738225E+03  0.48955738225E+03  0.00000000000E+00 0. -1.
         -1   -1    0    0    0  501 -0.00000000000E+00 -0.00000000000E+00 -0.40878559700E+02  0.40878559700E+02  0.00000000000E+00 0.  1.
         25    2    1    2    0    0 -0.63642249166E+02  0.51231211237E+02  0.31790135199E+03  0.35125945979E+03  0.12508783159E+03 0.  0.
         23    2    1    2    0    0  0.63642249166E+02 -0.51231211237E+02  0.13077747056E+03  0.17917648216E+03  0.91249614081E+02 0.  0.
          5    1    3    3  502    0 -0.57175860064E+02  0.89743816805E+02  0.26312650019E+03  0.28385922414E+03  0.41800000000E+01 0. -1.
         -5    1    3    3    0  502 -0.64663891023E+01 -0.38512605568E+02  0.54774851804E+02  0.67400235651E+02  0.41800000000E+01 0. -1.
        -11    1    4    4    0    0  0.72184478703E+02 -0.62467327121E+02  0.74316815395E+02  0.12097832440E+03  0.00000000000E+00 0.  1.
         11    1    4    4    0    0 -0.85422295362E+01  0.11236115883E+02  0.56460655167E+02  0.58198157767E+02  0.00000000000E+00 0. -1.
</event>
<event>
 8    1  0.7039283E-009  0.8876965E+02  0.7561462E-02  0.1305859E+00
          3   -1    0    0  501    0  0.00000000000E+00  0.00000000000E+00  0.96163762086E+02  0.96163762086E+02  0.00000000000E+00 0. -1.
         -3   -1    0    0    0  501 -0.00000000000E+00 -0.00000000000E+00 -0.16270956346E+03  0.16270956346E+03  0.00000000000E+00 0.  1.
         25    2    1    2    0    0 -0.13524626597E+01 -0.41386004189E+02 -0.86706348486E+02  0.15773851681E+03  0.12509523699E+03 0.  0.
         23    2    1    2    0    0  0.13524626597E+01  0.41386004189E+02  0.20160547115E+02  0.10113480874E+03  0.90039832187E+02 0.  0.
          5    1    3    3  502    0  0.35667893676E+02 -0.28542510356E+02  0.15321969285E+02  0.48364332721E+02  0.41800000000E+01 0. -1.
         -5    1    3    3    0  502 -0.37020356336E+02 -0.12843493833E+02 -0.10202831777E+03  0.10937418409E+03  0.41800000000E+01 0. -1.
        -11    1    4    4    0    0 -0.39900997715E+02  0.28519816526E+02 -0.78038271499E+01  0.49662554017E+02  0.00000000000E+00 0.  1.
         11    1    4    4    0    0  0.41253460375E+02  0.12866187663E+02  0.27964374265E+02  0.51472254719E+02  0.00000000000E+00 0. -1.
</event>
<event>
 8    1  0.7039283E-009  0.1328539E+03  0.7561462E-02  0.1223281E+00
         -1   -1    0    0    0  501 -0.00000000000E+00  0.00000000000E+00  0.90757959088E+02  0.90757959088E+02  0.00000000000E+00 0.  1.
          1   -1    0    0  501    0  0.00000000000E+00 -0.00000000000E+00 -0.25967960099E+03  0.25967960099E+03  0.00000000000E+00 0. -1.
         25    2    1    2    0    0 -0.89221707568E+02  0.50167726655E+02 -0.50733673435E+02  0.16940354350E+03  0.12508533500E+03 0.  0.
         23    2    1    2    0    0  0.89221707568E+02 -0.50167726655E+02 -0.11818796847E+03  0.18103401657E+03  0.91255714166E+02 0.  0.
          5    1    3    3  502    0 -0.59962494309E+02  0.82591804317E+02  0.23952258185E+00  0.10214909023E+03  0.41800000000E+01 0.  1.
         -5    1    3    3    0  502 -0.29259213258E+02 -0.32424077661E+02 -0.50973196017E+02  0.67254453272E+02  0.41800000000E+01 0.  1.
        -11    1    4    4    0    0  0.97015181871E+01 -0.38025413369E+02 -0.14575767701E+01  0.39270549360E+02  0.00000000000E+00 0.  1.
         11    1    4    4    0    0  0.79520189381E+02 -0.12142313286E+02 -0.11673039170E+03  0.14176346721E+03  0.00000000000E+00 0. -1.
</event>
<event>
 8    1  0.7039283E-009  0.1090094E+03  0.7561462E-02  0.1262415E+00
         -1   -1    0    0    0  501 -0.00000000000E+00  0.00000000000E+00  0.16806092102E+02  0.16806092102E+02  0.00000000000E+00 0.  1.
          1   -1    0    0  501    0  0.00000000000E+00 -0.00000000000E+00 -0.11075765813E+04  0.11075765813E+04  0.00000000000E+00 0. -1.
         25    2    1    2    0    0 -0.35628878232E+02  0.52757697981E+02 -0.82468640540E+03  0.83654547767E+03  0.12509147573E+03 0.  0.
         23    2    1    2    0    0  0.35628878232E+02 -0.52757697981E+02 -0.26608408384E+03  0.28783719577E+03  0.89424381108E+02 0.  0.
          5    1    3    3  502    0 -0.83071238377E+01  0.77864697208E+02 -0.28568224389E+03  0.29624944937E+03  0.41800000000E+01 0.  1.
         -5    1    3    3    0  502 -0.27321754394E+02 -0.25106999227E+02 -0.53900416151E+03  0.54029602830E+03  0.41800000000E+01 0.  1.
        -11    1    4    4    0    0  0.34806643592E+02 -0.73592852806E+02 -0.15778033240E+03  0.17754448376E+03  0.00000000000E+00 0.  1.
         11    1    4    4    0    0  0.82223464005E+00  0.20835154825E+02 -0.10830375144E+03  0.11029271201E+03  0.00000000000E+00 0. -1.
</event>
<event>
 8    1  0.7039283E-009  0.8757991E+02  0.7561462E-02  0.1308820E+00
         -2   -1    0    0    0  501 -0.00000000000E+00  0.00000000000E+00  0.68669975617E+02  0.68669975617E+02  0.00000000000E+00 0.  1.
          2   -1    0    0  501    0  0.00000000000E+00 -0.00000000000E+00 -0.17143994242E+03  0.17143994242E+03  0.00000000000E+00 0. -1.
         25    2    1    2    0    0 -0.52519169695E+01  0.59511014940E+01 -0.73509208987E+02  0.14531000336E+03  0.12509354511E+03 0.  0.
         23    2    1    2    0    0  0.52519169695E+01 -0.59511014940E+01 -0.29260757819E+02  0.94799914685E+02  0.89821120207E+02 0.  0.
          5    1    3    3  502    0 -0.41326939313E+02 -0.14653055247E+02 -0.90171202382E+02  0.10035410345E+03  0.41800000000E+01 0.  1.
         -5    1    3    3    0  502  0.36075022344E+02  0.20604156741E+02  0.16661993395E+02  0.44955899902E+02  0.41800000000E+01 0.  1.
        -11    1    4    4    0    0  0.25356165370E+02  0.35303964448E+02 -0.78954180951E+01  0.44177399821E+02  0.00000000000E+00 0.  1.
         11    1    4    4    0    0 -0.20104248400E+02 -0.41255065942E+02 -0.21365339724E+02  0.50622514864E+02  0.00000000000E+00 0. -1.
</event>
<event>
 8    1  0.7039283E-009  0.1111665E+03  0.7561462E-02  0.1258425E+00
         -1   -1    0    0    0  501 -0.00000000000E+00  0.00000000000E+00  0.23868659628E+02  0.23868659628E+02  0.00000000000E+00 0.  1.
          1   -1    0    0  501    0  0.00000000000E+00 -0.00000000000E+00 -0.14499107495E+04  0.14499107495E+04  0.00000000000E+00 0. -1.
         25    2    1    2    0    0 -0.47190582706E+02 -0.17170766359E+02 -0.13184267439E+04  0.13252993401E+04  0.12508986918E+03 0.  0.
         23    2    1    2    0    0  0.47190582706E+02  0.17170766359E+02 -0.10761534598E+03  0.14848006909E+03  0.89126213395E+02 0.  0.
          5    1    3    3  502    0  0.34585151882E+02  0.51086350030E+01 -0.72290350996E+03  0.72376044931E+03  0.41800000000E+01 0. -1.
         -5    1    3    3    0  502 -0.81775734588E+02 -0.22279401362E+02 -0.59552323395E+03  0.60153889074E+03  0.41800000000E+01 0. -1.
        -11    1    4    4    0    0  0.75982048643E+01  0.50158143353E+02 -0.55349018359E+02  0.75080529401E+02  0.00000000000E+00 0.  1.
         11    1    4    4    0    0  0.39592377842E+02 -0.32987376995E+02 -0.52266327617E+02  0.73399539690E+02  0.00000000000E+00 0. -1.
</event>
<event>
 8    1  0.7039283E-009  0.1032657E+03  0.7561462E-02  0.1273575E+00
         -1   -1    0    0    0  501 -0.00000000000E+00  0.00000000000E+00  0.15548619661E+03  0.15548619661E+03  0.00000000000E+00 0.  1.
          1   -1    0    0  501    0  0.00000000000E+00 -0.00000000000E+00 -0.10277528503E+03  0.10277528503E+03  0.00000000000E+00 0. -1.
         25    2    1    2    0    0 -0.44658721145E+02 -0.43638890781E+02  0.80347379880E+01  0.14003989033E+03  0.12509140541E+03 0.  0.
         23    2    1    2    0    0  0.44658721145E+02  0.43638890781E+02  0.44676173594E+02  0.11822159131E+03  0.89897886529E+02 0.  0.
          5    1    3    3  502    0  0.27389533266E+02  0.29597682349E+00  0.40883353231E+02  0.49388208170E+02  0.41800000000E+01 0. -1.
         -5    1    3    3    0  502 -0.72048254411E+02 -0.43934867604E+02 -0.32848615243E+02  0.90651682160E+02  0.41800000000E+01 0. -1.
        -11    1    4    4    0    0 -0.18971828880E+02  0.40743842050E+01  0.38408582192E+02  0.43031965836E+02  0.00000000000E+00 0.  1.
         11    1    4    4    0    0  0.63630550025E+02  0.39564506576E+02  0.62675914016E+01  0.75189625475E+02  0.00000000000E+00 0. -1.
</event>
<event>
 8    1  0.7039283E-009  0.1217130E+03  0.7561462E-02  0.1240298E+00
         -2   -1    0    0    0  501 -0.00000000000E+00  0.00000000000E+00  0.41799660695E+03  0.41799660695E+03  0.00000000000E+00 0.  1.
          2   -1    0    0  501    0  0.00000000000E+00 -0.00000000000E+00 -0.48126971842E+02  0.48126971842E+02  0.00000000000E+00 0. -1.
         25    2    1    2    0    0 -0.41195627633E+02 -0.48703490955E+02  0.97271015328E+02  0.17081753539E+03  0.12509144738E+03 0.  0.
         23    2    1    2    0    0  0.41195627633E+02  0.48703490955E+02  0.27259861978E+03  0.29530604341E+03  0.93949678002E+02 0.  0.
          5    1    3    3  502    0  0.43386962716E+02 -0.82447659463E+01  0.17661355529E+02  0.47747257286E+02  0.41800000000E+01 0.  1.
         -5    1    3    3    0  502 -0.84582590349E+02 -0.40458725008E+02  0.79609659800E+02  0.12307027811E+03  0.41800000000E+01 0.  1.
        -11    1    4    4    0    0  0.66973935820E+02  0.30133487142E+02  0.23432619698E+03  0.24556526977E+03  0.00000000000E+00 0.  1.
         11    1    4    4    0    0 -0.25778308187E+02  0.18570003812E+02  0.38272422808E+02  0.49740773639E+02  0.00000000000E+00 0. -1.
</event>
<event>
 8    1  0.7039283E-009  0.5455159E+02  0.7561462E-02  0.1422231E+00
          1   -1    0    0  501    0  0.00000000000E+00  0.00000000000E+00  0.51209854275E+02  0.51209854275E+02  0.00000000000E+00 0. -1.
         -1   -1    0    0    0  501 -0.00000000000E+00 -0.00000000000E+00 -0.27586298733E+03  0.27586298733E+03  0.00000000000E+00 0.  1.
         25    2    1    2    0    0 -0.29854896314E+02  0.35466408881E+02 -0.14001089052E+03  0.19338876715E+03  0.12508790830E+03 0.  0.
         23    2    1    2    0    0  0.29854896314E+02 -0.35466408881E+02 -0.84642242535E+02  0.13368407445E+03  0.92509143052E+02 0.  0.
          5    1    3    3  502    0 -0.31069568511E+01  0.25511063155E+02  0.18713577374E+02  0.32064589539E+02  0.41800000000E+01 0.  1.
         -5    1    3    3    0  502 -0.26747939463E+02  0.99553457261E+01 -0.15872446789E+03  0.16132417761E+03  0.41800000000E+01 0.  1.
        -11    1    4    4    0    0  0.34743163366E+02 -0.25423811992E+02 -0.10331486647E+03  0.11192595432E+03  0.00000000000E+00 0.  1.
         11    1    4    4    0    0 -0.48882670526E+01 -0.10042596889E+02  0.18672623935E+02  0.21758120132E+02  0.00000000000E+00 0. -1.
</event>
<event>
 8    1  0.7039283E-009  0.1013393E+03  0.7561462E-02  0.1277505E+00
          1   -1    0    0  501    0  0.00000000000E+00  0.00000000000E+00  0.38796127340E+03  0.38796127340E+03  0.00000000000E+00 0. -1.
         -1   -1    0    0    0  501 -0.00000000000E+00 -0.00000000000E+00 -0.54924812001E+02  0.54924812001E+02  0.00000000000E+00 0.  1.
         25    2    1    2    0    0 -0.53037233769E+02  0.54351592892E+02  0.28261406300E+03  0.31825955854E+03  0.12510553218E+03 0.  0.
         23    2    1    2    0    0  0.53037233769E+02 -0.54351592892E+02  0.50422398396E+02  0.12462652686E+03  0.84984169828E+02 0.  0.
          5    1    3    3  502    0 -0.44092756779E+02  0.79860056936E+02  0.27514811042E+03  0.28990645899E+03  0.41800000000E+01 0. -1.
         -5    1    3    3    0  502 -0.89444769896E+01 -0.25508464044E+02  0.74659525833E+01  0.28353099557E+02  0.41800000000E+01 0. -1.
        -11    1    4    4    0    0  0.22293431144E+02 -0.86081852067E+00 -0.20727337503E+02  0.30452595960E+02  0.00000000000E+00 0.  1.
         11    1    4    4    0    0  0.30743802624E+02 -0.53490774371E+02  0.71149735899E+02  0.94173930900E+02  0.00000000000E+00 0. -1.
</event>
<event>
 8    1  0.7039283E-009  0.1904450E+03  0.7561462E-02  0.1158061E+00
         -1   -1    0    0    0  501 -0.00000000000E+00  0.00000000000E+00  0.16944130656E+03  0.16944130656E+03  0.00000000000E+00 0.  1.
          1   -1    0    0  501    0  0.00000000000E+00 -0.00000000000E+00 -0.38132952108E+03  0.38132952108E+03  0.00000000000E+00 0. -1.
         25    2    1    2    0    0  0.13578707733E+03 -0.10494240778E+03 -0.27486111427E+03  0.34734300482E+03  0.12508993381E+03 0.  0.
         23    2    1    2    0    0 -0.13578707733E+03  0.10494240778E+03  0.62972899761E+02  0.20342782281E+03  0.89253872021E+02 0.  0.
          5    1    3    3  502    0 -0.13196568283E+02  0.76921313685E+01 -0.62636273223E+02  0.64607224230E+02  0.41800000000E+01 0.  1.
         -5    1    3    3    0  502  0.14898364561E+03 -0.11263453915E+03 -0.21222484105E+03  0.28273578059E+03  0.41800000000E+01 0.  1.
        -11    1    4    4    0    0 -0.93647969845E+02  0.97964658704E+02  0.10733536172E+02  0.13594934869E+03  0.00000000000E+00 0. -1.
         11    1    4    4    0    0 -0.42139107481E+02  0.69777490760E+01  0.52239363589E+02  0.67478474121E+02  0.00000000000E+00 0.  1.
</event>
<event>
 8    1  0.7039283E-009  0.1485696E+03  0.7561462E-02  0.1202242E+00
          2   -1    0    0  501    0  0.00000000000E+00  0.00000000000E+00  0.46719306918E+03  0.46719306918E+03  0.00000000000E+00 0. -1.
         -2   -1    0    0    0  501 -0.00000000000E+00 -0.00000000000E+00 -0.66248550430E+02  0.66248550430E+02  0.00000000000E+00 0.  1.
         25    2    1    2    0    0 -0.11680712702E+03 -0.45372835376E+02  0.12628146574E+03  0.21747905787E+03  0.12509009917E+03 0.  0.
         23    2    1    2    0    0  0.11680712702E+03  0.45372835376E+02  0.27466305301E+03  0.31596256174E+03  0.93219893900E+02 0.  0.
          5    1    3    3  502    0 -0.35580137072E+02  0.33079216866E+02  0.10131591183E+01  0.48771709360E+02  0.41800000000E+01 0.  1.
         -5    1    3    3    0  502 -0.81226989950E+02 -0.78452052242E+02  0.12526830662E+03  0.16870734851E+03  0.41800000000E+01 0.  1.
        -11    1    4    4    0    0  0.74541447749E+02  0.16469999351E+01  0.22628796233E+03  0.23825486760E+03  0.00000000000E+00 0. -1.
         11    1    4    4    0    0  0.42265679273E+02  0.43725835441E+02  0.48375090676E+02  0.77707694132E+02  0.00000000000E+00 0.  1.
</event>
<event>
 8    1  0.7039283E-009  0.8499712E+02  0.7561462E-02  0.1315440E+00
          1   -1    0    0  501    0  0.00000000000E+00  0.00000000000E+00  0.32738705675E+02  0.32738705675E+02  0.00000000000E+00 0. -1.
         -1   -1    0    0    0  501 -0.00000000000E+00 -0.00000000000E+00 -0.42126401566E+03  0.42126401566E+03  0.00000000000E+00 0.  1.
         25    2    1    2    0    0  0.60231486213E+01  0.54037340797E+01 -0.30439667000E+03  0.32919985142E+03  0.12509888412E+03 0.  0.
         23    2    1    2    0    0 -0.60231486213E+01 -0.54037340797E+01 -0.84128639986E+02  0.12480286991E+03  0.91829459386E+02 0.  0.
          5    1    3    3  502    0  0.30052501098E+02  0.58877790032E+02 -0.17351027047E+03  0.18572300164E+03  0.41800000000E+01 0.  1.
         -5    1    3    3    0  502 -0.24029352477E+02 -0.53474055952E+02 -0.13088639953E+03  0.14347684978E+03  0.41800000000E+01 0.  1.
        -11    1    4    4    0    0  0.16508378822E+02  0.84389504178E+01 -0.94571324409E+02  0.96371561448E+02  0.00000000000E+00 0.  1.
         11    1    4    4    0    0 -0.22531527444E+02 -0.13842684497E+02  0.10442684422E+02  0.28431308464E+02  0.00000000000E+00 0. -1.
</event>
<event>
 8    1  0.7039283E-009  0.1122671E+03  0.7561462E-02  0.1256428E+00
         -1   -1    0    0    0  501 -0.00000000000E+00  0.00000000000E+00  0.22609011004E+02  0.22609011004E+02  0.00000000000E+00 0.  1.
          1   -1    0    0  501    0  0.00000000000E+00 -0.00000000000E+00 -0.69487495768E+03  0.69487495768E+03  0.00000000000E+00 0. -1.
         25    2    1    2    0    0 -0.33204722632E+02 -0.34762598687E+02 -0.25480119581E+03  0.28789212770E+03  0.12508891212E+03 0.  0.
         23    2    1    2    0    0  0.33204722632E+02  0.34762598687E+02 -0.41746475087E+03  0.42959184098E+03  0.89226339993E+02 0.  0.
          5    1    3    3  502    0 -0.21038284680E+02 -0.80002071029E+02 -0.12613237996E+03  0.15089662178E+03  0.41800000000E+01 0. -1.
         -5    1    3    3    0  502 -0.12166437953E+02  0.45239472342E+02 -0.12866881585E+03  0.13699550592E+03  0.41800000000E+01 0. -1.
        -11    1    4    4    0    0  0.58136562096E+02  0.38115464310E+02 -0.36302031835E+03  0.36961655808E+03  0.00000000000E+00 0. -1.
         11    1    4    4    0    0 -0.24931839464E+02 -0.33528656230E+01 -0.54444432513E+02  0.59975282897E+02  0.00000000000E+00 0.  1.
</event>
<event>
 8    1  0.7039283E-009  0.8198583E+02  0.7561462E-02  0.1323509E+00
          2   -1    0    0  501    0  0.00000000000E+00  0.00000000000E+00  0.46511074710E+03  0.46511074710E+03  0.00000000000E+00 0. -1.
         -2   -1    0    0    0  501 -0.00000000000E+00 -0.00000000000E+00 -0.28853168455E+02  0.28853168455E+02  0.00000000000E+00 0.  1.
         25    2    1    2    0    0  0.14933362357E+02 -0.31819316668E+02  0.20235875252E+03  0.24048674628E+03  0.12509730689E+03 0.  0.
         23    2    1    2    0    0 -0.14933362357E+02  0.31819316668E+02  0.23389882613E+03  0.25347716927E+03  0.91140223041E+02 0.  0.
          5    1    3    3  502    0  0.44708538336E+00 -0.59274527556E+02  0.20048709787E+03  0.20910814981E+03  0.41800000000E+01 0.  1.
         -5    1    3    3    0  502  0.14486276973E+02  0.27455210888E+02  0.18716546463E+01  0.31378596472E+02  0.41800000000E+01 0.  1.
        -11    1    4    4    0    0  0.24700060402E+02  0.45463239265E+01  0.14785051966E+02  0.29143778182E+02  0.00000000000E+00 0.  1.
         11    1    4    4    0    0 -0.39633422758E+02  0.27272992742E+02  0.21911377416E+03  0.22433339109E+03  0.00000000000E+00 0. -1.
</event>
<event>
 8    1  0.7039283E-009  0.1294192E+03  0.7561462E-02  0.1228320E+00
          2   -1    0    0  501    0  0.00000000000E+00  0.00000000000E+00  0.12854569916E+03  0.12854569916E+03  0.00000000000E+00 0. -1.
         -2   -1    0    0    0  501 -0.00000000000E+00 -0.00000000000E+00 -0.15356033575E+03  0.15356033575E+03  0.00000000000E+00 0.  1.
         25    2    1    2    0    0 -0.61690002239E+02 -0.63495323251E+02 -0.15682108483E+02  0.15404368388E+03  0.12508483347E+03 0.  0.
         23    2    1    2    0    0  0.61690002239E+02  0.63495323251E+02 -0.93325281073E+01  0.12806235104E+03  0.92062789558E+02 0.  0.
          5    1    3    3  502    0  0.21378132536E+02 -0.50056119424E+02  0.25514977781E+02  0.60258826189E+02  0.41800000000E+01 0.  1.
         -5    1    3    3    0  502 -0.83068134776E+02 -0.13439203827E+02 -0.41197086264E+02  0.93784857686E+02  0.41800000000E+01 0.  1.
        -11    1    4    4    0    0  0.24347619267E+02 -0.18049107654E+02  0.16789402492E+02  0.34647667845E+02  0.00000000000E+00 0. -1.
         11    1    4    4    0    0  0.37342382972E+02  0.81544430904E+02 -0.26121930599E+02  0.93414683191E+02  0.00000000000E+00 0.  1.
</event>
<event>
 8    1  0.7039283E-009  0.8766554E+02  0.7561462E-02  0.1308605E+00
          2   -1    0    0  501    0  0.00000000000E+00  0.00000000000E+00  0.23812643098E+03  0.23812643098E+03  0.00000000000E+00 0. -1.
         -2   -1    0    0    0  501 -0.00000000000E+00 -0.00000000000E+00 -0.10085611468E+03  0.10085611468E+03  0.00000000000E+00 0.  1.
         25    2    1    2    0    0 -0.26523414312E+02 -0.55473736908E+02 -0.27309564565E+02  0.14203628314E+03  0.12509063282E+03 0.  0.
         23    2    1    2    0    0  0.26523414312E+02  0.55473736908E+02  0.16457988087E+03  0.19694626252E+03  0.88997000725E+02 0.  0.
          5    1    3    3  502    0  0.37714267684E+01 -0.18561689003E+02 -0.73169691058E+02  0.75697001579E+02  0.41800000000E+01 0. -1.
         -5    1    3    3    0  502 -0.30294841080E+02 -0.36912047905E+02  0.45860126493E+02  0.66339281565E+02  0.41800000000E+01 0. -1.
        -11    1    4    4    0    0 -0.27473540417E+02  0.45407957457E+02  0.86447246297E+02  0.10143867318E+03  0.00000000000E+00 0. -1.
         11    1    4    4    0    0  0.53996954728E+02  0.10065779451E+02  0.78132634576E+02  0.95507589340E+02  0.00000000000E+00 0.  1.
</event>
<event>
 8    1  0.7039283E-009  0.1373037E+03  0.7561462E-02  0.1217004E+00
         -1   -1    0    0    0  501 -0.00000000000E+00  0.00000000000E+00  0.33418168785E+03  0.33418168785E+03  0.00000000000E+00 0.  1.
          1   -1    0    0  501    0  0.00000000000E+00 -0.00000000000E+00 -0.84202164433E+02  0.84202164433E+02  0.00000000000E+00 0. -1.
         25    2    1    2    0    0 -0.12097991862E+03 -0.19884164326E+02  0.88569699005E+02  0.19627390269E+03  0.12508929848E+03 0.  0.
         23    2    1    2    0    0  0.12097991862E+03  0.19884164326E+02  0.16140982441E+03  0.22210994960E+03  0.90819478038E+02 0.  0.
          5    1    3    3  502    0 -0.42810616732E+02 -0.19787081732E+02 -0.28633805349E+02  0.55332130966E+02  0.41800000000E+01 0. -1.
         -5    1    3    3    0  502 -0.78169301892E+02 -0.97082594033E-01  0.11720350435E+03  0.14094177172E+03  0.41800000000E+01 0. -1.
        -11    1    4    4    0    0  0.13081529164E+03  0.30690406599E+02  0.12769982778E+03  0.18536932756E+03  0.00000000000E+00 0. -1.
         11    1    4    4    0    0 -0.98353730209E+01 -0.10806242273E+02  0.33709996633E+02  0.36740622035E+02  0.00000000000E+00 0.  1.
</event>
<event>
 8    1  0.7039283E-009  0.9279368E+02  0.7561462E-02  0.1296224E+00
          2   -1    0    0  501    0  0.00000000000E+00  0.00000000000E+00  0.93531070165E+02  0.93531070165E+02  0.00000000000E+00 0.  1.
         -2   -1    0    0    0  501 -0.00000000000E+00 -0.00000000000E+00 -0.12956701825E+03  0.12956701825E+03  0.00000000000E+00 0. -1.
         25    2    1    2    0    0  0.52654366816E+01 -0.98462516856E+01 -0.34188038592E+01  0.12563720207E+03  0.12509334446E+03 0.  0.
         23    2    1    2    0    0 -0.52654366816E+01  0.98462516856E+01 -0.32617144221E+02  0.97460886341E+02  0.91159600556E+02 0.  0.
          5    1    3    3  502    0 -0.47421512686E+02 -0.15333303803E+02  0.34150230566E+02  0.60560884395E+02  0.41800000000E+01 0.  1.
         -5    1    3    3    0  502  0.52686949367E+02  0.54870521171E+01 -0.37569034425E+02  0.65076317676E+02  0.41800000000E+01 0.  1.
        -11    1    4    4    0    0 -0.37914261154E+02 -0.15645022641E+02 -0.37723874858E+02  0.55725655372E+02  0.00000000000E+00 0. -1.
         11    1    4    4    0    0  0.32648824472E+02  0.25491274327E+02  0.51067306371E+01  0.41735230969E+02  0.00000000000E+00 0.  1.
</event>
<event>
 8    1  0.7039283E-009  0.1023096E+03  0.7561462E-02  0.1275513E+00
         -1   -1    0    0    0  501 -0.00000000000E+00  0.00000000000E+00  0.34243746617E+03  0.34243746617E+03  0.00000000000E+00 0.  1.
          1   -1    0    0  501    0  0.00000000000E+00 -0.00000000000E+00 -0.50092550428E+02  0.50092550428E+02  0.00000000000E+00 0. -1.
         25    2    1    2    0    0 -0.41634335953E+02 -0.40205860936E+02  0.93927771561E+02  0.16679529164E+03  0.12509322068E+03 0.  0.
         23    2    1    2    0    0  0.41634335953E+02  0.40205860936E+02  0.19841714418E+03  0.22573472495E+03  0.90757224292E+02 0.  0.
          5    1    3    3  502    0  0.33466983163E+02 -0.24548532336E+02 -0.44719697186E+01  0.41954026208E+02  0.41800000000E+01 0.  1.
         -5    1    3    3    0  502 -0.75101319117E+02 -0.15657328600E+02  0.98399741279E+02  0.12484126544E+03  0.41800000000E+01 0.  1.
        -11    1    4    4    0    0  0.36517379171E+02  0.57457402965E+02  0.19611251313E+03  0.20759332828E+03  0.00000000000E+00 0.  1.
         11    1    4    4    0    0  0.51169567825E+01 -0.17251542029E+02  0.23046310444E+01  0.18141396676E+02  0.00000000000E+00 0. -1.
</event>
<event>
 8    1  0.7039283E-009  0.3001254E+03  0.7561462E-02  0.1085178E+00
          2   -1    0    0  501    0  0.00000000000E+00  0.00000000000E+00  0.36536387986E+03  0.36536387986E+03  0.00000000000E+00 0. -1.
         -2   -1    0    0    0  501 -0.00000000000E+00 -0.00000000000E+00 -0.25432281042E+03  0.25432281042E+03  0.00000000000E+00 0.  1.
         25    2    1    2    0    0 -0.28109998921E+03 -0.34204756853E+02  0.26944186666E+02  0.31074145646E+03  0.12508834575E+03 0.  0.
         23    2    1    2    0    0  0.28109998921E+03  0.34204756853E+02  0.84096882777E+02  0.30894523381E+03  0.90485924184E+02 0.  0.
          5    1    3    3  502    0 -0.19279135264E+02 -0.39272463266E+02  0.21152697639E+02  0.48774178055E+02  0.41800000000E+01 0. -1.
         -5    1    3    3    0  502 -0.26182085395E+03  0.50677064127E+01  0.57914890265E+01  0.26196727841E+03  0.41800000000E+01 0. -1.
        -11    1    4    4    0    0  0.10119733487E+03 -0.26361780820E+02  0.95573649069E+01  0.10501041518E+03  0.00000000000E+00 0.  1.
         11    1    4    4    0    0  0.17990265435E+03  0.60566537673E+02  0.74539517870E+02  0.20393481863E+03  0.00000000000E+00 0. -1.
</event>
<event>
 8    1  0.7039283E-009  0.6377482E+02  0.7561462E-02  0.1382640E+00
         -1   -1    0    0    0  501 -0.00000000000E+00  0.00000000000E+00  0.78290081157E+02  0.78290081157E+02  0.00000000000E+00 0.  1.
          1   -1    0    0  501    0  0.00000000000E+00 -0.00000000000E+00 -0.19787963095E+03  0.19787963095E+03  0.00000000000E+00 0. -1.
         25    2    1    2    0    0  0.26108665438E+02  0.35637659538E+02 -0.11536609788E+03  0.17580803313E+03  0.12508965899E+03 0.  0.
         23    2    1    2    0    0 -0.26108665438E+02 -0.35637659538E+02 -0.42234519102E+01  0.10036167897E+03  0.90016242267E+02 0.  0.
          5    1    3    3  502    0  0.12031002214E+02  0.10714449596E+01  0.26303727428E+02  0.29244683024E+02  0.41800000000E+01 0.  1.
         -5    1    3    3    0  502  0.14077663224E+02  0.34566214578E+02 -0.14166982531E+03  0.14656335011E+03  0.41800000000E+01 0.  1.
        -11    1    4    4    0    0  0.80387479816E+01 -0.41754200724E+02  0.29679996446E+02  0.51854960575E+02  0.00000000000E+00 0.  1.
         11    1    4    4    0    0 -0.34147413419E+02  0.61165411863E+01 -0.33903448356E+02  0.48506718398E+02  0.00000000000E+00 0. -1.
</event>
<event>
 8    1  0.7039283E-009  0.1337508E+03  0.7561462E-02  0.1221994E+00
          2   -1    0    0  501    0  0.00000000000E+00  0.00000000000E+00  0.44296747650E+03  0.44296747650E+03  0.00000000000E+00 0. -1.
         -2   -1    0    0    0  501 -0.00000000000E+00 -0.00000000000E+00 -0.43275442281E+02  0.43275442281E+02  0.00000000000E+00 0.  1.
         25    2    1    2    0    0  0.75603578178E+02  0.23104697326E+02  0.27322859185E+03  0.31072543527E+03  0.12508678847E+03 0.  0.
         23    2    1    2    0    0 -0.75603578178E+02 -0.23104697326E+02  0.12646344237E+03  0.17551748351E+03  0.92540027499E+02 0.  0.
          5    1    3    3  502    0 -0.10107606419E+02 -0.38838053094E+02  0.55273234561E+02  0.68433624297E+02  0.41800000000E+01 0.  1.
         -5    1    3    3    0  502  0.85711184597E+02  0.61942750421E+02  0.21795535728E+03  0.24229181097E+03  0.41800000000E+01 0.  1.
        -11    1    4    4    0    0 -0.97027862159E+02 -0.23722616600E+02  0.10923455754E+03  0.14801809732E+03  0.00000000000E+00 0.  1.
         11    1    4    4    0    0  0.21424283980E+02  0.61791927327E+00  0.17228884835E+02  0.27499386192E+02  0.00000000000E+00 0. -1.
</event>
<event>
 8    1  0.7039283E-009  0.1406616E+03  0.7561462E-02  0.1212441E+00
          1   -1    0    0  501    0  0.00000000000E+00  0.00000000000E+00  0.50618242547E+03  0.50618242547E+03  0.00000000000E+00 0. -1.
         -1   -1    0    0    0  501 -0.00000000000E+00 -0.00000000000E+00 -0.42014227882E+02  0.42014227882E+02  0.00000000000E+00 0.  1.
         25    2    1    2    0    0  0.40754779354E+02  0.87986509630E+02  0.24964082863E+03  0.29558491904E+03  0.12508926065E+03 0.  0.
         23    2    1    2    0    0 -0.40754779354E+02 -0.87986509630E+02  0.21452736895E+03  0.25261173431E+03  0.91586671314E+02 0.  0.
          5    1    3    3  502    0  0.73204006249E+02  0.88980866435E+02  0.23034009500E+03  0.25758581655E+03  0.41800000000E+01 0.  1.
         -5    1    3    3    0  502 -0.32449226895E+02 -0.99435680506E+00  0.19300733628E+02  0.37999102491E+02  0.41800000000E+01 0.  1.
        -11    1    4    4    0    0  0.46825212735E+01  0.17669682355E+02  0.32721021273E+02  0.37480780583E+02  0.00000000000E+00 0.  1.
         11    1    4    4    0    0 -0.45437300628E+02 -0.10565619198E+03  0.18180634768E+03  0.21513095372E+03  0.00000000000E+00 0. -1.
</event>
<event>
 8    1  0.7039283E-009  0.1060510E+03  0.7561462E-02  0.1268063E+00
          2   -1    0    0  501    0  0.00000000000E+00  0.00000000000E+00  0.68639605523E+02  0.68639605523E+02  0.00000000000E+00 0. -1.
         -2   -1    0    0    0  501 -0.00000000000E+00 -0.00000000000E+00 -0.18321971476E+03  0.18321971476E+03  0.00000000000E+00 0.  1.
         25    2    1    2    0    0 -0.37280741466E+02 -0.61198434112E+01 -0.82548725935E+02  0.15455921089E+03  0.12508777459E+03 0.  0.
         23    2    1    2    0    0  0.37280741466E+02  0.61198434112E+01 -0.32031383298E+02  0.97300109385E+02  0.83749600613E+02 0.  0.
          5    1    3    3  502    0  0.22610453378E+02  0.42002989873E+02 -0.10231761433E+02  0.48965754382E+02  0.41800000000E+01 0.  1.
         -5    1    3    3    0  502 -0.59891194844E+02 -0.48122833284E+02 -0.72316964503E+02  0.10559345651E+03  0.41800000000E+01 0.  1.
        -11    1    4    4    0    0  0.30144200429E+02  0.41437880489E+02 -0.33529337080E+02  0.61237139090E+02  0.00000000000E+00 0.  1.
         11    1    4    4    0    0  0.71365410365E+01 -0.35318037078E+02  0.14979537819E+01  0.36062970295E+02  0.00000000000E+00 0. -1.
</event>
<event>
 8    1  0.7039283E-009  0.9430036E+02  0.7561462E-02  0.1292760E+00
         -1   -1    0    0    0  501 -0.00000000000E+00  0.00000000000E+00  0.18577983980E+02  0.18577983980E+02  0.00000000000E+00 0.  1.
          1   -1    0    0  501    0  0.00000000000E+00 -0.00000000000E+00 -0.10036056227E+04  0.10036056227E+04  0.00000000000E+00 0. -1.
         25    2    1    2    0    0 -0.57898805872E+01  0.26212463535E+01 -0.85291032756E+03  0.86205822154E+03  0.12509179362E+03 0.  0.
         23    2    1    2    0    0  0.57898805872E+01 -0.26212463535E+01 -0.13211731118E+03  0.16012538515E+03  0.90248331876E+02 0.  0.
          5    1    3    3  502    0 -0.18168258317E+02 -0.59129171391E+02 -0.44281694209E+03  0.44713606555E+03  0.41800000000E+01 0. -1.
         -5    1    3    3    0  502  0.12378377730E+02  0.61750417744E+02 -0.41009338547E+03  0.41492215599E+03  0.41800000000E+01 0. -1.
        -11    1    4    4    0    0 -0.28708441784E+02  0.14618990799E+01 -0.11990444341E+03  0.12330201672E+03  0.00000000000E+00 0. -1.
         11    1    4    4    0    0  0.34498322372E+02 -0.40831454335E+01 -0.12212867769E+02  0.36823368426E+02  0.00000000000E+00 0.  1.
</event>
<event>
 8    1  0.7039283E-009  0.1408319E+03  0.7561462E-02  0.1212214E+00
          4   -1    0    0  501    0  0.00000000000E+00  0.00000000000E+00  0.11023638211E+03  0.11023638211E+03  0.00000000000E+00 0. -1.
         -4   -1    0    0    0  501 -0.00000000000E+00 -0.00000000000E+00 -0.18906829241E+03  0.18906829241E+03  0.00000000000E+00 0.  1.
         25    2    1    2    0    0  0.40741799725E+02 -0.85702469297E+02 -0.49392719275E+02  0.16459483958E+03  0.12508802105E+03 0.  0.
         23    2    1    2    0    0 -0.40741799725E+02  0.85702469297E+02 -0.29439191026E+02  0.13470983494E+03  0.90968490001E+02 0.  0.
          5    1    3    3  502    0  0.45048930755E+02  0.16257296428E+02  0.59281505574E+01  0.48438839977E+02  0.41800000000E+01 0. -1.
         -5    1    3    3    0  502 -0.43071310300E+01 -0.10195976573E+03 -0.55320869833E+02  0.11615599960E+03  0.41800000000E+01 0. -1.
        -11    1    4    4    0    0 -0.53042314961E+02  0.90368522669E+01 -0.11796858580E+02  0.55084641667E+02  0.00000000000E+00 0.  1.
         11    1    4    4    0    0  0.12300515236E+02  0.76665617030E+02 -0.17642332446E+02  0.79625193274E+02  0.00000000000E+00 0. -1.
</event>
<event>
 8    1  0.7039283E-009  0.1048081E+03  0.7561462E-02  0.1270498E+00
         -1   -1    0    0    0  501 -0.00000000000E+00  0.00000000000E+00  0.72251095695E+03  0.72251095695E+03  0.00000000000E+00 0.  1.
          1   -1    0    0  501    0  0.00000000000E+00 -0.00000000000E+00 -0.28924261316E+02  0.28924261316E+02  0.00000000000E+00 0. -1.
         25    2    1    2    0    0  0.51994714477E+01  0.13597858499E+02  0.62426221168E+03  0.63683791892E+03  0.12508912737E+03 0.  0.
         23    2    1    2    0    0 -0.51994714477E+01 -0.13597858499E+02  0.69324483956E+02  0.11459729935E+03  0.90081744446E+02 0.  0.
          5    1    3    3  502    0 -0.26233979385E+02  0.62001811259E+02  0.36709874663E+03  0.37324443526E+03  0.41800000000E+01 0.  1.
         -5    1    3    3    0  502  0.31433450833E+02 -0.48403952759E+02  0.25716346505E+03  0.26359348366E+03  0.41800000000E+01 0.  1.
        -11    1    4    4    0    0 -0.37017160135E+02 -0.30774827726E+02  0.17117993287E+02  0.51091935374E+02  0.00000000000E+00 0. -1.
         11    1    4    4    0    0  0.31817688688E+02  0.17176969226E+02  0.52206490669E+02  0.63505363972E+02  0.00000000000E+00 0.  1.
</event>
<event>
 8    1  0.7039283E-009  0.6165586E+02  0.7561462E-02  0.1391011E+00
         -2   -1    0    0    0  501 -0.00000000000E+00  0.00000000000E+00  0.60209964894E+02  0.60209964894E+02  0.00000000000E+00 0.  1.
          2   -1    0    0  501    0  0.00000000000E+00 -0.00000000000E+00 -0.19991243669E+03  0.19991243669E+03  0.00000000000E+00 0. -1.
         25    2    1    2    0    0  0.43134372885E+01 -0.17103418175E+02 -0.85802968555E+02  0.15271251780E+03  0.12509129076E+03 0.  0.
         23    2    1    2    0    0 -0.43134372885E+01  0.17103418175E+02 -0.53899503237E+02  0.10740988378E+03  0.91217290195E+02 0.  0.
          5    1    3    3  502    0 -0.74848478307E+01  0.78848523010E+00  0.31879465237E+02  0.33021468165E+02  0.41800000000E+01 0. -1.
         -5    1    3    3    0  502  0.11798285119E+02 -0.17891903405E+02 -0.11768243379E+03  0.11969104963E+03  0.41800000000E+01 0. -1.
        -11    1    4    4    0    0 -0.42725898065E+02 -0.12335634276E+02 -0.24236183170E+02  0.50646449166E+02  0.00000000000E+00 0.  1.
         11    1    4    4    0    0  0.38412460776E+02  0.29439052451E+02 -0.29663320067E+02  0.56763434617E+02  0.00000000000E+00 0. -1.
</event>
<event>
 8    1  0.7039283E-009  0.9138457E+02  0.7561462E-02  0.1299533E+00
          2   -1    0    0  501    0  0.00000000000E+00  0.00000000000E+00  0.75278646266E+02  0.75278646266E+02  0.00000000000E+00 0.  1.
         -2   -1    0    0    0  501 -0.00000000000E+00 -0.00000000000E+00 -0.19382471617E+03  0.19382471617E+03  0.00000000000E+00 0. -1.
         25    2    1    2    0    0  0.18152096081E+02  0.38969554687E+02 -0.29643818132E+02  0.13555373898E+03  0.12509170802E+03 0.  0.
         23    2    1    2    0    0 -0.18152096081E+02 -0.38969554687E+02 -0.88902251769E+02  0.13354962345E+03  0.89909770156E+02 0.  0.
          5    1    3    3  502    0 -0.36036613979E+02  0.39341261495E+02  0.24481855163E+02  0.58849010487E+02  0.41800000000E+01 0. -1.
         -5    1    3    3    0  502  0.54188710060E+02 -0.37170680734E+00 -0.54125673296E+02  0.76704728496E+02  0.41800000000E+01 0. -1.
        -11    1    4    4    0    0  0.22540391158E+02 -0.85912156178E+01  0.69269792921E+01  0.25097036906E+02  0.00000000000E+00 0.  1.
         11    1    4    4    0    0 -0.40692487240E+02 -0.30378339070E+02 -0.95829231061E+02  0.10845258654E+03  0.00000000000E+00 0. -1.
</event>
<event>
 8    1  0.7039283E-009  0.1078689E+03  0.7561462E-02  0.1264568E+00
          1   -1    0    0  501    0  0.00000000000E+00  0.00000000000E+00  0.47693033847E+03  0.47693033847E+03  0.00000000000E+00 0. -1.
         -1   -1    0    0    0  501 -0.00000000000E+00 -0.00000000000E+00 -0.33795807432E+02  0.33795807432E+02  0.00000000000E+00 0.  1.
         25    2    1    2    0    0  0.17144210578E+02  0.62302662034E+02  0.27333656525E+03  0.30746990878E+03  0.12509724716E+03 0.  0.
         23    2    1    2    0    0 -0.17144210578E+02 -0.62302662034E+02  0.16979796579E+03  0.20325623713E+03  0.91138373326E+02 0.  0.
          5    1    3    3  502    0  0.51844316871E+02  0.35236206486E+02  0.51394615323E+02  0.81168357897E+02  0.41800000000E+01 0. -1.
         -5    1    3    3    0  502 -0.34700106294E+02  0.27066455548E+02  0.22194194993E+03  0.22630155088E+03  0.41800000000E+01 0. -1.
        -11    1    4    4    0    0 -0.44409565255E+02 -0.43014314085E+01  0.47411847926E+02  0.65104493870E+02  0.00000000000E+00 0.  1.
         11    1    4    4    0    0  0.27265354677E+02 -0.58001230625E+02  0.12238611786E+03  0.13815174326E+03  0.00000000000E+00 0. -1.
</event>
<event>
 8    1  0.7039283E-009  0.1604352E+03  0.7561462E-02  0.1188206E+00
         -2   -1    0    0    0  501 -0.00000000000E+00  0.00000000000E+00  0.68989291449E+02  0.68989291449E+02  0.00000000000E+00 0.  1.
          2   -1    0    0  501    0  0.00000000000E+00 -0.00000000000E+00 -0.59924536682E+03  0.59924536682E+03  0.00000000000E+00 0. -1.
         25    2    1    2    0    0 -0.11163623457E+03 -0.10429689818E+03 -0.41186686276E+03  0.45675208323E+03  0.12509061138E+03 0.  0.
         23    2    1    2    0    0  0.11163623457E+03  0.10429689818E+03 -0.11838921261E+03  0.21148257504E+03  0.85839280313E+02 0.  0.
          5    1    3    3  502    0 -0.11568762102E+03 -0.10189062058E+03 -0.41944555640E+03  0.44689749541E+03  0.41800000000E+01 0. -1.
         -5    1    3    3    0  502  0.40513864440E+01 -0.24062775962E+01  0.75786936346E+01  0.98545878247E+01  0.41800000000E+01 0. -1.
        -11    1    4    4    0    0  0.45154763159E+01  0.29165201031E+02 -0.62668339851E+02  0.69269901813E+02  0.00000000000E+00 0. -1.
         11    1    4    4    0    0  0.10712075826E+03  0.75131697146E+02 -0.55720872763E+02  0.14221267323E+03  0.00000000000E+00 0.  1.
</event>
<event>
 8    1  0.7039283E-009  0.9928995E+02  0.7561462E-02  0.1281796E+00
         -1   -1    0    0    0  501 -0.00000000000E+00  0.00000000000E+00  0.49363738206E+02  0.49363738206E+02  0.00000000000E+00 0.  1.
          1   -1    0    0  501    0  0.00000000000E+00 -0.00000000000E+00 -0.25958037221E+03  0.25958037221E+03  0.00000000000E+00 0. -1.
         25    2    1    2    0    0  0.16306243962E+02 -0.78393279338E+01 -0.81437165989E+02  0.15035480030E+03  0.12508878973E+03 0.  0.
         23    2    1    2    0    0 -0.16306243962E+02  0.78393279338E+01 -0.12877946802E+03  0.15858931011E+03  0.90769318854E+02 0.  0.
          5    1    3    3  502    0  0.60758883239E+02 -0.35531731564E+02 -0.29357272676E+02  0.76377141209E+02  0.41800000000E+01 0.  1.
         -5    1    3    3    0  502 -0.44452639277E+02  0.27692403630E+02 -0.52079893313E+02  0.73977659094E+02  0.41800000000E+01 0.  1.
        -11    1    4    4    0    0  0.96651920489E+01  0.35969160964E+02 -0.17972684356E+02  0.41354732024E+02  0.00000000000E+00 0.  1.
         11    1    4    4    0    0 -0.25971436010E+02 -0.28129833030E+02 -0.11080678366E+03  0.11723457809E+03  0.00000000000E+00 0. -1.
</event>
<event>
 8    1  0.7039283E-009  0.6739668E+02  0.7561462E-02  0.1369176E+00
          1   -1    0    0  501    0  0.00000000000E+00  0.00000000000E+00  0.83545186160E+03  0.83545186160E+03  0.00000000000E+00 0. -1.
         -1   -1    0    0    0  501 -0.00000000000E+00 -0.00000000000E+00 -0.15784638753E+02  0.15784638753E+02  0.00000000000E+00 0.  1.
         25    2    1    2    0    0 -0.22195985645E+02  0.20320041782E+02  0.55821305859E+03  0.57284812543E+03  0.12509032800E+03 0.  0.
         23    2    1    2    0    0  0.22195985645E+02 -0.20320041782E+02  0.26145416426E+03  0.27838837492E+03  0.90753740441E+02 0.  0.
          5    1    3    3  502    0  0.16374319328E+02 -0.10746706048E+02  0.47843774485E+03  0.47885671983E+03  0.41800000000E+01 0. -1.
         -5    1    3    3    0  502 -0.38570304973E+02  0.31066747830E+02  0.79775313735E+02  0.93991405607E+02  0.41800000000E+01 0. -1.
        -11    1    4    4    0    0  0.41231912449E+02 -0.69776263455E+01  0.24805855039E+03  0.25155874522E+03  0.00000000000E+00 0. -1.
         11    1    4    4    0    0 -0.19035926805E+02 -0.13342415436E+02  0.13395613871E+02  0.26829629703E+02  0.00000000000E+00 0.  1.
</event>
<event>
 8    1  0.7039283E-009  0.9513386E+02  0.7561462E-02  0.1290875E+00
          3   -1    0    0  501    0  0.00000000000E+00  0.00000000000E+00  0.92659817229E+02  0.92659817229E+02  0.00000000000E+00 0. -1.
         -3   -1    0    0    0  501 -0.00000000000E+00 -0.00000000000E+00 -0.15766852561E+03  0.15766852561E+03  0.00000000000E+00 0.  1.
         25    2    1    2    0    0 -0.17860799207E+02  0.45812385860E+02 -0.60729795734E+02  0.14749007456E+03  0.12508969245E+03 0.  0.
         23    2    1    2    0    0  0.17860799207E+02 -0.45812385860E+02 -0.42789126454E+01  0.10283826828E+03  0.90219828657E+02 0.  0.
          5    1    3    3  502    0  0.23578915174E+02  0.39110212635E+02 -0.86607630764E+02  0.97999633059E+02  0.41800000000E+01 0. -1.
         -5    1    3    3    0  502 -0.41439714381E+02  0.67021732245E+01  0.25877835030E+02  0.49490441499E+02  0.41800000000E+01 0. -1.
        -11    1    4    4    0    0  0.27138017389E+02 -0.70664134080E+02  0.14057632464E+01  0.75709101193E+02  0.00000000000E+00 0.  1.
         11    1    4    4    0    0 -0.92772181823E+01  0.24851748220E+02 -0.56846758918E+01  0.27129167087E+02  0.00000000000E+00 0. -1.
</event>
<event>
 8    1  0.7039283E-009  0.7036182E+02  0.7561462E-02  0.1358867E+00
          1   -1    0    0  501    0  0.00000000000E+00  0.00000000000E+00  0.55406971102E+03  0.55406971102E+03  0.00000000000E+00 0. -1.
         -1   -1    0    0    0  501 -0.00000000000E+00 -0.00000000000E+00 -0.25248829725E+02  0.25248829725E+02  0.00000000000E+00 0.  1.
         25    2    1    2    0    0 -0.27980567605E+02  0.13785576434E+02  0.39019293154E+03  0.41093821589E+03  0.12508692644E+03 0.  0.
         23    2    1    2    0    0  0.27980567605E+02 -0.13785576434E+02  0.13862794975E+03  0.16838032486E+03  0.90339753524E+02 0.  0.
          5    1    3    3  502    0 -0.24785829397E+02  0.46788169961E+02  0.64582350002E+02  0.83617118576E+02  0.41800000000E+01 0.  1.
         -5    1    3    3    0  502 -0.31947382080E+01 -0.33002593527E+02  0.32561058154E+03  0.32732109731E+03  0.41800000000E+01 0.  1.
        -11    1    4    4    0    0  0.31115275476E+01  0.15478388492E+02 -0.73645363086E+01  0.17421208599E+02  0.00000000000E+00 0.  1.
         11    1    4    4    0    0  0.24869040058E+02 -0.29263964926E+02  0.14599248606E+03  0.15095911626E+03  0.00000000000E+00 0. -1.
</event>
<event>
 8    1  0.7039283E-009  0.9886175E+02  0.7561462E-02  0.1282708E+00
          2   -1    0    0  501    0  0.00000000000E+00  0.00000000000E+00  0.75236410478E+02  0.75236410478E+02  0.00000000000E+00 0.  1.
         -2   -1    0    0    0  501 -0.00000000000E+00 -0.00000000000E+00 -0.19853928438E+03  0.19853928438E+03  0.00000000000E+00 0. -1.
         25    2    1    2    0    0 -0.29496736672E+02  0.14474798351E+02 -0.12109416472E+03  0.17717723598E+03  0.12509356082E+03 0.  0.
         23    2    1    2    0    0  0.29496736672E+02 -0.14474798351E+02 -0.22087091847E+01  0.96598458882E+02  0.90811929836E+02 0.  0.
          5    1    3    3  502    0 -0.64711406151E+02  0.25448371415E+01 -0.17766470828E+02  0.67284189583E+02  0.41800000000E+01 0. -1.
         -5    1    3    3    0  502  0.35214669479E+02  0.11929961209E+02 -0.10332769389E+03  0.10989304639E+03  0.41800000000E+01 0. -1.
        -11    1    4    4    0    0 -0.22909924247E+02 -0.32700305543E+02 -0.82969156670E+01  0.40780061564E+02  0.00000000000E+00 0. -1.
         11    1    4    4    0    0  0.52406660918E+02  0.18225507192E+02  0.60882064823E+01  0.55818397318E+02  0.00000000000E+00 0.  1.
</event>
<event>
 8    1  0.7039283E-009  0.1993621E+03  0.7561462E-02  0.1150278E+00
         -1   -1    0    0    0  501 -0.00000000000E+00  0.00000000000E+00  0.44392749798E+03  0.44392749798E+03  0.00000000000E+00 0.  1.
          1   -1    0    0  501    0  0.00000000000E+00 -0.00000000000E+00 -0.10925643206E+03  0.10925643206E+03  0.00000000000E+00 0. -1.
         25    2    1    2    0    0  0.15124711230E+03  0.10602235886E+03  0.11235577121E+03  0.24978007730E+03  0.12509931308E+03 0.  0.
         23    2    1    2    0    0 -0.15124711230E+03 -0.10602235886E+03  0.22231529471E+03  0.30340385274E+03  0.92267968643E+02 0.  0.
          5    1    3    3  502    0  0.36010836630E+02 -0.21261693979E+02  0.53913146580E+02  0.68358904027E+02  0.41800000000E+01 0.  1.
         -5    1    3    3    0  502  0.11523627567E+03  0.12728405284E+03  0.58442624634E+02  0.18142117327E+03  0.41800000000E+01 0.  1.
        -11    1    4    4    0    0 -0.50409102038E+02 -0.40826061691E+02  0.19549389013E+02  0.67749712119E+02  0.00000000000E+00 0. -1.
         11    1    4    4    0    0 -0.10083801027E+03 -0.65196297167E+02  0.20276590570E+03  0.23565414062E+03  0.00000000000E+00 0.  1.
</event>
<event>
 8    1  0.7039283E-009  0.9174818E+02  0.7561462E-02  0.1298673E+00
          2   -1    0    0  501    0  0.00000000000E+00  0.00000000000E+00  0.62812074576E+02  0.62812074576E+02  0.00000000000E+00 0. -1.
         -2   -1    0    0    0  501 -0.00000000000E+00 -0.00000000000E+00 -0.21874717360E+03  0.21874717360E+03  0.00000000000E+00 0.  1.
         25    2    1    2    0    0 -0.19000951617E+02  0.35450102410E+02 -0.73037638014E+02  0.15033466476E+03  0.12509304113E+03 0.  0.
         23    2    1    2    0    0  0.19000951617E+02 -0.35450102410E+02 -0.82897461005E+02  0.13122458341E+03  0.93435305572E+02 0.  0.
          5    1    3    3  502    0  0.32611487618E+02 -0.24698242590E+02 -0.55464044089E+02  0.69045238058E+02  0.41800000000E+01 0.  1.
         -5    1    3    3    0  502 -0.51612439235E+02  0.60148345001E+02 -0.17573593925E+02  0.81289426702E+02  0.41800000000E+01 0.  1.
        -11    1    4    4    0    0  0.35319974252E+02 -0.27981955562E+02  0.13555697670E+01  0.45081348557E+02  0.00000000000E+00 0.  1.
         11    1    4    4    0    0 -0.16319022635E+02 -0.74681468481E+01 -0.84253030772E+02  0.86143234856E+02  0.00000000000E+00 0. -1.
</event>
<event>
 8    1  0.7039283E-009  0.1023830E+03  0.7561462E-02  0.1275363E+00
          2   -1    0    0  501    0  0.00000000000E+00  0.00000000000E+00  0.55748803289E+02  0.55748803289E+02  0.00000000000E+00 0. -1.
         -2   -1    0    0    0  501 -0.00000000000E+00 -0.00000000000E+00 -0.31453382472E+03  0.31453382472E+03  0.00000000000E+00 0.  1.
         25    2    1    2    0    0  0.63953137278E+02 -0.19698293937E+02 -0.19356147813E+03  0.23998228031E+03  0.12508965782E+03 0.  0.
         23    2    1    2    0    0 -0.63953137278E+02  0.19698293937E+02 -0.65223543302E+02  0.13030034770E+03  0.90807727970E+02 0.  0.
          5    1    3    3  502    0  0.68167634555E+02  0.22005936788E+02 -0.18298477829E+03  0.19655022041E+03  0.41800000000E+01 0.  1.
         -5    1    3    3    0  502 -0.42144972774E+01 -0.41704230726E+02 -0.10576699835E+02  0.43432059900E+02  0.41800000000E+01 0.  1.
        -11    1    4    4    0    0  0.73286460790E+01 -0.11048230295E+02  0.14070009217E+02  0.19332294364E+02  0.00000000000E+00 0. -1.
         11    1    4    4    0    0 -0.71281783357E+02  0.30746524232E+02 -0.79293552519E+02  0.11096805334E+03  0.00000000000E+00 0.  1.
</event>
<event>
 8    1  0.7039283E-009  0.1087568E+03  0.7561462E-02  0.1262889E+00
          2   -1    0    0  501    0  0.00000000000E+00  0.00000000000E+00  0.37965564061E+02  0.37965564061E+02  0.00000000000E+00 0.  1.
         -2   -1    0    0    0  501 -0.00000000000E+00 -0.00000000000E+00 -0.37865155656E+03  0.37865155656E+03  0.00000000000E+00 0. -1.
         25    2    1    2    0    0 -0.17548384224E+01 -0.37904821046E+02 -0.14378357819E+03  0.19432298930E+03  0.12509137419E+03 0.  0.
         23    2    1    2    0    0  0.17548384224E+01  0.37904821046E+02 -0.19690241431E+03  0.22229413132E+03  0.95938861483E+02 0.  0.
          5    1    3    3  502    0  0.19406293269E+02  0.40925858988E+02 -0.31021081207E+02  0.55057334040E+02  0.41800000000E+01 0. -1.
         -5    1    3    3    0  502 -0.21161131692E+02 -0.78830680034E+02 -0.11276249698E+03  0.13926565526E+03  0.41800000000E+01 0. -1.
        -11    1    4    4    0    0  0.33226358166E+02 -0.84370873274E+01 -0.13284963022E+03  0.13720131038E+03  0.00000000000E+00 0. -1.
         11    1    4    4    0    0 -0.31471519743E+02  0.46341908374E+02 -0.64052784088E+02  0.85092820943E+02  0.00000000000E+00 0.  1.
</event>
<event>
 8    1  0.7039283E-009  0.1262895E+03  0.7561462E-02  0.1233068E+00
          1   -1    0    0  501    0  0.00000000000E+00  0.00000000000E+00  0.28565495040E+03  0.28565495040E+03  0.00000000000E+00 0. -1.
         -1   -1    0    0    0  501 -0.00000000000E+00 -0.00000000000E+00 -0.68376344919E+02  0.68376344919E+02  0.00000000000E+00 0.  1.
         25    2    1    2    0    0 -0.70650121587E+02  0.51267291277E+02  0.12922547390E+03  0.19991581826E+03  0.12508931388E+03 0.  0.
         23    2    1    2    0    0  0.70650121587E+02 -0.51267291277E+02  0.88053131581E+02  0.15411547707E+03  0.91533881459E+02 0.  0.
          5    1    3    3  502    0 -0.91209093380E+02  0.29470481309E+02  0.13830911552E+03  0.16832852349E+03  0.41800000000E+01 0. -1.
         -5    1    3    3    0  502  0.20558971793E+02  0.21796809968E+02 -0.90836416125E+01  0.31587294771E+02  0.41800000000E+01 0. -1.
        -11    1    4    4    0    0  0.76687338897E+02 -0.19652475469E+01  0.56443553886E+02  0.95240143429E+02  0.00000000000E+00 0. -1.
         11    1    4    4    0    0 -0.60372173105E+01 -0.49302043730E+02  0.31609577695E+02  0.58875333637E+02  0.00000000000E+00 0.  1.
</event>
<event>
 8    1  0.7039283E-009  0.8039468E+02  0.7561462E-02  0.1327935E+00
         -1   -1    0    0    0  501 -0.00000000000E+00  0.00000000000E+00  0.36026315102E+02  0.36026315102E+02  0.00000000000E+00 0.  1.
          1   -1    0    0  501    0  0.00000000000E+00 -0.00000000000E+00 -0.10967252163E+04  0.10967252163E+04  0.00000000000E+00 0. -1.
         25    2    1    2    0    0  0.16396042206E+02  0.16011087334E+02 -0.10232206234E+04  0.10310926664E+04  0.12508580018E+03 0.  0.
         23    2    1    2    0    0 -0.16396042206E+02 -0.16011087334E+02 -0.37478277845E+02  0.10165886506E+03  0.91677251365E+02 0.  0.
          5    1    3    3  502    0 -0.38656388963E+02 -0.99004951430E+01 -0.75329103788E+03  0.75435879816E+03  0.41800000000E+01 0. -1.
         -5    1    3    3    0  502  0.55052431169E+02  0.25911582477E+02 -0.26992958550E+03  0.27673386820E+03  0.41800000000E+01 0. -1.
        -11    1    4    4    0    0 -0.23810840971E+02  0.14767752276E+02  0.21098407614E+02  0.35073999756E+02  0.00000000000E+00 0.  1.
         11    1    4    4    0    0  0.74147987654E+01 -0.30778839610E+02 -0.58576685459E+02  0.66584865306E+02  0.00000000000E+00 0. -1.
</event>
<event>
 8    1  0.7039283E-009  0.9772266E+02  0.7561462E-02  0.1285159E+00
          3   -1    0    0  501    0  0.00000000000E+00  0.00000000000E+00  0.11502526540E+03  0.11502526540E+03  0.00000000000E+00 0. -1.
         -3   -1    0    0    0  501 -0.00000000000E+00 -0.00000000000E+00 -0.18910809394E+03  0.18910809394E+03  0.00000000000E+00 0.  1.
         25    2    1    2    0    0 -0.21973454253E+02  0.86695101969E+02  0.42351752509E+01  0.15383459070E+03  0.12509305012E+03 0.  0.
         23    2    1    2    0    0  0.21973454253E+02 -0.86695101969E+02 -0.78318003783E+02  0.15029876864E+03  0.91962692121E+02 0.  0.
          5    1    3    3  502    0 -0.31377250908E+02  0.20850643338E+02  0.57260453535E+02  0.68669594007E+02  0.41800000000E+01 0. -1.
         -5    1    3    3    0  502  0.94037966552E+01  0.65844458631E+02 -0.53025278284E+02  0.85164996689E+02  0.41800000000E+01 0. -1.
        -11    1    4    4    0    0  0.16859282700E+02 -0.33961303367E+02 -0.88561297356E+02  0.96336436144E+02  0.00000000000E+00 0.  1.
         11    1    4    4    0    0  0.51141715526E+01 -0.52733798602E+02  0.10243293572E+02  0.53962332500E+02  0.00000000000E+00 0. -1.
</event>
<event>
 8    1  0.7039283E-009  0.1072744E+03  0.7561462E-02  0.1265702E+00
          1   -1    0    0  501    0  0.00000000000E+00  0.00000000000E+00  0.29063533860E+03  0.29063533860E+03  0.00000000000E+00 0. -1.
         -1   -1    0    0    0  501 -0.00000000000E+00 -0.00000000000E+00 -0.54381341741E+02  0.54381341741E+02  0.00000000000E+00 0.  1.
         25    2    1    2    0    0 -0.39838719047E+02 -0.20659874387E+02  0.20220378576E+03  0.24196922572E+03  0.12509508894E+03 0.  0.
         23    2    1    2    0    0  0.39838719047E+02  0.20659874387E+02  0.34050211099E+02  0.10304745462E+03  0.86286772349E+02 0.  0.
          5    1    3    3  502    0  0.14698868287E+02 -0.60772720627E+02  0.12014790963E+03  0.13550783331E+03  0.41800000000E+01 0.  1.
         -5    1    3    3    0  502 -0.54537587334E+02  0.40112846240E+02  0.82055876132E+02  0.10646139241E+03  0.41800000000E+01 0.  1.
        -11    1    4    4    0    0  0.51751510661E+02 -0.86012060428E+01 -0.51354478377E+01  0.52712165822E+02  0.00000000000E+00 0.  1.
         11    1    4    4    0    0 -0.11912791614E+02  0.29261080430E+02  0.39185658937E+02  0.50335288797E+02  0.00000000000E+00 0. -1.
</event>
<event>
 8    1  0.7039283E-009  0.1014283E+03  0.7561462E-02  0.1277321E+00
          3   -1    0    0  501    0  0.00000000000E+00  0.00000000000E+00  0.15031279345E+03  0.15031279345E+03  0.00000000000E+00 0. -1.
         -3   -1    0    0    0  501 -0.00000000000E+00 -0.00000000000E+00 -0.12703004537E+03  0.12703004537E+03  0.00000000000E+00 0.  1.
         25    2    1    2    0    0  0.79040232107E+02  0.27873199424E+02  0.26022955592E+02  0.15280194074E+03  0.12508783050E+03 0.  0.
         23    2    1    2    0    0 -0.79040232107E+02 -0.27873199424E+02 -0.27402075126E+01  0.12454089807E+03  0.92079601526E+02 0.  0.
          5    1    3    3  502    0  0.59626019495E+02  0.15468311313E+02  0.75817540929E+02  0.97776800767E+02  0.41800000000E+01 0.  1.
         -5    1    3    3    0  502  0.19414212612E+02  0.12404888112E+02 -0.49794585337E+02  0.55025139975E+02  0.41800000000E+01 0.  1.
        -11    1    4    4    0    0 -0.79521967036E+02  0.97111636377E+01  0.17278619160E+02  0.81954869414E+02  0.00000000000E+00 0. -1.
         11    1    4    4    0    0  0.48173492969E+00 -0.37584363062E+02 -0.20018826673E+02  0.42586028656E+02  0.00000000000E+00 0.  1.
</event>
<event>
 8    1  0.7039283E-009  0.1594294E+03  0.7561462E-02  0.1189342E+00
          1   -1    0    0  501    0  0.00000000000E+00  0.00000000000E+00  0.51776276673E+02  0.51776276673E+02  0.00000000000E+00 0. -1.
         -1   -1    0    0    0  501 -0.00000000000E+00 -0.00000000000E+00 -0.60245952575E+03  0.60245952575E+03  0.00000000000E+00 0.  1.
         25    2    1    2    0    0 -0.11859339889E+03  0.42780843236E+02 -0.18211335523E+03  0.25437647443E+03  0.12509005469E+03 0.  0.
         23    2    1    2    0    0  0.11859339889E+03 -0.42780843236E+02 -0.36856989385E+03  0.39985932800E+03  0.90272480448E+02 0.  0.
          5    1    3    3  502    0 -0.14387159706E+03  0.24828865432E+02 -0.14458453311E+03  0.20551804936E+03  0.41800000000E+01 0. -1.
         -5    1    3    3    0  502  0.25278198174E+02  0.17951977804E+02 -0.37528822118E+02  0.48858425062E+02  0.41800000000E+01 0. -1.
        -11    1    4    4    0    0  0.83545038791E+02  0.33129409643E+01 -0.29275500872E+03  0.30446057908E+03  0.00000000000E+00 0. -1.
         11    1    4    4    0    0  0.35048360097E+02 -0.46093784200E+02 -0.75814885132E+02  0.95398748917E+02  0.00000000000E+00 0.  1.
</event>
<event>
 8    1  0.7039283E-009  0.9906095E+02  0.7561462E-02  0.1282283E+00
         -1   -1    0    0    0  501 -0.00000000000E+00  0.00000000000E+00  0.12403451916E+03  0.12403451916E+03  0.00000000000E+00 0.  1.
          1   -1    0    0  501    0  0.00000000000E+00 -0.00000000000E+00 -0.10098402518E+03  0.10098402518E+03  0.00000000000E+00 0. -1.
         25    2    1    2    0    0  0.11383972751E+02 -0.57940284055E+01 -0.15228558242E+02  0.12666089559E+03  0.12509159798E+03 0.  0.
         23    2    1    2    0    0 -0.11383972751E+02  0.57940284055E+01  0.38279052224E+02  0.98357648753E+02  0.89698247633E+02 0.  0.
          5    1    3    3  502    0  0.10932041271E+02  0.58682549363E+02 -0.16370762618E+02  0.62037290356E+02  0.41800000000E+01 0. -1.
         -5    1    3    3    0  502  0.45193147985E+00 -0.64476577768E+02  0.11422043758E+01  0.64623605235E+02  0.41800000000E+01 0. -1.
        -11    1    4    4    0    0 -0.41809500632E+02  0.99086097130E+01  0.49610431642E+02  0.65630860251E+02  0.00000000000E+00 0.  1.
         11    1    4    4    0    0  0.30425527881E+02 -0.41145813075E+01 -0.11331379418E+02  0.32726788503E+02  0.00000000000E+00 0. -1.
</event>
<event>
 8    1  0.7039283E-009  0.1677935E+03  0.7561462E-02  0.1180169E+00
          2   -1    0    0  501    0  0.00000000000E+00  0.00000000000E+00  0.25124535673E+03  0.25124535673E+03  0.00000000000E+00 0. -1.
         -2   -1    0    0    0  501 -0.00000000000E+00 -0.00000000000E+00 -0.12215649098E+03  0.12215649098E+03  0.00000000000E+00 0.  1.
         25    2    1    2    0    0 -0.10373456122E+03  0.88066839127E+02  0.81538757213E+02  0.20201999778E+03  0.12508750229E+03 0.  0.
         23    2    1    2    0    0  0.10373456122E+03 -0.88066839127E+02  0.47550108539E+02  0.17138184993E+03  0.92704359752E+02 0.  0.
          5    1    3    3  502    0  0.12741940647E+02 -0.18288877446E+02 -0.32291918770E+01  0.22907207815E+02  0.41800000000E+01 0. -1.
         -5    1    3    3    0  502 -0.11647650187E+03  0.10635571657E+03  0.84767949090E+02  0.17911278996E+03  0.41800000000E+01 0. -1.
        -11    1    4    4    0    0  0.29230314414E+02 -0.73649641642E+02 -0.44912707324E+01  0.79365310480E+02  0.00000000000E+00 0.  1.
         11    1    4    4    0    0  0.74504246806E+02 -0.14417197485E+02  0.52041379271E+02  0.92016539447E+02  0.00000000000E+00 0. -1.
</event>
<event>
 8    1  0.7039283E-009  0.1255525E+03  0.7561462E-02  0.1234208E+00
         -2   -1    0    0    0  501 -0.00000000000E+00  0.00000000000E+00  0.58043303131E+02  0.58043303131E+02  0.00000000000E+00 0. -1.
          2   -1    0    0  501    0  0.00000000000E+00 -0.00000000000E+00 -0.36556749645E+03  0.36556749645E+03  0.00000000000E+00 0.  1.
         25    2    1    2    0    0 -0.80772459708E+02  0.53569379388E+02 -0.15472546985E+03  0.22131873923E+03  0.12509254439E+03 0.  0.
         23    2    1    2    0    0  0.80772459708E+02 -0.53569379388E+02 -0.15279872347E+03  0.20229206034E+03  0.90447549047E+02 0.  0.
          5    1    3    3  502    0 -0.41762261376E+02  0.65339621725E+02 -0.19561038761E+02  0.80084076318E+02  0.41800000000E+01 0. -1.
         -5    1    3    3    0  502 -0.39010198332E+02 -0.11770242337E+02 -0.13516443108E+03  0.14123466292E+03  0.41800000000E+01 0. -1.
        -11    1    4    4    0    0 -0.64003570687E+00  0.21640584497E+02 -0.22375988303E+02  0.31135339980E+02  0.00000000000E+00 0.  1.
         11    1    4    4    0    0  0.81412495415E+02 -0.75209963886E+02 -0.13042273517E+03  0.17115672036E+03  0.00000000000E+00 0. -1.
</event>
<event>
 8    1  0.7039283E-009  0.1524669E+03  0.7561462E-02  0.1197474E+00
          2   -1    0    0  501    0  0.00000000000E+00  0.00000000000E+00  0.23855651109E+04  0.23855651109E+04  0.00000000000E+00 0. -1.
         -2   -1    0    0    0  501 -0.00000000000E+00 -0.00000000000E+00 -0.10397484522E+02  0.10397484522E+02  0.00000000000E+00 0.  1.
         25    2    1    2    0    0  0.92113926897E+02 -0.55989288249E+02  0.15261902105E+04  0.15350969618E+04  0.12508536193E+03 0.  0.
         23    2    1    2    0    0 -0.92113926897E+02  0.55989288249E+02  0.84897741591E+03  0.86086563359E+03  0.93312434574E+02 0.  0.
          5    1    3    3  502    0  0.80858813516E+01  0.36333655852E+02  0.24714819339E+03  0.24997043409E+03  0.41800000000E+01 0.  1.
         -5    1    3    3    0  502  0.84028045546E+02 -0.92322944101E+02  0.12790420171E+04  0.12851265278E+04  0.41800000000E+01 0.  1.
        -11    1    4    4    0    0 -0.11161519009E+03  0.47700479215E+02  0.72452149946E+03  0.73461873755E+03  0.00000000000E+00 0. -1.
         11    1    4    4    0    0  0.19501263192E+02  0.82888090339E+01  0.12445591645E+03  0.12624689604E+03  0.00000000000E+00 0.  1.
</event>
<event>
 8    1  0.7039283E-009  0.1397065E+03  0.7561462E-02  0.1213724E+00
          2   -1    0    0  501    0  0.00000000000E+00  0.00000000000E+00  0.20687780185E+04  0.20687780185E+04  0.00000000000E+00 0. -1.
         -2   -1    0    0    0  501 -0.00000000000E+00 -0.00000000000E+00 -0.15904204862E+02  0.15904204862E+02  0.00000000000E+00 0.  1.
         25    2    1    2    0    0  0.12657756854E+03  0.30901949555E+01  0.14922543465E+04  0.15028313247E+04  0.12509007065E+03 0.  0.
         23    2    1    2    0    0 -0.12657756854E+03 -0.30901949555E+01  0.56061946715E+03  0.58185089865E+03  0.90690965068E+02 0.  0.
          5    1    3    3  502    0  0.12054094582E+03  0.82259284999E+01  0.68891561595E+03  0.69944262367E+03  0.41800000000E+01 0.  1.
         -5    1    3    3    0  502  0.60366227168E+01 -0.51357335444E+01  0.80333873052E+03  0.80338870102E+03  0.41800000000E+01 0.  1.
        -11    1    4    4    0    0 -0.32392018412E+02  0.35246461298E+02  0.26346642171E+03  0.26777996799E+03  0.00000000000E+00 0.  1.
         11    1    4    4    0    0 -0.94185550127E+02 -0.38336656254E+02  0.29715304545E+03  0.31407093066E+03  0.00000000000E+00 0. -1.
</event>
<event>
 8    1  0.7039283E-009  0.1649579E+03  0.7561462E-02  0.1183210E+00
          4   -1    0    0  501    0  0.00000000000E+00  0.00000000000E+00  0.28924636786E+03  0.28924636786E+03  0.00000000000E+00 0.  1.
         -4   -1    0    0    0  501 -0.00000000000E+00 -0.00000000000E+00 -0.10458605508E+03  0.10458605508E+03  0.00000000000E+00 0. -1.
         25    2    1    2    0    0 -0.25394050192E+02  0.13357611495E+03  0.10854672768E+03  0.21429515844E+03  0.12511029761E+03 0.  0.
         23    2    1    2    0    0  0.25394050192E+02 -0.13357611495E+03  0.76113585095E+02  0.17953726450E+03  0.89179118840E+02 0.  0.
          5    1    3    3  502    0  0.30282693653E+02  0.11842339745E+03  0.95027952777E+02  0.15488359115E+03  0.41800000000E+01 0. -1.
         -5    1    3    3    0  502 -0.55676743845E+02  0.15152717505E+02  0.13518774906E+02  0.59411567291E+02  0.41800000000E+01 0. -1.
        -11    1    4    4    0    0  0.43542983120E+02 -0.61000751562E+02  0.73059025221E+02  0.10466472298E+03  0.00000000000E+00 0.  1.
         11    1    4    4    0    0 -0.18148932928E+02 -0.72575363392E+02  0.30545598746E+01  0.74872541522E+02  0.00000000000E+00 0. -1.
</event>
<event>
 8    1  0.7039283E-009  0.8329177E+02  0.7561462E-02  0.1319961E+00
          2   -1    0    0  501    0  0.00000000000E+00  0.00000000000E+00  0.44936700910E+03  0.44936700910E+03  0.00000000000E+00 0. -1.
         -2   -1    0    0    0  501 -0.00000000000E+00 -0.00000000000E+00 -0.31666664526E+02  0.31666664526E+02  0.00000000000E+00 0.  1.
         25    2    1    2    0    0  0.24759006479E+02  0.30412619892E+02  0.30329015180E+03  0.33040891877E+03  0.12508877476E+03 0.  0.
         23    2    1    2    0    0 -0.24759006479E+02 -0.30412619892E+02  0.11441019277E+03  0.15062475485E+03  0.89778553760E+02 0.  0.
          5    1    3    3  502    0 -0.15611649508E+02  0.69152131936E+02  0.20845256049E+03  0.22021735473E+03  0.41800000000E+01 0.  1.
         -5    1    3    3    0  502  0.40370655987E+02 -0.38739512044E+02  0.94837591318E+02  0.11019156404E+03  0.41800000000E+01 0.  1.
        -11    1    4    4    0    0 -0.94685341990E+01 -0.83926714051E+01 -0.14333779103E+02  0.19119291215E+02  0.00000000000E+00 0.  1.
         11    1    4    4    0    0 -0.15290472280E+02 -0.22019948487E+02  0.12874397187E+03  0.13150546364E+03  0.00000000000E+00 0. -1.
</event>
<event>
 8    1  0.7039283E-009  0.1074191E+03  0.7561462E-02  0.1265425E+00
          2   -1    0    0  501    0  0.00000000000E+00  0.00000000000E+00  0.90410613785E+03  0.90410613785E+03  0.00000000000E+00 0.  1.
         -2   -1    0    0    0  501 -0.00000000000E+00 -0.00000000000E+00 -0.23773310170E+02  0.23773310170E+02  0.00000000000E+00 0. -1.
         25    2    1    2    0    0 -0.61035061044E+02  0.35646779874E+02  0.26026081388E+03  0.29729283559E+03  0.12510542459E+03 0.  0.
         23    2    1    2    0    0  0.61035061044E+02 -0.35646779874E+02  0.62007201381E+03  0.63058661243E+03  0.90300619487E+02 0.  0.
          5    1    3    3  502    0 -0.59856506915E+02  0.54469722320E+02  0.73096970826E+02  0.10913474064E+03  0.41800000000E+01 0.  1.
         -5    1    3    3    0  502 -0.11785541291E+01 -0.18822942446E+02  0.18716384305E+03  0.18815809496E+03  0.41800000000E+01 0.  1.
        -11    1    4    4    0    0  0.68954221010E+02  0.86396440302E+01  0.35836223055E+03  0.36503810257E+03  0.00000000000E+00 0.  1.
         11    1    4    4    0    0 -0.79191599662E+01 -0.44286423904E+02  0.26170978326E+03  0.26554850986E+03  0.00000000000E+00 0. -1.
</event>
<event>
 8    1  0.7039283E-009  0.1203048E+03  0.7561462E-02  0.1242595E+00
          2   -1    0    0  501    0  0.00000000000E+00  0.00000000000E+00  0.27217957734E+03  0.27217957734E+03  0.00000000000E+00 0. -1.
         -2   -1    0    0    0  501 -0.00000000000E+00 -0.00000000000E+00 -0.59432220017E+02  0.59432220017E+02  0.00000000000E+00 0.  1.
         25    2    1    2    0    0  0.25270417886E+02 -0.57197850895E+02  0.14042699429E+03  0.19818558548E+03  0.12509035694E+03 0.  0.
         23    2    1    2    0    0 -0.25270417886E+02  0.57197850895E+02  0.72320363037E+02  0.13342621188E+03  0.93070569673E+02 0.  0.
          5    1    3    3  502    0 -0.37451520242E+02 -0.62561307190E+02  0.97735617325E+02  0.12200924891E+03  0.41800000000E+01 0.  1.
         -5    1    3    3    0  502  0.62721938128E+02  0.53634562952E+01  0.42691376961E+02  0.76176336567E+02  0.41800000000E+01 0.  1.
        -11    1    4    4    0    0 -0.18753773421E+02 -0.19765735402E+02 -0.52957635828E+00  0.27251949740E+02  0.00000000000E+00 0.  1.
         11    1    4    4    0    0 -0.65166444652E+01  0.76963586297E+02  0.72849939395E+02  0.10617426214E+03  0.00000000000E+00 0. -1.
</event>
<event>
 8    1  0.7039283E-009  0.7526464E+02  0.7561462E-02  0.1343053E+00
          2   -1    0    0  501    0  0.00000000000E+00  0.00000000000E+00  0.94469023780E+03  0.94469023780E+03  0.00000000000E+00 0. -1.
         -2   -1    0    0    0  501 -0.00000000000E+00 -0.00000000000E+00 -0.13092777826E+02  0.13092777826E+02  0.00000000000E+00 0.  1.
         25    2    1    2    0    0  0.22811836565E+02  0.28025250803E+01  0.58694133705E+03  0.60056247936E+03  0.12508766703E+03 0.  0.
         23    2    1    2    0    0 -0.22811836565E+02 -0.28025250803E+01  0.34465612292E+03  0.35722053627E+03  0.91051822755E+02 0.  0.
          5    1    3    3  502    0 -0.16337131807E+02  0.51962496180E+01  0.53524931236E+03  0.53554010277E+03  0.41800000000E+01 0. -1.
         -5    1    3    3    0  502  0.39148968372E+02 -0.23937245377E+01  0.51692024688E+02  0.65022376596E+02  0.41800000000E+01 0. -1.
        -11    1    4    4    0    0 -0.20081897366E+02  0.43051060806E+02  0.15737776128E+03  0.16439110738E+03  0.00000000000E+00 0.  1.
         11    1    4    4    0    0 -0.27299391984E+01 -0.45853585886E+02  0.18727836164E+03  0.19282942889E+03  0.00000000000E+00 0. -1.
</event>
<event>
 8    1  0.7039283E-009  0.7948331E+02  0.7561462E-02  0.1330524E+00
          2   -1    0    0  501    0  0.00000000000E+00  0.00000000000E+00  0.63455331030E+03  0.63455331030E+03  0.00000000000E+00 0. -1.
         -2   -1    0    0    0  501 -0.00000000000E+00 -0.00000000000E+00 -0.23848057812E+02  0.23848057812E+02  0.00000000000E+00 0.  1.
         25    2    1    2    0    0  0.27458582879E+02 -0.25133669535E+02  0.22313142293E+03  0.25849677817E+03  0.12508907749E+03 0.  0.
         23    2    1    2    0    0 -0.27458582879E+02  0.25133669535E+02  0.38757382956E+03  0.39990458994E+03  0.91238876476E+02 0.  0.
          5    1    3    3  502    0  0.25952427291E+02  0.81926895002E+01  0.22318349615E+03  0.22487550777E+03  0.41800000000E+01 0.  1.
         -5    1    3    3    0  502  0.15061555881E+01 -0.33326359035E+02 -0.52073222464E-01  0.33621270392E+02  0.41800000000E+01 0.  1.
        -11    1    4    4    0    0 -0.51244877437E+02 -0.12999320685E+02  0.18505747753E+03  0.19246113839E+03  0.00000000000E+00 0.  1.
         11    1    4    4    0    0  0.23786294558E+02  0.38132990220E+02  0.20251635203E+03  0.20744345155E+03  0.00000000000E+00 0. -1.
</event>
<event>
 8    1  0.7039283E-009  0.1657941E+03  0.7561462E-02  0.1182306E+00
         -2   -1    0    0    0  501 -0.00000000000E+00  0.00000000000E+00  0.31660020443E+02  0.31660020443E+02  0.00000000000E+00 0. -1.
          2   -1    0    0  501    0  0.00000000000E+00 -0.00000000000E+00 -0.11461471775E+04  0.11461471775E+04  0.00000000000E+00 0.  1.
         25    2    1    2    0    0 -0.10517690936E+03 -0.10841838644E+03 -0.70733172481E+03  0.73401879180E+03  0.12509472018E+03 0.  0.
         23    2    1    2    0    0  0.10517690936E+03  0.10841838644E+03 -0.40715543228E+03  0.44378840617E+03  0.91410473344E+02 0.  0.
          5    1    3    3  502    0 -0.42130746417E+02 -0.70246770696E+02 -0.58805023699E+03  0.59374250497E+03  0.41800000000E+01 0.  1.
         -5    1    3    3    0  502 -0.63046162944E+02 -0.38171615745E+02 -0.11928148782E+03  0.14027628683E+03  0.41800000000E+01 0.  1.
        -11    1    4    4    0    0  0.28022530319E+02  0.92920753421E+02 -0.24573787326E+03  0.26420944528E+03  0.00000000000E+00 0.  1.
         11    1    4    4    0    0  0.77154379042E+02  0.15497633020E+02 -0.16141755901E+03  0.17957896089E+03  0.00000000000E+00 0. -1.
</event>
<event>
 8    1  0.7039283E-009  0.1039526E+03  0.7561462E-02  0.1272197E+00
          3   -1    0    0  501    0  0.00000000000E+00  0.00000000000E+00  0.16471638799E+03  0.16471638799E+03  0.00000000000E+00 0. -1.
         -3   -1    0    0    0  501 -0.00000000000E+00 -0.00000000000E+00 -0.12132927577E+03  0.12132927577E+03  0.00000000000E+00 0.  1.
         25    2    1    2    0    0  0.37163403347E+02  0.54985046819E+02 -0.37983265098E+02  0.14661000746E+03  0.12508913598E+03 0.  0.
         23    2    1    2    0    0 -0.37163403347E+02 -0.54985046819E+02  0.81370377318E+02  0.13943565630E+03  0.91742520239E+02 0.  0.
          5    1    3    3  502    0  0.59485569285E+02  0.84320675003E+02 -0.36310309773E+02  0.10947337659E+03  0.41800000000E+01 0. -1.
         -5    1    3    3    0  502 -0.22322165938E+02 -0.29335628184E+02 -0.16729553242E+01  0.37136630874E+02  0.41800000000E+01 0. -1.
        -11    1    4    4    0    0 -0.22560341308E+01 -0.11738069893E+02 -0.20305025850E+02  0.23561961921E+02  0.00000000000E+00 0.  1.
         11    1    4    4    0    0 -0.34907369216E+02 -0.43246976926E+02  0.10167540317E+03  0.11587369437E+03  0.00000000000E+00 0. -1.
</event>
<event>
 8    1  0.7039283E-009  0.1489746E+03  0.7561462E-02  0.1201739E+00
          1   -1    0    0  501    0  0.00000000000E+00  0.00000000000E+00  0.65594376917E+03  0.65594376917E+03  0.00000000000E+00 0. -1.
         -1   -1    0    0    0  501 -0.00000000000E+00 -0.00000000000E+00 -0.46798627389E+02  0.46798627389E+02  0.00000000000E+00 0.  1.
         25    2    1    2    0    0 -0.83273576100E+02 -0.10830516383E+03  0.29636377370E+03  0.34949078011E+03  0.12509125481E+03 0.  0.
         23    2    1    2    0    0  0.83273576100E+02  0.10830516383E+03  0.31278136808E+03  0.35325161644E+03  0.91049565164E+02 0.  0.
          5    1    3    3  502    0 -0.63405432097E+02 -0.12143122288E+03  0.29499283290E+03  0.32527532119E+03  0.41800000000E+01 0. -1.
         -5    1    3    3    0  502 -0.19868144003E+02  0.13126059052E+02  0.13709408041E+01  0.24215458927E+02  0.41800000000E+01 0. -1.
        -11    1    4    4    0    0  0.55098331548E+01  0.95247776932E+01 -0.45634258725E+01  0.11912367825E+02  0.00000000000E+00 0.  1.
         11    1    4    4    0    0  0.77763742945E+02  0.98780386138E+02  0.31734479395E+03  0.34133924862E+03  0.00000000000E+00 0. -1.
</event>
<event>
 8    1  0.7039283E-009  0.2490638E+03  0.7561462E-02  0.1113898E+00
          2   -1    0    0  501    0  0.00000000000E+00  0.00000000000E+00  0.48165256435E+03  0.48165256435E+03  0.00000000000E+00 0. -1.
         -2   -1    0    0    0  501 -0.00000000000E+00 -0.00000000000E+00 -0.14928377482E+03  0.14928377482E+03  0.00000000000E+00 0.  1.
         25    2    1    2    0    0 -0.10511888670E+03  0.20491695076E+03  0.72477799347E+02  0.27192279950E+03  0.12509212780E+03 0.  0.
         23    2    1    2    0    0  0.10511888670E+03 -0.20491695076E+03  0.25989099019E+03  0.35901353968E+03  0.91139770926E+02 0.  0.
          5    1    3    3  502    0 -0.77921496233E+02  0.47181461445E+02  0.64333768973E+02  0.11159819044E+03  0.41800000000E+01 0.  1.
         -5    1    3    3    0  502 -0.27197390469E+02  0.15773548932E+03  0.81440303743E+01  0.16032460906E+03  0.41800000000E+01 0.  1.
        -11    1    4    4    0    0  0.11280353003E+03 -0.13256913627E+03  0.19657157674E+03  0.26256351053E+03  0.00000000000E+00 0. -1.
         11    1    4    4    0    0 -0.76846433296E+01 -0.72347814486E+02  0.63319413441E+02  0.96450029147E+02  0.00000000000E+00 0.  1.
</event>
<event>
 8    1  0.7039283E-009  0.1251744E+03  0.7561462E-02  0.1234797E+00
         -1   -1    0    0    0  501 -0.00000000000E+00  0.00000000000E+00  0.20246043723E+03  0.20246043723E+03  0.00000000000E+00 0.  1.
          1   -1    0    0  501    0  0.00000000000E+00 -0.00000000000E+00 -0.11646973443E+03  0.11646973443E+03  0.00000000000E+00 0. -1.
         25    2    1    2    0    0 -0.95376458517E+02 -0.52852938029E+02  0.39570654278E+02  0.17059765585E+03  0.12509045369E+03 0.  0.
         23    2    1    2    0    0  0.95376458517E+02  0.52852938029E+02  0.46420048515E+02  0.14833251581E+03  0.89205450760E+02 0.  0.
          5    1    3    3  502    0 -0.43138189685E+02 -0.29837528304E+02 -0.44486709630E+02  0.68903709902E+02  0.41800000000E+01 0.  1.
         -5    1    3    3    0  502 -0.52238268831E+02 -0.23015409725E+02  0.84057363907E+02  0.10169394595E+03  0.41800000000E+01 0.  1.
        -11    1    4    4    0    0  0.75476259226E+01 -0.23148073162E+02  0.12298964051E+02  0.27277545067E+02  0.00000000000E+00 0.  1.
         11    1    4    4    0    0  0.87828832594E+02  0.76001011191E+02  0.34121084465E+02  0.12105497074E+03  0.00000000000E+00 0. -1.
</event>
<event>
 8    1  0.7039283E-009  0.5853841E+02  0.7561462E-02  0.1404070E+00
         -3   -1    0    0    0  501 -0.00000000000E+00  0.00000000000E+00  0.14458524262E+03  0.14458524262E+03  0.00000000000E+00 0.  1.
          3   -1    0    0  501    0  0.00000000000E+00 -0.00000000000E+00 -0.83113518462E+02  0.83113518462E+02  0.00000000000E+00 0. -1.
         25    2    1    2    0    0 -0.13861032102E+02 -0.80602089372E+01  0.44481270825E+02  0.13371869208E+03  0.12508001430E+03 0.  0.
         23    2    1    2    0    0  0.13861032102E+02  0.80602089372E+01  0.16990453337E+02  0.93980069005E+02  0.91030119667E+02 0.  0.
          5    1    3    3  502    0 -0.81633977585E+01  0.15457185366E+02  0.84705474758E+02  0.86591313054E+02  0.41800000000E+01 0. -1.
         -5    1    3    3    0  502 -0.56976343433E+01 -0.23517394303E+02 -0.40224203933E+02  0.47127379027E+02  0.41800000000E+01 0. -1.
        -11    1    4    4    0    0  0.19504130353E+02  0.38729446849E+02  0.36936898897E+02  0.56962405621E+02  0.00000000000E+00 0.  1.
         11    1    4    4    0    0 -0.56430982512E+01 -0.30669237911E+02 -0.19946445560E+02  0.37017663384E+02  0.00000000000E+00 0. -1.
</event>
<event>
 8    1  0.7039283E-009  0.1383037E+03  0.7561462E-02  0.1215630E+00
         -1   -1    0    0    0  501 -0.00000000000E+00  0.00000000000E+00  0.78172422947E+03  0.78172422947E+03  0.00000000000E+00 0.  1.
          1   -1    0    0  501    0  0.00000000000E+00 -0.00000000000E+00 -0.34093904936E+02  0.34093904936E+02  0.00000000000E+00 0. -1.
         25    2    1    2    0    0  0.90324444179E+02  0.52843129277E+02  0.55286292759E+03  0.57641314430E+03  0.12507515617E+03 0.  0.
         23    2    1    2    0    0 -0.90324444179E+02 -0.52843129277E+02  0.19476739694E+03  0.23940499011E+03  0.91812356720E+02 0.  0.
          5    1    3    3  502    0  0.78622068118E+02 -0.26139464194E+02  0.26852992387E+03  0.28105247481E+03  0.41800000000E+01 0. -1.
         -5    1    3    3    0  502  0.11702376061E+02  0.78982593472E+02  0.28433300371E+03  0.29536066948E+03  0.41800000000E+01 0. -1.
        -11    1    4    4    0    0 -0.46294401476E+02 -0.18621919564E+01  0.15365372575E+03  0.16048709233E+03  0.00000000000E+00 0.  1.
         11    1    4    4    0    0 -0.44030042703E+02 -0.50980937321E+02  0.41113671195E+02  0.78917897778E+02  0.00000000000E+00 0. -1.
</event>
<event>
 8    1  0.7039283E-009  0.1174003E+03  0.7561462E-02  0.1247448E+00
         -1   -1    0    0    0  501 -0.00000000000E+00  0.00000000000E+00  0.43461599042E+02  0.43461599042E+02  0.00000000000E+00 0.  1.
          1   -1    0    0  501    0  0.00000000000E+00 -0.00000000000E+00 -0.44937242071E+03  0.44937242071E+03  0.00000000000E+00 0. -1.
         25    2    1    2    0    0  0.39142961728E+02  0.52289470908E+02 -0.32679968774E+03  0.35596540175E+03  0.12508785358E+03 0.  0.
         23    2    1    2    0    0 -0.39142961728E+02 -0.52289470908E+02 -0.79111133931E+02  0.13686861801E+03  0.90598492606E+02 0.  0.
          5    1    3    3  502    0  0.70290116719E+02  0.60903692047E+02 -0.29891429829E+03  0.31307697190E+03  0.41800000000E+01 0.  1.
         -5    1    3    3    0  502 -0.31147154992E+02 -0.86142211392E+01 -0.27885389451E+02  0.42888429847E+02  0.41800000000E+01 0.  1.
        -11    1    4    4    0    0 -0.52908689116E+01  0.24569256432E+02 -0.67803584225E+01  0.26031037547E+02  0.00000000000E+00 0.  1.
         11    1    4    4    0    0 -0.33852092816E+02 -0.76858727339E+02 -0.72330775509E+02  0.11083758046E+03  0.00000000000E+00 0. -1.
</event>
<event>
 8    1  0.7039283E-009  0.3061447E+03  0.7561462E-02  0.1082209E+00
         -2   -1    0    0    0  501 -0.00000000000E+00  0.00000000000E+00  0.33627649359E+02  0.33627649359E+02  0.00000000000E+00 0.  1.
          2   -1    0    0  501    0  0.00000000000E+00 -0.00000000000E+00 -0.33770862053E+04  0.33770862053E+04  0.00000000000E+00 0. -1.
         25    2    1    2    0    0  0.29269826206E+03 -0.18894283671E+02 -0.23290959710E+04  0.23508220830E+04  0.12508859868E+03 0.  0.
         23    2    1    2    0    0 -0.29269826206E+03  0.18894283671E+02 -0.10143625849E+04  0.10598917716E+04  0.91705219032E+02 0.  0.
          5    1    3    3  502    0  0.10040551585E+03 -0.66746068784E+02 -0.89615185522E+03  0.90423554748E+03  0.41800000000E+01 0.  1.
         -5    1    3    3    0  502  0.19229274621E+03  0.47851785113E+02 -0.14329441157E+04  0.14465865356E+04  0.41800000000E+01 0.  1.
        -11    1    4    4    0    0 -0.35713926863E+02 -0.67840948919E+00 -0.48499714895E+02  0.60234268954E+02  0.00000000000E+00 0. -1.
         11    1    4    4    0    0 -0.25698433520E+03  0.19572693160E+02 -0.96586287005E+03  0.99965750265E+03  0.00000000000E+00 0.  1.
</event>
<event>
 8    1  0.7039283E-009  0.7863875E+02  0.7561462E-02  0.1332959E+00
         -3   -1    0    0    0  501 -0.00000000000E+00  0.00000000000E+00  0.44383385186E+03  0.44383385186E+03  0.00000000000E+00 0.  1.
          3   -1    0    0  501    0  0.00000000000E+00 -0.00000000000E+00 -0.41407916705E+02  0.41407916705E+02  0.00000000000E+00 0. -1.
         25    2    1    2    0    0 -0.14156723806E+02  0.46593230536E+02  0.10711738769E+03  0.17173579878E+03  0.12509079853E+03 0.  0.
         23    2    1    2    0    0  0.14156723806E+02 -0.46593230536E+02  0.29530854747E+03  0.31350596978E+03  0.93314055328E+02 0.  0.
          5    1    3    3  502    0 -0.16598197463E+02  0.19408415536E+02  0.13203231781E+03  0.13454438710E+03  0.41800000000E+01 0.  1.
         -5    1    3    3    0  502  0.24414736568E+01  0.27184814999E+02 -0.24914930123E+02  0.37191411686E+02  0.41800000000E+01 0.  1.
        -11    1    4    4    0    0 -0.38836315780E+02 -0.26948163624E+02  0.10886815854E+03  0.11868756839E+03  0.00000000000E+00 0.  1.
         11    1    4    4    0    0  0.52993039586E+02 -0.19645066911E+02  0.18644038893E+03  0.19481840139E+03  0.00000000000E+00 0. -1.
</event>
<event>
 8    1  0.7039283E-009  0.1760831E+03  0.7561462E-02  0.1171649E+00
          2   -1    0    0  501    0  0.00000000000E+00  0.00000000000E+00  0.20427394539E+04  0.20427394539E+04  0.00000000000E+00 0. -1.
         -2   -1    0    0    0  501 -0.00000000000E+00 -0.00000000000E+00 -0.20293594065E+02  0.20293594065E+02  0.00000000000E+00 0.  1.
         25    2    1    2    0    0 -0.15307272613E+03  0.21672013215E+02  0.14419943769E+04  0.14556426005E+04  0.12508661765E+03 0.  0.
         23    2    1    2    0    0  0.15307272613E+03 -0.21672013215E+02  0.58045148297E+03  0.60739044744E+03  0.89990532357E+02 0.  0.
          5    1    3    3  502    0  0.20714255640E+02  0.23280090148E+00  0.24372465508E+03  0.24463915156E+03  0.41800000000E+01 0.  1.
         -5    1    3    3    0  502 -0.17378698177E+03  0.21439212314E+02  0.11982697218E+04  0.12110034490E+04  0.41800000000E+01 0.  1.
        -11    1    4    4    0    0  0.28017293160E+02 -0.11907514478E+02  0.29683045924E+02  0.42518711556E+02  0.00000000000E+00 0.  1.
         11    1    4    4    0    0  0.12505543297E+03 -0.97644987368E+01  0.55076843705E+03  0.56487173588E+03  0.00000000000E+00 0. -1.
</event>
<event>
 8    1  0.7039283E-009  0.7866617E+02  0.7561462E-02  0.1332880E+00
         -2   -1    0    0    0  501 -0.00000000000E+00  0.00000000000E+00  0.21294234170E+02  0.21294234170E+02  0.00000000000E+00 0.  1.
          2   -1    0    0  501    0  0.00000000000E+00 -0.00000000000E+00 -0.67579219828E+03  0.67579219828E+03  0.00000000000E+00 0. -1.
         25    2    1    2    0    0  0.47335942466E+02  0.18914165863E+02 -0.37392863207E+03  0.39757894663E+03  0.12509180547E+03 0.  0.
         23    2    1    2    0    0 -0.47335942466E+02 -0.18914165863E+02 -0.28056933203E+03  0.29950748582E+03  0.91581367457E+02 0.  0.
          5    1    3    3  502    0  0.40859631170E+02 -0.12810880121E+01 -0.25249235695E+02  0.48230145646E+02  0.41800000000E+01 0.  1.
         -5    1    3    3    0  502  0.64763112959E+01  0.20195253875E+02 -0.34867939638E+03  0.34934880098E+03  0.41800000000E+01 0.  1.
        -11    1    4    4    0    0  0.11416059336E+02  0.20786614155E+02 -0.25751660072E+02  0.35007966740E+02  0.00000000000E+00 0. -1.
         11    1    4    4    0    0 -0.58752001803E+02 -0.39700780018E+02 -0.25481767196E+03  0.26449951908E+03  0.00000000000E+00 0.  1.
</event>
<event>
 8    1  0.7039283E-009  0.9689639E+02  0.7561462E-02  0.1286961E+00
         -2   -1    0    0    0  501 -0.00000000000E+00  0.00000000000E+00  0.53699841815E+02  0.53699841815E+02  0.00000000000E+00 0.  1.
          2   -1    0    0  501    0  0.00000000000E+00 -0.00000000000E+00 -0.24539240425E+03  0.24539240425E+03  0.00000000000E+00 0. -1.
         25    2    1    2    0    0 -0.37120572729E+02  0.53603838329E+01 -0.10127019752E+03  0.16525890020E+03  0.12509268786E+03 0.  0.
         23    2    1    2    0    0  0.37120572729E+02 -0.53603838329E+01 -0.90422364917E+02  0.13383334586E+03  0.91260559681E+02 0.  0.
          5    1    3    3  502    0 -0.35829331571E+02  0.48034157507E+02 -0.55021367854E+01  0.60322194899E+02  0.41800000000E+01 0. -1.
         -5    1    3    3    0  502 -0.12912411575E+01 -0.42673773674E+02 -0.95768060734E+02  0.10493670530E+03  0.41800000000E+01 0. -1.
        -11    1    4    4    0    0 -0.15050664633E+02  0.25935737782E+02 -0.73644214671E+01  0.30877495101E+02  0.00000000000E+00 0.  1.
         11    1    4    4    0    0  0.52171237362E+02 -0.31296121615E+02 -0.83057943450E+02  0.10295585076E+03  0.00000000000E+00 0. -1.
</event>
<event>
 8    1  0.7039283E-009  0.1204506E+03  0.7561462E-02  0.1242356E+00
          2   -1    0    0  501    0  0.00000000000E+00  0.00000000000E+00  0.65533282130E+03  0.65533282130E+03  0.00000000000E+00 0. -1.
         -2   -1    0    0    0  501 -0.00000000000E+00 -0.00000000000E+00 -0.35653934562E+02  0.35653934562E+02  0.00000000000E+00 0.  1.
         25    2    1    2    0    0  0.28344892824E+02  0.90897906741E+02  0.21117119912E+03  0.26326251756E+03  0.12509202779E+03 0.  0.
         23    2    1    2    0    0 -0.28344892824E+02 -0.90897906741E+02  0.40850768762E+03  0.42772423830E+03  0.83687697936E+02 0.  0.
          5    1    3    3  502    0  0.28912850469E+01  0.10991229708E+03  0.10399638827E+03  0.15139945096E+03  0.41800000000E+01 0. -1.
         -5    1    3    3    0  502  0.25453607777E+02 -0.19014390335E+02  0.10717481085E+03  0.11186306660E+03  0.41800000000E+01 0. -1.
        -11    1    4    4    0    0  0.30934770219E+01 -0.31226783939E+02  0.30546417440E+02  0.43792296739E+02  0.00000000000E+00 0.  1.
         11    1    4    4    0    0 -0.31438369846E+02 -0.59671122803E+02  0.37796127018E+03  0.38393194156E+03  0.00000000000E+00 0. -1.
</event>
<event>
 8    1  0.7039283E-009  0.1177537E+03  0.7561462E-02  0.1246849E+00
         -2   -1    0    0    0  501 -0.00000000000E+00  0.00000000000E+00  0.31339701670E+02  0.31339701670E+02  0.00000000000E+00 0.  1.
          2   -1    0    0  501    0  0.00000000000E+00 -0.00000000000E+00 -0.49253414441E+03  0.49253414441E+03  0.00000000000E+00 0. -1.
         25    2    1    2    0    0  0.35892741120E+02 -0.51921171160E+02 -0.31082923539E+03  0.34094993812E+03  0.12509176572E+03 0.  0.
         23    2    1    2    0    0 -0.35892741120E+02  0.51921171160E+02 -0.15036520735E+03  0.18292390796E+03  0.82869557992E+02 0.  0.
          5    1    3    3  502    0  0.67525877268E+02 -0.74104392529E+02 -0.20573588938E+03  0.22890158076E+03  0.41800000000E+01 0.  1.
         -5    1    3    3    0  502 -0.31633136148E+02  0.22183221369E+02 -0.10509334601E+03  0.11204835737E+03  0.41800000000E+01 0.  1.
        -11    1    4    4    0    0  0.18244724042E+02  0.35190991251E+02 -0.29423375735E+02  0.49366090186E+02  0.00000000000E+00 0.  1.
         11    1    4    4    0    0 -0.54137465161E+02  0.16730179909E+02 -0.12094183161E+03  0.13355781777E+03  0.00000000000E+00 0. -1.
</event>
<event>
 8    1  0.7039283E-009  0.1058406E+03  0.7561462E-02  0.1268472E+00
          2   -1    0    0  501    0  0.00000000000E+00  0.00000000000E+00  0.17998369455E+03  0.17998369455E+03  0.00000000000E+00 0. -1.
         -2   -1    0    0    0  501 -0.00000000000E+00 -0.00000000000E+00 -0.73162397554E+02  0.73162397554E+02  0.00000000000E+00 0.  1.
         25    2    1    2    0    0  0.65633855854E+01 -0.27190410774E+02  0.32189310860E+02  0.13214019789E+03  0.12506991523E+03 0.  0.
         23    2    1    2    0    0 -0.65633855854E+01  0.27190410774E+02  0.74631986134E+02  0.12100589422E+03  0.91049967669E+02 0.  0.
          5    1    3    3  502    0 -0.22947243232E+02 -0.64679881928E+02  0.45478660439E+02  0.82436909534E+02  0.41800000000E+01 0. -1.
         -5    1    3    3    0  502  0.29510628817E+02  0.37489471155E+02 -0.13289349579E+02  0.49703288351E+02  0.41800000000E+01 0. -1.
        -11    1    4    4    0    0  0.42108285977E+02  0.16314996109E+02  0.31375674675E+02  0.54988360653E+02  0.00000000000E+00 0. -1.
         11    1    4    4    0    0 -0.48671671563E+02  0.10875414664E+02  0.43256311459E+02  0.66017533564E+02  0.00000000000E+00 0.  1.
</event>
<event>
 8    1  0.7039283E-009  0.1245032E+03  0.7561462E-02  0.1235848E+00
         -2   -1    0    0    0  501 -0.00000000000E+00  0.00000000000E+00  0.13631689852E+03  0.13631689852E+03  0.00000000000E+00 0.  1.
          2   -1    0    0  501    0  0.00000000000E+00 -0.00000000000E+00 -0.19322842814E+03  0.19322842814E+03  0.00000000000E+00 0. -1.
         25    2    1    2    0    0 -0.61988420628E+02  0.13247514869E+02 -0.13461316060E+03  0.19438681562E+03  0.12508984826E+03 0.  0.
         23    2    1    2    0    0  0.61988420628E+02 -0.13247514869E+02  0.77701630982E+02  0.13515851104E+03  0.90621292794E+02 0.  0.
          5    1    3    3  502    0 -0.98492167487E+02 -0.22893924845E+01 -0.81300985063E+02  0.12780168601E+03  0.41800000000E+01 0. -1.
         -5    1    3    3    0  502  0.36503746858E+02  0.15536907353E+02 -0.53312175542E+02  0.66585129615E+02  0.41800000000E+01 0. -1.
        -11    1    4    4    0    0  0.67915080174E+02  0.24573637174E+02  0.48262264823E+02  0.86865228744E+02  0.00000000000E+00 0.  1.
         11    1    4    4    0    0 -0.59266595454E+01 -0.37821152043E+02  0.29439366159E+02  0.48293282298E+02  0.00000000000E+00 0. -1.
</event>
<event>
 8    1  0.7039283E-009  0.1412124E+03  0.7561462E-02  0.1211707E+00
          1   -1    0    0  501    0  0.00000000000E+00  0.00000000000E+00  0.49092036512E+03  0.49092036512E+03  0.00000000000E+00 0. -1.
         -1   -1    0    0    0  501 -0.00000000000E+00 -0.00000000000E+00 -0.61052369006E+02  0.61052369006E+02  0.00000000000E+00 0.  1.
         25    2    1    2    0    0  0.11100936888E+03 -0.13695662565E+02  0.34735019839E+03  0.38575959385E+03  0.12509057827E+03 0.  0.
         23    2    1    2    0    0 -0.11100936888E+03  0.13695662565E+02  0.82517797727E+02  0.16621314028E+03  0.91142580111E+02 0.  0.
          5    1    3    3  502    0  0.44224809142E+02  0.41385418925E+02  0.58971571345E+02  0.84638674790E+02  0.41800000000E+01 0. -1.
         -5    1    3    3    0  502  0.66784559736E+02 -0.55081081490E+02  0.28837862704E+03  0.30112091906E+03  0.41800000000E+01 0. -1.
        -11    1    4    4    0    0 -0.32990265874E+02  0.40782310957E+02  0.61812313459E+02  0.81069825611E+02  0.00000000000E+00 0. -1.
         11    1    4    4    0    0 -0.78019103004E+02 -0.27086648392E+02  0.20705484269E+02  0.85143314673E+02  0.00000000000E+00 0.  1.
</event>
<event>
 8    1  0.7039283E-009  0.9014011E+02  0.7561462E-02  0.1302513E+00
         -1   -1    0    0    0  501 -0.00000000000E+00  0.00000000000E+00  0.10953676250E+02  0.10953676250E+02  0.00000000000E+00 0.  1.
          1   -1    0    0  501    0  0.00000000000E+00 -0.00000000000E+00 -0.10162271436E+04  0.10162271436E+04  0.00000000000E+00 0. -1.
         25    2    1    2    0    0 -0.46258460537E+01  0.10249306394E+01 -0.70032923246E+03  0.71142923615E+03  0.12509226705E+03 0.  0.
         23    2    1    2    0    0  0.46258460537E+01 -0.10249306394E+01 -0.30494423487E+03  0.31575158368E+03  0.81765685231E+02 0.  0.
          5    1    3    3  502    0  0.24599145751E+02 -0.40633558771E+02 -0.12414987659E+03  0.13299198595E+03  0.41800000000E+01 0.  1.
         -5    1    3    3    0  502 -0.29224991804E+02  0.41658489410E+02 -0.57617935587E+03  0.57843725020E+03  0.41800000000E+01 0.  1.
        -11    1    4    4    0    0  0.54253551767E+01  0.40069997531E+02 -0.16611382297E+03  0.17096444473E+03  0.00000000000E+00 0.  1.
         11    1    4    4    0    0 -0.79950912296E+00 -0.41094928171E+02 -0.13883041190E+03  0.14478713895E+03  0.00000000000E+00 0. -1.
</event>
<event>
 8    1  0.7039283E-009  0.1715169E+03  0.7561462E-02  0.1176275E+00
          1   -1    0    0  501    0  0.00000000000E+00  0.00000000000E+00  0.22946520774E+03  0.22946520774E+03  0.00000000000E+00 0. -1.
         -1   -1    0    0    0  501 -0.00000000000E+00 -0.00000000000E+00 -0.17402921897E+03  0.17402921897E+03  0.00000000000E+00 0.  1.
         25    2    1    2    0    0 -0.13141380527E+03 -0.92186370825E+02 -0.19801215260E+02  0.20447241501E+03  0.12509582405E+03 0.  0.
         23    2    1    2    0    0  0.13141380527E+03  0.92186370825E+02  0.75237204036E+02  0.19902201169E+03  0.90450036407E+02 0.  0.
          5    1    3    3  502    0 -0.70572833214E+01 -0.13872986196E+02 -0.51595001520E+02  0.54053506600E+02  0.41800000000E+01 0. -1.
         -5    1    3    3    0  502 -0.12435652195E+03 -0.78313384629E+02  0.31793786261E+02  0.15041890841E+03  0.41800000000E+01 0. -1.
        -11    1    4    4    0    0  0.93443712951E+02  0.16042069458E+02  0.61036689037E+02  0.11275882622E+03  0.00000000000E+00 0.  1.
         11    1    4    4    0    0  0.37970092320E+02  0.76144301367E+02  0.14200514999E+02  0.86263185472E+02  0.00000000000E+00 0. -1.
</event>
<event>
 8    1  0.7039283E-009  0.1119345E+03  0.7561462E-02  0.1257029E+00
         -1   -1    0    0    0  501 -0.00000000000E+00  0.00000000000E+00  0.32038992888E+03  0.32038992888E+03  0.00000000000E+00 0.  1.
          1   -1    0    0  501    0  0.00000000000E+00 -0.00000000000E+00 -0.65870979782E+02  0.65870979782E+02  0.00000000000E+00 0. -1.
         25    2    1    2    0    0 -0.82711836887E+02  0.30923311060E+02  0.18951551055E+03  0.24363677878E+03  0.12508098219E+03 0.  0.
         23    2    1    2    0    0  0.82711836887E+02 -0.30923311060E+02  0.65003438539E+02  0.14262412988E+03  0.91206887206E+02 0.  0.
          5    1    3    3  502    0 -0.41310472218E+02  0.36082931436E+02  0.19383019988E+03  0.20148486752E+03  0.41800000000E+01 0.  1.
         -5    1    3    3    0  502 -0.41401364668E+02 -0.51596203755E+01 -0.43146893207E+01  0.42151911259E+02  0.41800000000E+01 0.  1.
        -11    1    4    4    0    0  0.67600372063E+02  0.22627796176E+02  0.35242950781E+02  0.79522908916E+02  0.00000000000E+00 0.  1.
         11    1    4    4    0    0  0.15111464824E+02 -0.53551107237E+02  0.29760487758E+02  0.63101220963E+02  0.00000000000E+00 0. -1.
</event>
<event>
 8    1  0.7039283E-009  0.1053006E+03  0.7561462E-02  0.1269528E+00
          1   -1    0    0  501    0  0.00000000000E+00  0.00000000000E+00  0.49170599398E+03  0.49170599398E+03  0.00000000000E+00 0.  1.
         -1   -1    0    0    0  501 -0.00000000000E+00 -0.00000000000E+00 -0.24677309162E+02  0.24677309162E+02  0.00000000000E+00 0. -1.
         25    2    1    2    0    0 -0.23399267953E+02  0.65418576996E+01  0.30291074440E+03  0.32862288784E+03  0.12509101367E+03 0.  0.
         23    2    1    2    0    0  0.23399267953E+02 -0.65418576996E+01  0.16411794043E+03  0.18776041530E+03  0.87914467193E+02 0.  0.
          5    1    3    3  502    0 -0.36763927395E+02  0.58936339452E+02  0.13065520726E+03  0.14803153059E+03  0.41800000000E+01 0.  1.
         -5    1    3    3    0  502  0.13364659442E+02 -0.52394481752E+02  0.17225553713E+03  0.18059135725E+03  0.41800000000E+01 0.  1.
        -11    1    4    4    0    0  0.52116742801E+02  0.10810987513E+02  0.12712245183E+03  0.13781563804E+03  0.00000000000E+00 0.  1.
         11    1    4    4    0    0 -0.28717474848E+02 -0.17352845213E+02  0.36995488600E+02  0.49944777258E+02  0.00000000000E+00 0. -1.
</event>
<event>
 8    1  0.7039283E-009  0.1124316E+03  0.7561462E-02  0.1256132E+00
          1   -1    0    0  501    0  0.00000000000E+00  0.00000000000E+00  0.34491118837E+03  0.34491118837E+03  0.00000000000E+00 0. -1.
         -1   -1    0    0    0  501 -0.00000000000E+00 -0.00000000000E+00 -0.53213813445E+02  0.53213813445E+02  0.00000000000E+00 0.  1.
         25    2    1    2    0    0  0.45247611907E+02 -0.25708166509E+02  0.69038399221E+02  0.15206395235E+03  0.12509551881E+03 0.  0.
         23    2    1    2    0    0 -0.45247611907E+02  0.25708166509E+02  0.22265897571E+03  0.24606104947E+03  0.90888747355E+02 0.  0.
          5    1    3    3  502    0 -0.11101446783E+02 -0.64036329419E+02  0.47015112065E+02  0.80323015186E+02  0.41800000000E+01 0.  1.
         -5    1    3    3    0  502  0.56349058691E+02  0.38328162910E+02  0.22023287156E+02  0.71740937159E+02  0.41800000000E+01 0.  1.
        -11    1    4    4    0    0  0.73617874661E+01  0.36939277895E+02  0.37127999255E+02  0.52888510045E+02  0.00000000000E+00 0.  1.
         11    1    4    4    0    0 -0.52609399373E+02 -0.11231111386E+02  0.18553097645E+03  0.19317253943E+03  0.00000000000E+00 0. -1.
</event>
<event>
 8    1  0.7039283E-009  0.8302148E+02  0.7561462E-02  0.1320689E+00
          2   -1    0    0  501    0  0.00000000000E+00  0.00000000000E+00  0.33652171604E+03  0.33652171604E+03  0.00000000000E+00 0. -1.
         -2   -1    0    0    0  501 -0.00000000000E+00 -0.00000000000E+00 -0.68685586445E+02  0.68685586445E+02  0.00000000000E+00 0.  1.
         25    2    1    2    0    0 -0.37742551566E+02  0.52227168970E+02  0.30187426585E+02  0.14391241042E+03  0.12508926322E+03 0.  0.
         23    2    1    2    0    0  0.37742551566E+02 -0.52227168970E+02  0.23764870301E+03  0.26129489207E+03  0.87441049851E+02 0.  0.
          5    1    3    3  502    0 -0.36121689644E+02  0.46515088675E+02  0.76724666310E+02  0.96812069276E+02  0.41800000000E+01 0. -1.
         -5    1    3    3    0  502 -0.16208619217E+01  0.57120802945E+01 -0.46537239725E+02  0.47100341144E+02  0.41800000000E+01 0. -1.
        -11    1    4    4    0    0  0.60502889027E+01 -0.65211146777E+02  0.10065948347E+03  0.12008926377E+03  0.00000000000E+00 0.  1.
         11    1    4    4    0    0  0.31692262663E+02  0.12983977808E+02  0.13698921954E+03  0.14120562830E+03  0.00000000000E+00 0. -1.
</event>
<event>
 8    1  0.7039283E-009  0.1491829E+03  0.7561462E-02  0.1201481E+00
          2   -1    0    0  501    0  0.00000000000E+00  0.00000000000E+00  0.49861545364E+02  0.49861545364E+02  0.00000000000E+00 0.  1.
         -2   -1    0    0    0  501 -0.00000000000E+00 -0.00000000000E+00 -0.50615525134E+03  0.50615525134E+03  0.00000000000E+00 0. -1.
         25    2    1    2    0    0 -0.92932903549E+02 -0.59525157796E+02 -0.30307909493E+03  0.34595407946E+03  0.12509004094E+03 0.  0.
         23    2    1    2    0    0  0.92932903549E+02  0.59525157796E+02 -0.15321461105E+03  0.21006271725E+03  0.92042702939E+02 0.  0.
          5    1    3    3  502    0 -0.63770052369E+02  0.25989557729E+02 -0.82455925831E+02  0.10751059852E+03  0.41800000000E+01 0.  1.
         -5    1    3    3    0  502 -0.29162851180E+02 -0.85514715524E+02 -0.22062316909E+03  0.23844348094E+03  0.41800000000E+01 0.  1.
        -11    1    4    4    0    0  0.10671410893E+03  0.64006353822E+02 -0.11597426015E+03  0.17010215575E+03  0.00000000000E+00 0.  1.
         11    1    4    4    0    0 -0.13781205381E+02 -0.44811960263E+01 -0.37240350903E+02  0.39960561495E+02  0.00000000000E+00 0. -1.
</event>
<event>
 8    1  0.7039283E-009  0.9943151E+02  0.7561462E-02  0.1281496E+00
          2   -1    0    0  501    0  0.00000000000E+00  0.00000000000E+00  0.39819429077E+03  0.39819429077E+03  0.00000000000E+00 0. -1.
         -2   -1    0    0    0  501 -0.00000000000E+00 -0.00000000000E+00 -0.32991841038E+02  0.32991841038E+02  0.00000000000E+00 0.  1.
         25    2    1    2    0    0 -0.99213131447E+01  0.14579489566E+02  0.27853925273E+03  0.30584732196E+03  0.12508986797E+03 0.  0.
         23    2    1    2    0    0  0.99213131447E+01 -0.14579489566E+02  0.86663197006E+02  0.12533880985E+03  0.88816178533E+02 0.  0.
          5    1    3    3  502    0  0.44982929432E+02 -0.12803332766E+02  0.47608715981E+02  0.66868912864E+02  0.41800000000E+01 0. -1.
         -5    1    3    3    0  502 -0.54904242577E+02  0.27382822332E+02  0.23093053675E+03  0.23897840909E+03  0.41800000000E+01 0. -1.
        -11    1    4    4    0    0  0.47053912403E+02 -0.22941241989E+02  0.53585655614E+02  0.74911906557E+02  0.00000000000E+00 0. -1.
         11    1    4    4    0    0 -0.37132599259E+02  0.83617524229E+01  0.33077541392E+02  0.50426903294E+02  0.00000000000E+00 0.  1.
</event>
<event>
 8    1  0.7039283E-009  0.1189981E+03  0.7561462E-02  0.1244759E+00
          3   -1    0    0  501    0  0.00000000000E+00  0.00000000000E+00  0.27557885912E+03  0.27557885912E+03  0.00000000000E+00 0. -1.
         -3   -1    0    0    0  501 -0.00000000000E+00 -0.00000000000E+00 -0.99440188683E+02  0.99440188683E+02  0.00000000000E+00 0.  1.
         25    2    1    2    0    0  0.55401689104E+02 -0.88155671387E+02  0.16113697953E+02  0.16354709644E+03  0.12508889614E+03 0.  0.
         23    2    1    2    0    0 -0.55401689104E+02  0.88155671387E+02  0.16002497248E+03  0.21147195136E+03  0.90948473555E+02 0.  0.
          5    1    3    3  502    0  0.16012084639E+01 -0.12751255612E+02 -0.48619206984E+02  0.50462442231E+02  0.41800000000E+01 0. -1.
         -5    1    3    3    0  502  0.53800480640E+02 -0.75404415776E+02  0.64732904937E+02  0.11308465421E+03  0.41800000000E+01 0. -1.
        -11    1    4    4    0    0 -0.30590450484E+02 -0.86768285770E+01  0.70267703594E+02  0.77127253181E+02  0.00000000000E+00 0. -1.
         11    1    4    4    0    0 -0.24811238620E+02  0.96832499964E+02  0.89757268890E+02  0.13434469818E+03  0.00000000000E+00 0.  1.
</event>
<event>
 8    1  0.7039283E-009  0.8362451E+02  0.7561462E-02  0.1319069E+00
          1   -1    0    0  501    0  0.00000000000E+00  0.00000000000E+00  0.16687944483E+03  0.16687944483E+03  0.00000000000E+00 0. -1.
         -1   -1    0    0    0  501 -0.00000000000E+00 -0.00000000000E+00 -0.82258754487E+02  0.82258754487E+02  0.00000000000E+00 0.  1.
         25    2    1    2    0    0  0.12684917785E+02 -0.43257861250E+02  0.64066922237E+02  0.14759583164E+03  0.12509120390E+03 0.  0.
         23    2    1    2    0    0 -0.12684917785E+02  0.43257861250E+02  0.20553768108E+02  0.10154236768E+03  0.88635463282E+02 0.  0.
          5    1    3    3  502    0  0.62425326152E+02 -0.13380239663E+02  0.41970903643E+01  0.64117393320E+02  0.41800000000E+01 0. -1.
         -5    1    3    3    0  502 -0.49740408366E+02 -0.29877621587E+02  0.59869831873E+02  0.83478438322E+02  0.41800000000E+01 0. -1.
        -11    1    4    4    0    0 -0.67433292179E+01  0.20900199037E+02 -0.35025428441E+02  0.41340917336E+02  0.00000000000E+00 0.  1.
         11    1    4    4    0    0 -0.59415885675E+01  0.22357662213E+02  0.55579196549E+02  0.60201450343E+02  0.00000000000E+00 0. -1.
</event>
<event>
 8    1  0.7039283E-009  0.9165959E+02  0.7561462E-02  0.1298882E+00
         -1   -1    0    0    0  501 -0.00000000000E+00  0.00000000000E+00  0.30546245813E+03  0.30546245813E+03  0.00000000000E+00 0.  1.
          1   -1    0    0  501    0  0.00000000000E+00 -0.00000000000E+00 -0.51920455011E+02  0.51920455011E+02  0.00000000000E+00 0. -1.
         25    2    1    2    0    0 -0.55966038022E+02 -0.11319373362E+02  0.10168895664E+03  0.17102288934E+03  0.12509140319E+03 0.  0.
         23    2    1    2    0    0  0.55966038022E+02  0.11319373362E+02  0.15185304648E+03  0.18636002380E+03  0.91708151871E+02 0.  0.
          5    1    3    3  502    0  0.10156463986E+02  0.26312118759E+02  0.89407451536E+02  0.93843732580E+02  0.41800000000E+01 0. -1.
         -5    1    3    3    0  502 -0.66122502008E+02 -0.37631492121E+02  0.12281505103E+02  0.77179156763E+02  0.41800000000E+01 0. -1.
        -11    1    4    4    0    0  0.68629784943E+01  0.26373813362E+02  0.12947700666E+01  0.27282868885E+02  0.00000000000E+00 0. -1.
         11    1    4    4    0    0  0.49103059528E+02 -0.15054440001E+02  0.15055827641E+03  0.15907715491E+03  0.00000000000E+00 0.  1.
</event>
<event>
 8    1  0.7039283E-009  0.1206806E+03  0.7561462E-02  0.1241978E+00
          1   -1    0    0  501    0  0.00000000000E+00  0.00000000000E+00  0.12403731644E+03  0.12403731644E+03  0.00000000000E+00 0. -1.
         -1   -1    0    0    0  501 -0.00000000000E+00 -0.00000000000E+00 -0.18096560740E+03  0.18096560740E+03  0.00000000000E+00 0.  1.
         25    2    1    2    0    0  0.10230170291E+03 -0.85530038110E+01 -0.15897412899E+02  0.16260298489E+03  0.12509280821E+03 0.  0.
         23    2    1    2    0    0 -0.10230170291E+03  0.85530038110E+01 -0.41030878055E+02  0.14239993895E+03  0.89751976949E+02 0.  0.
          5    1    3    3  502    0 -0.13492400545E+01 -0.73608697879E+01 -0.52043141068E+02  0.52744324671E+02  0.41800000000E+01 0.  1.
         -5    1    3    3    0  502  0.10365094297E+03 -0.11921340230E+01  0.36145728169E+02  0.10985866022E+03  0.41800000000E+01 0.  1.
        -11    1    4    4    0    0 -0.25838457862E+02 -0.33087514008E+02 -0.35806158264E+02  0.55176901486E+02  0.00000000000E+00 0.  1.
         11    1    4    4    0    0 -0.76463245049E+02  0.41640517819E+02 -0.52247197916E+01  0.87223037464E+02  0.00000000000E+00 0. -1.
</event>
<event>
 8    1  0.7039283E-009  0.1278237E+03  0.7561462E-02  0.1230721E+00
          1   -1    0    0  501    0  0.00000000000E+00  0.00000000000E+00  0.29266668972E+03  0.29266668972E+03  0.00000000000E+00 0. -1.
         -1   -1    0    0    0  501 -0.00000000000E+00 -0.00000000000E+00 -0.65344299304E+02  0.65344299304E+02  0.00000000000E+00 0.  1.
         25    2    1    2    0    0  0.21712514548E+02 -0.79882714070E+02  0.10034415771E+03  0.18047157547E+03  0.12509339819E+03 0.  0.
         23    2    1    2    0    0 -0.21712514548E+02  0.79882714070E+02  0.12697823271E+03  0.17753941356E+03  0.92434249543E+02 0.  0.
          5    1    3    3  502    0  0.26472024391E+02 -0.11076180647E+03  0.95286961270E+02  0.14854636729E+03  0.41800000000E+01 0.  1.
         -5    1    3    3    0  502 -0.47595098435E+01  0.30879092398E+02  0.50571964350E+01  0.31925208176E+02  0.41800000000E+01 0.  1.
        -11    1    4    4    0    0 -0.32231312471E+02  0.27805574998E+01  0.48295206141E+01  0.32709528780E+02  0.00000000000E+00 0.  1.
         11    1    4    4    0    0  0.10518797924E+02  0.77102156570E+02  0.12214871210E+03  0.14482988478E+03  0.00000000000E+00 0. -1.
</event>
<event>
 8    1  0.7039283E-009  0.1373495E+03  0.7561462E-02  0.1216941E+00
         -1   -1    0    0    0  501 -0.00000000000E+00  0.00000000000E+00  0.54288423733E+02  0.54288423733E+02  0.00000000000E+00 0.  1.
          1   -1    0    0  501    0  0.00000000000E+00 -0.00000000000E+00 -0.54425471053E+03  0.54425471053E+03  0.00000000000E+00 0. -1.
         25    2    1    2    0    0  0.98030941738E+02 -0.78648981888E+02 -0.33405223796E+03  0.37819370235E+03  0.12507538095E+03 0.  0.
         23    2    1    2    0    0 -0.98030941738E+02  0.78648981888E+02 -0.15591404884E+03  0.22034943192E+03  0.91918189880E+02 0.  0.
          5    1    3    3  502    0  0.24966387189E+02  0.26798133495E+01 -0.21500725723E+03  0.21650887961E+03  0.41800000000E+01 0. -1.
         -5    1    3    3    0  502  0.73064554550E+02 -0.81328795238E+02 -0.11904498073E+03  0.16168482274E+03  0.41800000000E+01 0. -1.
        -11    1    4    4    0    0 -0.25944500516E+02 -0.79724758488E+01  0.10009798261E+01  0.27160254763E+02  0.00000000000E+00 0.  1.
         11    1    4    4    0    0 -0.72086441222E+02  0.86621457737E+02 -0.15691502867E+03  0.19318917715E+03  0.00000000000E+00 0. -1.
</event>
<event>
 8    1  0.7039283E-009  0.1242046E+03  0.7561462E-02  0.1236318E+00
         -1   -1    0    0    0  501 -0.00000000000E+00  0.00000000000E+00  0.33093409369E+03  0.33093409369E+03  0.00000000000E+00 0.  1.
          1   -1    0    0  501    0  0.00000000000E+00 -0.00000000000E+00 -0.57169514927E+02  0.57169514927E+02  0.00000000000E+00 0. -1.
         25    2    1    2    0    0 -0.25828879193E+02  0.61818907100E+02  0.80382290604E+02  0.16308721563E+03  0.12508964379E+03 0.  0.
         23    2    1    2    0    0  0.25828879193E+02 -0.61818907100E+02  0.19338228816E+03  0.22501639299E+03  0.93525180910E+02 0.  0.
          5    1    3    3  502    0 -0.69386935132E+02  0.66953049180E+02  0.44556803346E+02  0.10630164009E+03  0.41800000000E+01 0.  1.
         -5    1    3    3    0  502  0.43558055939E+02 -0.51341420796E+01  0.35825487258E+02  0.56785575539E+02  0.41800000000E+01 0.  1.
        -11    1    4    4    0    0 -0.18811252928E+02 -0.60306533389E+02  0.72582632723E+02  0.96223592633E+02  0.00000000000E+00 0.  1.
         11    1    4    4    0    0  0.44640132121E+02 -0.15123737109E+01  0.12079965543E+03  0.12879280035E+03  0.00000000000E+00 0. -1.
</event>
<event>
 8    1  0.7039283E-009  0.1144633E+03  0.7561462E-02  0.1252521E+00
          2   -1    0    0  501    0  0.00000000000E+00  0.00000000000E+00  0.18155360291E+04  0.18155360291E+04  0.00000000000E+00 0. -1.
         -2   -1    0    0    0  501 -0.00000000000E+00 -0.00000000000E+00 -0.77092770013E+01  0.77092770013E+01  0.00000000000E+00 0.  1.
         25    2    1    2    0    0  0.40703042914E+01  0.50250297440E+02  0.12419394643E+04  0.12492407359E+04  0.12508846214E+03 0.  0.
         23    2    1    2    0    0 -0.40703042914E+01 -0.50250297440E+02  0.56588728777E+03  0.57400457022E+03  0.81921696775E+02 0.  0.
          5    1    3    3  502    0 -0.65412978136E+01 -0.40517066512E+02  0.29072533387E+03  0.29363772477E+03  0.41800000000E+01 0.  1.
         -5    1    3    3    0  502  0.10611602105E+02  0.90767363952E+02  0.95121413044E+03  0.95560301109E+03  0.41800000000E+01 0.  1.
        -11    1    4    4    0    0 -0.43030124077E+02 -0.27728469026E+02  0.30082360923E+03  0.30514800252E+03  0.00000000000E+00 0. -1.
         11    1    4    4    0    0  0.38959819786E+02 -0.22521828414E+02  0.26506367855E+03  0.26885656771E+03  0.00000000000E+00 0.  1.
</event>
<event>
 8    1  0.7039283E-009  0.6966737E+02  0.7561462E-02  0.1361228E+00
         -2   -1    0    0    0  501 -0.00000000000E+00  0.00000000000E+00  0.10815077967E+03  0.10815077967E+03  0.00000000000E+00 0. -1.
          2   -1    0    0  501    0  0.00000000000E+00 -0.00000000000E+00 -0.13192155016E+03  0.13192155016E+03  0.00000000000E+00 0.  1.
         25    2    1    2    0    0  0.43216321514E+02 -0.55666989997E+00 -0.24606623967E+00  0.13234773106E+03  0.12509157063E+03 0.  0.
         23    2    1    2    0    0 -0.43216321514E+02  0.55666989997E+00 -0.23524704251E+02  0.10772459877E+03  0.95829103847E+02 0.  0.
          5    1    3    3  502    0  0.89187735780E+01 -0.49606333298E+01  0.60946713028E+02  0.61936472568E+02  0.41800000000E+01 0.  1.
         -5    1    3    3    0  502  0.34297547936E+02  0.44039634299E+01 -0.61192779268E+02  0.70411258495E+02  0.41800000000E+01 0.  1.
        -11    1    4    4    0    0  0.10790047964E+02  0.30058541564E+02  0.14829826778E+02  0.35211714220E+02  0.00000000000E+00 0. -1.
         11    1    4    4    0    0 -0.54006369477E+02 -0.29501871664E+02 -0.38354531029E+02  0.72512884554E+02  0.00000000000E+00 0.  1.
</event>
<event>
 8    1  0.7039283E-009  0.1230170E+03  0.7561462E-02  0.1238201E+00
         -1   -1    0    0    0  501 -0.00000000000E+00  0.00000000000E+00  0.86232951587E+02  0.86232951587E+02  0.00000000000E+00 0.  1.
          1   -1    0    0  501    0  0.00000000000E+00 -0.00000000000E+00 -0.31808332600E+03  0.31808332600E+03  0.00000000000E+00 0. -1.
         25    2    1    2    0    0  0.94127240004E+01  0.12120275385E+03 -0.15704073686E+03  0.23470820902E+03  0.12508974152E+03 0.  0.
         23    2    1    2    0    0 -0.94127240004E+01 -0.12120275385E+03 -0.74809637545E+02  0.16960806856E+03  0.91606266906E+02 0.  0.
          5    1    3    3  502    0  0.15579567982E+02  0.49653481710E+02  0.97094442672E+01  0.53103077993E+02  0.41800000000E+01 0. -1.
         -5    1    3    3    0  502 -0.61668439814E+01  0.71549272143E+02 -0.16675018113E+03  0.18160513103E+03  0.41800000000E+01 0. -1.
        -11    1    4    4    0    0 -0.17788554827E+01 -0.77842767257E+02 -0.93588603192E+02  0.12174353120E+03  0.00000000000E+00 0. -1.
         11    1    4    4    0    0 -0.76338685177E+01 -0.43359986596E+02  0.18778965647E+02  0.47864537362E+02  0.00000000000E+00 0.  1.
</event>
<event>
 8    1  0.7039283E-009  0.8782103E+02  0.7561462E-02  0.1308216E+00
          2   -1    0    0  501    0  0.00000000000E+00  0.00000000000E+00  0.81547957262E+02  0.81547957262E+02  0.00000000000E+00 0. -1.
         -2   -1    0    0    0  501 -0.00000000000E+00 -0.00000000000E+00 -0.17250065742E+03  0.17250065742E+03  0.00000000000E+00 0.  1.
         25    2    1    2    0    0 -0.22727884796E+02 -0.15099309928E+02 -0.93242346576E+02  0.15837765795E+03  0.12507918066E+03 0.  0.
         23    2    1    2    0    0  0.22727884796E+02  0.15099309928E+02  0.22896464189E+01  0.95670956734E+02  0.91668661898E+02 0.  0.
          5    1    3    3  502    0 -0.54132016676E+02 -0.54834618977E+02 -0.54381019111E+02  0.94402745232E+02  0.41800000000E+01 0. -1.
         -5    1    3    3    0  502  0.31404131880E+02  0.39735309050E+02 -0.38861327465E+02  0.63974912714E+02  0.41800000000E+01 0. -1.
        -11    1    4    4    0    0  0.14180241827E+02  0.28459404868E+02 -0.39654600813E+02  0.50828184596E+02  0.00000000000E+00 0.  1.
         11    1    4    4    0    0  0.85476429693E+01 -0.13360094941E+02  0.41944247232E+02  0.44842772138E+02  0.00000000000E+00 0. -1.
</event>
<event>
 8    1  0.7039283E-009  0.6920576E+02  0.7561462E-02  0.1362815E+00
         -1   -1    0    0    0  501 -0.00000000000E+00  0.00000000000E+00  0.13355158158E+03  0.13355158158E+03  0.00000000000E+00 0.  1.
          1   -1    0    0  501    0  0.00000000000E+00 -0.00000000000E+00 -0.13558159337E+03  0.13558159337E+03  0.00000000000E+00 0. -1.
         25    2    1    2    0    0  0.40965773624E+02  0.44911878860E+02  0.50818753195E+02  0.14807883293E+03  0.12509805600E+03 0.  0.
         23    2    1    2    0    0 -0.40965773624E+02 -0.44911878860E+02 -0.52848764990E+02  0.12105434201E+03  0.90365315733E+02 0.  0.
          5    1    3    3  502    0  0.96720843951E+01  0.44828742280E+02  0.87988294903E+02  0.99310511986E+02  0.41800000000E+01 0. -1.
         -5    1    3    3    0  502  0.31293689229E+02  0.83136580696E-01 -0.37169541707E+02  0.48768320947E+02  0.41800000000E+01 0. -1.
        -11    1    4    4    0    0 -0.31042949214E+02 -0.34212681252E+02  0.17355458771E+02  0.49349611989E+02  0.00000000000E+00 0.  1.
         11    1    4    4    0    0 -0.99228244104E+01 -0.10699197608E+02 -0.70204223761E+02  0.71704730022E+02  0.00000000000E+00 0. -1.
</event>
<event>
 8    1  0.7039283E-009  0.1098427E+03  0.7561462E-02  0.1260862E+00
          2   -1    0    0  501    0  0.00000000000E+00  0.00000000000E+00  0.41452600965E+03  0.41452600965E+03  0.00000000000E+00 0. -1.
         -2   -1    0    0    0  501 -0.00000000000E+00 -0.00000000000E+00 -0.32257898338E+02  0.32257898338E+02  0.00000000000E+00 0.  1.
         25    2    1    2    0    0 -0.34774794385E+02 -0.17717536786E+02  0.18469930966E+03  0.22646288533E+03  0.12509358900E+03 0.  0.
         23    2    1    2    0    0  0.34774794385E+02  0.17717536786E+02  0.19756880165E+03  0.22032102266E+03  0.89357284004E+02 0.  0.
          5    1    3    3  502    0  0.44847373035E+02 -0.82139398064E+00  0.39316544815E+02  0.59793182324E+02  0.41800000000E+01 0. -1.
         -5    1    3    3    0  502 -0.79622167420E+02 -0.16896142805E+02  0.14538276485E+03  0.16666970301E+03  0.41800000000E+01 0. -1.
        -11    1    4    4    0    0 -0.28057407854E+02  0.82170510708E+00  0.32799576059E+02  0.43170655825E+02  0.00000000000E+00 0.  1.
         11    1    4    4    0    0  0.62832202239E+02  0.16895831679E+02  0.16476922559E+03  0.17715036683E+03  0.00000000000E+00 0. -1.
</event>
<event>
 8    1  0.7039283E-009  0.1321277E+03  0.7561462E-02  0.1224332E+00
          1   -1    0    0  501    0  0.00000000000E+00  0.00000000000E+00  0.30817425131E+03  0.30817425131E+03  0.00000000000E+00 0. -1.
         -1   -1    0    0    0  501 -0.00000000000E+00 -0.00000000000E+00 -0.69758569515E+02  0.69758569515E+02  0.00000000000E+00 0.  1.
         25    2    1    2    0    0  0.52343062409E+02  0.85495303314E+02  0.11797932155E+03  0.19903800236E+03  0.12509101886E+03 0.  0.
         23    2    1    2    0    0 -0.52343062409E+02 -0.85495303314E+02  0.12043636025E+03  0.17889481847E+03  0.86308725706E+02 0.  0.
          5    1    3    3  502    0  0.76630469407E+02  0.69465034032E+02  0.13093521076E+03  0.16691051978E+03  0.41800000000E+01 0. -1.
         -5    1    3    3    0  502 -0.24287406998E+02  0.16030269282E+02 -0.12955889214E+02  0.32127482585E+02  0.41800000000E+01 0. -1.
        -11    1    4    4    0    0 -0.66122541123E+02 -0.27297839896E+02  0.54920486706E+02  0.90186597495E+02  0.00000000000E+00 0.  1.
         11    1    4    4    0    0  0.13779478715E+02 -0.58197463418E+02  0.65515873542E+02  0.88708220971E+02  0.00000000000E+00 0. -1.
</event>
<event>
 8    1  0.7039283E-009  0.1322500E+03  0.7561462E-02  0.1224155E+00
          1   -1    0    0  501    0  0.00000000000E+00  0.00000000000E+00  0.70497215103E+02  0.70497215103E+02  0.00000000000E+00 0.  1.
         -1   -1    0    0    0  501 -0.00000000000E+00 -0.00000000000E+00 -0.27566353011E+03  0.27566353011E+03  0.00000000000E+00 0. -1.
         25    2    1    2    0    0 -0.86929693883E+02  0.22489814614E+01 -0.11174173806E+03  0.18893551900E+03  0.12509430331E+03 0.  0.
         23    2    1    2    0    0  0.86929693883E+02 -0.22489814614E+01 -0.93424576948E+02  0.15722522621E+03  0.91813891015E+02 0.  0.
          5    1    3    3  502    0  0.23637394090E+02 -0.13163303121E+02 -0.59733776359E+02  0.65708411840E+02  0.41800000000E+01 0.  1.
         -5    1    3    3    0  502 -0.11056708797E+03  0.15412284583E+02 -0.52007961698E+02  0.12322710716E+03  0.41800000000E+01 0.  1.
        -11    1    4    4    0    0 -0.29019853232E+01 -0.30964063922E+02 -0.14806399420E+02  0.34444509536E+02  0.00000000000E+00 0. -1.
         11    1    4    4    0    0  0.89831679206E+02  0.28715082461E+02 -0.78618177528E+02  0.12278071668E+03  0.00000000000E+00 0.  1.
</event>
<event>
 8    1  0.7039283E-009  0.8487243E+02  0.7561462E-02  0.1315766E+00
          2   -1    0    0  501    0  0.00000000000E+00  0.00000000000E+00  0.39454558825E+03  0.39454558825E+03  0.00000000000E+00 0. -1.
         -2   -1    0    0    0  501 -0.00000000000E+00 -0.00000000000E+00 -0.30216013604E+02  0.30216013604E+02  0.00000000000E+00 0.  1.
         25    2    1    2    0    0  0.50333094183E+01  0.10428335120E+01  0.17558963428E+03  0.21565640407E+03  0.12509813446E+03 0.  0.
         23    2    1    2    0    0 -0.50333094183E+01 -0.10428335120E+01  0.18873994037E+03  0.20910519778E+03  0.89865437982E+02 0.  0.
          5    1    3    3  502    0  0.36449652504E+02 -0.20185023906E+02  0.17236071494E+03  0.17737446494E+03  0.41800000000E+01 0. -1.
         -5    1    3    3    0  502 -0.31416343086E+02  0.21227857418E+02  0.32289193334E+01  0.38281939129E+02  0.41800000000E+01 0. -1.
        -11    1    4    4    0    0  0.42090606396E+02  0.42493134488E+01  0.80685948615E+02  0.91103776626E+02  0.00000000000E+00 0.  1.
         11    1    4    4    0    0 -0.47123915814E+02 -0.52921469608E+01  0.10805399176E+03  0.11800142116E+03  0.00000000000E+00 0. -1.
</event>
<event>
 8    1  0.7039283E-009  0.1085343E+03  0.7561462E-02  0.1263308E+00
         -2   -1    0    0    0  501 -0.00000000000E+00  0.00000000000E+00  0.15482730209E+02  0.15482730209E+02  0.00000000000E+00 0. -1.
          2   -1    0    0  501    0  0.00000000000E+00 -0.00000000000E+00 -0.10253874167E+04  0.10253874167E+04  0.00000000000E+00 0.  1.
         25    2    1    2    0    0 -0.32452084386E+02  0.36174818939E+02 -0.73426384419E+03  0.74642653967E+03  0.12508969154E+03 0.  0.
         23    2    1    2    0    0  0.32452084386E+02 -0.36174818939E+02 -0.27564084226E+03  0.29444360720E+03  0.91418863446E+02 0.  0.
          5    1    3    3  502    0  0.35244446578E+02  0.37313036009E+02 -0.49685431865E+03  0.49951588567E+03  0.41800000000E+01 0. -1.
         -5    1    3    3    0  502 -0.67696530963E+02 -0.11382170700E+01 -0.23740952554E+03  0.24691065400E+03  0.41800000000E+01 0. -1.
        -11    1    4    4    0    0  0.25289092439E+02  0.25343702943E+02 -0.57985811575E+02  0.68148336878E+02  0.00000000000E+00 0.  1.
         11    1    4    4    0    0  0.71629919469E+01 -0.61518521882E+02 -0.21765503069E+03  0.22629527032E+03  0.00000000000E+00 0. -1.
</event>
<event>
 8    1  0.7039283E-009  0.8528324E+02  0.7561462E-02  0.1314693E+00
          1   -1    0    0  501    0  0.00000000000E+00  0.00000000000E+00  0.90070485949E+02  0.90070485949E+02  0.00000000000E+00 0. -1.
         -1   -1    0    0    0  501 -0.00000000000E+00 -0.00000000000E+00 -0.14729634701E+03  0.14729634701E+03  0.00000000000E+00 0.  1.
         25    2    1    2    0    0  0.21608486044E+02 -0.26519451514E+02 -0.20094304928E+02  0.13122790122E+03  0.12508706164E+03 0.  0.
         23    2    1    2    0    0 -0.21608486044E+02  0.26519451514E+02 -0.37131556130E+02  0.10613893174E+03  0.93362264281E+02 0.  0.
          5    1    3    3  502    0  0.38250828955E+02  0.23582499518E+02 -0.52429433515E+02  0.69177872892E+02  0.41800000000E+01 0. -1.
         -5    1    3    3    0  502 -0.16642342911E+02 -0.50101951032E+02  0.32335128587E+02  0.62050028328E+02  0.41800000000E+01 0. -1.
        -11    1    4    4    0    0 -0.58683648788E+01 -0.21321137903E+02 -0.49555456594E+02  0.54265752608E+02  0.00000000000E+00 0.  1.
         11    1    4    4    0    0 -0.15740121165E+02  0.47840589417E+02  0.12423900464E+02  0.51873179128E+02  0.00000000000E+00 0. -1.
</event>
<event>
 8    1  0.7039283E-009  0.1010080E+03  0.7561462E-02  0.1278191E+00
          1   -1    0    0  501    0  0.00000000000E+00  0.00000000000E+00  0.27017664607E+03  0.27017664607E+03  0.00000000000E+00 0. -1.
         -1   -1    0    0    0  501 -0.00000000000E+00 -0.00000000000E+00 -0.63726966203E+02  0.63726966203E+02  0.00000000000E+00 0.  1.
         25    2    1    2    0    0 -0.23338897195E+02  0.64529192857E+02  0.14749658360E+03  0.20521138524E+03  0.12509096533E+03 0.  0.
         23    2    1    2    0    0  0.23338897195E+02 -0.64529192857E+02  0.58953096274E+02  0.12869222703E+03  0.91528688865E+02 0.  0.
          5    1    3    3  502    0 -0.45534607473E+02 -0.14374884010E+02  0.98712056921E+02  0.10973413484E+03  0.41800000000E+01 0.  1.
         -5    1    3    3    0  502  0.22195710278E+02  0.78904076868E+02  0.48784526675E+02  0.95477250401E+02  0.41800000000E+01 0.  1.
        -11    1    4    4    0    0  0.24915973729E+02 -0.38034583801E+02  0.81854994632E+02  0.93635866301E+02  0.00000000000E+00 0. -1.
         11    1    4    4    0    0 -0.15770765340E+01 -0.26494609056E+02 -0.22901898357E+02  0.35056360732E+02  0.00000000000E+00 0.  1.
</event>
<event>
 8    1  0.7039283E-009  0.1204608E+03  0.7561462E-02  0.1242339E+00
         -1   -1    0    0    0  501 -0.00000000000E+00  0.00000000000E+00  0.17597451614E+03  0.17597451614E+03  0.00000000000E+00 0.  1.
          1   -1    0    0  501    0  0.00000000000E+00 -0.00000000000E+00 -0.10659285578E+03  0.10659285578E+03  0.00000000000E+00 0. -1.
         25    2    1    2    0    0 -0.78630668045E+02  0.32895617525E+02  0.42777108401E+02  0.15729550014E+03  0.12508832781E+03 0.  0.
         23    2    1    2    0    0  0.78630668045E+02 -0.32895617525E+02  0.26604551957E+02  0.12527187178E+03  0.87865442954E+02 0.  0.
          5    1    3    3  502    0 -0.56495156882E+02  0.65458273978E+02 -0.14389631351E+02  0.87755468626E+02  0.41800000000E+01 0. -1.
         -5    1    3    3    0  502 -0.22135511163E+02 -0.32562656454E+02  0.57166739752E+02  0.69540031518E+02  0.41800000000E+01 0. -1.
        -11    1    4    4    0    0  0.94237707932E+02 -0.29894999185E+02  0.57244951092E+01  0.99031441557E+02  0.00000000000E+00 0. -1.
         11    1    4    4    0    0 -0.15607039887E+02 -0.30006183394E+01  0.20880056848E+02  0.26240430226E+02  0.00000000000E+00 0.  1.
</event>
<event>
 8    1  0.7039283E-009  0.1127350E+03  0.7561462E-02  0.1255587E+00
         -2   -1    0    0    0  501 -0.00000000000E+00  0.00000000000E+00  0.16280150760E+03  0.16280150760E+03  0.00000000000E+00 0.  1.
          2   -1    0    0  501    0  0.00000000000E+00 -0.00000000000E+00 -0.11307950035E+03  0.11307950035E+03  0.00000000000E+00 0. -1.
         25    2    1    2    0    0 -0.67493354755E+02  0.36988553065E+02 -0.11940468885E+00  0.14687211197E+03  0.12509155456E+03 0.  0.
         23    2    1    2    0    0  0.67493354755E+02 -0.36988553065E+02  0.49841411938E+02  0.12900889599E+03  0.90750332817E+02 0.  0.
          5    1    3    3  502    0 -0.42641373865E+02  0.83050742227E+02  0.77842731151E+01  0.93775155865E+02  0.41800000000E+01 0. -1.
         -5    1    3    3    0  502 -0.24851980889E+02 -0.46062189162E+02 -0.79036778040E+01  0.53096956102E+02  0.41800000000E+01 0. -1.
        -11    1    4    4    0    0  0.25443932397E+02 -0.33486198291E+01  0.67599207222E+02  0.72306706242E+02  0.00000000000E+00 0.  1.
         11    1    4    4    0    0  0.42049422358E+02 -0.33639933236E+02 -0.17757795283E+02  0.56702189747E+02  0.00000000000E+00 0. -1.
</event>
<event>
 8    1  0.7039283E-009  0.8920990E+02  0.7561462E-02  0.1304776E+00
          2   -1    0    0  501    0  0.00000000000E+00  0.00000000000E+00  0.60489564864E+03  0.60489564864E+03  0.00000000000E+00 0. -1.
         -2   -1    0    0    0  501 -0.00000000000E+00 -0.00000000000E+00 -0.24186030631E+02  0.24186030631E+02  0.00000000000E+00 0.  1.
         25    2    1    2    0    0 -0.90440873993E+00  0.41338155935E+02  0.24712843373E+03  0.28005132192E+03  0.12508644637E+03 0.  0.
         23    2    1    2    0    0  0.90440873993E+00 -0.41338155935E+02  0.33358118428E+03  0.34903035735E+03  0.94000652930E+02 0.  0.
          5    1    3    3  502    0 -0.37492274818E+02  0.26414862372E+02  0.21276028907E+02  0.50730241782E+02  0.41800000000E+01 0. -1.
         -5    1    3    3    0  502  0.36587866078E+02  0.14923293563E+02  0.22585240482E+03  0.22932108014E+03  0.41800000000E+01 0. -1.
        -11    1    4    4    0    0 -0.33512843839E+02 -0.47028332641E+02  0.12684372977E+03  0.13937039339E+03  0.00000000000E+00 0.  1.
         11    1    4    4    0    0  0.34417252579E+02  0.56901767053E+01  0.20673745452E+03  0.20965996396E+03  0.00000000000E+00 0. -1.
</event>
<event>
 8    1  0.7039283E-009  0.9543031E+02  0.7561462E-02  0.1290210E+00
         -1   -1    0    0    0  501 -0.00000000000E+00  0.00000000000E+00  0.18801983964E+03  0.18801983964E+03  0.00000000000E+00 0.  1.
          1   -1    0    0  501    0  0.00000000000E+00 -0.00000000000E+00 -0.89663356913E+02  0.89663356913E+02  0.00000000000E+00 0. -1.
         25    2    1    2    0    0 -0.55844385815E+02 -0.45081371663E+02  0.59410688740E+02  0.15597674697E+03  0.12509272625E+03 0.  0.
         23    2    1    2    0    0  0.55844385815E+02  0.45081371663E+02  0.38945793985E+02  0.12170644958E+03  0.90248321332E+02 0.  0.
          5    1    3    3  502    0  0.10872544693E+01  0.96968520562E+01  0.74654639924E+02  0.75405561627E+02  0.41800000000E+01 0.  1.
         -5    1    3    3    0  502 -0.56931640284E+02 -0.54778223719E+02 -0.15243951185E+02  0.80571185339E+02  0.41800000000E+01 0.  1.
        -11    1    4    4    0    0 -0.64874903778E+00 -0.17102996404E+02  0.33375243611E+02  0.37507869140E+02  0.00000000000E+00 0.  1.
         11    1    4    4    0    0  0.56493134853E+02  0.62184368068E+02  0.55705503737E+01  0.84198580445E+02  0.00000000000E+00 0. -1.
</event>
<event>
 8    1  0.7039283E-009  0.9552668E+02  0.7561462E-02  0.1289994E+00
         -3   -1    0    0    0  501 -0.00000000000E+00  0.00000000000E+00  0.21671553915E+03  0.21671553915E+03  0.00000000000E+00 0.  1.
          3   -1    0    0  501    0  0.00000000000E+00 -0.00000000000E+00 -0.11104227160E+03  0.11104227160E+03  0.00000000000E+00 0. -1.
         25    2    1    2    0    0  0.14043318414E+02  0.78551809131E+01 -0.58524286672E+02  0.13903914335E+03  0.12509145692E+03 0.  0.
         23    2    1    2    0    0 -0.14043318414E+02 -0.78551809131E+01  0.16419755422E+03  0.18871866740E+03  0.91624123211E+02 0.  0.
          5    1    3    3  502    0 -0.39371740596E+02 -0.21137715355E+02  0.11392200219E+02  0.46305416463E+02  0.41800000000E+01 0.  1.
         -5    1    3    3    0  502  0.53415059010E+02  0.28992896268E+02 -0.69916486891E+02  0.92733726887E+02  0.41800000000E+01 0.  1.
        -11    1    4    4    0    0  0.23996095017E+02 -0.32148382060E+02  0.40331070264E+02  0.56885202591E+02  0.00000000000E+00 0. -1.
         11    1    4    4    0    0 -0.38039413431E+02  0.24293201147E+02  0.12386648395E+03  0.13183346481E+03  0.00000000000E+00 0.  1.
</event>
<event>
 8    1  0.7039283E-009  0.1118472E+03  0.7561462E-02  0.1257187E+00
          1   -1    0    0  501    0  0.00000000000E+00  0.00000000000E+00  0.70107985035E+02  0.70107985035E+02  0.00000000000E+00 0. -1.
         -1   -1    0    0    0  501 -0.00000000000E+00 -0.00000000000E+00 -0.20610224102E+03  0.20610224102E+03  0.00000000000E+00 0.  1.
         25    2    1    2    0    0 -0.35921396070E+02  0.44569297038E+02 -0.68340709838E+02  0.15360477100E+03  0.12508878494E+03 0.  0.
         23    2    1    2    0    0  0.35921396070E+02 -0.44569297038E+02 -0.67653546147E+02  0.12260545506E+03  0.84725004395E+02 0.  0.
          5    1    3    3  502    0  0.37963452579E+02  0.22037661662E+02  0.81212154961E+01  0.44836467350E+02  0.41800000000E+01 0.  1.
         -5    1    3    3    0  502 -0.73884848649E+02  0.22531635376E+02 -0.76461925334E+02  0.10876830365E+03  0.41800000000E+01 0.  1.
        -11    1    4    4    0    0 -0.98471015314E+01  0.20468880122E+02 -0.15659569895E+02  0.27589175256E+02  0.00000000000E+00 0.  1.
         11    1    4    4    0    0  0.45768497601E+02 -0.65038177160E+02 -0.51993976252E+02  0.95016279802E+02  0.00000000000E+00 0. -1.
</event>
<event>
 8    1  0.7039283E-009  0.2994554E+03  0.7561462E-02  0.1085513E+00
         -2   -1    0    0    0  501 -0.00000000000E+00  0.00000000000E+00  0.11435203264E+04  0.11435203264E+04  0.00000000000E+00 0.  1.
          2   -1    0    0  501    0  0.00000000000E+00 -0.00000000000E+00 -0.96648075114E+02  0.96648075114E+02  0.00000000000E+00 0. -1.
         25    2    1    2    0    0  0.39567596719E+02  0.28957814877E+03  0.31826860555E+03  0.44984796566E+03  0.12508872044E+03 0.  0.
         23    2    1    2    0    0 -0.39567596719E+02 -0.28957814877E+03  0.72860364577E+03  0.79032043588E+03  0.91225105013E+02 0.  0.
          5    1    3    3  502    0  0.47376905320E+02  0.68854622703E+02  0.35198104743E+02  0.90784961325E+02  0.41800000000E+01 0. -1.
         -5    1    3    3    0  502 -0.78093086010E+01  0.22072352607E+03  0.28307050080E+03  0.35906300434E+03  0.41800000000E+01 0. -1.
        -11    1    4    4    0    0 -0.35852857488E+02 -0.13430540659E+03  0.45436296621E+03  0.47515163337E+03  0.00000000000E+00 0.  1.
         11    1    4    4    0    0 -0.37147392309E+01 -0.15527274217E+03  0.27424067956E+03  0.31516880251E+03  0.00000000000E+00 0. -1.
</event>
<event>
 8    1  0.7039283E-009  0.1552793E+03  0.7561462E-02  0.1194132E+00
          1   -1    0    0  501    0  0.00000000000E+00  0.00000000000E+00  0.22612852596E+04  0.22612852596E+04  0.00000000000E+00 0. -1.
         -1   -1    0    0    0  501 -0.00000000000E+00 -0.00000000000E+00 -0.15587924773E+02  0.15587924773E+02  0.00000000000E+00 0.  1.
         25    2    1    2    0    0  0.38045507278E+02 -0.13851915414E+03  0.15268364594E+04  0.15386720881E+04  0.12508878651E+03 0.  0.
         23    2    1    2    0    0 -0.38045507278E+02  0.13851915414E+03  0.71886087542E+03  0.73820109618E+03  0.86861288881E+02 0.  0.
          5    1    3    3  502    0  0.31105608976E+02 -0.81667541534E+02  0.36206293148E+03  0.37248380502E+03  0.41800000000E+01 0.  1.
         -5    1    3    3    0  502  0.69398983020E+01 -0.56851612609E+02  0.11647735279E+04  0.11661882831E+04  0.41800000000E+01 0.  1.
        -11    1    4    4    0    0 -0.60133898487E+02  0.63569561290E+02  0.31939814398E+03  0.33116815856E+03  0.00000000000E+00 0.  1.
         11    1    4    4    0    0  0.22088391209E+02  0.74949592853E+02  0.39946273144E+03  0.40703293762E+03  0.00000000000E+00 0. -1.
</event>
<event>
 8    1  0.7039283E-009  0.1343266E+03  0.7561462E-02  0.1221173E+00
         -1   -1    0    0    0  501 -0.00000000000E+00  0.00000000000E+00  0.34715563043E+02  0.34715563043E+02  0.00000000000E+00 0.  1.
          1   -1    0    0  501    0  0.00000000000E+00 -0.00000000000E+00 -0.82532387209E+03  0.82532387209E+03  0.00000000000E+00 0. -1.
         25    2    1    2    0    0  0.59892808277E+02  0.59978714724E+02 -0.65102489081E+03  0.66833057109E+03  0.12509096329E+03 0.  0.
         23    2    1    2    0    0 -0.59892808277E+02 -0.59978714724E+02 -0.13958341823E+03  0.19170886404E+03  0.10041993429E+03 0.  0.
          5    1    3    3  502    0  0.44149185389E+02  0.93717734859E+02 -0.56599188681E+03  0.57540981286E+03  0.41800000000E+01 0.  1.
         -5    1    3    3    0  502  0.15743622888E+02 -0.33739020134E+02 -0.85033003997E+02  0.92920758230E+02  0.41800000000E+01 0.  1.
        -11    1    4    4    0    0 -0.10226260152E+02  0.26153333247E+02 -0.52500158558E+02  0.59538557971E+02  0.00000000000E+00 0.  1.
         11    1    4    4    0    0 -0.49666548125E+02 -0.86132047971E+02 -0.87083259675E+02  0.13217030607E+03  0.00000000000E+00 0. -1.
</event>
<event>
 8    1  0.7039283E-009  0.1133098E+03  0.7561462E-02  0.1254561E+00
         -2   -1    0    0    0  501 -0.00000000000E+00  0.00000000000E+00  0.49277864926E+02  0.49277864926E+02  0.00000000000E+00 0.  1.
          2   -1    0    0  501    0  0.00000000000E+00 -0.00000000000E+00 -0.34022723167E+03  0.34022723167E+03  0.00000000000E+00 0. -1.
         25    2    1    2    0    0 -0.53946386064E+02  0.29099415277E+02 -0.10777886588E+03  0.17613608464E+03  0.12510254931E+03 0.  0.
         23    2    1    2    0    0  0.53946386064E+02 -0.29099415277E+02 -0.18317050087E+03  0.21336901196E+03  0.90652712801E+02 0.  0.
          5    1    3    3  502    0 -0.39499313936E+02  0.76577422295E+02 -0.85897550775E+02  0.12173807554E+03  0.41800000000E+01 0.  1.
         -5    1    3    3    0  502 -0.14447072128E+02 -0.47478007018E+02 -0.21881315106E+02  0.54398009102E+02  0.41800000000E+01 0.  1.
        -11    1    4    4    0    0  0.17175440740E+01 -0.37596084003E+02 -0.14031952078E+03  0.14527898472E+03  0.00000000000E+00 0. -1.
         11    1    4    4    0    0  0.52228841990E+02  0.84966687261E+01 -0.42850980091E+02  0.68090027242E+02  0.00000000000E+00 0.  1.
</event>
<event>
 8    1  0.7039283E-009  0.9121640E+02  0.7561462E-02  0.1299932E+00
         -2   -1    0    0    0  501 -0.00000000000E+00  0.00000000000E+00  0.17434424518E+03  0.17434424518E+03  0.00000000000E+00 0.  1.
          2   -1    0    0  501    0  0.00000000000E+00 -0.00000000000E+00 -0.75387250184E+02  0.75387250184E+02  0.00000000000E+00 0. -1.
         25    2    1    2    0    0 -0.73906507818E+01 -0.22536842330E+02  0.89541315018E+02  0.15565088089E+03  0.12508804358E+03 0.  0.
         23    2    1    2    0    0  0.73906507818E+01  0.22536842330E+02  0.94156799819E+01  0.94080614477E+02  0.90553718917E+02 0.  0.
          5    1    3    3  502    0 -0.30338706626E+02  0.41166726181E+02  0.66525068831E+02  0.84013056409E+02  0.41800000000E+01 0. -1.
         -5    1    3    3    0  502  0.22948055844E+02 -0.63703568511E+02  0.23016246187E+02  0.71637824482E+02  0.41800000000E+01 0. -1.
        -11    1    4    4    0    0 -0.55133374740E+01 -0.19002750373E+02  0.37433018387E+02  0.42340669308E+02  0.00000000000E+00 0.  1.
         11    1    4    4    0    0  0.12903988256E+02  0.41539592703E+02 -0.28017338405E+02  0.51739945170E+02  0.00000000000E+00 0. -1.
</event>
<event>
 8    1  0.7039283E-009  0.1001104E+03  0.7561462E-02  0.1280064E+00
         -1   -1    0    0    0  501 -0.00000000000E+00  0.00000000000E+00  0.72316160669E+02  0.72316160669E+02  0.00000000000E+00 0.  1.
          1   -1    0    0  501    0  0.00000000000E+00 -0.00000000000E+00 -0.45555192763E+03  0.45555192763E+03  0.00000000000E+00 0. -1.
         25    2    1    2    0    0  0.18532476439E+02 -0.51079556649E+02 -0.74976157770E+01  0.13658388985E+03  0.12508545452E+03 0.  0.
         23    2    1    2    0    0 -0.18532476439E+02  0.51079556649E+02 -0.37573815118E+03  0.39128419845E+03  0.94718487698E+02 0.  0.
          5    1    3    3  502    0  0.46723798471E+02 -0.44498175035E+02  0.43405032589E+02  0.77875992315E+02  0.41800000000E+01 0.  1.
         -5    1    3    3    0  502 -0.28191322032E+02 -0.65813816140E+01 -0.50902648366E+02  0.58707897532E+02  0.41800000000E+01 0.  1.
        -11    1    4    4    0    0 -0.23534410381E+02  0.76689450072E+02 -0.23973107292E+03  0.25279661301E+03  0.00000000000E+00 0.  1.
         11    1    4    4    0    0  0.50019339415E+01 -0.25609893423E+02 -0.13600707826E+03  0.13848758544E+03  0.00000000000E+00 0. -1.
</event>
<event>
 8    1  0.7039283E-009  0.1127056E+03  0.7561462E-02  0.1255640E+00
          2   -1    0    0  501    0  0.00000000000E+00  0.00000000000E+00  0.92360217095E+03  0.92360217095E+03  0.00000000000E+00 0. -1.
         -2   -1    0    0    0  501 -0.00000000000E+00 -0.00000000000E+00 -0.15270304351E+02  0.15270304351E+02  0.00000000000E+00 0.  1.
         25    2    1    2    0    0  0.29789063225E+02  0.29987055058E+02  0.60669886343E+03  0.62090092240E+03  0.12509129781E+03 0.  0.
         23    2    1    2    0    0 -0.29789063225E+02 -0.29987055058E+02  0.30163300317E+03  0.31797155290E+03  0.91306232514E+02 0.  0.
          5    1    3    3  502    0 -0.23731550232E+02  0.62351951064E+02  0.37292162293E+03  0.37886536068E+03  0.41800000000E+01 0. -1.
         -5    1    3    3    0  502  0.53520613457E+02 -0.32364896005E+02  0.23377724050E+03  0.24203556172E+03  0.41800000000E+01 0. -1.
        -11    1    4    4    0    0 -0.41851430926E+02 -0.54408037593E+02  0.25388851404E+03  0.26300409576E+03  0.00000000000E+00 0.  1.
         11    1    4    4    0    0  0.12062367701E+02  0.24420982535E+02  0.47744489132E+02  0.54967457145E+02  0.00000000000E+00 0. -1.
</event>
<event>
 8    1  0.7039283E-009  0.4366848E+03  0.7561462E-02  0.1031769E+00
         -2   -1    0    0    0  501 -0.00000000000E+00  0.00000000000E+00  0.30898305809E+03  0.30898305809E+03  0.00000000000E+00 0.  1.
          2   -1    0    0  501    0  0.00000000000E+00 -0.00000000000E+00 -0.63021534610E+03  0.63021534610E+03  0.00000000000E+00 0. -1.
         25    2    1    2    0    0 -0.15058247635E+03 -0.39937810115E+03 -0.18547381717E+03  0.48189772149E+03  0.12508767828E+03 0.  0.
         23    2    1    2    0    0  0.15058247635E+03  0.39937810115E+03 -0.13575847085E+03  0.45730068270E+03  0.92280020248E+02 0.  0.
          5    1    3    3  502    0  0.32761971722E+01  0.70624365626E+01 -0.96142374631E+01  0.13058232656E+02  0.41800000000E+01 0. -1.
         -5    1    3    3    0  502 -0.15385867352E+03 -0.40644053771E+03 -0.17585957971E+03  0.46883948883E+03  0.41800000000E+01 0. -1.
        -11    1    4    4    0    0  0.49854210935E+02  0.20527748717E+03 -0.10681023624E+03  0.23671230566E+03  0.00000000000E+00 0. -1.
         11    1    4    4    0    0  0.10072826542E+03  0.19410061398E+03 -0.28948234610E+02  0.22058837705E+03  0.00000000000E+00 0.  1.
</event>
<event>
 8    1  0.7039283E-009  0.1092510E+03  0.7561462E-02  0.1261963E+00
         -3   -1    0    0    0  501 -0.00000000000E+00  0.00000000000E+00  0.61487385010E+02  0.61487385010E+02  0.00000000000E+00 0.  1.
          3   -1    0    0  501    0  0.00000000000E+00 -0.00000000000E+00 -0.41723717854E+03  0.41723717854E+03  0.00000000000E+00 0. -1.
         25    2    1    2    0    0  0.48745993196E+02 -0.37690672329E+02 -0.39662812052E+02  0.14496725960E+03  0.12508240908E+03 0.  0.
         23    2    1    2    0    0 -0.48745993196E+02  0.37690672329E+02 -0.31608698148E+03  0.33375730395E+03  0.87670972666E+02 0.  0.
          5    1    3    3  502    0  0.35300450502E+02 -0.71059275488E+02 -0.63412560097E+02  0.10165710805E+03  0.41800000000E+01 0.  1.
         -5    1    3    3    0  502  0.13445542694E+02  0.33368603159E+02  0.23749748045E+02  0.43310151550E+02  0.41800000000E+01 0.  1.
        -11    1    4    4    0    0 -0.59708054206E+02 -0.38839410324E+01 -0.13550616112E+03  0.14812851325E+03  0.00000000000E+00 0.  1.
         11    1    4    4    0    0  0.10962061010E+02  0.41574613362E+02 -0.18058082036E+03  0.18562879071E+03  0.00000000000E+00 0. -1.
</event>
<event>
 8    1  0.7039283E-009  0.1821229E+03  0.7561462E-02  0.1165764E+00
          2   -1    0    0  501    0  0.00000000000E+00  0.00000000000E+00  0.24648901348E+04  0.24648901348E+04  0.00000000000E+00 0. -1.
         -2   -1    0    0    0  501 -0.00000000000E+00 -0.00000000000E+00 -0.19029986543E+02  0.19029986543E+02  0.00000000000E+00 0.  1.
         25    2    1    2    0    0 -0.29548059491E+02 -0.17810326068E+03  0.15501927114E+04  0.15656752500E+04  0.12509071293E+03 0.  0.
         23    2    1    2    0    0  0.29548059491E+02  0.17810326068E+03  0.89566743682E+03  0.91824487138E+03  0.91430996695E+02 0.  0.
          5    1    3    3  502    0 -0.13370990975E+02 -0.12974581405E+03  0.14169603448E+04  0.14229570797E+04  0.41800000000E+01 0. -1.
         -5    1    3    3    0  502 -0.16177068516E+02 -0.48357446629E+02  0.13323236667E+03  0.14271817025E+03  0.41800000000E+01 0. -1.
        -11    1    4    4    0    0  0.12148152140E+02  0.14186437500E+03  0.82275921695E+03  0.83498850745E+03  0.00000000000E+00 0. -1.
         11    1    4    4    0    0  0.17399907351E+02  0.36238885673E+02  0.72908219862E+02  0.83256363925E+02  0.00000000000E+00 0.  1.
</event>
<event>
 8    1  0.7039283E-009  0.9696645E+02  0.7561462E-02  0.1286808E+00
          2   -1    0    0  501    0  0.00000000000E+00  0.00000000000E+00  0.47616342209E+03  0.47616342209E+03  0.00000000000E+00 0. -1.
         -2   -1    0    0    0  501 -0.00000000000E+00 -0.00000000000E+00 -0.29428096626E+02  0.29428096626E+02  0.00000000000E+00 0.  1.
         25    2    1    2    0    0 -0.26170477770E+02 -0.33701060146E+02  0.28548662948E+03  0.31459617534E+03  0.12508989794E+03 0.  0.
         23    2    1    2    0    0  0.26170477770E+02  0.33701060146E+02  0.16124869598E+03  0.19099534337E+03  0.93045278615E+02 0.  0.
          5    1    3    3  502    0  0.22701236942E+02 -0.35919293961E+02  0.25097370447E+03  0.25457968216E+03  0.41800000000E+01 0.  1.
         -5    1    3    3    0  502 -0.48871714712E+02  0.22182338146E+01  0.34512925011E+02  0.60016493175E+02  0.41800000000E+01 0.  1.
        -11    1    4    4    0    0  0.53319397389E+02  0.47742905713E+02  0.10703047785E+03  0.12875506349E+03  0.00000000000E+00 0. -1.
         11    1    4    4    0    0 -0.27148919618E+02 -0.14041845566E+02  0.54218218130E+02  0.62240279888E+02  0.00000000000E+00 0.  1.
</event>
<event>
 8    1  0.7039283E-009  0.9433137E+02  0.7561462E-02  0.1292689E+00
         -2   -1    0    0    0  501 -0.00000000000E+00  0.00000000000E+00  0.40159220099E+02  0.40159220099E+02  0.00000000000E+00 0.  1.
          2   -1    0    0  501    0  0.00000000000E+00 -0.00000000000E+00 -0.35244029194E+03  0.35244029194E+03  0.00000000000E+00 0. -1.
         25    2    1    2    0    0 -0.47036878835E+02  0.10216238104E+02 -0.20120242634E+03  0.24175904610E+03  0.12509268769E+03 0.  0.
         23    2    1    2    0    0  0.47036878835E+02 -0.10216238104E+02 -0.11107864550E+03  0.15084046594E+03  0.89986338893E+02 0.  0.
          5    1    3    3  502    0 -0.32981848360E+02 -0.29621700058E+02 -0.19357256649E+03  0.19862793946E+03  0.41800000000E+01 0.  1.
         -5    1    3    3    0  502 -0.14055030475E+02  0.39837938162E+02 -0.76298598496E+01  0.43131106640E+02  0.41800000000E+01 0.  1.
        -11    1    4    4    0    0  0.68882207525E+02 -0.27154463660E+02 -0.75010242936E+02  0.10539762785E+03  0.00000000000E+00 0. -1.
         11    1    4    4    0    0 -0.21845328690E+02  0.16938225556E+02 -0.36068402565E+02  0.45442838095E+02  0.00000000000E+00 0.  1.
</event>
<event>
 8    1  0.7039283E-009  0.1108252E+03  0.7561462E-02  0.1259049E+00
          1   -1    0    0  501    0  0.00000000000E+00  0.00000000000E+00  0.82868144497E+03  0.82868144497E+03  0.00000000000E+00 0. -1.
         -1   -1    0    0    0  501 -0.00000000000E+00 -0.00000000000E+00 -0.26294763205E+02  0.26294763205E+02  0.00000000000E+00 0.  1.
         25    2    1    2    0    0  0.28388440317E+02  0.20926828075E+02  0.69536359644E+03  0.70740679814E+03  0.12510000450E+03 0.  0.
         23    2    1    2    0    0 -0.28388440317E+02 -0.20926828075E+02  0.10702308533E+03  0.14756941004E+03  0.95283546893E+02 0.  0.
          5    1    3    3  502    0  0.58815332562E+02  0.56716143330E+02  0.48191133757E+03  0.48880668361E+03  0.41800000000E+01 0.  1.
         -5    1    3    3    0  502 -0.30426892245E+02 -0.35789315256E+02  0.21345225887E+03  0.21860011453E+03  0.41800000000E+01 0.  1.
        -11    1    4    4    0    0  0.17785358784E+02  0.22912914578E+02  0.65283434337E+02  0.71437017298E+02  0.00000000000E+00 0.  1.
         11    1    4    4    0    0 -0.46173799101E+02 -0.43839742653E+02  0.41739650991E+02  0.76132392739E+02  0.00000000000E+00 0. -1.
</event>
<event>
 8    1  0.7039283E-009  0.1068620E+03  0.7561462E-02  0.1266494E+00
         -1   -1    0    0    0  501 -0.00000000000E+00  0.00000000000E+00  0.38579063681E+02  0.38579063681E+02  0.00000000000E+00 0.  1.
          1   -1    0    0  501    0  0.00000000000E+00 -0.00000000000E+00 -0.39161322965E+03  0.39161322965E+03  0.00000000000E+00 0. -1.
         25    2    1    2    0    0 -0.38603461163E+02 -0.53080001042E+00 -0.26366594002E+03  0.29438438660E+03  0.12510767437E+03 0.  0.
         23    2    1    2    0    0  0.38603461163E+02  0.53080001042E+00 -0.89368225947E+02  0.13580790673E+03  0.94692126170E+02 0.  0.
          5    1    3    3  502    0  0.18926493770E+02 -0.50626093426E+02 -0.11969998397E+03  0.13140309001E+03  0.41800000000E+01 0. -1.
         -5    1    3    3    0  502 -0.57529954933E+02  0.50095293416E+02 -0.14396595605E+03  0.16298129659E+03  0.41800000000E+01 0. -1.
        -11    1    4    4    0    0  0.29552615283E+02 -0.35370447118E+02 -0.85023626508E+01  0.46869134513E+02  0.00000000000E+00 0.  1.
         11    1    4    4    0    0  0.90508458799E+01  0.35901247128E+02 -0.80865863296E+02  0.88938772215E+02  0.00000000000E+00 0. -1.
</event>
<event>
 8    1  0.7039283E-009  0.1064873E+03  0.7561462E-02  0.1267217E+00
          2   -1    0    0  501    0  0.00000000000E+00  0.00000000000E+00  0.46239952273E+03  0.46239952273E+03  0.00000000000E+00 0. -1.
         -2   -1    0    0    0  501 -0.00000000000E+00 -0.00000000000E+00 -0.35637045261E+02  0.35637045261E+02  0.00000000000E+00 0.  1.
         25    2    1    2    0    0  0.10469346337E+02 -0.48827781358E+02  0.14428031311E+03  0.19737839811E+03  0.12509062253E+03 0.  0.
         23    2    1    2    0    0 -0.10469346337E+02  0.48827781358E+02  0.28248216435E+03  0.30065816988E+03  0.90030008830E+02 0.  0.
          5    1    3    3  502    0  0.35013108532E+02  0.32977196244E+02  0.41380444296E+02  0.63586372843E+02  0.41800000000E+01 0.  1.
         -5    1    3    3    0  502 -0.24543762195E+02 -0.81804977602E+02  0.10289986882E+03  0.13379202527E+03  0.41800000000E+01 0.  1.
        -11    1    4    4    0    0  0.92241292495E+01  0.57089099480E+02  0.26956764804E+03  0.27570086455E+03  0.00000000000E+00 0. -1.
         11    1    4    4    0    0 -0.19693475587E+02 -0.82613181220E+01  0.12914516311E+02  0.24957305330E+02  0.00000000000E+00 0.  1.
</event>
<event>
 8    1  0.7039283E-009  0.1161261E+03  0.7561462E-02  0.1249628E+00
         -1   -1    0    0    0  501 -0.00000000000E+00  0.00000000000E+00  0.14125626127E+02  0.14125626127E+02  0.00000000000E+00 0.  1.
          1   -1    0    0  501    0  0.00000000000E+00 -0.00000000000E+00 -0.11058081938E+04  0.11058081938E+04  0.00000000000E+00 0. -1.
         25    2    1    2    0    0 -0.48778212041E+02 -0.34498250054E+02 -0.66481825823E+03  0.67911718294E+03  0.12508952180E+03 0.  0.
         23    2    1    2    0    0  0.48778212041E+02  0.34498250054E+02 -0.42686430944E+03  0.44081663698E+03  0.92394402097E+02 0.  0.
          5    1    3    3  502    0  0.61241935328E+01 -0.63503337768E+02 -0.19545556522E+03  0.20564661443E+03  0.41800000000E+01 0.  1.
         -5    1    3    3    0  502 -0.54902405574E+02  0.29005087714E+02 -0.46936269301E+03  0.47347056851E+03  0.41800000000E+01 0.  1.
        -11    1    4    4    0    0 -0.20939436847E+02  0.29514746616E+02 -0.20606459644E+03  0.20921806373E+03  0.00000000000E+00 0.  1.
         11    1    4    4    0    0  0.69717648887E+02  0.49835034379E+01 -0.22079971300E+03  0.23159857325E+03  0.00000000000E+00 0. -1.
</event>
<event>
 8    1  0.7039283E-009  0.1210665E+03  0.7561462E-02  0.1241348E+00
          2   -1    0    0  501    0  0.00000000000E+00  0.00000000000E+00  0.11729815663E+03  0.11729815663E+03  0.00000000000E+00 0. -1.
         -2   -1    0    0    0  501 -0.00000000000E+00 -0.00000000000E+00 -0.13757698667E+03  0.13757698667E+03  0.00000000000E+00 0.  1.
         25    2    1    2    0    0 -0.61950092014E+02  0.20828689416E+02 -0.21242295746E+02  0.14272468894E+03  0.12508978176E+03 0.  0.
         23    2    1    2    0    0  0.61950092014E+02 -0.20828689416E+02  0.96346570548E+00  0.11215045437E+03  0.91132584436E+02 0.  0.
          5    1    3    3  502    0 -0.37312996618E+02 -0.45717131948E+02  0.17599848968E+02  0.61721495071E+02  0.41800000000E+01 0.  1.
         -5    1    3    3    0  502 -0.24637095396E+02  0.66545821363E+02 -0.38842144714E+02  0.81003193866E+02  0.41800000000E+01 0.  1.
        -11    1    4    4    0    0  0.17558765138E+02  0.35837133770E+02  0.39687278541E+01  0.40104378698E+02  0.00000000000E+00 0. -1.
         11    1    4    4    0    0  0.44391326875E+02 -0.56665823185E+02 -0.30052621486E+01  0.72046075671E+02  0.00000000000E+00 0.  1.
</event>
<event>
 8    1  0.7039283E-009  0.1091147E+03  0.7561462E-02  0.1262218E+00
          4   -1    0    0  501    0  0.00000000000E+00  0.00000000000E+00  0.91583653741E+02  0.91583653741E+02  0.00000000000E+00 0. -1.
         -4   -1    0    0    0  501 -0.00000000000E+00 -0.00000000000E+00 -0.15990014716E+03  0.15990014716E+03  0.00000000000E+00 0.  1.
         25    2    1    2    0    0  0.26748501950E+02  0.46328536479E+02 -0.37171177012E+02  0.14103583234E+03  0.12509034318E+03 0.  0.
         23    2    1    2    0    0 -0.26748501950E+02 -0.46328536479E+02 -0.31145316409E+02  0.11044796856E+03  0.91470800674E+02 0.  0.
          5    1    3    3  502    0  0.67099217423E+02  0.23560250221E+02 -0.56237586857E+02  0.90760833760E+02  0.41800000000E+01 0. -1.
         -5    1    3    3    0  502 -0.40350715473E+02  0.22768286258E+02  0.19066409845E+02  0.50274998585E+02  0.41800000000E+01 0. -1.
        -11    1    4    4    0    0 -0.33005629268E+02  0.16799172747E+02 -0.28890808245E+02  0.46970869371E+02  0.00000000000E+00 0.  1.
         11    1    4    4    0    0  0.62571273182E+01 -0.63127709226E+02 -0.22545081644E+01  0.63477099189E+02  0.00000000000E+00 0. -1.
</event>
<event>
 8    1  0.7039283E-009  0.1377932E+03  0.7561462E-02  0.1216330E+00
         -2   -1    0    0    0  501 -0.00000000000E+00  0.00000000000E+00  0.16071046408E+02  0.16071046408E+02  0.00000000000E+00 0.  1.
          2   -1    0    0  501    0  0.00000000000E+00 -0.00000000000E+00 -0.16974194740E+04  0.16974194740E+04  0.00000000000E+00 0. -1.
         25    2    1    2    0    0 -0.27467203027E+02  0.91217513120E+02 -0.13062450115E+04  0.13156746068E+04  0.12509419951E+03 0.  0.
         23    2    1    2    0    0  0.27467203027E+02 -0.91217513120E+02 -0.37510341603E+03  0.39781591362E+03  0.92086081883E+02 0.  0.
          5    1    3    3  502    0  0.28503256961E+01  0.11154316191E+03 -0.75561794460E+03  0.76382324653E+03  0.41800000000E+01 0. -1.
         -5    1    3    3    0  502 -0.30317528723E+02 -0.20325648793E+02 -0.55062706694E+03  0.55185136023E+03  0.41800000000E+01 0. -1.
        -11    1    4    4    0    0 -0.29639097234E+02 -0.19351922254E+02 -0.16134349644E+03  0.16518080041E+03  0.00000000000E+00 0. -1.
         11    1    4    4    0    0  0.57106300261E+02 -0.71865590865E+02 -0.21375991958E+03  0.23263511321E+03  0.00000000000E+00 0.  1.
</event>
<event>
 8    1  0.7039283E-009  0.1277804E+03  0.7561462E-02  0.1230787E+00
         -1   -1    0    0    0  501 -0.00000000000E+00  0.00000000000E+00  0.23871189186E+02  0.23871189186E+02  0.00000000000E+00 0.  1.
          1   -1    0    0  501    0  0.00000000000E+00 -0.00000000000E+00 -0.14222265430E+04  0.14222265430E+04  0.00000000000E+00 0. -1.
         25    2    1    2    0    0 -0.64934472602E+01 -0.11268373535E+03 -0.11333956405E+04  0.11458498084E+04  0.12508523697E+03 0.  0.
         23    2    1    2    0    0  0.64934472602E+01  0.11268373535E+03 -0.26495971332E+03  0.30024792376E+03  0.84884491922E+02 0.  0.
          5    1    3    3  502    0  0.21161682475E+02 -0.58687615629E+02 -0.18063503034E+03  0.19115056793E+03  0.41800000000E+01 0.  1.
         -5    1    3    3    0  502 -0.27655129736E+02 -0.53996119725E+02 -0.95276061014E+03  0.95469924048E+03  0.41800000000E+01 0.  1.
        -11    1    4    4    0    0 -0.30541895159E+02  0.65257110556E+02 -0.19546629810E+03  0.20832275807E+03  0.00000000000E+00 0. -1.
         11    1    4    4    0    0  0.37035342419E+02  0.47426624798E+02 -0.69493415221E+02  0.91925165688E+02  0.00000000000E+00 0.  1.
</event>
<event>
 8    1  0.7039283E-009  0.1107088E+03  0.7561462E-02  0.1259263E+00
          2   -1    0    0  501    0  0.00000000000E+00  0.00000000000E+00  0.27900296402E+03  0.27900296402E+03  0.00000000000E+00 0.  1.
         -2   -1    0    0    0  501 -0.00000000000E+00 -0.00000000000E+00 -0.72386914160E+02  0.72386914160E+02  0.00000000000E+00 0. -1.
         25    2    1    2    0    0 -0.68959708072E+02  0.58165183457E+02  0.89223756183E+02  0.17817605799E+03  0.12508876476E+03 0.  0.
         23    2    1    2    0    0  0.68959708072E+02 -0.58165183457E+02  0.11739229368E+03  0.17321382019E+03  0.89907991785E+02 0.  0.
          5    1    3    3  502    0 -0.52196179422E+02  0.60215471116E+01  0.10795810517E+03  0.12013794175E+03  0.41800000000E+01 0.  1.
         -5    1    3    3    0  502 -0.16763528649E+02  0.52143636346E+02 -0.18734348989E+02  0.58038116236E+02  0.41800000000E+01 0.  1.
        -11    1    4    4    0    0  0.10319373968E+02 -0.54013959248E+02  0.96039751590E+02  0.11066901625E+03  0.00000000000E+00 0.  1.
         11    1    4    4    0    0  0.58640334104E+02 -0.41512242096E+01  0.21352542086E+02  0.62544803940E+02  0.00000000000E+00 0. -1.
</event>
<event>
 8    1  0.7039283E-009  0.9670089E+02  0.7561462E-02  0.1287391E+00
         -1   -1    0    0    0  501 -0.00000000000E+00  0.00000000000E+00  0.27874710003E+03  0.27874710003E+03  0.00000000000E+00 0.  1.
          1   -1    0    0  501    0  0.00000000000E+00 -0.00000000000E+00 -0.42283126160E+02  0.42283126160E+02  0.00000000000E+00 0. -1.
         25    2    1    2    0    0  0.42803388134E+01  0.54174837583E+00  0.14532233182E+03  0.19179346329E+03  0.12509011809E+03 0.  0.
         23    2    1    2    0    0 -0.42803388134E+01 -0.54174837583E+00  0.91141642046E+02  0.12923676290E+03  0.91524462182E+02 0.  0.
          5    1    3    3  502    0  0.61841821599E+02 -0.90221286726E+01  0.50864924564E+02  0.80687809832E+02  0.41800000000E+01 0. -1.
         -5    1    3    3    0  502 -0.57561482786E+02  0.95638770484E+01  0.94457407259E+02  0.11110565346E+03  0.41800000000E+01 0. -1.
        -11    1    4    4    0    0 -0.31964595382E+02  0.20076907848E+02  0.86538314245E+02  0.94412379585E+02  0.00000000000E+00 0.  1.
         11    1    4    4    0    0  0.27684256569E+02 -0.20618656223E+02  0.46033278011E+01  0.34824383312E+02  0.00000000000E+00 0. -1.
</event>
<event>
 8    1  0.7039283E-009  0.1253302E+03  0.7561462E-02  0.1234554E+00
         -2   -1    0    0    0  501 -0.00000000000E+00  0.00000000000E+00  0.58103110714E+02  0.58103110714E+02  0.00000000000E+00 0.  1.
          2   -1    0    0  501    0  0.00000000000E+00 -0.00000000000E+00 -0.29338981681E+03  0.29338981681E+03  0.00000000000E+00 0. -1.
         25    2    1    2    0    0  0.40769201071E+02  0.54950166170E+02 -0.14607783516E+03  0.20413115711E+03  0.12509655015E+03 0.  0.
         23    2    1    2    0    0 -0.40769201071E+02 -0.54950166170E+02 -0.89208870936E+02  0.14736177041E+03  0.95266049608E+02 0.  0.
          5    1    3    3  502    0 -0.37111412937E+02  0.38623460975E+02 -0.96020608332E+02  0.11002935214E+03  0.41800000000E+01 0. -1.
         -5    1    3    3    0  502  0.77880614008E+02  0.16326705194E+02 -0.50057226830E+02  0.94101804970E+02  0.41800000000E+01 0. -1.
        -11    1    4    4    0    0  0.26856202444E+02 -0.39694475966E+02 -0.38373199821E+02  0.61395516908E+02  0.00000000000E+00 0.  1.
         11    1    4    4    0    0 -0.67625403515E+02 -0.15255690204E+02 -0.50835671115E+02  0.85966253506E+02  0.00000000000E+00 0. -1.
</event>
<event>
 8    1  0.7039283E-009  0.1214838E+03  0.7561462E-02  0.1240669E+00
         -1   -1    0    0    0  501 -0.00000000000E+00  0.00000000000E+00  0.93810173952E+02  0.93810173952E+02  0.00000000000E+00 0.  1.
          1   -1    0    0  501    0  0.00000000000E+00 -0.00000000000E+00 -0.19154426774E+03  0.19154426774E+03  0.00000000000E+00 0. -1.
         25    2    1    2    0    0 -0.39347015151E+02 -0.60795759846E+02 -0.22381796795E+02  0.14626246604E+03  0.12508977627E+03 0.  0.
         23    2    1    2    0    0  0.39347015151E+02  0.60795759846E+02 -0.75352296989E+02  0.13909197564E+03  0.91783969247E+02 0.  0.
          5    1    3    3  502    0 -0.84912944938E+02 -0.41982154635E+02 -0.10619214573E+02  0.95409379225E+02  0.41800000000E+01 0. -1.
         -5    1    3    3    0  502  0.45565929787E+02 -0.18813605211E+02 -0.11762582222E+02  0.50853086818E+02  0.41800000000E+01 0. -1.
        -11    1    4    4    0    0  0.58380280246E+02  0.49524649474E+02 -0.85490835790E+02  0.11475901285E+03  0.00000000000E+00 0. -1.
         11    1    4    4    0    0 -0.19033265095E+02  0.11271110372E+02  0.10138538801E+02  0.24332962791E+02  0.00000000000E+00 0.  1.
</event>
<event>
 8    1  0.7039283E-009  0.1321644E+03  0.7561462E-02  0.1224279E+00
          1   -1    0    0  501    0  0.00000000000E+00  0.00000000000E+00  0.23846741480E+03  0.23846741480E+03  0.00000000000E+00 0. -1.
         -1   -1    0    0    0  501 -0.00000000000E+00 -0.00000000000E+00 -0.85810349592E+02  0.85810349592E+02  0.00000000000E+00 0.  1.
         25    2    1    2    0    0 -0.87799207203E+02  0.15530575646E+02  0.53584447086E+02  0.16269360117E+03  0.12509202744E+03 0.  0.
         23    2    1    2    0    0  0.87799207203E+02 -0.15530575646E+02  0.99072618121E+02  0.16158416322E+03  0.91346365970E+02 0.  0.
          5    1    3    3  502    0 -0.11955724332E+03  0.16871189931E+02  0.35678854941E+02  0.12597231668E+03  0.41800000000E+01 0. -1.
         -5    1    3    3    0  502  0.31758036117E+02 -0.13406142849E+01  0.17905592145E+02  0.36721284492E+02  0.41800000000E+01 0. -1.
        -11    1    4    4    0    0  0.27640792568E+02  0.26322836323E+02  0.75501712252E+02  0.84601499271E+02  0.00000000000E+00 0. -1.
         11    1    4    4    0    0  0.60158414635E+02 -0.41853411969E+02  0.23570905869E+02  0.76982663947E+02  0.00000000000E+00 0.  1.
</event>
<event>
 8    1  0.7039283E-009  0.8023696E+02  0.7561462E-02  0.1328380E+00
         -2   -1    0    0    0  501 -0.00000000000E+00  0.00000000000E+00  0.18297329320E+02  0.18297329320E+02  0.00000000000E+00 0.  1.
          2   -1    0    0  501    0  0.00000000000E+00 -0.00000000000E+00 -0.70688257436E+03  0.70688257436E+03  0.00000000000E+00 0. -1.
         25    2    1    2    0    0  0.16591750921E+02 -0.29288551952E+02 -0.48006364832E+03  0.49723471132E+03  0.12509255067E+03 0.  0.
         23    2    1    2    0    0 -0.16591750921E+02  0.29288551952E+02 -0.20852159672E+03  0.22794519235E+03  0.85700927331E+02 0.  0.
          5    1    3    3  502    0 -0.18817848621E+02 -0.27433485515E+02 -0.27774481329E+02  0.43538509016E+02  0.41800000000E+01 0. -1.
         -5    1    3    3    0  502  0.35409599542E+02 -0.18550664368E+01 -0.45228916699E+03  0.45369620231E+03  0.41800000000E+01 0. -1.
        -11    1    4    4    0    0  0.27932756803E+02 -0.12109603884E+02 -0.55759063050E+02  0.63529162761E+02  0.00000000000E+00 0.  1.
         11    1    4    4    0    0 -0.44524507724E+02  0.41398155835E+02 -0.15276253367E+03  0.16441602959E+03  0.00000000000E+00 0. -1.
</event>
<event>
 8    1  0.7039283E-009  0.1040878E+03  0.7561462E-02  0.1271927E+00
          2   -1    0    0  501    0  0.00000000000E+00  0.00000000000E+00  0.95549997099E+03  0.95549997099E+03  0.00000000000E+00 0.  1.
         -2   -1    0    0    0  501 -0.00000000000E+00 -0.00000000000E+00 -0.23727029735E+02  0.23727029735E+02  0.00000000000E+00 0. -1.
         25    2    1    2    0    0  0.76891588507E+02  0.50409135202E+02  0.66786417830E+03  0.68567014223E+03  0.12509031133E+03 0.  0.
         23    2    1    2    0    0 -0.76891588507E+02 -0.50409135202E+02  0.26390876296E+03  0.29355685850E+03  0.89857646935E+02 0.  0.
          5    1    3    3  502    0  0.41206509675E+02  0.20376832134E+02  0.58540336983E+02  0.74549548499E+02  0.41800000000E+01 0. -1.
         -5    1    3    3    0  502  0.35685078832E+02  0.30032303068E+02  0.60932384132E+03  0.61112059373E+03  0.41800000000E+01 0. -1.
        -11    1    4    4    0    0 -0.21095023235E+02 -0.55291528515E+02  0.20002994217E+03  0.20860040962E+03  0.00000000000E+00 0.  1.
         11    1    4    4    0    0 -0.55796565272E+02  0.48823933131E+01  0.63878820788E+02  0.84956448877E+02  0.00000000000E+00 0. -1.
</event>
<event>
 8    1  0.7039283E-009  0.7775971E+02  0.7561462E-02  0.1335532E+00
         -1   -1    0    0    0  501 -0.00000000000E+00  0.00000000000E+00  0.76384978197E+02  0.76384978197E+02  0.00000000000E+00 0.  1.
          1   -1    0    0  501    0  0.00000000000E+00 -0.00000000000E+00 -0.16348695667E+03  0.16348695667E+03  0.00000000000E+00 0. -1.
         25    2    1    2    0    0 -0.33010558959E+01 -0.14615366962E+02 -0.34896573677E+02  0.13072267124E+03  0.12508453142E+03 0.  0.
         23    2    1    2    0    0  0.33010558959E+01  0.14615366962E+02 -0.52205404799E+02  0.10914926363E+03  0.94676562776E+02 0.  0.
          5    1    3    3  502    0 -0.22510045936E+02 -0.36794643415E+02  0.34415926101E+02  0.55339645115E+02  0.41800000000E+01 0. -1.
         -5    1    3    3    0  502  0.19208990040E+02  0.22179276453E+02 -0.69312499777E+02  0.75383026125E+02  0.41800000000E+01 0. -1.
        -11    1    4    4    0    0 -0.27910960794E+02  0.35375287686E+02 -0.55534936845E+02  0.71516165457E+02  0.00000000000E+00 0. -1.
         11    1    4    4    0    0  0.31212016690E+02 -0.20759920724E+02  0.33295320467E+01  0.37633098171E+02  0.00000000000E+00 0.  1.
</event>
<event>
 8    1  0.7039283E-009  0.2287471E+03  0.7561462E-02  0.1127525E+00
         -2   -1    0    0    0  501 -0.00000000000E+00  0.00000000000E+00  0.31345805114E+03  0.31345805114E+03  0.00000000000E+00 0.  1.
          2   -1    0    0  501    0  0.00000000000E+00 -0.00000000000E+00 -0.18243056059E+03  0.18243056059E+03  0.00000000000E+00 0. -1.
         25    2    1    2    0    0  0.20269785371E+03 -0.61946844328E+02  0.79004195091E+02  0.25848584827E+03  0.12509771977E+03 0.  0.
         23    2    1    2    0    0 -0.20269785371E+03  0.61946844328E+02  0.52023295456E+02  0.23740276346E+03  0.93433491884E+02 0.  0.
          5    1    3    3  502    0 -0.17112011181E+02 -0.30116160717E+01  0.10774249913E+02  0.20867381704E+02  0.41800000000E+01 0. -1.
         -5    1    3    3    0  502  0.21980986489E+03 -0.58935228257E+02  0.68229945177E+02  0.23761846657E+03  0.41800000000E+01 0. -1.
        -11    1    4    4    0    0 -0.56472129897E+02  0.14921841046E+02 -0.27360405637E+02  0.64500810785E+02  0.00000000000E+00 0. -1.
         11    1    4    4    0    0 -0.14622572382E+03  0.47025003282E+02  0.79383701093E+02  0.17290195267E+03  0.00000000000E+00 0.  1.
</event>
<event>
 8    1  0.7039283E-009  0.1685712E+03  0.7561462E-02  0.1179346E+00
         -1   -1    0    0    0  501 -0.00000000000E+00  0.00000000000E+00  0.38207491325E+02  0.38207491325E+02  0.00000000000E+00 0.  1.
          1   -1    0    0  501    0  0.00000000000E+00 -0.00000000000E+00 -0.10887764990E+04  0.10887764990E+04  0.00000000000E+00 0. -1.
         25    2    1    2    0    0 -0.11752629482E+03  0.72812840052E+02 -0.83172500157E+03  0.85236405552E+03  0.12507543830E+03 0.  0.
         23    2    1    2    0    0  0.11752629482E+03 -0.72812840052E+02 -0.21884400607E+03  0.27461993476E+03  0.91702071541E+02 0.  0.
          5    1    3    3  502    0 -0.41839668812E+01  0.71876429721E+02 -0.28355665624E+03  0.29258430653E+03  0.41800000000E+01 0.  1.
         -5    1    3    3    0  502 -0.11334232794E+03  0.93641033100E+00 -0.54816834533E+03  0.55977974900E+03  0.41800000000E+01 0.  1.
        -11    1    4    4    0    0  0.12038447455E+03 -0.52919969100E+02 -0.13523890413E+03  0.18863325803E+03  0.00000000000E+00 0.  1.
         11    1    4    4    0    0 -0.28581797302E+01 -0.19892870953E+02 -0.83605101934E+02  0.85986676732E+02  0.00000000000E+00 0. -1.
</event>
<event>
 8    1  0.7039283E-009  0.1259160E+03  0.7561462E-02  0.1233645E+00
          1   -1    0    0  501    0  0.00000000000E+00  0.00000000000E+00  0.22230415530E+03  0.22230415530E+03  0.00000000000E+00 0. -1.
         -1   -1    0    0    0  501 -0.00000000000E+00 -0.00000000000E+00 -0.77793738759E+02  0.77793738759E+02  0.00000000000E+00 0.  1.
         25    2    1    2    0    0 -0.63739538746E+02 -0.24031209224E+02  0.11183921850E+03  0.18109495249E+03  0.12508854147E+03 0.  0.
         23    2    1    2    0    0  0.63739538746E+02  0.24031209224E+02  0.32671198040E+02  0.11900294157E+03  0.91945990148E+02 0.  0.
          5    1    3    3  502    0 -0.68474664894E+02  0.35723717336E+02  0.38852588741E+02  0.86556107609E+02  0.41800000000E+01 0. -1.
         -5    1    3    3    0  502  0.47351261477E+01 -0.59754926560E+02  0.72986629763E+02  0.94538844884E+02  0.41800000000E+01 0. -1.
        -11    1    4    4    0    0 -0.97240055538E+01  0.38340023036E+02  0.99544836645E+01  0.40787319051E+02  0.00000000000E+00 0. -1.
         11    1    4    4    0    0  0.73463544300E+02 -0.14308813811E+02  0.22716714376E+02  0.78215622518E+02  0.00000000000E+00 0.  1.
</event>
<event>
 8    1  0.7039283E-009  0.1115394E+03  0.7561462E-02  0.1257745E+00
          1   -1    0    0  501    0  0.00000000000E+00  0.00000000000E+00  0.16462935245E+03  0.16462935245E+03  0.00000000000E+00 0. -1.
         -1   -1    0    0    0  501 -0.00000000000E+00 -0.00000000000E+00 -0.10586126410E+03  0.10586126410E+03  0.00000000000E+00 0.  1.
         25    2    1    2    0    0  0.35808980893E+02  0.61653508431E+02  0.53222726654E+02  0.15350361424E+03  0.12508901925E+03 0.  0.
         23    2    1    2    0    0 -0.35808980893E+02 -0.61653508431E+02  0.55453616962E+01  0.11698700231E+03  0.92583850966E+02 0.  0.
          5    1    3    3  502    0 -0.41838300869E+02  0.23709668233E+02  0.46000668671E+02  0.66679274932E+02  0.41800000000E+01 0. -1.
         -5    1    3    3    0  502  0.77647281762E+02  0.37943840198E+02  0.72220579822E+01  0.86824339303E+02  0.41800000000E+01 0. -1.
        -11    1    4    4    0    0 -0.46996803722E+02 -0.61099063242E+02  0.35604446710E+02  0.84908608013E+02  0.00000000000E+00 0. -1.
         11    1    4    4    0    0  0.11187822829E+02 -0.55444518904E+00 -0.30059085014E+02  0.32078394302E+02  0.00000000000E+00 0.  1.
</event>
<event>
 8    1  0.7039283E-009  0.2730413E+03  0.7561462E-02  0.1099552E+00
         -1   -1    0    0    0  501 -0.00000000000E+00  0.00000000000E+00  0.67997826306E+02  0.67997826306E+02  0.00000000000E+00 0.  1.
          1   -1    0    0  501    0  0.00000000000E+00 -0.00000000000E+00 -0.15278077528E+04  0.15278077528E+04  0.00000000000E+00 0. -1.
         25    2    1    2    0    0  0.25006822045E+03  0.81672487155E+02 -0.37090055739E+03  0.47161318934E+03  0.12508903569E+03 0.  0.
         23    2    1    2    0    0 -0.25006822045E+03 -0.81672487155E+02 -0.10889093691E+04  0.11241923897E+04  0.94235901054E+02 0.  0.
          5    1    3    3  502    0  0.17382766517E+03  0.77703984241E+02 -0.16503496404E+03  0.25200789293E+03  0.41800000000E+01 0. -1.
         -5    1    3    3    0  502  0.76240555285E+02  0.39685029142E+01 -0.20586559335E+03  0.21960529641E+03  0.41800000000E+01 0. -1.
        -11    1    4    4    0    0 -0.22755791512E+03 -0.38926947085E+02 -0.88134778786E+03  0.91108278170E+03  0.00000000000E+00 0.  1.
         11    1    4    4    0    0 -0.22510305332E+02 -0.42745540070E+02 -0.20756158122E+03  0.21310960805E+03  0.00000000000E+00 0. -1.
</event>
<event>
 8    1  0.7039283E-009  0.1006374E+03  0.7561462E-02  0.1278961E+00
          2   -1    0    0  501    0  0.00000000000E+00  0.00000000000E+00  0.41916488678E+03  0.41916488678E+03  0.00000000000E+00 0. -1.
         -2   -1    0    0    0  501 -0.00000000000E+00 -0.00000000000E+00 -0.39744520742E+02  0.39744520742E+02  0.00000000000E+00 0.  1.
         25    2    1    2    0    0  0.45406898657E+02  0.52514561387E+02  0.19538692273E+03  0.24216827276E+03  0.12509938910E+03 0.  0.
         23    2    1    2    0    0 -0.45406898657E+02 -0.52514561387E+02  0.18403344331E+03  0.21674113477E+03  0.91043097707E+02 0.  0.
          5    1    3    3  502    0  0.50296694070E+02  0.15816259293E+02  0.19788061899E+03  0.20482705697E+03  0.41800000000E+01 0.  1.
         -5    1    3    3    0  502 -0.48897954125E+01  0.36698302095E+02 -0.24936962618E+01  0.37341215792E+02  0.41800000000E+01 0.  1.
        -11    1    4    4    0    0 -0.32073458386E+02  0.19733867050E+02  0.88855522234E+02  0.96506145260E+02  0.00000000000E+00 0. -1.
         11    1    4    4    0    0 -0.13333440272E+02 -0.72248428438E+02  0.95177921077E+02  0.12023498951E+03  0.00000000000E+00 0.  1.
</event>
<event>
 8    1  0.7039283E-009  0.1639379E+03  0.7561462E-02  0.1184321E+00
         -1   -1    0    0    0  501 -0.00000000000E+00  0.00000000000E+00  0.10688548434E+04  0.10688548434E+04  0.00000000000E+00 0.  1.
          1   -1    0    0  501    0  0.00000000000E+00 -0.00000000000E+00 -0.29661600843E+02  0.29661600843E+02  0.00000000000E+00 0. -1.
         25    2    1    2    0    0 -0.11278223941E+03  0.81370071293E+02  0.59566391160E+03  0.62434296510E+03  0.12509084878E+03 0.  0.
         23    2    1    2    0    0  0.11278223941E+03 -0.81370071293E+02  0.44352933099E+03  0.47417347918E+03  0.93708584892E+02 0.  0.
          5    1    3    3  502    0 -0.72603761470E+02  0.99338301689E+02  0.53673225084E+03  0.55067085074E+03  0.41800000000E+01 0.  1.
         -5    1    3    3    0  502 -0.40178477944E+02 -0.17968230396E+02  0.58931660757E+02  0.73672114352E+02  0.41800000000E+01 0.  1.
        -11    1    4    4    0    0  0.67543938968E+01 -0.49326974254E+02  0.80780721786E+02  0.94890975537E+02  0.00000000000E+00 0. -1.
         11    1    4    4    0    0  0.10602784552E+03 -0.32043097039E+02  0.36274860920E+03  0.37928250364E+03  0.00000000000E+00 0.  1.
</event>
<event>
 8    1  0.7039283E-009  0.8114276E+02  0.7561462E-02  0.1325839E+00
          2   -1    0    0  501    0  0.00000000000E+00  0.00000000000E+00  0.12006583762E+03  0.12006583762E+03  0.00000000000E+00 0. -1.
         -2   -1    0    0    0  501 -0.00000000000E+00 -0.00000000000E+00 -0.11006674708E+03  0.11006674708E+03  0.00000000000E+00 0.  1.
         25    2    1    2    0    0  0.85804780257E+01 -0.31335517969E+02 -0.17192942717E+02  0.13038343738E+03  0.12509478076E+03 0.  0.
         23    2    1    2    0    0 -0.85804780257E+01  0.31335517969E+02  0.27192033249E+02  0.99749147324E+02  0.90304742013E+02 0.  0.
          5    1    3    3  502    0  0.18395089649E+00  0.17450309647E+02 -0.61347374180E+02  0.63918071494E+02  0.41800000000E+01 0. -1.
         -5    1    3    3    0  502  0.83965271292E+01 -0.48785827616E+02  0.44154431463E+02  0.66465365882E+02  0.41800000000E+01 0. -1.
        -11    1    4    4    0    0  0.39881433009E+02  0.21142613187E+02  0.21187200844E+02  0.49864178233E+02  0.00000000000E+00 0.  1.
         11    1    4    4    0    0 -0.48461911035E+02  0.10192904782E+02  0.60048324045E+01  0.49884969091E+02  0.00000000000E+00 0. -1.
</event>
<event>
 8    1  0.7039283E-009  0.1194750E+03  0.7561462E-02  0.1243966E+00
          4   -1    0    0  501    0  0.00000000000E+00  0.00000000000E+00  0.64648450123E+02  0.64648450123E+02  0.00000000000E+00 0. -1.
         -4   -1    0    0    0  501 -0.00000000000E+00 -0.00000000000E+00 -0.24562573028E+03  0.24562573028E+03  0.00000000000E+00 0.  1.
         25    2    1    2    0    0 -0.54522706725E+02  0.13144533428E+01 -0.56976727482E+02  0.14788320034E+03  0.12509452479E+03 0.  0.
         23    2    1    2    0    0  0.54522706725E+02 -0.13144533428E+01 -0.12400055268E+03  0.16239098007E+03  0.89555792700E+02 0.  0.
          5    1    3    3  502    0 -0.52888666346E+02 -0.56445078168E+02 -0.41673084869E+02  0.87962357175E+02  0.41800000000E+01 0. -1.
         -5    1    3    3    0  502 -0.16340403789E+01  0.57759531511E+02 -0.15303642613E+02  0.59920843165E+02  0.41800000000E+01 0. -1.
        -11    1    4    4    0    0  0.41287181118E+02  0.41619404684E+02 -0.82652587994E+02  0.10133240584E+03  0.00000000000E+00 0. -1.
         11    1    4    4    0    0  0.13235525607E+02 -0.42933858027E+02 -0.41347964683E+02  0.61058574226E+02  0.00000000000E+00 0.  1.
</event>
<event>
 8    1  0.7039283E-009  0.1606805E+03  0.7561462E-02  0.1187931E+00
         -2   -1    0    0    0  501 -0.00000000000E+00  0.00000000000E+00  0.83012107340E+02  0.83012107340E+02  0.00000000000E+00 0.  1.
          2   -1    0    0  501    0  0.00000000000E+00 -0.00000000000E+00 -0.39053126874E+03  0.39053126874E+03  0.00000000000E+00 0. -1.
         25    2    1    2    0    0  0.12496574380E+03  0.20979189063E+02 -0.25656138101E+03  0.31229433147E+03  0.12508974277E+03 0.  0.
         23    2    1    2    0    0 -0.12496574380E+03 -0.20979189063E+02 -0.50957780386E+02  0.16124904460E+03  0.85720449750E+02 0.  0.
          5    1    3    3  502    0  0.10578564077E+03 -0.39510966065E+02 -0.14441331902E+03  0.18336956493E+03  0.41800000000E+01 0.  1.
         -5    1    3    3    0  502  0.19180103034E+02  0.60490155128E+02 -0.11214806199E+03  0.12892476654E+03  0.41800000000E+01 0.  1.
        -11    1    4    4    0    0 -0.12020668958E+03 -0.38804468299E+02 -0.23987865543E+02  0.12857236357E+03  0.00000000000E+00 0.  1.
         11    1    4    4    0    0 -0.47590542245E+01  0.17825279236E+02 -0.26969914843E+02  0.32676681037E+02  0.00000000000E+00 0. -1.
</event>
<event>
 8    1  0.7039283E-009  0.2244481E+03  0.7561462E-02  0.1130610E+00
         -3   -1    0    0    0  501 -0.00000000000E+00  0.00000000000E+00  0.96939248986E+03  0.96939248986E+03  0.00000000000E+00 0.  1.
          3   -1    0    0  501    0  0.00000000000E+00 -0.00000000000E+00 -0.66672044589E+02  0.66672044589E+02  0.00000000000E+00 0. -1.
         25    2    1    2    0    0  0.41265647540E+02  0.19877335542E+03  0.24544497015E+03  0.34220415060E+03  0.12508695704E+03 0.  0.
         23    2    1    2    0    0 -0.41265647540E+02 -0.19877335542E+03  0.65727547512E+03  0.69386038386E+03  0.90650325963E+02 0.  0.
          5    1    3    3  502    0 -0.34296168217E+02  0.21287042529E+02  0.72541477297E+02  0.83121018175E+02  0.41800000000E+01 0.  1.
         -5    1    3    3    0  502  0.75561815757E+02  0.17748631289E+03  0.17290349286E+03  0.25908313242E+03  0.41800000000E+01 0.  1.
        -11    1    4    4    0    0  0.19368914341E+02 -0.76122781403E+02  0.32833413525E+03  0.33759907740E+03  0.00000000000E+00 0.  1.
         11    1    4    4    0    0 -0.60634561880E+02 -0.12265057402E+03  0.32894133987E+03  0.35626130645E+03  0.00000000000E+00 0. -1.
</event>
<event>
 8    1  0.7039283E-009  0.1001161E+03  0.7561462E-02  0.1280052E+00
          4   -1    0    0  501    0  0.00000000000E+00  0.00000000000E+00  0.13332864539E+03  0.13332864539E+03  0.00000000000E+00 0. -1.
         -4   -1    0    0    0  501 -0.00000000000E+00 -0.00000000000E+00 -0.11354221223E+03  0.11354221223E+03  0.00000000000E+00 0.  1.
         25    2    1    2    0    0  0.33691335373E+01  0.57423921366E+02  0.15722262995E+02  0.13857771710E+03  0.12509091221E+03 0.  0.
         23    2    1    2    0    0 -0.33691335373E+01 -0.57423921366E+02  0.40641701646E+01  0.10829314052E+03  0.91662582330E+02 0.  0.
          5    1    3    3  502    0 -0.26573710301E+02 -0.20057519888E+01  0.54951790358E+02  0.61215657995E+02  0.41800000000E+01 0.  1.
         -5    1    3    3    0  502  0.29942843839E+02  0.59429673354E+02 -0.39229527363E+02  0.77362059107E+02  0.41800000000E+01 0.  1.
        -11    1    4    4    0    0  0.42909595044E+02 -0.33778730801E+02  0.11462306386E+02  0.55799824992E+02  0.00000000000E+00 0.  1.
         11    1    4    4    0    0 -0.46278728582E+02 -0.23645190565E+02 -0.73981362217E+01  0.52493315532E+02  0.00000000000E+00 0. -1.
</event>
<event>
 8    1  0.7039283E-009  0.8303044E+02  0.7561462E-02  0.1320665E+00
          1   -1    0    0  501    0  0.00000000000E+00  0.00000000000E+00  0.32728665149E+02  0.32728665149E+02  0.00000000000E+00 0. -1.
         -1   -1    0    0    0  501 -0.00000000000E+00 -0.00000000000E+00 -0.46989953491E+03  0.46989953491E+03  0.00000000000E+00 0.  1.
         25    2    1    2    0    0  0.34080325398E+02  0.52344375458E+02 -0.21774707830E+03  0.25877335406E+03  0.12509379058E+03 0.  0.
         23    2    1    2    0    0 -0.34080325398E+02 -0.52344375458E+02 -0.21942379146E+03  0.24385484600E+03  0.86121910324E+02 0.  0.
          5    1    3    3  502    0  0.60322603379E+02  0.25290685081E+02 -0.39474974864E+02  0.76512621643E+02  0.41800000000E+01 0.  1.
         -5    1    3    3    0  502 -0.26242277980E+02  0.27053690377E+02 -0.17827210344E+03  0.18226073242E+03  0.41800000000E+01 0.  1.
        -11    1    4    4    0    0 -0.21446883944E+02 -0.29221403131E+02 -0.21387885316E+03  0.21692861283E+03  0.00000000000E+00 0.  1.
         11    1    4    4    0    0 -0.12633441455E+02 -0.23122972327E+02 -0.55449382946E+01  0.26926233173E+02  0.00000000000E+00 0. -1.
</event>
<event>
 8    1  0.7039283E-009  0.9487851E+02  0.7561462E-02  0.1291450E+00
          2   -1    0    0  501    0  0.00000000000E+00  0.00000000000E+00  0.50638699951E+02  0.50638699951E+02  0.00000000000E+00 0.  1.
         -2   -1    0    0    0  501 -0.00000000000E+00 -0.00000000000E+00 -0.27707617820E+03  0.27707617820E+03  0.00000000000E+00 0. -1.
         25    2    1    2    0    0 -0.33335817319E+02  0.18811211408E+02 -0.85856733582E+02  0.15647516939E+03  0.12509181245E+03 0.  0.
         23    2    1    2    0    0  0.33335817319E+02 -0.18811211408E+02 -0.14058074466E+03  0.17123970876E+03  0.89971960607E+02 0.  0.
          5    1    3    3  502    0  0.26177734270E+02  0.47751246603E+02 -0.69107058227E+02  0.88083558173E+02  0.41800000000E+01 0. -1.
         -5    1    3    3    0  502 -0.59513551589E+02 -0.28940035195E+02 -0.16749675355E+02  0.68391611213E+02  0.41800000000E+01 0. -1.
        -11    1    4    4    0    0  0.19293287719E+02  0.19860996648E+02 -0.12371231891E+03  0.12677313591E+03  0.00000000000E+00 0. -1.
         11    1    4    4    0    0  0.14042529600E+02 -0.38672208056E+02 -0.16868425753E+02  0.44466572849E+02  0.00000000000E+00 0.  1.
</event>
<event>
 8    1  0.7039283E-009  0.1474901E+03  0.7561462E-02  0.1203592E+00
          2   -1    0    0  501    0  0.00000000000E+00  0.00000000000E+00  0.27690707732E+03  0.27690707732E+03  0.00000000000E+00 0.  1.
         -2   -1    0    0    0  501 -0.00000000000E+00 -0.00000000000E+00 -0.13402617536E+03  0.13402617536E+03  0.00000000000E+00 0. -1.
         25    2    1    2    0    0 -0.28063463362E+02 -0.12813507609E+03 -0.20078038564E+02  0.18236427645E+03  0.12508975175E+03 0.  0.
         23    2    1    2    0    0  0.28063463362E+02  0.12813507609E+03  0.16295894052E+03  0.22856897623E+03  0.92097800736E+02 0.  0.
          5    1    3    3  502    0 -0.15274842972E+02 -0.13443663996E+03 -0.53682417216E+02  0.14562213194E+03  0.41800000000E+01 0.  1.
         -5    1    3    3    0  502 -0.12788620389E+02  0.63015638743E+01  0.33604378652E+02  0.36742144512E+02  0.41800000000E+01 0.  1.
        -11    1    4    4    0    0 -0.42174163965E+01  0.10489717168E+03  0.66604227396E+02  0.12432749629E+03  0.00000000000E+00 0. -1.
         11    1    4    4    0    0  0.32280879758E+02  0.23237904413E+02  0.96354713123E+02  0.10424147994E+03  0.00000000000E+00 0.  1.
</event>
<event>
 8    1  0.7039283E-009  0.1018446E+03  0.7561462E-02  0.1276464E+00
         -2   -1    0    0    0  501 -0.00000000000E+00  0.00000000000E+00  0.32502711477E+03  0.32502711477E+03  0.00000000000E+00 0.  1.
          2   -1    0    0  501    0  0.00000000000E+00 -0.00000000000E+00 -0.95387613196E+02  0.95387613196E+02  0.00000000000E+00 0. -1.
         25    2    1    2    0    0  0.72519095680E+02 -0.18124109998E+02  0.25980752921E+03  0.29788434930E+03  0.12509049012E+03 0.  0.
         23    2    1    2    0    0 -0.72519095680E+02  0.18124109998E+02 -0.30168027634E+02  0.12253037867E+03  0.92282615941E+02 0.  0.
          5    1    3    3  502    0  0.41498596759E+02  0.10459839455E+02  0.95312302201E+01  0.44043825037E+02  0.41800000000E+01 0. -1.
         -5    1    3    3    0  502  0.31020498921E+02 -0.28583949453E+02  0.25027629899E+03  0.25384052426E+03  0.41800000000E+01 0. -1.
        -11    1    4    4    0    0  0.77702049249E+01 -0.25686603705E+02 -0.23976887633E+01  0.26943025180E+02  0.00000000000E+00 0. -1.
         11    1    4    4    0    0 -0.80289300605E+02  0.43810713703E+02 -0.27770338870E+02  0.95587353493E+02  0.00000000000E+00 0.  1.
</event>
<event>
 8    1  0.7039283E-009  0.1117739E+03  0.7561462E-02  0.1257320E+00
         -2   -1    0    0    0  501 -0.00000000000E+00  0.00000000000E+00  0.40539152965E+02  0.40539152965E+02  0.00000000000E+00 0. -1.
          2   -1    0    0  501    0  0.00000000000E+00 -0.00000000000E+00 -0.44369412585E+03  0.44369412585E+03  0.00000000000E+00 0.  1.
         25    2    1    2    0    0 -0.55789560379E+02  0.52178504622E+01 -0.32491041160E+03  0.35263915535E+03  0.12509155571E+03 0.  0.
         23    2    1    2    0    0  0.55789560379E+02 -0.52178504622E+01 -0.78244561286E+02  0.13159412346E+03  0.89750214200E+02 0.  0.
          5    1    3    3  502    0 -0.73684211506E+02  0.36193986283E+02 -0.29368332855E+03  0.30497006007E+03  0.41800000000E+01 0. -1.
         -5    1    3    3    0  502  0.17894651127E+02 -0.30976135821E+02 -0.31227083044E+02  0.47669095280E+02  0.41800000000E+01 0. -1.
        -11    1    4    4    0    0  0.78348650649E+02 -0.16562196813E+02 -0.64628523475E+02  0.10290609053E+03  0.00000000000E+00 0.  1.
         11    1    4    4    0    0 -0.22559090270E+02  0.11344346351E+02 -0.13616037811E+02  0.28688032933E+02  0.00000000000E+00 0. -1.
</event>
<event>
 8    1  0.7039283E-009  0.9790521E+02  0.7561462E-02  0.1284764E+00
         -3   -1    0    0    0  501 -0.00000000000E+00  0.00000000000E+00  0.83873940555E+02  0.83873940555E+02  0.00000000000E+00 0.  1.
          3   -1    0    0  501    0  0.00000000000E+00 -0.00000000000E+00 -0.24954070419E+03  0.24954070419E+03  0.00000000000E+00 0. -1.
         25    2    1    2    0    0  0.31922807088E+02  0.78752285387E+01  0.12465237898E+02  0.12992150487E+03  0.12507250072E+03 0.  0.
         23    2    1    2    0    0 -0.31922807088E+02 -0.78752285387E+01 -0.17813200153E+03  0.20349313987E+03  0.92721967017E+02 0.  0.
          5    1    3    3  502    0 -0.17974071315E+02  0.42827828231E+02 -0.30083145107E+02  0.55495568563E+02  0.41800000000E+01 0.  1.
         -5    1    3    3    0  502  0.49896878402E+02 -0.34952599692E+02  0.42548383005E+02  0.74425936312E+02  0.41800000000E+01 0.  1.
        -11    1    4    4    0    0 -0.88600386759E+01 -0.44202620940E+02 -0.13597591928E+03  0.14325439821E+03  0.00000000000E+00 0.  1.
         11    1    4    4    0    0 -0.23062768412E+02  0.36327392402E+02 -0.42156082250E+02  0.60238741655E+02  0.00000000000E+00 0. -1.
</event>
<event>
 8    1  0.7039283E-009  0.9526435E+02  0.7561462E-02  0.1290582E+00
          1   -1    0    0  501    0  0.00000000000E+00  0.00000000000E+00  0.12734075943E+03  0.12734075943E+03  0.00000000000E+00 0. -1.
         -1   -1    0    0    0  501 -0.00000000000E+00 -0.00000000000E+00 -0.12140694532E+03  0.12140694532E+03  0.00000000000E+00 0.  1.
         25    2    1    2    0    0 -0.40634991819E+02 -0.43098023168E+02 -0.98645746484E+01  0.13876036236E+03  0.12509390940E+03 0.  0.
         23    2    1    2    0    0  0.40634991819E+02  0.43098023168E+02  0.15798388754E+02  0.10998734239E+03  0.91318038946E+02 0.  0.
          5    1    3    3  502    0  0.41446120799E+02 -0.17040845936E+02 -0.24599430420E+02  0.51291088276E+02  0.41800000000E+01 0.  1.
         -5    1    3    3    0  502 -0.82081112618E+02 -0.26057177232E+02  0.14734855772E+02  0.87469274083E+02  0.41800000000E+01 0.  1.
        -11    1    4    4    0    0  0.15802487898E+02  0.14761064527E+02 -0.38346201161E+02  0.44023162008E+02  0.00000000000E+00 0.  1.
         11    1    4    4    0    0  0.24832503921E+02  0.28336958640E+02  0.54144589915E+02  0.65964180379E+02  0.00000000000E+00 0. -1.
</event>
<event>
 8    1  0.7039283E-009  0.1243488E+03  0.7561462E-02  0.1236091E+00
         -3   -1    0    0    0  501 -0.00000000000E+00  0.00000000000E+00  0.41033093025E+03  0.41033093025E+03  0.00000000000E+00 0.  1.
          3   -1    0    0  501    0  0.00000000000E+00 -0.00000000000E+00 -0.57225229859E+02  0.57225229859E+02  0.00000000000E+00 0. -1.
         25    2    1    2    0    0 -0.97451032394E+02 -0.50338411871E+01  0.11788881370E+03  0.19764535868E+03  0.12507546578E+03 0.  0.
         23    2    1    2    0    0  0.97451032394E+02  0.50338411871E+01  0.23521688669E+03  0.26991080143E+03  0.89458446613E+02 0.  0.
          5    1    3    3  502    0 -0.10576577495E+03  0.41505171034E+01  0.31843687616E+02  0.11061247120E+03  0.41800000000E+01 0. -1.
         -5    1    3    3    0  502  0.83147425587E+01 -0.91843582905E+01  0.86045126080E+02  0.87032887480E+02  0.41800000000E+01 0. -1.
        -11    1    4    4    0    0  0.11068641028E+03 -0.81825818399E+01  0.17852681719E+03  0.21021479615E+03  0.00000000000E+00 0.  1.
         11    1    4    4    0    0 -0.13235377885E+02  0.13216423027E+02  0.56690069509E+02  0.59696005279E+02  0.00000000000E+00 0. -1.
</event>
<event>
 8    1  0.7039283E-009  0.3603382E+03  0.7561462E-02  0.1058450E+00
          2   -1    0    0  501    0  0.00000000000E+00  0.00000000000E+00  0.89207536183E+03  0.89207536183E+03  0.00000000000E+00 0. -1.
         -2   -1    0    0    0  501 -0.00000000000E+00 -0.00000000000E+00 -0.15936102321E+03  0.15936102321E+03  0.00000000000E+00 0.  1.
         25    2    1    2    0    0  0.85994350471E+02 -0.34642099907E+03  0.44313463421E+03  0.58259776877E+03  0.12509723913E+03 0.  0.
         23    2    1    2    0    0 -0.85994350471E+02  0.34642099907E+03  0.28957970442E+03  0.46883861627E+03  0.92470027510E+02 0.  0.
          5    1    3    3  502    0  0.47269447518E+02 -0.70719279007E+02  0.43781766113E+02  0.95759764702E+02  0.41800000000E+01 0.  1.
         -5    1    3    3    0  502  0.38724902953E+02 -0.27570172006E+03  0.39935286809E+03  0.48683800407E+03  0.41800000000E+01 0.  1.
        -11    1    4    4    0    0 -0.36411545010E+02  0.16718433672E+03  0.80732159914E+02  0.18919324697E+03  0.00000000000E+00 0.  1.
         11    1    4    4    0    0 -0.49582805461E+02  0.17923666235E+03  0.20884754450E+03  0.27964536930E+03  0.00000000000E+00 0. -1.
</event>
<event>
 8    1  0.7039283E-009  0.7575521E+02  0.7561462E-02  0.1341548E+00
         -1   -1    0    0    0  501 -0.00000000000E+00  0.00000000000E+00  0.36695543443E+03  0.36695543443E+03  0.00000000000E+00 0.  1.
          1   -1    0    0  501    0  0.00000000000E+00 -0.00000000000E+00 -0.34868227114E+02  0.34868227114E+02  0.00000000000E+00 0. -1.
         25    2    1    2    0    0 -0.10639760022E+01 -0.30355754662E+02  0.20968390772E+03  0.24604400069E+03  0.12509078797E+03 0.  0.
         23    2    1    2    0    0  0.10639760022E+01  0.30355754662E+02  0.12240329960E+03  0.15577966085E+03  0.91444688727E+02 0.  0.
          5    1    3    3  502    0 -0.94237444407E+01  0.39619433890E+02  0.24146028138E+02  0.47529039291E+02  0.41800000000E+01 0.  1.
         -5    1    3    3    0  502  0.83597684386E+01 -0.69975188553E+02  0.18553787958E+03  0.19851496140E+03  0.41800000000E+01 0.  1.
        -11    1    4    4    0    0 -0.12336055106E+02  0.11671478720E+02 -0.11114777767E+02  0.20296303996E+02  0.00000000000E+00 0.  1.
         11    1    4    4    0    0  0.13400031108E+02  0.18684275942E+02  0.13351807737E+03  0.13548335686E+03  0.00000000000E+00 0. -1.
</event>
<event>
 8    1  0.7039283E-009  0.9937041E+02  0.7561462E-02  0.1281625E+00
         -2   -1    0    0    0  501 -0.00000000000E+00  0.00000000000E+00  0.78463757881E+02  0.78463757881E+02  0.00000000000E+00 0.  1.
          2   -1    0    0  501    0  0.00000000000E+00 -0.00000000000E+00 -0.20530468855E+03  0.20530468855E+03  0.00000000000E+00 0. -1.
         25    2    1    2    0    0  0.24021644933E+02 -0.43482222129E+02 -0.12005938997E+03  0.18036574770E+03  0.12509917169E+03 0.  0.
         23    2    1    2    0    0 -0.24021644933E+02  0.43482222129E+02 -0.67815406947E+01  0.10340269873E+03  0.90434427867E+02 0.  0.
          5    1    3    3  502    0 -0.22242097646E+02  0.14055311317E+02  0.11838321932E+02  0.29152717713E+02  0.41800000000E+01 0. -1.
         -5    1    3    3    0  502  0.46263742579E+02 -0.57537533446E+02 -0.13189771191E+03  0.15121302999E+03  0.41800000000E+01 0. -1.
        -11    1    4    4    0    0 -0.45876329099E+01  0.67274617971E+02 -0.19438644030E+02  0.70176787334E+02  0.00000000000E+00 0. -1.
         11    1    4    4    0    0 -0.19434012023E+02 -0.23792395842E+02  0.12657103335E+02  0.33225911395E+02  0.00000000000E+00 0.  1.
</event>
<event>
 8    1  0.7039283E-009  0.1093424E+03  0.7561462E-02  0.1261792E+00
          3   -1    0    0  501    0  0.00000000000E+00  0.00000000000E+00  0.47925020808E+03  0.47925020808E+03  0.00000000000E+00 0. -1.
         -3   -1    0    0    0  501 -0.00000000000E+00 -0.00000000000E+00 -0.29902339748E+02  0.29902339748E+02  0.00000000000E+00 0.  1.
         25    2    1    2    0    0 -0.14954700682E+02  0.39304867578E+01  0.15275083690E+03  0.19803938370E+03  0.12509071718E+03 0.  0.
         23    2    1    2    0    0  0.14954700682E+02 -0.39304867578E+01  0.29659703143E+03  0.31111316413E+03  0.92641837421E+02 0.  0.
          5    1    3    3  502    0 -0.49857575194E+02  0.47371082165E+02  0.70290502043E+02  0.98427761872E+02  0.41800000000E+01 0. -1.
         -5    1    3    3    0  502  0.34902874512E+02 -0.43440595407E+02  0.82460334860E+02  0.99611621830E+02  0.41800000000E+01 0. -1.
        -11    1    4    4    0    0  0.33373916808E+02  0.36509968114E+02  0.15297307764E+03  0.16077175927E+03  0.00000000000E+00 0.  1.
         11    1    4    4    0    0 -0.18419216126E+02 -0.40440454872E+02  0.14362395379E+03  0.15034140486E+03  0.00000000000E+00 0. -1.
</event>
<event>
 8    1  0.7039283E-009  0.8230654E+02  0.7561462E-02  0.1322630E+00
          2   -1    0    0  501    0  0.00000000000E+00  0.00000000000E+00  0.14643814082E+03  0.14643814082E+03  0.00000000000E+00 0. -1.
         -2   -1    0    0    0  501 -0.00000000000E+00 -0.00000000000E+00 -0.75936358391E+02  0.75936358391E+02  0.00000000000E+00 0.  1.
         25    2    1    2    0    0 -0.97331619175E+01 -0.50878423762E+01  0.25866698301E+02  0.12820930984E+03  0.12509164827E+03 0.  0.
         23    2    1    2    0    0  0.97331619175E+01  0.50878423762E+01  0.44635084124E+02  0.94165189369E+02  0.82183767091E+02 0.  0.
          5    1    3    3  502    0 -0.46160337742E+02 -0.81162982045E+01 -0.33922378937E+02  0.58007338068E+02  0.41800000000E+01 0.  1.
         -5    1    3    3    0  502  0.36427175825E+02  0.30284558284E+01  0.59789077238E+02  0.70201971769E+02  0.41800000000E+01 0.  1.
        -11    1    4    4    0    0  0.26049928624E+02  0.36809878213E+02  0.35363750360E+02  0.57307597707E+02  0.00000000000E+00 0.  1.
         11    1    4    4    0    0 -0.16316766707E+02 -0.31722035837E+02  0.92713337633E+01  0.36857591662E+02  0.00000000000E+00 0. -1.
</event>
<event>
 8    1  0.7039283E-009  0.9746506E+02  0.7561462E-02  0.1285719E+00
          2   -1    0    0  501    0  0.00000000000E+00  0.00000000000E+00  0.34506792317E+03  0.34506792317E+03  0.00000000000E+00 0. -1.
         -2   -1    0    0    0  501 -0.00000000000E+00 -0.00000000000E+00 -0.45462775828E+02  0.45462775828E+02  0.00000000000E+00 0.  1.
         25    2    1    2    0    0  0.49110527062E+02  0.16897563352E+02  0.15377364248E+03  0.20491441631E+03  0.12508482471E+03 0.  0.
         23    2    1    2    0    0 -0.49110527062E+02 -0.16897563352E+02  0.14583150486E+03  0.18561628269E+03  0.10241682027E+03 0.  0.
          5    1    3    3  502    0  0.68705314135E+02  0.56869745933E+02  0.87852960744E+02  0.12526054169E+03  0.41800000000E+01 0. -1.
         -5    1    3    3    0  502 -0.19594787073E+02 -0.39972182581E+02  0.65920681737E+02  0.79653874616E+02  0.41800000000E+01 0. -1.
        -11    1    4    4    0    0 -0.97422558594E+01  0.94398354945E+01 -0.13653160844E+02  0.19246580071E+02  0.00000000000E+00 0.  1.
         11    1    4    4    0    0 -0.39368271203E+02 -0.26337398847E+02  0.15948466570E+03  0.16636970262E+03  0.00000000000E+00 0. -1.
</event>
<event>
 8    1  0.7039283E-009  0.1349361E+03  0.7561462E-02  0.1220310E+00
          2   -1    0    0  501    0  0.00000000000E+00  0.00000000000E+00  0.36726104961E+02  0.36726104961E+02  0.00000000000E+00 0.  1.
         -2   -1    0    0    0  501 -0.00000000000E+00 -0.00000000000E+00 -0.56261065434E+03  0.56261065434E+03  0.00000000000E+00 0. -1.
         25    2    1    2    0    0  0.88058596999E+02 -0.27021989694E+02 -0.24792664951E+03  0.29257363516E+03  0.12508878457E+03 0.  0.
         23    2    1    2    0    0 -0.88058596999E+02  0.27021989694E+02 -0.27795789988E+03  0.30676312414E+03  0.91424918902E+02 0.  0.
          5    1    3    3  502    0  0.10136850870E+03 -0.58953284854E+02 -0.21332330276E+03  0.24346533275E+03  0.41800000000E+01 0. -1.
         -5    1    3    3    0  502 -0.13309911697E+02  0.31931295160E+02 -0.34603346743E+02  0.49108302412E+02  0.41800000000E+01 0. -1.
        -11    1    4    4    0    0 -0.45874530106E+02 -0.23765672446E+02 -0.60779018562E+02  0.79770726439E+02  0.00000000000E+00 0.  1.
         11    1    4    4    0    0 -0.42184066894E+02  0.50787662140E+02 -0.21717888131E+03  0.22699239770E+03  0.00000000000E+00 0. -1.
</event>
<event>
 8    1  0.7039283E-009  0.1385085E+03  0.7561462E-02  0.1215350E+00
          3   -1    0    0  501    0  0.00000000000E+00  0.00000000000E+00  0.41419044199E+03  0.41419044199E+03  0.00000000000E+00 0. -1.
         -3   -1    0    0    0  501 -0.00000000000E+00 -0.00000000000E+00 -0.67119526006E+02  0.67119526006E+02  0.00000000000E+00 0.  1.
         25    2    1    2    0    0 -0.84482333531E+02  0.25959833530E+02  0.31280588701E+03  0.34829197110E+03  0.12509435060E+03 0.  0.
         23    2    1    2    0    0  0.84482333531E+02 -0.25959833530E+02  0.34265028976E+02  0.13301799689E+03  0.93319438761E+02 0.  0.
          5    1    3    3  502    0 -0.39913655882E+02  0.73160199888E+02  0.13224744960E+03  0.15637255226E+03  0.41800000000E+01 0.  1.
         -5    1    3    3    0  502 -0.44568677650E+02 -0.47200366358E+02  0.18055843740E+03  0.19191941884E+03  0.41800000000E+01 0.  1.
        -11    1    4    4    0    0  0.97788203689E+02 -0.43064018146E+02  0.29047464796E+02  0.11072848618E+03  0.00000000000E+00 0.  1.
         11    1    4    4    0    0 -0.13305870157E+02  0.17104184616E+02  0.52175641800E+01  0.22289510717E+02  0.00000000000E+00 0. -1.
</event>
<event>
 8    1  0.7039283E-009  0.1061934E+03  0.7561462E-02  0.1267786E+00
          1   -1    0    0  501    0  0.00000000000E+00  0.00000000000E+00  0.12170652506E+04  0.12170652506E+04  0.00000000000E+00 0. -1.
         -1   -1    0    0    0  501 -0.00000000000E+00 -0.00000000000E+00 -0.12013194954E+02  0.12013194954E+02  0.00000000000E+00 0.  1.
         25    2    1    2    0    0  0.33454574360E+01  0.26228136529E+02  0.86361042062E+03  0.87302269179E+03  0.12508618845E+03 0.  0.
         23    2    1    2    0    0 -0.33454574360E+01 -0.26228136529E+02  0.34144163503E+03  0.35605575377E+03  0.97438198002E+02 0.  0.
          5    1    3    3  502    0  0.41498704588E+02  0.51240452348E+02  0.70025451766E+03  0.70336447759E+03  0.41800000000E+01 0. -1.
         -5    1    3    3    0  502 -0.38153247152E+02 -0.25012315819E+02  0.16335590296E+03  0.16965821419E+03  0.41800000000E+01 0. -1.
        -11    1    4    4    0    0  0.39898441935E+02  0.13158941261E+02  0.12628794603E+03  0.13309278236E+03  0.00000000000E+00 0.  1.
         11    1    4    4    0    0 -0.43243899371E+02 -0.39387077790E+02  0.21515368900E+03  0.22296297141E+03  0.00000000000E+00 0. -1.
</event>
<event>
 8    1  0.7039283E-009  0.8128201E+02  0.7561462E-02  0.1325452E+00
         -2   -1    0    0    0  501 -0.00000000000E+00  0.00000000000E+00  0.23597475889E+03  0.23597475889E+03  0.00000000000E+00 0.  1.
          2   -1    0    0  501    0  0.00000000000E+00 -0.00000000000E+00 -0.60961601130E+02  0.60961601130E+02  0.00000000000E+00 0. -1.
         25    2    1    2    0    0  0.68287513530E+01  0.16726520071E+02  0.38340506455E+02  0.13207470110E+03  0.12508926380E+03 0.  0.
         23    2    1    2    0    0 -0.68287513530E+01 -0.16726520071E+02  0.13667265130E+03  0.16486165891E+03  0.90407658122E+02 0.  0.
          5    1    3    3  502    0 -0.36902331734E+02 -0.24194118870E+02 -0.19759079147E+02  0.48528662500E+02  0.41800000000E+01 0. -1.
         -5    1    3    3    0  502  0.43731083087E+02  0.40920638941E+02  0.58099585602E+02  0.83546038604E+02  0.41800000000E+01 0. -1.
        -11    1    4    4    0    0 -0.29623495345E+02 -0.19159469896E+02  0.10766672021E+02  0.36885742362E+02  0.00000000000E+00 0. -1.
         11    1    4    4    0    0  0.22794743992E+02  0.24329498255E+01  0.12590597928E+03  0.12797591655E+03  0.00000000000E+00 0.  1.
</event>
<event>
 8    1  0.7039283E-009  0.6299450E+02  0.7561462E-02  0.1385678E+00
          1   -1    0    0  501    0  0.00000000000E+00  0.00000000000E+00  0.96631951099E+03  0.96631951099E+03  0.00000000000E+00 0. -1.
         -1   -1    0    0    0  501 -0.00000000000E+00 -0.00000000000E+00 -0.16862981020E+02  0.16862981020E+02  0.00000000000E+00 0.  1.
         25    2    1    2    0    0  0.30652756650E+02 -0.16186469441E+02  0.73265195455E+03  0.74406263189E+03  0.12509484557E+03 0.  0.
         23    2    1    2    0    0 -0.30652756650E+02  0.16186469441E+02  0.21680457542E+03  0.23911986012E+03  0.94723229975E+02 0.  0.
          5    1    3    3  502    0  0.82550681603E+01 -0.69572535846E+01  0.71160997594E+03  0.71170413782E+03  0.41800000000E+01 0.  1.
         -5    1    3    3    0  502  0.22397688489E+02 -0.92292158559E+01  0.21041978608E+02  0.32358494074E+02  0.41800000000E+01 0.  1.
        -11    1    4    4    0    0 -0.47138836760E+02  0.39345808609E+02  0.88569903198E+02  0.10777193669E+03  0.00000000000E+00 0.  1.
         11    1    4    4    0    0  0.16486080110E+02 -0.23159339168E+02  0.12823467222E+03  0.13134792343E+03  0.00000000000E+00 0. -1.
</event>
<event>
 8    1  0.7039283E-009  0.1575040E+03  0.7561462E-02  0.1191544E+00
          1   -1    0    0  501    0  0.00000000000E+00  0.00000000000E+00  0.72042357581E+02  0.72042357581E+02  0.00000000000E+00 0. -1.
         -1   -1    0    0    0  501 -0.00000000000E+00 -0.00000000000E+00 -0.43366830384E+03  0.43366830384E+03  0.00000000000E+00 0.  1.
         25    2    1    2    0    0 -0.15274150039E+02 -0.12836044385E+03 -0.26556152159E+03  0.32074924213E+03  0.12508977327E+03 0.  0.
         23    2    1    2    0    0  0.15274150039E+02  0.12836044385E+03 -0.96064424671E+02  0.18496141929E+03  0.90954107837E+02 0.  0.
          5    1    3    3  502    0 -0.19484737364E+02  0.10019848368E+02 -0.12438766643E+01  0.22339918993E+02  0.41800000000E+01 0. -1.
         -5    1    3    3    0  502  0.42105873243E+01 -0.13838029222E+03 -0.26431764492E+03  0.29840932314E+03  0.41800000000E+01 0. -1.
        -11    1    4    4    0    0  0.50173363106E+02  0.68589666891E+02 -0.32487576540E+02  0.90979950533E+02  0.00000000000E+00 0.  1.
         11    1    4    4    0    0 -0.34899213066E+02  0.59770776959E+02 -0.63576848131E+02  0.93981468754E+02  0.00000000000E+00 0. -1.
</event>
<event>
 8    1  0.7039283E-009  0.6750830E+02  0.7561462E-02  0.1368777E+00
          1   -1    0    0  501    0  0.00000000000E+00  0.00000000000E+00  0.58284028611E+03  0.58284028611E+03  0.00000000000E+00 0. -1.
         -1   -1    0    0    0  501 -0.00000000000E+00 -0.00000000000E+00 -0.14167709137E+03  0.14167709137E+03  0.00000000000E+00 0.  1.
         25    2    1    2    0    0 -0.24611373047E+02 -0.47827636119E+01  0.55880660747E+03  0.57318549681E+03  0.12509274436E+03 0.  0.
         23    2    1    2    0    0  0.24611373047E+02  0.47827636119E+01 -0.11764341272E+03  0.15133188067E+03  0.91830120547E+02 0.  0.
          5    1    3    3  502    0 -0.49189027907E+01 -0.42009605241E+02  0.49374077498E+03  0.49556677433E+03  0.41800000000E+01 0.  1.
         -5    1    3    3    0  502 -0.19692470257E+02  0.37226841629E+02  0.65065832482E+02  0.77618722477E+02  0.41800000000E+01 0.  1.
        -11    1    4    4    0    0  0.85281347717E+01  0.23802567936E+02 -0.12323635195E+03  0.12580337740E+03  0.00000000000E+00 0.  1.
         11    1    4    4    0    0  0.16083238276E+02 -0.19019804324E+02  0.55929392314E+01  0.25528503270E+02  0.00000000000E+00 0. -1.
</event>
<event>
 8    1  0.7039283E-009  0.9375983E+02  0.7561462E-02  0.1293994E+00
          3   -1    0    0  501    0  0.00000000000E+00  0.00000000000E+00  0.13245740291E+03  0.13245740291E+03  0.00000000000E+00 0. -1.
         -3   -1    0    0    0  501 -0.00000000000E+00 -0.00000000000E+00 -0.97792967177E+02  0.97792967177E+02  0.00000000000E+00 0.  1.
         25    2    1    2    0    0 -0.24287166740E+01  0.28734166942E+02 -0.19052650690E+01  0.12838342706E+03  0.12508846188E+03 0.  0.
         23    2    1    2    0    0  0.24287166740E+01 -0.28734166942E+02  0.36569700806E+02  0.10186694303E+03  0.90597903125E+02 0.  0.
          5    1    3    3  502    0 -0.10488993950E+02 -0.43915965745E+02  0.23262446518E+02  0.50963171599E+02  0.41800000000E+01 0. -1.
         -5    1    3    3    0  502  0.80602772763E+01  0.72650132687E+02 -0.25167711587E+02  0.77420255462E+02  0.41800000000E+01 0. -1.
        -11    1    4    4    0    0 -0.28720838864E+02 -0.24049560676E+02 -0.15878417013E+02  0.40686509811E+02  0.00000000000E+00 0.  1.
         11    1    4    4    0    0  0.31149555538E+02 -0.46846062664E+01  0.52448117820E+02  0.61180433219E+02  0.00000000000E+00 0. -1.
</event>
<event>
 8    1  0.7039283E-009  0.1445023E+03  0.7561462E-02  0.1207396E+00
         -1   -1    0    0    0  501 -0.00000000000E+00  0.00000000000E+00  0.82851307341E+02  0.82851307341E+02  0.00000000000E+00 0.  1.
          1   -1    0    0  501    0  0.00000000000E+00 -0.00000000000E+00 -0.36736519971E+03  0.36736519971E+03  0.00000000000E+00 0. -1.
         25    2    1    2    0    0 -0.11980017336E+03 -0.41451608116E+01 -0.65051929544E+02  0.18506314267E+03  0.12508936542E+03 0.  0.
         23    2    1    2    0    0  0.11980017336E+03  0.41451608116E+01 -0.21946196283E+03  0.26515336438E+03  0.88167395436E+02 0.  0.
          5    1    3    3  502    0  0.66069392131E+01  0.34434479643E+02  0.46025899562E+01  0.35609567090E+02  0.41800000000E+01 0. -1.
         -5    1    3    3    0  502 -0.12640711258E+03 -0.38579640454E+02 -0.69654519500E+02  0.14945357558E+03  0.41800000000E+01 0. -1.
        -11    1    4    4    0    0  0.76167969606E+02  0.12069894415E+02 -0.54752252231E+02  0.94578280115E+02  0.00000000000E+00 0.  1.
         11    1    4    4    0    0  0.43632203757E+02 -0.79247336034E+01 -0.16470971060E+03  0.17057508426E+03  0.00000000000E+00 0. -1.
</event>
<event>
 8    1  0.7039283E-009  0.1370596E+03  0.7561462E-02  0.1217341E+00
         -1   -1    0    0    0  501 -0.00000000000E+00  0.00000000000E+00  0.28155605415E+03  0.28155605415E+03  0.00000000000E+00 0.  1.
          1   -1    0    0  501    0  0.00000000000E+00 -0.00000000000E+00 -0.79034580152E+02  0.79034580152E+02  0.00000000000E+00 0. -1.
         25    2    1    2    0    0  0.85810913842E+02  0.56601843969E+02  0.14381675805E+03  0.21656017476E+03  0.12509103774E+03 0.  0.
         23    2    1    2    0    0 -0.85810913842E+02 -0.56601843969E+02  0.58704715955E+02  0.14403045955E+03  0.82044182771E+02 0.  0.
          5    1    3    3  502    0 -0.42643120444E+01  0.68434671617E+02  0.80064333908E+02  0.10549530132E+03  0.41800000000E+01 0. -1.
         -5    1    3    3    0  502  0.90075225886E+02 -0.11832827649E+02  0.63752424138E+02  0.11106487344E+03  0.41800000000E+01 0. -1.
        -11    1    4    4    0    0 -0.29158634303E+02 -0.49410162896E+02  0.64859308521E+02  0.86592840660E+02  0.00000000000E+00 0.  1.
         11    1    4    4    0    0 -0.56652279539E+02 -0.71916810727E+01 -0.61545925656E+01  0.57437618885E+02  0.00000000000E+00 0. -1.
</event>
<event>
 8    1  0.7039283E-009  0.1355147E+03  0.7561462E-02  0.1219495E+00
         -2   -1    0    0    0  501 -0.00000000000E+00  0.00000000000E+00  0.82918376390E+02  0.82918376390E+02  0.00000000000E+00 0.  1.
          2   -1    0    0  501    0  0.00000000000E+00 -0.00000000000E+00 -0.27452284679E+03  0.27452284679E+03  0.00000000000E+00 0. -1.
         25    2    1    2    0    0  0.97609875996E+02  0.30864687529E+02 -0.12718099028E+03  0.20568115812E+03  0.12509763263E+03 0.  0.
         23    2    1    2    0    0 -0.97609875996E+02 -0.30864687529E+02 -0.64423480118E+02  0.15176006506E+03  0.91653781853E+02 0.  0.
          5    1    3    3  502    0  0.10808847329E+03  0.53027545883E+02 -0.13370474797E+03  0.17997074960E+03  0.41800000000E+01 0.  1.
         -5    1    3    3    0  502 -0.10478597295E+02 -0.22162858354E+02  0.65237576955E+01  0.25710408518E+02  0.41800000000E+01 0.  1.
        -11    1    4    4    0    0 -0.17055499008E+02  0.23113791962E+02  0.90316969959E+01  0.30111608657E+02  0.00000000000E+00 0.  1.
         11    1    4    4    0    0 -0.80554376989E+02 -0.53978479491E+02 -0.73455177114E+02  0.12164845640E+03  0.00000000000E+00 0. -1.
</event>
<event>
 8    1  0.7039283E-009  0.1226316E+03  0.7561462E-02  0.1238818E+00
         -1   -1    0    0    0  501 -0.00000000000E+00  0.00000000000E+00  0.12294224174E+03  0.12294224174E+03  0.00000000000E+00 0.  1.
          1   -1    0    0  501    0  0.00000000000E+00 -0.00000000000E+00 -0.21797232396E+03  0.21797232396E+03  0.00000000000E+00 0. -1.
         25    2    1    2    0    0  0.68594100294E+02 -0.74667438158E+02  0.15605728287E+02  0.16176678100E+03  0.12507827854E+03 0.  0.
         23    2    1    2    0    0 -0.68594100294E+02  0.74667438158E+02 -0.11063581051E+03  0.17914778470E+03  0.97843084994E+02 0.  0.
          5    1    3    3  502    0  0.30032871617E+02 -0.12567060477E+02  0.65431747301E+02  0.73203076038E+02  0.41800000000E+01 0. -1.
         -5    1    3    3    0  502  0.38561228676E+02 -0.62100377681E+02 -0.49826019014E+02  0.88563704958E+02  0.41800000000E+01 0. -1.
        -11    1    4    4    0    0 -0.99869189233E+01  0.79770025599E+02 -0.77316536397E+02  0.11153852399E+03  0.00000000000E+00 0.  1.
         11    1    4    4    0    0 -0.58607181370E+02 -0.51025874412E+01 -0.33319274109E+02  0.67609260711E+02  0.00000000000E+00 0. -1.
</event>
<event>
 8    1  0.7039283E-009  0.1059003E+03  0.7561462E-02  0.1268356E+00
          2   -1    0    0  501    0  0.00000000000E+00  0.00000000000E+00  0.71694537163E+03  0.71694537163E+03  0.00000000000E+00 0. -1.
         -2   -1    0    0    0  501 -0.00000000000E+00 -0.00000000000E+00 -0.19982579490E+02  0.19982579490E+02  0.00000000000E+00 0.  1.
         25    2    1    2    0    0 -0.15124828960E+01 -0.47374044975E+02  0.35364168858E+03  0.37809490978E+03  0.12508688644E+03 0.  0.
         23    2    1    2    0    0  0.15124828960E+01  0.47374044975E+02  0.34332110356E+03  0.35883304133E+03  0.92979479799E+02 0.  0.
          5    1    3    3  502    0 -0.20362008633E+02 -0.84243369402E+02  0.18415816074E+03  0.20357617064E+03  0.41800000000E+01 0. -1.
         -5    1    3    3    0  502  0.18849525737E+02  0.36869324427E+02  0.16948352784E+03  0.17451873915E+03  0.41800000000E+01 0. -1.
        -11    1    4    4    0    0 -0.26102320996E+02  0.49243644625E+02  0.31240467188E+03  0.31733727595E+03  0.00000000000E+00 0. -1.
         11    1    4    4    0    0  0.27614803892E+02 -0.18695996495E+01  0.30916431675E+02  0.41495765378E+02  0.00000000000E+00 0.  1.
</event>
<event>
 8    1  0.7039283E-009  0.2598586E+03  0.7561462E-02  0.1107228E+00
          2   -1    0    0  501    0  0.00000000000E+00  0.00000000000E+00  0.13673120791E+03  0.13673120791E+03  0.00000000000E+00 0. -1.
         -2   -1    0    0    0  501 -0.00000000000E+00 -0.00000000000E+00 -0.60869283803E+03  0.60869283803E+03  0.00000000000E+00 0.  1.
         25    2    1    2    0    0  0.59215713304E+02 -0.25153879990E+03 -0.32655960589E+03  0.43481586286E+03  0.12508153275E+03 0.  0.
         23    2    1    2    0    0 -0.59215713304E+02  0.25153879990E+03 -0.14540202423E+03  0.31060818308E+03  0.92506357568E+02 0.  0.
          5    1    3    3  502    0  0.90179070037E+01 -0.21378948255E+02 -0.11745873575E+03  0.11980154039E+03  0.41800000000E+01 0.  1.
         -5    1    3    3    0  502  0.50197806300E+02 -0.23015985165E+03 -0.20910087014E+03  0.31501432247E+03  0.41800000000E+01 0.  1.
        -11    1    4    4    0    0 -0.60797092496E+02  0.20156380421E+03 -0.15269794497E+03  0.26007867276E+03  0.00000000000E+00 0. -1.
         11    1    4    4    0    0  0.15813791924E+01  0.49974995691E+02  0.72959207427E+01  0.50529510328E+02  0.00000000000E+00 0.  1.
</event>
<event>
 8    1  0.7039283E-009  0.2222921E+03  0.7561462E-02  0.1132186E+00
          2   -1    0    0  501    0  0.00000000000E+00  0.00000000000E+00  0.60887999153E+03  0.60887999153E+03  0.00000000000E+00 0. -1.
         -2   -1    0    0    0  501 -0.00000000000E+00 -0.00000000000E+00 -0.10773399010E+03  0.10773399010E+03  0.00000000000E+00 0.  1.
         25    2    1    2    0    0 -0.33725319082E+02  0.20000316703E+03  0.10032776966E+03  0.25855976191E+03  0.12509526429E+03 0.  0.
         23    2    1    2    0    0  0.33725319082E+02 -0.20000316703E+03  0.40081823178E+03  0.45805421972E+03  0.89553053033E+02 0.  0.
          5    1    3    3  502    0 -0.26474803686E+02 -0.38372783855E+01 -0.71001279361E+01  0.27991501430E+02  0.41800000000E+01 0.  1.
         -5    1    3    3    0  502 -0.72505153963E+01  0.20384044542E+03  0.10742789759E+03  0.23056826048E+03  0.41800000000E+01 0.  1.
        -11    1    4    4    0    0 -0.19865049085E+02 -0.72874351782E+02  0.20535981296E+03  0.21881029250E+03  0.00000000000E+00 0. -1.
         11    1    4    4    0    0  0.53590368167E+02 -0.12712881525E+03  0.19545841882E+03  0.23924392722E+03  0.00000000000E+00 0.  1.
</event>
<event>
 8    1  0.7039283E-009  0.1682007E+03  0.7561462E-02  0.1179737E+00
          1   -1    0    0  501    0  0.00000000000E+00  0.00000000000E+00  0.39495296610E+03  0.39495296610E+03  0.00000000000E+00 0. -1.
         -1   -1    0    0    0  501 -0.00000000000E+00 -0.00000000000E+00 -0.76025144465E+02  0.76025144465E+02  0.00000000000E+00 0.  1.
         25    2    1    2    0    0  0.13330335850E+03 -0.11215632721E+02  0.15054558632E+03  0.23707930024E+03  0.12508814987E+03 0.  0.
         23    2    1    2    0    0 -0.13330335850E+03  0.11215632721E+02  0.16838223532E+03  0.23389881033E+03  0.91980979003E+02 0.  0.
          5    1    3    3  502    0 -0.96501489757E+01  0.31690172741E+02  0.34136882656E+02  0.47751351615E+02  0.41800000000E+01 0. -1.
         -5    1    3    3    0  502  0.14295350747E+03 -0.42905805462E+02  0.11640870366E+03  0.18932794862E+03  0.41800000000E+01 0. -1.
        -11    1    4    4    0    0 -0.93249171737E+02  0.42885359679E+02  0.73808666301E+02  0.12642104780E+03  0.00000000000E+00 0. -1.
         11    1    4    4    0    0 -0.40054186759E+02 -0.31669726958E+02  0.94573569014E+02  0.10747776253E+03  0.00000000000E+00 0.  1.
</event>
<event>
 8    1  0.7039283E-009  0.1892895E+03  0.7561462E-02  0.1159104E+00
         -1   -1    0    0    0  501 -0.00000000000E+00  0.00000000000E+00  0.12436575497E+03  0.12436575497E+03  0.00000000000E+00 0.  1.
          1   -1    0    0  501    0  0.00000000000E+00 -0.00000000000E+00 -0.42475882326E+03  0.42475882326E+03  0.00000000000E+00 0. -1.
         25    2    1    2    0    0 -0.16178416458E+03 -0.43253219577E+02 -0.28856255603E+03  0.35631584008E+03  0.12509065606E+03 0.  0.
         23    2    1    2    0    0  0.16178416458E+03  0.43253219577E+02 -0.11830512258E+02  0.19280873815E+03  0.94817148091E+02 0.  0.
          5    1    3    3  502    0 -0.15511963688E+03 -0.12633734924E+02 -0.28467030316E+03  0.32446319808E+03  0.41800000000E+01 0.  1.
         -5    1    3    3    0  502 -0.66645277053E+01 -0.30619484652E+02 -0.38922528663E+01  0.31852641998E+02  0.41800000000E+01 0.  1.
        -11    1    4    4    0    0  0.72194508340E+02 -0.27358147371E+02  0.56274981034E+01  0.77409198400E+02  0.00000000000E+00 0.  1.
         11    1    4    4    0    0  0.89589656242E+02  0.70611366948E+02 -0.17458010362E+02  0.11539953975E+03  0.00000000000E+00 0. -1.
</event>
<event>
 8    1  0.7039283E-009  0.7215148E+02  0.7561462E-02  0.1352926E+00
          2   -1    0    0  501    0  0.00000000000E+00  0.00000000000E+00  0.22238931246E+03  0.22238931246E+03  0.00000000000E+00 0. -1.
         -2   -1    0    0    0  501 -0.00000000000E+00 -0.00000000000E+00 -0.76854944567E+02  0.76854944567E+02  0.00000000000E+00 0.  1.
         25    2    1    2    0    0  0.40158211613E+02  0.20085825829E+02  0.15262924512E+02  0.13377664198E+03  0.12508841160E+03 0.  0.
         23    2    1    2    0    0 -0.40158211613E+02 -0.20085825829E+02  0.13027144339E+03  0.16546761505E+03  0.91612009633E+02 0.  0.
          5    1    3    3  502    0  0.54301406466E+01  0.95258542172E+00 -0.53686159375E+02  0.54130120588E+02  0.41800000000E+01 0.  1.
         -5    1    3    3    0  502  0.34728070966E+02  0.19133240407E+02  0.68949083887E+02  0.79646521395E+02  0.41800000000E+01 0.  1.
        -11    1    4    4    0    0  0.26831331648E+02  0.21850728814E+01  0.60467893812E+02  0.66189584404E+02  0.00000000000E+00 0. -1.
         11    1    4    4    0    0 -0.66989543261E+02 -0.22270898710E+02  0.69803549573E+02  0.99278030644E+02  0.00000000000E+00 0.  1.
</event>
<event>
 8    1  0.7039283E-009  0.1822287E+03  0.7561462E-02  0.1165663E+00
          2   -1    0    0  501    0  0.00000000000E+00  0.00000000000E+00  0.32319821704E+03  0.32319821704E+03  0.00000000000E+00 0. -1.
         -2   -1    0    0    0  501 -0.00000000000E+00 -0.00000000000E+00 -0.15354642717E+03  0.15354642717E+03  0.00000000000E+00 0.  1.
         25    2    1    2    0    0 -0.32102595068E+02  0.16963919859E+03  0.18247229795E+03  0.28062667026E+03  0.12508858555E+03 0.  0.
         23    2    1    2    0    0  0.32102595068E+02 -0.16963919859E+03 -0.12820508073E+02  0.19611797395E+03  0.92140436121E+02 0.  0.
          5    1    3    3  502    0 -0.22796068370E+02  0.13305750995E+03  0.51976502003E+02  0.14471693352E+03  0.41800000000E+01 0. -1.
         -5    1    3    3    0  502 -0.93065266978E+01  0.36581688647E+02  0.13049579594E+03  0.13590973675E+03  0.41800000000E+01 0. -1.
        -11    1    4    4    0    0 -0.21690112371E+02 -0.11857949731E+02 -0.15897496587E+02  0.29390514529E+02  0.00000000000E+00 0.  1.
         11    1    4    4    0    0  0.53792707439E+02 -0.15778124886E+03  0.30769885138E+01  0.16672745942E+03  0.00000000000E+00 0. -1.
</event>
<event>
 8    1  0.7039283E-009  0.7636535E+02  0.7561462E-02  0.1339694E+00
          1   -1    0    0  501    0  0.00000000000E+00  0.00000000000E+00  0.71509064986E+03  0.71509064986E+03  0.00000000000E+00 0.  1.
         -1   -1    0    0    0  501 -0.00000000000E+00 -0.00000000000E+00 -0.28684184160E+02  0.28684184160E+02  0.00000000000E+00 0. -1.
         25    2    1    2    0    0 -0.16195470745E+02 -0.54444934310E+02  0.56952660501E+03  0.58586219915E+03  0.12508964156E+03 0.  0.
         23    2    1    2    0    0  0.16195470745E+02  0.54444934310E+02  0.11687986069E+03  0.15791263487E+03  0.89715964428E+02 0.  0.
          5    1    3    3  502    0  0.62847628948E+01 -0.24803321812E+02  0.14759003458E+02  0.29832928127E+02  0.41800000000E+01 0. -1.
         -5    1    3    3    0  502 -0.22480233640E+02 -0.29641612498E+02  0.55476760155E+03  0.55602927102E+03  0.41800000000E+01 0. -1.
        -11    1    4    4    0    0 -0.11810612617E+02  0.59714059444E+02  0.32822909852E+02  0.69156365411E+02  0.00000000000E+00 0. -1.
         11    1    4    4    0    0  0.28006083362E+02 -0.52691251340E+01  0.84056950835E+02  0.88756269461E+02  0.00000000000E+00 0.  1.
</event>
<event>
 8    1  0.7039283E-009  0.1017597E+03  0.7561462E-02  0.1276639E+00
         -1   -1    0    0    0  501 -0.00000000000E+00  0.00000000000E+00  0.20406718028E+02  0.20406718028E+02  0.00000000000E+00 0.  1.
          1   -1    0    0  501    0  0.00000000000E+00 -0.00000000000E+00 -0.85825960300E+03  0.85825960300E+03  0.00000000000E+00 0. -1.
         25    2    1    2    0    0 -0.49874721852E+02  0.29808611740E+02 -0.63058826685E+03  0.64549687890E+03  0.12509443299E+03 0.  0.
         23    2    1    2    0    0  0.49874721852E+02 -0.29808611740E+02 -0.20726461812E+03  0.23316944213E+03  0.89628821276E+02 0.  0.
          5    1    3    3  502    0 -0.42297426850E+02  0.55330844851E+02 -0.60266347930E+03  0.60668881347E+03  0.41800000000E+01 0.  1.
         -5    1    3    3    0  502 -0.75772950023E+01 -0.25522233111E+02 -0.27924787551E+02  0.38808065428E+02  0.41800000000E+01 0.  1.
        -11    1    4    4    0    0 -0.12290527975E+02 -0.41728411160E+02 -0.86420524450E+02  0.96751353592E+02  0.00000000000E+00 0.  1.
         11    1    4    4    0    0  0.62165249827E+02  0.11919799420E+02 -0.12084409367E+03  0.13641808853E+03  0.00000000000E+00 0. -1.
</event>
<event>
 8    1  0.7039283E-009  0.9684025E+02  0.7561462E-02  0.1287084E+00
          2   -1    0    0  501    0  0.00000000000E+00  0.00000000000E+00  0.38101961586E+03  0.38101961586E+03  0.00000000000E+00 0. -1.
         -2   -1    0    0    0  501 -0.00000000000E+00 -0.00000000000E+00 -0.39058049370E+02  0.39058049370E+02  0.00000000000E+00 0.  1.
         25    2    1    2    0    0  0.24914745840E+02 -0.26905072173E+02  0.12747632384E+03  0.18231698464E+03  0.12507854444E+03 0.  0.
         23    2    1    2    0    0 -0.24914745840E+02  0.26905072173E+02  0.21448524265E+03  0.23776068060E+03  0.95820636882E+02 0.  0.
          5    1    3    3  502    0  0.10830712524E+02  0.33260691131E+02 -0.54716966568E+01  0.35650943502E+02  0.41800000000E+01 0. -1.
         -5    1    3    3    0  502  0.14084033316E+02 -0.60165763304E+02  0.13294802050E+03  0.14666604114E+03  0.41800000000E+01 0. -1.
        -11    1    4    4    0    0  0.29199362464E+02  0.30577592602E+02  0.55445570356E+02  0.69726631998E+02  0.00000000000E+00 0. -1.
         11    1    4    4    0    0 -0.54114108304E+02 -0.36725204287E+01  0.15903967230E+03  0.16803404860E+03  0.00000000000E+00 0.  1.
</event>
<event>
 8    1  0.7039283E-009  0.7272850E+02  0.7561462E-02  0.1351053E+00
         -2   -1    0    0    0  501 -0.00000000000E+00  0.00000000000E+00  0.81928511889E+02  0.81928511889E+02  0.00000000000E+00 0.  1.
          2   -1    0    0  501    0  0.00000000000E+00 -0.00000000000E+00 -0.19316435881E+03  0.19316435881E+03  0.00000000000E+00 0. -1.
         25    2    1    2    0    0  0.55023688579E+02 -0.15815859504E+02 -0.31201710257E+02  0.14106188245E+03  0.12508860956E+03 0.  0.
         23    2    1    2    0    0 -0.55023688579E+02  0.15815859504E+02 -0.80034136666E+02  0.13403098825E+03  0.91000522314E+02 0.  0.
          5    1    3    3  502    0 -0.17305634054E+01 -0.23403019254E+02  0.41842614315E+02  0.48155715472E+02  0.41800000000E+01 0.  1.
         -5    1    3    3    0  502  0.56754251984E+02  0.75871597501E+01 -0.73044324571E+02  0.92906166983E+02  0.41800000000E+01 0.  1.
        -11    1    4    4    0    0 -0.33082156682E+02 -0.55952014085E+01  0.13071183521E+02  0.36008210288E+02  0.00000000000E+00 0.  1.
         11    1    4    4    0    0 -0.21941531897E+02  0.21411060913E+02 -0.93105320186E+02  0.98022777957E+02  0.00000000000E+00 0. -1.
</event>
<event>
 8    1  0.7039283E-009  0.7974604E+02  0.7561462E-02  0.1329774E+00
          1   -1    0    0  501    0  0.00000000000E+00  0.00000000000E+00  0.41128849410E+03  0.41128849410E+03  0.00000000000E+00 0. -1.
         -1   -1    0    0    0  501 -0.00000000000E+00 -0.00000000000E+00 -0.32500765168E+02  0.32500765168E+02  0.00000000000E+00 0.  1.
         25    2    1    2    0    0 -0.13852218429E+02  0.24929636878E+02  0.16958761433E+03  0.21265228024E+03  0.12509061758E+03 0.  0.
         23    2    1    2    0    0  0.13852218429E+02 -0.24929636878E+02  0.20920011460E+03  0.23113697902E+03  0.94054475569E+02 0.  0.
          5    1    3    3  502    0 -0.39595251240E+02  0.35985837141E+02  0.15328660957E+02  0.55814018331E+02  0.41800000000E+01 0.  1.
         -5    1    3    3    0  502  0.25743032811E+02 -0.11056200263E+02  0.15425895337E+03  0.15683826191E+03  0.41800000000E+01 0.  1.
        -11    1    4    4    0    0  0.33548564973E+02  0.12010922912E+02  0.17030659087E+03  0.17399454984E+03  0.00000000000E+00 0. -1.
         11    1    4    4    0    0 -0.19696346544E+02 -0.36940559790E+02  0.38893523725E+02  0.57142429180E+02  0.00000000000E+00 0.  1.
</event>
<event>
 8    1  0.7039283E-009  0.8824406E+02  0.7561462E-02  0.1307161E+00
         -1   -1    0    0    0  501 -0.00000000000E+00  0.00000000000E+00  0.18696024781E+02  0.18696024781E+02  0.00000000000E+00 0. -1.
          1   -1    0    0  501    0  0.00000000000E+00 -0.00000000000E+00 -0.68297175262E+03  0.68297175262E+03  0.00000000000E+00 0.  1.
         25    2    1    2    0    0 -0.19367838516E+02  0.12734452328E+02 -0.42016976757E+03  0.43900760653E+03  0.12509102913E+03 0.  0.
         23    2    1    2    0    0  0.19367838516E+02 -0.12734452328E+02 -0.24410596027E+03  0.26266017087E+03  0.94156072968E+02 0.  0.
          5    1    3    3  502    0 -0.38809207935E+02  0.36345561112E+02 -0.39659620361E+03  0.40016643481E+03  0.41800000000E+01 0.  1.
         -5    1    3    3    0  502  0.19441369419E+02 -0.23611108784E+02 -0.23573563965E+02  0.38841171724E+02  0.41800000000E+01 0.  1.
        -11    1    4    4    0    0  0.42757716093E+02  0.23775912544E+02 -0.88461349551E+02  0.10108870692E+03  0.00000000000E+00 0.  1.
         11    1    4    4    0    0 -0.23389877577E+02 -0.36510364872E+02 -0.15564461072E+03  0.16157146395E+03  0.00000000000E+00 0. -1.
</event>
<event>
 8    1  0.7039283E-009  0.2033888E+03  0.7561462E-02  0.1146911E+00
         -1   -1    0    0    0  501 -0.00000000000E+00  0.00000000000E+00  0.77732890525E+02  0.77732890525E+02  0.00000000000E+00 0.  1.
          1   -1    0    0  501    0  0.00000000000E+00 -0.00000000000E+00 -0.70140115269E+03  0.70140115269E+03  0.00000000000E+00 0. -1.
         25    2    1    2    0    0 -0.16090782239E+03 -0.10434324911E+03 -0.19350485007E+03  0.29978359725E+03  0.12508891733E+03 0.  0.
         23    2    1    2    0    0  0.16090782239E+03  0.10434324911E+03 -0.43016341209E+03  0.47935044596E+03  0.89204529009E+02 0.  0.
          5    1    3    3  502    0 -0.10312486689E+03 -0.42765451676E+02 -0.29942357043E+02  0.11566174464E+03  0.41800000000E+01 0.  1.
         -5    1    3    3    0  502 -0.57782955502E+02 -0.61577797437E+02 -0.16356249303E+03  0.18412185261E+03  0.41800000000E+01 0.  1.
        -11    1    4    4    0    0  0.94182374611E+02  0.96562001029E+01 -0.17053079785E+03  0.19504951911E+03  0.00000000000E+00 0.  1.
         11    1    4    4    0    0  0.66725447782E+02  0.94687049010E+02 -0.25963261424E+03  0.28430092685E+03  0.00000000000E+00 0. -1.
</event>
<event>
 8    1  0.7039283E-009  0.9209711E+02  0.7561462E-02  0.1297851E+00
          2   -1    0    0  501    0  0.00000000000E+00  0.00000000000E+00  0.24005504195E+03  0.24005504195E+03  0.00000000000E+00 0. -1.
         -2   -1    0    0    0  501 -0.00000000000E+00 -0.00000000000E+00 -0.58527610330E+02  0.58527610330E+02  0.00000000000E+00 0.  1.
         25    2    1    2    0    0 -0.82205820130E-01  0.51699911974E+02  0.92654644666E+02  0.16402820051E+03  0.12508988660E+03 0.  0.
         23    2    1    2    0    0  0.82205820130E-01 -0.51699911974E+02  0.88872786953E+02  0.13455445177E+03  0.86796547014E+02 0.  0.
          5    1    3    3  502    0  0.55192052097E+02  0.42513937394E+02  0.20826774449E+02  0.72834225618E+02  0.41800000000E+01 0. -1.
         -5    1    3    3    0  502 -0.55274257917E+02  0.91859745799E+01  0.71827870218E+02  0.91193974895E+02  0.41800000000E+01 0. -1.
        -11    1    4    4    0    0  0.12842090089E+02 -0.34382149469E+02 -0.60740122382E+01  0.37201412670E+02  0.00000000000E+00 0.  1.
         11    1    4    4    0    0 -0.12759884269E+02 -0.17317762505E+02  0.94946799191E+02  0.97353039096E+02  0.00000000000E+00 0. -1.
</event>
<event>
 8    1  0.7039283E-009  0.9967519E+02  0.7561462E-02  0.1280980E+00
          3   -1    0    0  501    0  0.00000000000E+00  0.00000000000E+00  0.57072017830E+03  0.57072017830E+03  0.00000000000E+00 0. -1.
         -3   -1    0    0    0  501 -0.00000000000E+00 -0.00000000000E+00 -0.39069549861E+02  0.39069549861E+02  0.00000000000E+00 0.  1.
         25    2    1    2    0    0  0.20505431316E+02  0.90104364328E+01  0.49110344013E+03  0.50727856456E+03  0.12508913809E+03 0.  0.
         23    2    1    2    0    0 -0.20505431316E+02 -0.90104364328E+01  0.40547188310E+02  0.10251116361E+03  0.91448365247E+02 0.  0.
          5    1    3    3  502    0  0.52735135508E+02 -0.25319985913E+02  0.12429728910E+03  0.13743865789E+03  0.41800000000E+01 0. -1.
         -5    1    3    3    0  502 -0.32229704191E+02  0.34330422346E+02  0.36680615103E+03  0.36983990667E+03  0.41800000000E+01 0. -1.
        -11    1    4    4    0    0  0.36122619143E+02 -0.22493705722E+00  0.95724567974E+01  0.37370123623E+02  0.00000000000E+00 0.  1.
         11    1    4    4    0    0 -0.56628050460E+02 -0.87854993756E+01  0.30974731513E+02  0.65141039986E+02  0.00000000000E+00 0. -1.
</event>
<event>
 8    1  0.7039283E-009  0.2539620E+03  0.7561462E-02  0.1110826E+00
         -1   -1    0    0    0  501 -0.00000000000E+00  0.00000000000E+00  0.15486351779E+03  0.15486351779E+03  0.00000000000E+00 0.  1.
          1   -1    0    0  501    0  0.00000000000E+00 -0.00000000000E+00 -0.52733676605E+03  0.52733676605E+03  0.00000000000E+00 0. -1.
         25    2    1    2    0    0 -0.15245733227E+03  0.18275219427E+03 -0.32593169933E+03  0.42251627879E+03  0.12508769140E+03 0.  0.
         23    2    1    2    0    0  0.15245733227E+03 -0.18275219427E+03 -0.46541548933E+02  0.25968400505E+03  0.92887372805E+02 0.  0.
          5    1    3    3  502    0  0.10120448233E+02  0.67109143216E+02 -0.10180294598E+03  0.12242292590E+03  0.41800000000E+01 0.  1.
         -5    1    3    3    0  502 -0.16257778050E+03  0.11564305106E+03 -0.22412875335E+03  0.30009335289E+03  0.41800000000E+01 0.  1.
        -11    1    4    4    0    0  0.91330196940E+02 -0.83168029182E+02 -0.67815098531E+02  0.14091491596E+03  0.00000000000E+00 0.  1.
         11    1    4    4    0    0  0.61127135329E+02 -0.99584165090E+02  0.21273549599E+02  0.11876908909E+03  0.00000000000E+00 0. -1.
</event>
<event>
 8    1  0.7039283E-009  0.1398498E+03  0.7561462E-02  0.1213531E+00
          1   -1    0    0  501    0  0.00000000000E+00  0.00000000000E+00  0.16910163075E+03  0.16910163075E+03  0.00000000000E+00 0. -1.
         -1   -1    0    0    0  501 -0.00000000000E+00 -0.00000000000E+00 -0.23255066851E+03  0.23255066851E+03  0.00000000000E+00 0.  1.
         25    2    1    2    0    0 -0.67241847351E+02 -0.10392387978E+03 -0.14412453776E+03  0.22746383303E+03  0.12508506757E+03 0.  0.
         23    2    1    2    0    0  0.67241847351E+02  0.10392387978E+03  0.80675500001E+02  0.17418846622E+03  0.92257501813E+02 0.  0.
          5    1    3    3  502    0 -0.69573480612E+01 -0.54845696306E+02 -0.13876516330E+03  0.14943124854E+03  0.41800000000E+01 0.  1.
         -5    1    3    3    0  502 -0.60284499290E+02 -0.49078183474E+02 -0.53593744616E+01  0.78032584491E+02  0.41800000000E+01 0.  1.
        -11    1    4    4    0    0  0.37274974327E+02 -0.10005764249E+01 -0.19140492415E+01  0.37337493873E+02  0.00000000000E+00 0. -1.
         11    1    4    4    0    0  0.29966873024E+02  0.10492445620E+03  0.82589549242E+02  0.13685097235E+03  0.00000000000E+00 0.  1.
</event>
<event>
 8    1  0.7039283E-009  0.1315306E+03  0.7561462E-02  0.1225202E+00
          1   -1    0    0  501    0  0.00000000000E+00  0.00000000000E+00  0.21185363562E+03  0.21185363562E+03  0.00000000000E+00 0. -1.
         -1   -1    0    0    0  501 -0.00000000000E+00 -0.00000000000E+00 -0.12273816701E+03  0.12273816701E+03  0.00000000000E+00 0.  1.
         25    2    1    2    0    0  0.78155488646E+02 -0.33718585143E+02  0.13496961800E+03  0.20274320749E+03  0.12507112780E+03 0.  0.
         23    2    1    2    0    0 -0.78155488646E+02  0.33718585143E+02 -0.45854149390E+02  0.13184859514E+03  0.89644997823E+02 0.  0.
          5    1    3    3  502    0 -0.17453622464E+02  0.27100872563E+02  0.55356327906E+02  0.64194093732E+02  0.41800000000E+01 0.  1.
         -5    1    3    3    0  502  0.95609111111E+02 -0.60819457707E+02  0.79613290095E+02  0.13854911376E+03  0.41800000000E+01 0.  1.
        -11    1    4    4    0    0  0.33954997134E+01  0.35433768568E+02 -0.34359224461E+02  0.49473605880E+02  0.00000000000E+00 0. -1.
         11    1    4    4    0    0 -0.81550988360E+02 -0.17151834244E+01 -0.11494924929E+02  0.82374989261E+02  0.00000000000E+00 0.  1.
</event>
<event>
 8    1  0.7039283E-009  0.7203611E+02  0.7561462E-02  0.1353303E+00
          2   -1    0    0  501    0  0.00000000000E+00  0.00000000000E+00  0.11145091816E+03  0.11145091816E+03  0.00000000000E+00 0. -1.
         -2   -1    0    0    0  501 -0.00000000000E+00 -0.00000000000E+00 -0.12185261845E+03  0.12185261845E+03  0.00000000000E+00 0.  1.
         25    2    1    2    0    0  0.34322343544E+02  0.17857096354E+02 -0.19431063275E+01  0.13095469096E+03  0.12509378988E+03 0.  0.
         23    2    1    2    0    0 -0.34322343544E+02 -0.17857096354E+02 -0.84585939627E+01  0.10234884564E+03  0.94376052232E+02 0.  0.
          5    1    3    3  502    0  0.16538124022E+02 -0.17668218504E+01 -0.62456232639E+02  0.64767928800E+02  0.41800000000E+01 0. -1.
         -5    1    3    3    0  502  0.17784219521E+02  0.19623918204E+02  0.60513126312E+02  0.66186762163E+02  0.41800000000E+01 0. -1.
        -11    1    4    4    0    0  0.28068260323E+02  0.12501840218E+02  0.64117571490E+01  0.31388435388E+02  0.00000000000E+00 0. -1.
         11    1    4    4    0    0 -0.62390603866E+02 -0.30358936572E+02 -0.14870351112E+02  0.70960410249E+02  0.00000000000E+00 0.  1.
</event>
<event>
 8    1  0.7039283E-009  0.1129878E+03  0.7561462E-02  0.1255135E+00
          3   -1    0    0  501    0  0.00000000000E+00  0.00000000000E+00  0.19020605344E+03  0.19020605344E+03  0.00000000000E+00 0. -1.
         -3   -1    0    0    0  501 -0.00000000000E+00 -0.00000000000E+00 -0.69646038871E+02  0.69646038871E+02  0.00000000000E+00 0.  1.
         25    2    1    2    0    0 -0.37030848948E+02 -0.14987384256E+02  0.67513210074E+02  0.14765256452E+03  0.12508933133E+03 0.  0.
         23    2    1    2    0    0  0.37030848948E+02  0.14987384256E+02  0.53046804495E+02  0.11219952779E+03  0.90437078179E+02 0.  0.
          5    1    3    3  502    0  0.15821947633E+02 -0.59517318200E+02  0.37209264390E+02  0.72073899222E+02  0.41800000000E+01 0.  1.
         -5    1    3    3    0  502 -0.52852796581E+02  0.44529933944E+02  0.30303945684E+02  0.75578665294E+02  0.41800000000E+01 0.  1.
        -11    1    4    4    0    0  0.64648253179E+02  0.18321161298E+02  0.50904912989E+02  0.84299298673E+02  0.00000000000E+00 0.  1.
         11    1    4    4    0    0 -0.27617404230E+02 -0.33337770418E+01  0.21418915058E+01  0.27900229121E+02  0.00000000000E+00 0. -1.
</event>
<event>
 8    1  0.7039283E-009  0.1448992E+03  0.7561462E-02  0.1206885E+00
          1   -1    0    0  501    0  0.00000000000E+00  0.00000000000E+00  0.52311068663E+03  0.52311068663E+03  0.00000000000E+00 0. -1.
         -1   -1    0    0    0  501 -0.00000000000E+00 -0.00000000000E+00 -0.41500237192E+02  0.41500237192E+02  0.00000000000E+00 0.  1.
         25    2    1    2    0    0 -0.53622461342E+02  0.78410133383E+02  0.22249370273E+03  0.27234783257E+03  0.12508547786E+03 0.  0.
         23    2    1    2    0    0  0.53622461342E+02 -0.78410133383E+02  0.25911674670E+03  0.29226309125E+03  0.96191001181E+02 0.  0.
          5    1    3    3  502    0 -0.31135516923E+02  0.11202591900E+03  0.16813751508E+03  0.20446741383E+03  0.41800000000E+01 0.  1.
         -5    1    3    3    0  502 -0.22486944419E+02 -0.33615785616E+02  0.54356187655E+02  0.67880418739E+02  0.41800000000E+01 0.  1.
        -11    1    4    4    0    0  0.76339877536E+01 -0.85864573705E+02  0.19304626477E+03  0.21141869153E+03  0.00000000000E+00 0. -1.
         11    1    4    4    0    0  0.45988473588E+02  0.74544403214E+01  0.66070481933E+02  0.80844399721E+02  0.00000000000E+00 0.  1.
</event>
<event>
 8    1  0.7039283E-009  0.1035703E+03  0.7561462E-02  0.1272962E+00
          2   -1    0    0  501    0  0.00000000000E+00  0.00000000000E+00  0.63247736321E+02  0.63247736321E+02  0.00000000000E+00 0. -1.
         -2   -1    0    0    0  501 -0.00000000000E+00 -0.00000000000E+00 -0.24101943963E+03  0.24101943963E+03  0.00000000000E+00 0.  1.
         25    2    1    2    0    0 -0.49537158582E+02 -0.48312240322E+01 -0.98344571869E+02  0.16672294364E+03  0.12509042455E+03 0.  0.
         23    2    1    2    0    0  0.49537158582E+02  0.48312240322E+01 -0.79427131439E+02  0.13754423231E+03  0.10066019981E+03 0.  0.
          5    1    3    3  502    0 -0.45579806064E+02  0.46306929205E+02 -0.12000785794E+02  0.66206809868E+02  0.41800000000E+01 0. -1.
         -5    1    3    3    0  502 -0.39573525182E+01 -0.51138153237E+02 -0.86343786075E+02  0.10051613378E+03  0.41800000000E+01 0. -1.
        -11    1    4    4    0    0  0.57407162716E+02 -0.22852665152E+02 -0.10268570308E+02  0.62636013377E+02  0.00000000000E+00 0. -1.
         11    1    4    4    0    0 -0.78700041335E+01  0.27683889185E+02 -0.69158561132E+02  0.74908218930E+02  0.00000000000E+00 0.  1.
</event>
<event>
 8    1  0.7039283E-009  0.1338847E+03  0.7561462E-02  0.1221803E+00
         -1   -1    0    0    0  501 -0.00000000000E+00  0.00000000000E+00  0.12648490527E+02  0.12648490527E+02  0.00000000000E+00 0.  1.
          1   -1    0    0  501    0  0.00000000000E+00 -0.00000000000E+00 -0.19893786907E+04  0.19893786907E+04  0.00000000000E+00 0. -1.
         25    2    1    2    0    0 -0.35162120588E+02 -0.77831627986E+02 -0.15583810073E+04  0.15657244673E+04  0.12509039353E+03 0.  0.
         23    2    1    2    0    0  0.35162120588E+02  0.77831627986E+02 -0.41834919281E+03  0.43630271387E+03  0.89721089830E+02 0.  0.
          5    1    3    3  502    0 -0.26810657127E+01 -0.10471543809E+03 -0.92348460083E+03  0.92941583344E+03  0.41800000000E+01 0.  1.
         -5    1    3    3    0  502 -0.32481054876E+02  0.26883810106E+02 -0.63489640651E+03  0.63630863390E+03  0.41800000000E+01 0.  1.
        -11    1    4    4    0    0 -0.21785754722E+02 -0.26798838920E+01 -0.43850795800E+02  0.49037671017E+02  0.00000000000E+00 0.  1.
         11    1    4    4    0    0  0.56947875311E+02  0.80511511878E+02 -0.37449839701E+03  0.38726504285E+03  0.00000000000E+00 0. -1.
</event>
<event>
 8    1  0.7039283E-009  0.9435489E+02  0.7561462E-02  0.1292636E+00
          1   -1    0    0  501    0  0.00000000000E+00  0.00000000000E+00  0.37398745178E+02  0.37398745178E+02  0.00000000000E+00 0. -1.
         -1   -1    0    0    0  501 -0.00000000000E+00 -0.00000000000E+00 -0.36929230663E+03  0.36929230663E+03  0.00000000000E+00 0.  1.
         25    2    1    2    0    0 -0.33025295656E+02  0.30469051492E+02 -0.20059433900E+03  0.24063889444E+03  0.12509978189E+03 0.  0.
         23    2    1    2    0    0  0.33025295656E+02 -0.30469051492E+02 -0.13129922245E+03  0.16605215736E+03  0.91185524600E+02 0.  0.
          5    1    3    3  502    0 -0.53432250592E+02  0.22893692603E+01 -0.19840318412E+03  0.20552747379E+03  0.41800000000E+01 0. -1.
         -5    1    3    3    0  502  0.20406954936E+02  0.28179682231E+02 -0.21911548803E+01  0.35111420651E+02  0.41800000000E+01 0. -1.
        -11    1    4    4    0    0 -0.20069297189E+02 -0.41223833157E+02 -0.45588356264E+02  0.64656626394E+02  0.00000000000E+00 0.  1.
         11    1    4    4    0    0  0.53094592844E+02  0.10754781665E+02 -0.85710866185E+02  0.10139553097E+03  0.00000000000E+00 0. -1.
</event>
<event>
 8    1  0.7039283E-009  0.2045816E+03  0.7561462E-02  0.1145930E+00
         -1   -1    0    0    0  501 -0.00000000000E+00  0.00000000000E+00  0.17926040833E+03  0.17926040833E+03  0.00000000000E+00 0.  1.
          1   -1    0    0  501    0  0.00000000000E+00 -0.00000000000E+00 -0.24967213867E+03  0.24967213867E+03  0.00000000000E+00 0. -1.
         25    2    1    2    0    0  0.68584366852E+02  0.16630261429E+03 -0.24538878014E+02  0.22047710002E+03  0.12509044808E+03 0.  0.
         23    2    1    2    0    0 -0.68584366852E+02 -0.16630261429E+03 -0.45872852328E+02  0.20845544698E+03  0.94810230969E+02 0.  0.
          5    1    3    3  502    0  0.39480347179E+02 -0.15667666916E+01  0.19780951491E+02  0.44383679581E+02  0.41800000000E+01 0.  1.
         -5    1    3    3    0  502  0.29104019673E+02  0.16786938098E+03 -0.44319829505E+02  0.17609342044E+03  0.41800000000E+01 0.  1.
        -11    1    4    4    0    0 -0.43668579626E+02 -0.15774897733E+02 -0.29486390829E+02  0.55002177131E+02  0.00000000000E+00 0. -1.
         11    1    4    4    0    0 -0.24915787226E+02 -0.15052771656E+03 -0.16386461499E+02  0.15345326985E+03  0.00000000000E+00 0.  1.
</event>
<event>
 8    1  0.7039283E-009  0.1017590E+03  0.7561462E-02  0.1276640E+00
         -2   -1    0    0    0  501 -0.00000000000E+00  0.00000000000E+00  0.27683380332E+02  0.27683380332E+02  0.00000000000E+00 0.  1.
          2   -1    0    0  501    0  0.00000000000E+00 -0.00000000000E+00 -0.43504938842E+03  0.43504938842E+03  0.00000000000E+00 0. -1.
         25    2    1    2    0    0  0.69556804319E+01  0.21651073854E+01 -0.19559129415E+03  0.23228748457E+03  0.12509377265E+03 0.  0.
         23    2    1    2    0    0 -0.69556804319E+01 -0.21651073854E+01 -0.21177471393E+03  0.23044528418E+03  0.90572790404E+02 0.  0.
          5    1    3    3  502    0  0.27348979702E+02 -0.52143726664E+02 -0.57312569102E+02  0.82274770728E+02  0.41800000000E+01 0. -1.
         -5    1    3    3    0  502 -0.20393299271E+02  0.54308834050E+02 -0.13827872505E+03  0.15001271384E+03  0.41800000000E+01 0. -1.
        -11    1    4    4    0    0 -0.36183700410E+02  0.26915548204E+02 -0.74241969393E+02  0.86865280348E+02  0.00000000000E+00 0.  1.
         11    1    4    4    0    0  0.29228019978E+02 -0.29080655589E+02 -0.13753274454E+03  0.14358000383E+03  0.00000000000E+00 0. -1.
</event>
<event>
 8    1  0.7039283E-009  0.1386184E+03  0.7561462E-02  0.1215200E+00
         -2   -1    0    0    0  501 -0.00000000000E+00  0.00000000000E+00  0.17517255656E+02  0.17517255656E+02  0.00000000000E+00 0.  1.
          2   -1    0    0  501    0  0.00000000000E+00 -0.00000000000E+00 -0.15770425833E+04  0.15770425833E+04  0.00000000000E+00 0. -1.
         25    2    1    2    0    0  0.48785823946E+02 -0.11531009339E+03 -0.86695840655E+03  0.88483921022E+03  0.12508826880E+03 0.  0.
         23    2    1    2    0    0 -0.48785823946E+02  0.11531009339E+03 -0.69256692112E+03  0.70972062877E+03  0.91531177275E+02 0.  0.
          5    1    3    3  502    0  0.38362088263E+02 -0.74690989970E+02 -0.20539160272E+03  0.22193146841E+03  0.41800000000E+01 0. -1.
         -5    1    3    3    0  502  0.10423735683E+02 -0.40619103419E+02 -0.66156680383E+03  0.66290774181E+03  0.41800000000E+01 0. -1.
        -11    1    4    4    0    0 -0.70089650317E+02  0.61859885593E+02 -0.34585028292E+03  0.35826194708E+03  0.00000000000E+00 0.  1.
         11    1    4    4    0    0  0.21303826371E+02  0.53450207795E+02 -0.34671663820E+03  0.35145868169E+03  0.00000000000E+00 0. -1.
</event>
<event>
 8    1  0.7039283E-009  0.8220354E+02  0.7561462E-02  0.1322912E+00
         -2   -1    0    0    0  501 -0.00000000000E+00  0.00000000000E+00  0.36963139456E+02  0.36963139456E+02  0.00000000000E+00 0.  1.
          2   -1    0    0  501    0  0.00000000000E+00 -0.00000000000E+00 -0.44041162674E+03  0.44041162674E+03  0.00000000000E+00 0. -1.
         25    2    1    2    0    0 -0.46857931895E+02  0.36196232267E+02 -0.17686865279E+03  0.22457968982E+03  0.12509070201E+03 0.  0.
         23    2    1    2    0    0  0.46857931895E+02 -0.36196232267E+02 -0.22657983450E+03  0.25279507638E+03  0.95189790563E+02 0.  0.
          5    1    3    3  502    0 -0.20247099263E+02  0.11590562810E+02 -0.18556623676E+03  0.18707374696E+03  0.41800000000E+01 0.  1.
         -5    1    3    3    0  502 -0.26610832632E+02  0.24605669457E+02  0.86975839774E+01  0.37505942861E+02  0.41800000000E+01 0.  1.
        -11    1    4    4    0    0  0.71594921747E+02 -0.34371014288E+02 -0.12394772229E+03  0.14720814279E+03  0.00000000000E+00 0.  1.
         11    1    4    4    0    0 -0.24736989852E+02 -0.18252179790E+01 -0.10263211221E+03  0.10558693359E+03  0.00000000000E+00 0. -1.
</event>
<event>
 8    1  0.7039283E-009  0.1740457E+03  0.7561462E-02  0.1173693E+00
          2   -1    0    0  501    0  0.00000000000E+00  0.00000000000E+00  0.13411617235E+04  0.13411617235E+04  0.00000000000E+00 0. -1.
         -2   -1    0    0    0  501 -0.00000000000E+00 -0.00000000000E+00 -0.25642927621E+02  0.25642927621E+02  0.00000000000E+00 0.  1.
         25    2    1    2    0    0 -0.78906891624E+02 -0.11296584665E+03  0.91006201035E+03  0.92889597385E+03  0.12508911822E+03 0.  0.
         23    2    1    2    0    0  0.78906891624E+02  0.11296584665E+03  0.40545678550E+03  0.43790867724E+03  0.91549028613E+02 0.  0.
          5    1    3    3  502    0 -0.10576860215E+03 -0.56137084256E+02  0.67432106101E+03  0.68488300837E+03  0.41800000000E+01 0.  1.
         -5    1    3    3    0  502  0.26861710526E+02 -0.56828762393E+02  0.23574094933E+03  0.24401296547E+03  0.41800000000E+01 0.  1.
        -11    1    4    4    0    0  0.15794719631E+02  0.99500951205E+02  0.25633652707E+03  0.27542390522E+03  0.00000000000E+00 0.  1.
         11    1    4    4    0    0  0.63112171993E+02  0.13464895444E+02  0.14912025843E+03  0.16248477201E+03  0.00000000000E+00 0. -1.
</event>
<event>
 8    1  0.7039283E-009  0.1153617E+03  0.7561462E-02  0.1250951E+00
          2   -1    0    0  501    0  0.00000000000E+00  0.00000000000E+00  0.11119246360E+04  0.11119246360E+04  0.00000000000E+00 0. -1.
         -2   -1    0    0    0  501 -0.00000000000E+00 -0.00000000000E+00 -0.12742628481E+02  0.12742628481E+02  0.00000000000E+00 0.  1.
         25    2    1    2    0    0 -0.88089883311E+01 -0.37291776833E+02  0.69376859755E+03  0.70599631513E+03  0.12509058773E+03 0.  0.
         23    2    1    2    0    0  0.88089883311E+01  0.37291776833E+02  0.40541340999E+03  0.41867094937E+03  0.97247395607E+02 0.  0.
          5    1    3    3  502    0  0.12759779621E+02 -0.80523090062E+02  0.39902486043E+03  0.40728993561E+03  0.41800000000E+01 0.  1.
         -5    1    3    3    0  502 -0.21568767952E+02  0.43231313229E+02  0.29474373712E+03  0.29870637952E+03  0.41800000000E+01 0.  1.
        -11    1    4    4    0    0 -0.29602453256E+02  0.51695860457E+02  0.29328111621E+03  0.29927007928E+03  0.00000000000E+00 0.  1.
         11    1    4    4    0    0  0.38411441587E+02 -0.14404083625E+02  0.11213229378E+03  0.11940087009E+03  0.00000000000E+00 0. -1.
</event>
<event>
 8    1  0.7039283E-009  0.9740935E+02  0.7561462E-02  0.1285840E+00
          4   -1    0    0  501    0  0.00000000000E+00  0.00000000000E+00  0.48996111848E+03  0.48996111848E+03  0.00000000000E+00 0. -1.
         -4   -1    0    0    0  501 -0.00000000000E+00 -0.00000000000E+00 -0.26001955999E+02  0.26001955999E+02  0.00000000000E+00 0.  1.
         25    2    1    2    0    0  0.14005856966E+02 -0.25491077188E+02  0.29849251363E+03  0.32495300426E+03  0.12510281868E+03 0.  0.
         23    2    1    2    0    0 -0.14005856966E+02  0.25491077188E+02  0.16546664885E+03  0.19101007022E+03  0.90882759619E+02 0.  0.
          5    1    3    3  502    0  0.46731967565E+02  0.22753624644E+02  0.60415267546E+02  0.79806523415E+02  0.41800000000E+01 0. -1.
         -5    1    3    3    0  502 -0.32726110599E+02 -0.48244701831E+02  0.23807724608E+03  0.24514648085E+03  0.41800000000E+01 0. -1.
        -11    1    4    4    0    0 -0.46624935854E+02  0.21572105870E+02  0.52872652807E+02  0.73720809884E+02  0.00000000000E+00 0.  1.
         11    1    4    4    0    0  0.32619078889E+02  0.39189713172E+01  0.11259399605E+03  0.11728926033E+03  0.00000000000E+00 0. -1.
</event>
<event>
 8    1  0.7039283E-009  0.1860018E+03  0.7561462E-02  0.1162118E+00
          2   -1    0    0  501    0  0.00000000000E+00  0.00000000000E+00  0.92693059633E+03  0.92693059633E+03  0.00000000000E+00 0.  1.
         -2   -1    0    0    0  501 -0.00000000000E+00 -0.00000000000E+00 -0.45113460348E+02  0.45113460348E+02  0.00000000000E+00 0. -1.
         25    2    1    2    0    0 -0.48977191103E+02 -0.16127686127E+03  0.37194172502E+03  0.42708031531E+03  0.12509179702E+03 0.  0.
         23    2    1    2    0    0  0.48977191103E+02  0.16127686127E+03  0.50987541096E+03  0.54496374137E+03  0.92755342030E+02 0.  0.
          5    1    3    3  502    0 -0.61418850428E+02 -0.15120736370E+03  0.37611491347E+03  0.41001931974E+03  0.41800000000E+01 0.  1.
         -5    1    3    3    0  502  0.12441659326E+02 -0.10069497578E+02 -0.41731884426E+01  0.17060995575E+02  0.41800000000E+01 0.  1.
        -11    1    4    4    0    0 -0.22324783137E+02  0.84601446177E+02  0.22028334646E+03  0.23702437293E+03  0.00000000000E+00 0. -1.
         11    1    4    4    0    0  0.71301974240E+02  0.76675415097E+02  0.28959206450E+03  0.30793936843E+03  0.00000000000E+00 0.  1.
</event>
<event>
 8    1  0.7039283E-009  0.4822240E+03  0.7561462E-02  0.1018526E+00
         -1   -1    0    0    0  501 -0.00000000000E+00  0.00000000000E+00  0.18442306502E+03  0.18442306502E+03  0.00000000000E+00 0.  1.
          1   -1    0    0  501    0  0.00000000000E+00 -0.00000000000E+00 -0.12702629078E+04  0.12702629078E+04  0.00000000000E+00 0. -1.
         25    2    1    2    0    0 -0.46484704793E+03  0.77344848081E+02 -0.52056766897E+03  0.71323371714E+03  0.12508650524E+03 0.  0.
         23    2    1    2    0    0  0.46484704793E+03 -0.77344848081E+02 -0.56527217382E+03  0.74145225568E+03  0.90298468781E+02 0.  0.
          5    1    3    3  502    0 -0.69533085399E+02 -0.28684455736E+02 -0.11142821306E+03  0.13450415247E+03  0.41800000000E+01 0. -1.
         -5    1    3    3    0  502 -0.39531396253E+03  0.10602930382E+03 -0.40913945591E+03  0.57872956467E+03  0.41800000000E+01 0. -1.
        -11    1    4    4    0    0  0.14966613520E+03  0.17447883555E+02 -0.17898990514E+03  0.23396958522E+03  0.00000000000E+00 0.  1.
         11    1    4    4    0    0  0.31518091273E+03 -0.94792731636E+02 -0.38628226868E+03  0.50748267046E+03  0.00000000000E+00 0. -1.
</event>
<event>
 8    1  0.7039283E-009  0.9437853E+02  0.7561462E-02  0.1292582E+00
         -1   -1    0    0    0  501 -0.00000000000E+00  0.00000000000E+00  0.15691852503E+03  0.15691852503E+03  0.00000000000E+00 0.  1.
          1   -1    0    0  501    0  0.00000000000E+00 -0.00000000000E+00 -0.19506800953E+03  0.19506800953E+03  0.00000000000E+00 0. -1.
         25    2    1    2    0    0 -0.72660184562E+02  0.13358028628E+02  0.95915668505E+02  0.17408377394E+03  0.12508959004E+03 0.  0.
         23    2    1    2    0    0  0.72660184562E+02 -0.13358028628E+02 -0.13406515301E+03  0.17790276062E+03  0.90653117062E+02 0.  0.
          5    1    3    3  502    0 -0.37552923662E+02 -0.34522964057E+02  0.10213377010E+03  0.11424025787E+03  0.41800000000E+01 0. -1.
         -5    1    3    3    0  502 -0.35107260901E+02  0.47880992685E+02 -0.62181015973E+01  0.59843516073E+02  0.41800000000E+01 0. -1.
        -11    1    4    4    0    0  0.37326071741E+02  0.59396834481E+01  0.13253744128E+00  0.37795939428E+02  0.00000000000E+00 0.  1.
         11    1    4    4    0    0  0.35334112821E+02 -0.19297712076E+02 -0.13419769045E+03  0.14010682119E+03  0.00000000000E+00 0. -1.
</event>
<event>
 8    1  0.7039283E-009  0.1040435E+03  0.7561462E-02  0.1272016E+00
          2   -1    0    0  501    0  0.00000000000E+00  0.00000000000E+00  0.21731730068E+03  0.21731730068E+03  0.00000000000E+00 0.  1.
         -2   -1    0    0    0  501 -0.00000000000E+00 -0.00000000000E+00 -0.59449992769E+02  0.59449992769E+02  0.00000000000E+00 0. -1.
         25    2    1    2    0    0  0.14161371386E+02 -0.21268840385E+02  0.61295088422E+02  0.14162267679E+03  0.12508791590E+03 0.  0.
         23    2    1    2    0    0 -0.14161371386E+02  0.21268840385E+02  0.96572219490E+02  0.13514461666E+03  0.91021787640E+02 0.  0.
          5    1    3    3  502    0  0.35197795899E+02 -0.59794678740E+02  0.67741756710E+02  0.97060323737E+02  0.41800000000E+01 0.  1.
         -5    1    3    3    0  502 -0.21036424513E+02  0.38525838356E+02 -0.64466682873E+01  0.44562353050E+02  0.41800000000E+01 0.  1.
        -11    1    4    4    0    0 -0.34329708450E+02 -0.26017423996E+02  0.41678242066E+02  0.59937559972E+02  0.00000000000E+00 0.  1.
         11    1    4    4    0    0  0.20168337064E+02  0.47286264380E+02  0.54893977424E+02  0.75207056693E+02  0.00000000000E+00 0. -1.
</event>
<event>
 8    1  0.7039283E-009  0.1722804E+03  0.7561462E-02  0.1175490E+00
         -1   -1    0    0    0  501 -0.00000000000E+00  0.00000000000E+00  0.14142546412E+03  0.14142546412E+03  0.00000000000E+00 0.  1.
          1   -1    0    0  501    0  0.00000000000E+00 -0.00000000000E+00 -0.28299236414E+03  0.28299236414E+03  0.00000000000E+00 0. -1.
         25    2    1    2    0    0 -0.61118558608E+02 -0.15326633574E+03 -0.99815402903E+02  0.22985674813E+03  0.12507982301E+03 0.  0.
         23    2    1    2    0    0  0.61118558608E+02  0.15326633574E+03 -0.41751497116E+02  0.19456108013E+03  0.94259103064E+02 0.  0.
          5    1    3    3  502    0 -0.27489056852E+02 -0.13932168409E+03 -0.12179092940E+03  0.18712745065E+03  0.41800000000E+01 0.  1.
         -5    1    3    3    0  502 -0.33629501756E+02 -0.13944651655E+02  0.21975526495E+02  0.42729297477E+02  0.41800000000E+01 0.  1.
        -11    1    4    4    0    0  0.21252576897E+02  0.75811312346E+02  0.27371497437E+02  0.83356019436E+02  0.00000000000E+00 0.  1.
         11    1    4    4    0    0  0.39865981711E+02  0.77455023395E+02 -0.69122994553E+02  0.11120506069E+03  0.00000000000E+00 0. -1.
</event>
<event>
 8    1  0.7039283E-009  0.2975804E+03  0.7561462E-02  0.1086456E+00
          2   -1    0    0  501    0  0.00000000000E+00  0.00000000000E+00  0.68257882178E+03  0.68257882178E+03  0.00000000000E+00 0. -1.
         -2   -1    0    0    0  501 -0.00000000000E+00 -0.00000000000E+00 -0.14646812901E+03  0.14646812901E+03  0.00000000000E+00 0.  1.
         25    2    1    2    0    0 -0.28100284913E+03 -0.47881333491E+02  0.37686449942E+03  0.48880063864E+03  0.12507593735E+03 0.  0.
         23    2    1    2    0    0  0.28100284913E+03  0.47881333491E+02  0.15924619336E+03  0.34024631215E+03  0.95671205263E+02 0.  0.
          5    1    3    3  502    0 -0.16503437840E+03  0.33049359673E+02  0.22807104222E+03  0.28348276655E+03  0.41800000000E+01 0.  1.
         -5    1    3    3    0  502 -0.11596847072E+03 -0.80930693164E+02  0.14879345720E+03  0.20531787210E+03  0.41800000000E+01 0.  1.
        -11    1    4    4    0    0  0.15487461748E+03  0.20156337733E+02  0.32957855835E+02  0.15962031623E+03  0.00000000000E+00 0.  1.
         11    1    4    4    0    0  0.12612823164E+03  0.27724995758E+02  0.12628833753E+03  0.18062599592E+03  0.00000000000E+00 0. -1.
</event>
<event>
 8    1  0.7039283E-009  0.1154641E+03  0.7561462E-02  0.1250773E+00
         -2   -1    0    0    0  501 -0.00000000000E+00  0.00000000000E+00  0.29151968777E+02  0.29151968777E+02  0.00000000000E+00 0.  1.
          2   -1    0    0  501    0  0.00000000000E+00 -0.00000000000E+00 -0.59703781417E+03  0.59703781417E+03  0.00000000000E+00 0. -1.
         25    2    1    2    0    0 -0.65841183441E+02  0.65380190621E+00 -0.22622961531E+03  0.26676412110E+03  0.12509104113E+03 0.  0.
         23    2    1    2    0    0  0.65841183441E+02 -0.65380190621E+00 -0.34165623008E+03  0.35942566185E+03  0.90124014247E+02 0.  0.
          5    1    3    3  502    0  0.26237392248E+02  0.11916317296E+02 -0.89325458468E+01  0.30457546605E+02  0.41800000000E+01 0. -1.
         -5    1    3    3    0  502 -0.92078575688E+02 -0.11262515390E+02 -0.21729706946E+03  0.23630657450E+03  0.41800000000E+01 0. -1.
        -11    1    4    4    0    0 -0.12941301826E+02  0.23261135722E+02 -0.53775477707E+02  0.60002997681E+02  0.00000000000E+00 0.  1.
         11    1    4    4    0    0  0.78782485267E+02 -0.23914937628E+02 -0.28788075238E+03  0.29942266417E+03  0.00000000000E+00 0. -1.
</event>
<event>
 8    1  0.7039283E-009  0.9095215E+02  0.7561462E-02  0.1300562E+00
          1   -1    0    0  501    0  0.00000000000E+00  0.00000000000E+00  0.14985161121E+03  0.14985161121E+03  0.00000000000E+00 0. -1.
         -1   -1    0    0    0  501 -0.00000000000E+00 -0.00000000000E+00 -0.96408176093E+02  0.96408176093E+02  0.00000000000E+00 0.  1.
         25    2    1    2    0    0 -0.29651906174E+02 -0.29549041970E+02  0.31407580183E+02  0.13559764955E+03  0.12509158665E+03 0.  0.
         23    2    1    2    0    0  0.29651906174E+02  0.29549041970E+02  0.22035854936E+02  0.11066213775E+03  0.10004073375E+03 0.  0.
          5    1    3    3  502    0  0.21301306474E+02 -0.36612337529E+01  0.65374903029E+02  0.68981886290E+02  0.41800000000E+01 0.  1.
         -5    1    3    3    0  502 -0.50953212648E+02 -0.25887808217E+02 -0.33967322846E+02  0.66615763260E+02  0.41800000000E+01 0.  1.
        -11    1    4    4    0    0  0.22869738175E+02 -0.32735152600E+02  0.26379961836E+02  0.47859351505E+02  0.00000000000E+00 0. -1.
         11    1    4    4    0    0  0.67821679992E+01  0.62284194570E+02 -0.43441069005E+01  0.62802786250E+02  0.00000000000E+00 0.  1.
</event>
<event>
 8    1  0.7039283E-009  0.1224077E+03  0.7561462E-02  0.1239177E+00
         -3   -1    0    0    0  501 -0.00000000000E+00  0.00000000000E+00  0.11443233377E+03  0.11443233377E+03  0.00000000000E+00 0.  1.
          3   -1    0    0  501    0  0.00000000000E+00 -0.00000000000E+00 -0.17982571295E+03  0.17982571295E+03  0.00000000000E+00 0. -1.
         25    2    1    2    0    0 -0.44488541046E+02  0.65465557644E+02 -0.88659732483E+02  0.17254967425E+03  0.12509145614E+03 0.  0.
         23    2    1    2    0    0  0.44488541046E+02 -0.65465557644E+02  0.23266353302E+02  0.12170837248E+03  0.89479803380E+02 0.  0.
          5    1    3    3  502    0  0.34937532159E+02 -0.27707421495E+01 -0.22786726978E-01  0.35295624158E+02  0.41800000000E+01 0. -1.
         -5    1    3    3    0  502 -0.79426073205E+02  0.68236299793E+02 -0.88636945756E+02  0.13725405009E+03  0.41800000000E+01 0. -1.
        -11    1    4    4    0    0 -0.70119412074E+01 -0.50652477003E+02 -0.17852401961E+02  0.54162247016E+02  0.00000000000E+00 0. -1.
         11    1    4    4    0    0  0.51500482253E+02 -0.14813080640E+02  0.41118755263E+02  0.67546125461E+02  0.00000000000E+00 0.  1.
</event>
<event>
 8    1  0.7039283E-009  0.9117336E+02  0.7561462E-02  0.1300035E+00
         -1   -1    0    0    0  501 -0.00000000000E+00  0.00000000000E+00  0.25470382312E+03  0.25470382312E+03  0.00000000000E+00 0.  1.
          1   -1    0    0  501    0  0.00000000000E+00 -0.00000000000E+00 -0.56179116691E+02  0.56179116691E+02  0.00000000000E+00 0. -1.
         25    2    1    2    0    0  0.41339927380E+02 -0.21810218371E+02  0.13086355366E+03  0.18696988729E+03  0.12509114219E+03 0.  0.
         23    2    1    2    0    0 -0.41339927380E+02  0.21810218371E+02  0.67661152773E+02  0.12391305252E+03  0.92691627293E+02 0.  0.
          5    1    3    3  502    0  0.77076275476E+02  0.15594514077E+02  0.59358336216E+02  0.98614530314E+02  0.41800000000E+01 0. -1.
         -5    1    3    3    0  502 -0.35736348096E+02 -0.37404732448E+02  0.71505217444E+02  0.88355356976E+02  0.41800000000E+01 0. -1.
        -11    1    4    4    0    0 -0.28940292929E+02  0.25697116110E+02  0.90056543190E+02  0.98020728943E+02  0.00000000000E+00 0.  1.
         11    1    4    4    0    0 -0.12399634451E+02 -0.38868977388E+01 -0.22395390417E+02  0.25892323582E+02  0.00000000000E+00 0. -1.
</event>
<event>
 8    1  0.7039283E-009  0.7408066E+02  0.7561462E-02  0.1346742E+00
         -2   -1    0    0    0  501 -0.00000000000E+00  0.00000000000E+00  0.35345702292E+02  0.35345702292E+02  0.00000000000E+00 0.  1.
          2   -1    0    0  501    0  0.00000000000E+00 -0.00000000000E+00 -0.34930528263E+03  0.34930528263E+03  0.00000000000E+00 0. -1.
         25    2    1    2    0    0 -0.23957620495E+02 -0.18054683968E+02 -0.17647797519E+03  0.21839176620E+03  0.12510215275E+03 0.  0.
         23    2    1    2    0    0  0.23957620495E+02  0.18054683968E+02 -0.13748160514E+03  0.16625921872E+03  0.88549403527E+02 0.  0.
          5    1    3    3  502    0  0.10862937460E+02 -0.34765921124E+02  0.10353327166E+01  0.36677199944E+02  0.41800000000E+01 0. -1.
         -5    1    3    3    0  502 -0.34820557955E+02  0.16711237156E+02 -0.17751330791E+03  0.18171456625E+03  0.41800000000E+01 0. -1.
        -11    1    4    4    0    0 -0.20561319199E+02  0.19178171959E+02 -0.78511944192E+01  0.29192659706E+02  0.00000000000E+00 0.  1.
         11    1    4    4    0    0  0.44518939694E+02 -0.11234879911E+01 -0.12963041072E+03  0.13706655902E+03  0.00000000000E+00 0. -1.
</event>
<event>
 8    1  0.7039283E-009  0.9987704E+02  0.7561462E-02  0.1280555E+00
          2   -1    0    0  501    0  0.00000000000E+00  0.00000000000E+00  0.95484277590E+02  0.95484277590E+02  0.00000000000E+00 0. -1.
         -2   -1    0    0    0  501 -0.00000000000E+00 -0.00000000000E+00 -0.13240832997E+03  0.13240832997E+03  0.00000000000E+00 0.  1.
         25    2    1    2    0    0  0.18806707648E+02  0.26394674608E+02  0.30965041084E+01  0.12924152013E+03  0.12507362267E+03 0.  0.
         23    2    1    2    0    0 -0.18806707648E+02 -0.26394674608E+02 -0.40020556491E+02  0.98651087431E+02  0.84142860715E+02 0.  0.
          5    1    3    3  502    0 -0.46265544342E+02  0.33369770653E+02 -0.18634884456E+02  0.60156242447E+02  0.41800000000E+01 0.  1.
         -5    1    3    3    0  502  0.65072251989E+02 -0.69750960454E+01  0.21731388564E+02  0.69085277684E+02  0.41800000000E+01 0.  1.
        -11    1    4    4    0    0 -0.39071256722E+02  0.52285311719E+01 -0.46042938067E+02  0.60612315464E+02  0.00000000000E+00 0.  1.
         11    1    4    4    0    0  0.20264549074E+02 -0.31623205780E+02  0.60223815761E+01  0.38038771968E+02  0.00000000000E+00 0. -1.
</event>
<event>
 8    1  0.7039283E-009  0.9005425E+02  0.7561462E-02  0.1302720E+00
         -1   -1    0    0    0  501 -0.00000000000E+00  0.00000000000E+00  0.47409509070E+02  0.47409509070E+02  0.00000000000E+00 0.  1.
          1   -1    0    0  501    0  0.00000000000E+00 -0.00000000000E+00 -0.29765777346E+03  0.29765777346E+03  0.00000000000E+00 0. -1.
         25    2    1    2    0    0 -0.99041813713E+01  0.29363118214E+02 -0.92946228545E+02  0.15889194883E+03  0.12508942594E+03 0.  0.
         23    2    1    2    0    0  0.99041813713E+01 -0.29363118214E+02 -0.15730203585E+03  0.18617533370E+03  0.94641633951E+02 0.  0.
          5    1    3    3  502    0  0.32109221643E+02 -0.28504232158E+02 -0.72559598635E+02  0.84414815758E+02  0.41800000000E+01 0. -1.
         -5    1    3    3    0  502 -0.42013403015E+02  0.57867350372E+02 -0.20386629911E+02  0.74477133075E+02  0.41800000000E+01 0. -1.
        -11    1    4    4    0    0 -0.10485973197E+02  0.13957515297E+02  0.40061390119E+01  0.17911365580E+02  0.00000000000E+00 0.  1.
         11    1    4    4    0    0  0.20390154569E+02 -0.43320633511E+02 -0.16130817486E+03  0.16826396812E+03  0.00000000000E+00 0. -1.
</event>
<event>
 8    1  0.7039283E-009  0.1061201E+03  0.7561462E-02  0.1267928E+00
         -1   -1    0    0    0  501 -0.00000000000E+00  0.00000000000E+00  0.11202537528E+03  0.11202537528E+03  0.00000000000E+00 0.  1.
          1   -1    0    0  501    0  0.00000000000E+00 -0.00000000000E+00 -0.11559225738E+03  0.11559225738E+03  0.00000000000E+00 0. -1.
         25    2    1    2    0    0  0.24197395743E+02 -0.25376698838E+02 -0.14019179075E+02  0.13066615774E+03  0.12509043365E+03 0.  0.
         23    2    1    2    0    0 -0.24197395743E+02  0.25376698838E+02  0.10452296970E+02  0.96951474924E+02  0.89782220809E+02 0.  0.
          5    1    3    3  502    0  0.38067884944E+02 -0.65372750146E+02  0.17455608610E+02  0.77749154321E+02  0.41800000000E+01 0. -1.
         -5    1    3    3    0  502 -0.13870489201E+02  0.39996051308E+02 -0.31474787685E+02  0.52917003418E+02  0.41800000000E+01 0. -1.
        -11    1    4    4    0    0  0.31138546147E+02 -0.38184969546E+01 -0.66963338309E+01  0.32078510906E+02  0.00000000000E+00 0. -1.
         11    1    4    4    0    0 -0.55335941891E+02  0.29195195792E+02  0.17148630801E+02  0.64872964019E+02  0.00000000000E+00 0.  1.
</event>
<event>
 8    1  0.7039283E-009  0.9489531E+02  0.7561462E-02  0.1291412E+00
          2   -1    0    0  501    0  0.00000000000E+00  0.00000000000E+00  0.33661078997E+03  0.33661078997E+03  0.00000000000E+00 0. -1.
         -2   -1    0    0    0  501 -0.00000000000E+00 -0.00000000000E+00 -0.56310509136E+02  0.56310509136E+02  0.00000000000E+00 0.  1.
         25    2    1    2    0    0  0.46197228598E+02 -0.33279540786E+02  0.24434180493E+03  0.28034285509E+03  0.12508991565E+03 0.  0.
         23    2    1    2    0    0 -0.46197228598E+02  0.33279540786E+02  0.35958475905E+02  0.11257844402E+03  0.90217416852E+02 0.  0.
          5    1    3    3  502    0  0.30625224182E+02  0.40272277561E+02  0.15710467292E+03  0.16510333537E+03  0.41800000000E+01 0. -1.
         -5    1    3    3    0  502  0.15572004416E+02 -0.73551818347E+02  0.87237132008E+02  0.11523951972E+03  0.41800000000E+01 0. -1.
        -11    1    4    4    0    0 -0.19979282668E+02 -0.16547403123E+01 -0.28421247406E+02  0.34780414108E+02  0.00000000000E+00 0.  1.
         11    1    4    4    0    0 -0.26217945931E+02  0.34934281098E+02  0.64379723310E+02  0.77798029912E+02  0.00000000000E+00 0. -1.
</event>
<event>
 8    1  0.7039283E-009  0.1632919E+03  0.7561462E-02  0.1185030E+00
          2   -1    0    0  501    0  0.00000000000E+00  0.00000000000E+00  0.36809116391E+03  0.36809116391E+03  0.00000000000E+00 0. -1.
         -2   -1    0    0    0  501 -0.00000000000E+00 -0.00000000000E+00 -0.99837174826E+02  0.99837174826E+02  0.00000000000E+00 0.  1.
         25    2    1    2    0    0  0.14382575186E+03 -0.24092388287E+02  0.72608739443E+02  0.20539318980E+03  0.12509213925E+03 0.  0.
         23    2    1    2    0    0 -0.14382575186E+03  0.24092388287E+02  0.19564524964E+03  0.26253514894E+03  0.96857372721E+02 0.  0.
          5    1    3    3  502    0  0.10830069284E+03  0.13591173069E+02  0.98731729374E+02  0.14723853721E+03  0.41800000000E+01 0. -1.
         -5    1    3    3    0  502  0.35525059012E+02 -0.37683561355E+02 -0.26122989930E+02  0.58154652584E+02  0.41800000000E+01 0. -1.
        -11    1    4    4    0    0 -0.77903202001E+02 -0.26511582280E+02  0.54373249194E+02  0.98631755053E+02  0.00000000000E+00 0.  1.
         11    1    4    4    0    0 -0.65922549856E+02  0.50603970567E+02  0.14127200045E+03  0.16390339388E+03  0.00000000000E+00 0. -1.
</event>
<event>
 8    1  0.7039283E-009  0.7891192E+02  0.7561462E-02  0.1332168E+00
         -1   -1    0    0    0  501 -0.00000000000E+00  0.00000000000E+00  0.19395411291E+02  0.19395411291E+02  0.00000000000E+00 0.  1.
          1   -1    0    0  501    0  0.00000000000E+00 -0.00000000000E+00 -0.72543065472E+03  0.72543065472E+03  0.00000000000E+00 0. -1.
         25    2    1    2    0    0  0.35427195166E+02 -0.28583605622E+02 -0.35089949878E+03  0.37530441163E+03  0.12510329522E+03 0.  0.
         23    2    1    2    0    0 -0.35427195166E+02  0.28583605622E+02 -0.35513574464E+03  0.36952165438E+03  0.91393365537E+02 0.  0.
          5    1    3    3  502    0  0.25242645829E+02  0.17214070354E+01 -0.34044455925E+03  0.34140902849E+03  0.41800000000E+01 0. -1.
         -5    1    3    3    0  502  0.10184549338E+02 -0.30305012658E+02 -0.10454939528E+02  0.33895383136E+02  0.41800000000E+01 0. -1.
        -11    1    4    4    0    0 -0.57001239007E+02 -0.79057845735E+01 -0.16593922271E+03  0.17563447358E+03  0.00000000000E+00 0.  1.
         11    1    4    4    0    0  0.21574043841E+02  0.36489390196E+02 -0.18919652194E+03  0.19388718080E+03  0.00000000000E+00 0. -1.
</event>
<event>
 8    1  0.7039283E-009  0.1034590E+03  0.7561462E-02  0.1273186E+00
         -2   -1    0    0    0  501 -0.00000000000E+00  0.00000000000E+00  0.43768288718E+02  0.43768288718E+02  0.00000000000E+00 0.  1.
          2   -1    0    0  501    0  0.00000000000E+00 -0.00000000000E+00 -0.27222884795E+03  0.27222884795E+03  0.00000000000E+00 0. -1.
         25    2    1    2    0    0 -0.75231213672E+01 -0.17551021036E+02 -0.15341245454E+03  0.19886601219E+03  0.12509066272E+03 0.  0.
         23    2    1    2    0    0  0.75231213672E+01  0.17551021036E+02 -0.75048104691E+02  0.11713112448E+03  0.87879728096E+02 0.  0.
          5    1    3    3  502    0  0.54790310442E+02  0.88820847142E+01 -0.91150803427E+02  0.10680267278E+03  0.41800000000E+01 0. -1.
         -5    1    3    3    0  502 -0.62313431809E+02 -0.26433105751E+02 -0.62261651113E+02  0.92063339407E+02  0.41800000000E+01 0. -1.
        -11    1    4    4    0    0 -0.27922087606E+02  0.34305775589E+02 -0.61284097882E+02  0.75579559857E+02  0.00000000000E+00 0. -1.
         11    1    4    4    0    0  0.35445208973E+02 -0.16754754553E+02 -0.13764006809E+02  0.41551564624E+02  0.00000000000E+00 0.  1.
</event>
<event>
 8    1  0.7039283E-009  0.1001699E+03  0.7561462E-02  0.1279939E+00
          1   -1    0    0  501    0  0.00000000000E+00  0.00000000000E+00  0.48141817794E+03  0.48141817794E+03  0.00000000000E+00 0. -1.
         -1   -1    0    0    0  501 -0.00000000000E+00 -0.00000000000E+00 -0.38303774151E+02  0.38303774151E+02  0.00000000000E+00 0.  1.
         25    2    1    2    0    0  0.48207507729E+00 -0.73751195968E+02  0.23338299722E+03  0.27487174064E+03  0.12508948440E+03 0.  0.
         23    2    1    2    0    0 -0.48207507729E+00  0.73751195968E+02  0.20973140657E+03  0.24485021145E+03  0.10259089552E+03 0.  0.
          5    1    3    3  502    0  0.80946541409E+01  0.19337789596E+02 -0.21279454000E+01  0.21481947857E+02  0.41800000000E+01 0. -1.
         -5    1    3    3    0  502 -0.76125790637E+01 -0.93088985564E+02  0.23551094262E+03  0.25338979278E+03  0.41800000000E+01 0. -1.
        -11    1    4    4    0    0 -0.21617554386E+02  0.31176595852E+02  0.95755126439E+01  0.39127857454E+02  0.00000000000E+00 0.  1.
         11    1    4    4    0    0  0.21135479309E+02  0.42574600116E+02  0.20015589393E+03  0.20572235400E+03  0.00000000000E+00 0. -1.
</event>
<event>
 8    1  0.7039283E-009  0.3582343E+03  0.7561462E-02  0.1059285E+00
         -1   -1    0    0    0  501 -0.00000000000E+00  0.00000000000E+00  0.12006619348E+03  0.12006619348E+03  0.00000000000E+00 0.  1.
          1   -1    0    0  501    0  0.00000000000E+00 -0.00000000000E+00 -0.11729555632E+04  0.11729555632E+04  0.00000000000E+00 0. -1.
         25    2    1    2    0    0  0.96541376072E+02  0.33267740308E+03 -0.37035617077E+03  0.52230803290E+03  0.12508995240E+03 0.  0.
         23    2    1    2    0    0 -0.96541376072E+02 -0.33267740308E+03 -0.68253319898E+03  0.77071372382E+03  0.90297201329E+02 0.  0.
          5    1    3    3  502    0  0.11181259036E+03  0.24114196767E+03 -0.21766759106E+03  0.34358136814E+03  0.41800000000E+01 0.  1.
         -5    1    3    3    0  502 -0.15271214291E+02  0.91535435402E+02 -0.15268857971E+03  0.17872666476E+03  0.41800000000E+01 0.  1.
        -11    1    4    4    0    0 -0.46442828371E+02 -0.41504483453E+02 -0.10842413900E+03  0.12504140263E+03  0.00000000000E+00 0.  1.
         11    1    4    4    0    0 -0.50098547701E+02 -0.29117291962E+03 -0.57410905998E+03  0.64567232120E+03  0.00000000000E+00 0. -1.
</event>
<event>
 8    1  0.7039283E-009  0.1190750E+03  0.7561462E-02  0.1244631E+00
         -2   -1    0    0    0  501 -0.00000000000E+00  0.00000000000E+00  0.33923795634E+02  0.33923795634E+02  0.00000000000E+00 0.  1.
          2   -1    0    0  501    0  0.00000000000E+00 -0.00000000000E+00 -0.63115901279E+03  0.63115901279E+03  0.00000000000E+00 0. -1.
         25    2    1    2    0    0 -0.62090551478E+01  0.98161937843E+02 -0.34504449070E+03  0.37996967633E+03  0.12508771306E+03 0.  0.
         23    2    1    2    0    0  0.62090551478E+01 -0.98161937843E+02 -0.25219072645E+03  0.28511313209E+03  0.89526628308E+02 0.  0.
          5    1    3    3  502    0 -0.26484071608E+02  0.62492417111E+02 -0.56266282409E+02  0.88261402557E+02  0.41800000000E+01 0.  1.
         -5    1    3    3    0  502  0.20275016461E+02  0.35669520732E+02 -0.28877820829E+03  0.29170827377E+03  0.41800000000E+01 0.  1.
        -11    1    4    4    0    0 -0.35263796662E+02 -0.71161090950E+02 -0.11940141369E+03  0.14340200072E+03  0.00000000000E+00 0. -1.
         11    1    4    4    0    0  0.41472851809E+02 -0.27000846893E+02 -0.13278931276E+03  0.14171113137E+03  0.00000000000E+00 0.  1.
</event>
<event>
 8    1  0.7039283E-009  0.2331879E+03  0.7561462E-02  0.1124416E+00
          2   -1    0    0  501    0  0.00000000000E+00  0.00000000000E+00  0.44480204104E+03  0.44480204104E+03  0.00000000000E+00 0. -1.
         -2   -1    0    0    0  501 -0.00000000000E+00 -0.00000000000E+00 -0.15734834754E+03  0.15734834754E+03  0.00000000000E+00 0.  1.
         25    2    1    2    0    0  0.55270713103E+02  0.20658695896E+03  0.27561944778E+03  0.37060317940E+03  0.12509042027E+03 0.  0.
         23    2    1    2    0    0 -0.55270713103E+02 -0.20658695896E+03  0.11834245721E+02  0.23154720918E+03  0.87983165256E+02 0.  0.
          5    1    3    3  502    0 -0.35421754525E+02  0.36242289912E+02  0.33231533742E+02  0.60745464905E+02  0.41800000000E+01 0. -1.
         -5    1    3    3    0  502  0.90692467628E+02  0.17034466905E+03  0.24238791404E+03  0.30985771449E+03  0.41800000000E+01 0. -1.
        -11    1    4    4    0    0  0.70370051117E+01 -0.90269452196E+02 -0.26132757063E+02  0.94239134294E+02  0.00000000000E+00 0.  1.
         11    1    4    4    0    0 -0.62307718215E+02 -0.11631750677E+03  0.37967002784E+02  0.13730807489E+03  0.00000000000E+00 0. -1.
</event>
<event>
 8    1  0.7039283E-009  0.7928694E+02  0.7561462E-02  0.1331087E+00
          1   -1    0    0  501    0  0.00000000000E+00  0.00000000000E+00  0.17143033497E+03  0.17143033497E+03  0.00000000000E+00 0. -1.
         -1   -1    0    0    0  501 -0.00000000000E+00 -0.00000000000E+00 -0.83278645952E+02  0.83278645952E+02  0.00000000000E+00 0.  1.
         25    2    1    2    0    0 -0.21696124396E+02  0.38606185952E+02  0.20399227351E+02  0.13425535117E+03  0.12508881418E+03 0.  0.
         23    2    1    2    0    0  0.21696124396E+02 -0.38606185952E+02  0.67752461664E+02  0.12045362976E+03  0.89204940738E+02 0.  0.
          5    1    3    3  502    0  0.18472813521E+02 -0.97154031560E+01 -0.41066358883E+02  0.46255292992E+02  0.41800000000E+01 0. -1.
         -5    1    3    3    0  502 -0.40168937916E+02  0.48321589108E+02  0.61465586235E+02  0.88000058173E+02  0.41800000000E+01 0. -1.
        -11    1    4    4    0    0 -0.20896625404E+02 -0.12199283958E+02 -0.11417545588E+02  0.26755407484E+02  0.00000000000E+00 0.  1.
         11    1    4    4    0    0  0.42592749800E+02 -0.26406901994E+02  0.79170007252E+02  0.93698222271E+02  0.00000000000E+00 0. -1.
</event>
<event>
 8    1  0.7039283E-009  0.2030678E+03  0.7561462E-02  0.1147176E+00
          2   -1    0    0  501    0  0.00000000000E+00  0.00000000000E+00  0.11971274609E+04  0.11971274609E+04  0.00000000000E+00 0. -1.
         -2   -1    0    0    0  501 -0.00000000000E+00 -0.00000000000E+00 -0.42549902034E+02  0.42549902034E+02  0.00000000000E+00 0.  1.
         25    2    1    2    0    0 -0.85890381750E+01  0.19289724333E+03  0.71569233477E+03  0.75176267169E+03  0.12509387853E+03 0.  0.
         23    2    1    2    0    0  0.85890381750E+01 -0.19289724333E+03  0.43888522405E+03  0.48791469120E+03  0.90318259111E+02 0.  0.
          5    1    3    3  502    0  0.93182322609E+01  0.12946824673E+02  0.33688392555E+01  0.16830662480E+02  0.41800000000E+01 0. -1.
         -5    1    3    3    0  502 -0.17907270436E+02  0.17995041866E+03  0.71232349551E+03  0.73493200921E+03  0.41800000000E+01 0. -1.
        -11    1    4    4    0    0  0.43621598097E+02 -0.89037394636E+02  0.25820306413E+03  0.27658511129E+03  0.00000000000E+00 0. -1.
         11    1    4    4    0    0 -0.35032559922E+02 -0.10385984870E+03  0.18068215993E+03  0.21132957990E+03  0.00000000000E+00 0.  1.
</event>
<event>
 8    1  0.7039283E-009  0.7805230E+02  0.7561462E-02  0.1334671E+00
          1   -1    0    0  501    0  0.00000000000E+00  0.00000000000E+00  0.21387086372E+03  0.21387086372E+03  0.00000000000E+00 0. -1.
         -1   -1    0    0    0  501 -0.00000000000E+00 -0.00000000000E+00 -0.56329460440E+02  0.56329460440E+02  0.00000000000E+00 0.  1.
         25    2    1    2    0    0  0.64100300232E+01 -0.92535317065E+01  0.71737217043E+02  0.14463869787E+03  0.12508960100E+03 0.  0.
         23    2    1    2    0    0 -0.64100300232E+01  0.92535317065E+01  0.85804186234E+02  0.12556162629E+03  0.90976080852E+02 0.  0.
          5    1    3    3  502    0  0.51133641103E+02  0.12939791997E+02  0.77888544635E+02  0.94160422974E+02  0.41800000000E+01 0.  1.
         -5    1    3    3    0  502 -0.44723611080E+02 -0.22193323704E+02 -0.61513275921E+01  0.50478274893E+02  0.41800000000E+01 0.  1.
        -11    1    4    4    0    0 -0.68666101463E+01 -0.21379541893E+02 -0.10290948280E+02  0.24700987084E+02  0.00000000000E+00 0.  1.
         11    1    4    4    0    0  0.45658012308E+00  0.30633073599E+02  0.96095134514E+02  0.10086063920E+03  0.00000000000E+00 0. -1.
</event>
<event>
 8    1  0.7039283E-009  0.1089983E+03  0.7561462E-02  0.1262436E+00
          1   -1    0    0  501    0  0.00000000000E+00  0.00000000000E+00  0.69362960185E+03  0.69362960185E+03  0.00000000000E+00 0. -1.
         -1   -1    0    0    0  501 -0.00000000000E+00 -0.00000000000E+00 -0.17939358997E+02  0.17939358997E+02  0.00000000000E+00 0.  1.
         25    2    1    2    0    0  0.13955957895E+02 -0.18499960854E+02  0.34812672956E+03  0.37064186950E+03  0.12508460448E+03 0.  0.
         23    2    1    2    0    0 -0.13955957895E+02  0.18499960854E+02  0.32756351329E+03  0.34092709134E+03  0.91631921630E+02 0.  0.
          5    1    3    3  502    0  0.31122764484E+02  0.46519373109E+02  0.20337144867E+03  0.21097416211E+03  0.41800000000E+01 0.  1.
         -5    1    3    3    0  502 -0.17166806590E+02 -0.65019333963E+02  0.14475528089E+03  0.15966770739E+03  0.41800000000E+01 0.  1.
        -11    1    4    4    0    0 -0.43638049373E+02  0.38914066757E+02  0.19895768938E+03  0.20737103489E+03  0.00000000000E+00 0. -1.
         11    1    4    4    0    0  0.29682091478E+02 -0.20414105903E+02  0.12860582391E+03  0.13355605646E+03  0.00000000000E+00 0.  1.
</event>
<event>
 8    1  0.7039283E-009  0.8182527E+02  0.7561462E-02  0.1323950E+00
         -1   -1    0    0    0  501 -0.00000000000E+00  0.00000000000E+00  0.17596235921E+03  0.17596235921E+03  0.00000000000E+00 0.  1.
          1   -1    0    0  501    0  0.00000000000E+00 -0.00000000000E+00 -0.69980807254E+02  0.69980807254E+02  0.00000000000E+00 0. -1.
         25    2    1    2    0    0  0.61569701558E+00 -0.19592691094E+02  0.52850576457E+02  0.13720360573E+03  0.12508954139E+03 0.  0.
         23    2    1    2    0    0 -0.61569701558E+00  0.19592691094E+02  0.53130975496E+02  0.10873956074E+03  0.92828545635E+02 0.  0.
          5    1    3    3  502    0  0.16816576426E+02 -0.47309977720E+02  0.80273216294E+02  0.94774959186E+02  0.41800000000E+01 0.  1.
         -5    1    3    3    0  502 -0.16200879411E+02  0.27717286626E+02 -0.27422639836E+02  0.42428646539E+02  0.41800000000E+01 0.  1.
        -11    1    4    4    0    0  0.11174174528E+02  0.48448172249E+02  0.31305164706E+01  0.49818547791E+02  0.00000000000E+00 0. -1.
         11    1    4    4    0    0 -0.11789871544E+02 -0.28855481155E+02  0.50000459026E+02  0.58921012945E+02  0.00000000000E+00 0.  1.
</event>
<event>
 8    1  0.7039283E-009  0.1334976E+03  0.7561462E-02  0.1222356E+00
          1   -1    0    0  501    0  0.00000000000E+00  0.00000000000E+00  0.47262523290E+02  0.47262523290E+02  0.00000000000E+00 0. -1.
         -1   -1    0    0    0  501 -0.00000000000E+00 -0.00000000000E+00 -0.45827848645E+03  0.45827848645E+03  0.00000000000E+00 0.  1.
         25    2    1    2    0    0  0.42213450089E+02 -0.89340249278E+02 -0.22952988971E+03  0.27945851567E+03  0.12509770662E+03 0.  0.
         23    2    1    2    0    0 -0.42213450089E+02  0.89340249278E+02 -0.18148607344E+03  0.22608249406E+03  0.91719375045E+02 0.  0.
          5    1    3    3  502    0 -0.36020459740E+02 -0.95302017628E+01 -0.10789162752E+03  0.11422072471E+03  0.41800000000E+01 0. -1.
         -5    1    3    3    0  502  0.78233909828E+02 -0.79810047515E+02 -0.12163826219E+03  0.16523779096E+03  0.41800000000E+01 0. -1.
        -11    1    4    4    0    0 -0.59165906595E+02  0.74480706362E+02 -0.86874096327E+02  0.12882192646E+03  0.00000000000E+00 0. -1.
         11    1    4    4    0    0  0.16952456507E+02  0.14859542916E+02 -0.94611977116E+02  0.97260567606E+02  0.00000000000E+00 0.  1.
</event>
<event>
 8    1  0.7039283E-009  0.2060188E+03  0.7561462E-02  0.1144758E+00
          2   -1    0    0  501    0  0.00000000000E+00  0.00000000000E+00  0.55737372577E+03  0.55737372577E+03  0.00000000000E+00 0. -1.
         -2   -1    0    0    0  501 -0.00000000000E+00 -0.00000000000E+00 -0.80458419691E+02  0.80458419691E+02  0.00000000000E+00 0.  1.
         25    2    1    2    0    0  0.28333076782E+02 -0.17310190824E+03  0.18106103680E+03  0.28142180583E+03  0.12509236538E+03 0.  0.
         23    2    1    2    0    0 -0.28333076782E+02  0.17310190824E+03  0.29585426928E+03  0.35641033963E+03  0.93442750742E+02 0.  0.
          5    1    3    3  502    0 -0.37876130416E+02 -0.12681535268E+03  0.13114332626E+03  0.18636732373E+03  0.41800000000E+01 0. -1.
         -5    1    3    3    0  502  0.66209207198E+02 -0.46286555553E+02  0.49917710542E+02  0.95054482106E+02  0.41800000000E+01 0. -1.
        -11    1    4    4    0    0 -0.45860083944E+02  0.17517569119E+03  0.26835606509E+03  0.32373545953E+03  0.00000000000E+00 0.  1.
         11    1    4    4    0    0  0.17527007162E+02 -0.20737829575E+01  0.27498204191E+02  0.32674880100E+02  0.00000000000E+00 0. -1.
</event>
<event>
 8    1  0.7039283E-009  0.1286056E+03  0.7561462E-02  0.1229539E+00
          1   -1    0    0  501    0  0.00000000000E+00  0.00000000000E+00  0.17888581001E+03  0.17888581001E+03  0.00000000000E+00 0. -1.
         -1   -1    0    0    0  501 -0.00000000000E+00 -0.00000000000E+00 -0.11627676208E+03  0.11627676208E+03  0.00000000000E+00 0.  1.
         25    2    1    2    0    0 -0.49418689688E+02  0.80915577943E+02  0.57364179727E+02  0.16711497696E+03  0.12508888345E+03 0.  0.
         23    2    1    2    0    0  0.49418689688E+02 -0.80915577943E+02  0.52448681936E+01  0.12804759513E+03  0.85901922751E+02 0.  0.
          5    1    3    3  502    0 -0.69934187644E+02  0.10291602349E+03  0.56532472664E+02  0.13673291980E+03  0.41800000000E+01 0. -1.
         -5    1    3    3    0  502  0.20515497956E+02 -0.22000445544E+02  0.83170706309E+00  0.30382057158E+02  0.41800000000E+01 0. -1.
        -11    1    4    4    0    0 -0.28301443538E+01 -0.27413838115E+02  0.37556431716E+02  0.46583406922E+02  0.00000000000E+00 0. -1.
         11    1    4    4    0    0  0.52248834042E+02 -0.53501739828E+02 -0.32311563522E+02  0.81464188209E+02  0.00000000000E+00 0.  1.
</event>
<event>
 8    1  0.7039283E-009  0.9728182E+02  0.7561462E-02  0.1286118E+00
         -2   -1    0    0    0  501 -0.00000000000E+00  0.00000000000E+00  0.11873486223E+02  0.11873486223E+02  0.00000000000E+00 0.  1.
          2   -1    0    0  501    0  0.00000000000E+00 -0.00000000000E+00 -0.10920530015E+04  0.10920530015E+04  0.00000000000E+00 0. -1.
         25    2    1    2    0    0  0.23751129786E+01  0.17330319997E+02 -0.79689357145E+03  0.80684122531E+03  0.12508963779E+03 0.  0.
         23    2    1    2    0    0 -0.23751129786E+01 -0.17330319997E+02 -0.28328594383E+03  0.29708526242E+03  0.87765289395E+02 0.  0.
          5    1    3    3  502    0 -0.50845548940E+02 -0.21392106532E+01 -0.59248611386E+03  0.59468236361E+03  0.41800000000E+01 0. -1.
         -5    1    3    3    0  502  0.53220661918E+02  0.19469530650E+02 -0.20440745759E+03  0.21215886170E+03  0.41800000000E+01 0. -1.
        -11    1    4    4    0    0 -0.16548846198E+01  0.34651435797E+02 -0.78869687961E+02  0.86161988864E+02  0.00000000000E+00 0. -1.
         11    1    4    4    0    0 -0.72022835878E+00 -0.51981755793E+02 -0.20441625587E+03  0.21092327356E+03  0.00000000000E+00 0.  1.
</event>
<event>
 8    1  0.7039283E-009  0.1534833E+03  0.7561462E-02  0.1196257E+00
         -2   -1    0    0    0  501 -0.00000000000E+00  0.00000000000E+00  0.21395229481E+02  0.21395229481E+02  0.00000000000E+00 0.  1.
          2   -1    0    0  501    0  0.00000000000E+00 -0.00000000000E+00 -0.14240282798E+04  0.14240282798E+04  0.00000000000E+00 0. -1.
         25    2    1    2    0    0  0.11763308502E+03 -0.76510201149E+01 -0.98434016772E+03  0.99923436500E+03  0.12509064553E+03 0.  0.
         23    2    1    2    0    0 -0.11763308502E+03  0.76510201149E+01 -0.41829288260E+03  0.44618914429E+03  0.10109271015E+03 0.  0.
          5    1    3    3  502    0  0.13402324489E+03  0.15760068502E+02 -0.90035987137E+03  0.91042626297E+03  0.41800000000E+01 0. -1.
         -5    1    3    3    0  502 -0.16390159861E+02 -0.23411088617E+02 -0.83980296352E+02  0.88808102029E+02  0.41800000000E+01 0. -1.
        -11    1    4    4    0    0 -0.52079932639E+02 -0.36888076017E+02 -0.10368261555E+03  0.12175029488E+03  0.00000000000E+00 0.  1.
         11    1    4    4    0    0 -0.65553152385E+02  0.44539096132E+02 -0.31461026705E+03  0.32443884941E+03  0.00000000000E+00 0. -1.
</event>
<event>
 8    1  0.7039283E-009  0.1141372E+03  0.7561462E-02  0.1253095E+00
         -1   -1    0    0    0  501 -0.00000000000E+00  0.00000000000E+00  0.56649240656E+03  0.56649240656E+03  0.00000000000E+00 0.  1.
          1   -1    0    0  501    0  0.00000000000E+00 -0.00000000000E+00 -0.23906442515E+02  0.23906442515E+02  0.00000000000E+00 0. -1.
         25    2    1    2    0    0  0.35658302947E+02 -0.66951199452E+01  0.35276903476E+03  0.37604434620E+03  0.12508804588E+03 0.  0.
         23    2    1    2    0    0 -0.35658302947E+02  0.66951199452E+01  0.18981692928E+03  0.21435450287E+03  0.92741830152E+02 0.  0.
          5    1    3    3  502    0 -0.42277662268E+02 -0.24124949177E+02  0.10784506810E+03  0.11839529134E+03  0.41800000000E+01 0. -1.
         -5    1    3    3    0  502  0.77935965215E+02  0.17429829232E+02  0.24492396666E+03  0.25764905485E+03  0.41800000000E+01 0. -1.
        -11    1    4    4    0    0 -0.52793653268E+02  0.37114770527E+02  0.12848258172E+03  0.14377917034E+03  0.00000000000E+00 0. -1.
         11    1    4    4    0    0  0.17135350320E+02 -0.30419650582E+02  0.61334347559E+02  0.70575332536E+02  0.00000000000E+00 0.  1.
</event>
<event>
 8    1  0.7039283E-009  0.1540799E+03  0.7561462E-02  0.1195547E+00
         -1   -1    0    0    0  501 -0.00000000000E+00  0.00000000000E+00  0.17192561092E+03  0.17192561092E+03  0.00000000000E+00 0.  1.
          1   -1    0    0  501    0  0.00000000000E+00 -0.00000000000E+00 -0.26979891295E+03  0.26979891295E+03  0.00000000000E+00 0. -1.
         25    2    1    2    0    0  0.65266192076E+02  0.13542931368E+03  0.60907956519E+02  0.20484009862E+03  0.12509561144E+03 0.  0.
         23    2    1    2    0    0 -0.65266192076E+02 -0.13542931368E+03 -0.15878125855E+03  0.23688442525E+03  0.91115136102E+02 0.  0.
          5    1    3    3  502    0  0.52475429238E+02  0.96667319828E+02  0.99598572727E+02  0.14844389339E+03  0.41800000000E+01 0. -1.
         -5    1    3    3    0  502  0.12790762839E+02  0.38761993849E+02 -0.38690616207E+02  0.56396205224E+02  0.41800000000E+01 0. -1.
        -11    1    4    4    0    0 -0.54689113899E+02 -0.61188827369E+02 -0.29083789307E+02  0.87068011200E+02  0.00000000000E+00 0.  1.
         11    1    4    4    0    0 -0.10577078177E+02 -0.74240486309E+02 -0.12969746924E+03  0.14981641405E+03  0.00000000000E+00 0. -1.
</event>
<event>
 8    1  0.7039283E-009  0.1056230E+03  0.7561462E-02  0.1268897E+00
         -2   -1    0    0    0  501 -0.00000000000E+00  0.00000000000E+00  0.27154771482E+02  0.27154771482E+02  0.00000000000E+00 0.  1.
          2   -1    0    0  501    0  0.00000000000E+00 -0.00000000000E+00 -0.59359737480E+03  0.59359737480E+03  0.00000000000E+00 0. -1.
         25    2    1    2    0    0  0.13081319876E+02 -0.61025819745E+02 -0.35786173828E+03  0.38419731829E+03  0.12508910444E+03 0.  0.
         23    2    1    2    0    0 -0.13081319876E+02  0.61025819745E+02 -0.20858086504E+03  0.23655482799E+03  0.92503717663E+02 0.  0.
          5    1    3    3  502    0 -0.53209421842E+02 -0.36098227289E+02 -0.21870069299E+03  0.22799515368E+03  0.41800000000E+01 0. -1.
         -5    1    3    3    0  502  0.66290741717E+02 -0.24927592456E+02 -0.13916104529E+03  0.15620216461E+03  0.41800000000E+01 0. -1.
        -11    1    4    4    0    0 -0.28937928783E+02  0.35295271628E+02 -0.28181236239E+02  0.53640861267E+02  0.00000000000E+00 0.  1.
         11    1    4    4    0    0  0.15856608907E+02  0.25730548117E+02 -0.18039962880E+03  0.18291396672E+03  0.00000000000E+00 0. -1.
</event>
<event>
 8    1  0.7039283E-009  0.1170373E+03  0.7561462E-02  0.1248066E+00
         -1   -1    0    0    0  501 -0.00000000000E+00  0.00000000000E+00  0.13434376639E+03  0.13434376639E+03  0.00000000000E+00 0.  1.
          1   -1    0    0  501    0  0.00000000000E+00 -0.00000000000E+00 -0.11225657200E+03  0.11225657200E+03  0.00000000000E+00 0. -1.
         25    2    1    2    0    0 -0.30022355336E+02 -0.41686684844E+02  0.40139969031E+02  0.14105856129E+03  0.12508868488E+03 0.  0.
         23    2    1    2    0    0  0.30022355336E+02  0.41686684844E+02 -0.18052774632E+02  0.10554177710E+03  0.90410411616E+02 0.  0.
          5    1    3    3  502    0  0.29482283184E+02 -0.64737875991E+02  0.22330198969E+02  0.74674679749E+02  0.41800000000E+01 0.  1.
         -5    1    3    3    0  502 -0.59504638521E+02  0.23051191147E+02  0.17809770062E+02  0.66383881541E+02  0.41800000000E+01 0.  1.
        -11    1    4    4    0    0  0.51992940158E+02  0.28189381235E+00  0.68855951201E+01  0.52447656864E+02  0.00000000000E+00 0.  1.
         11    1    4    4    0    0 -0.21970584822E+02  0.41404791031E+02 -0.24938369753E+02  0.53094120236E+02  0.00000000000E+00 0. -1.
</event>
<event>
 8    1  0.7039283E-009  0.7145277E+02  0.7561462E-02  0.1355221E+00
         -2   -1    0    0    0  501 -0.00000000000E+00  0.00000000000E+00  0.33321850572E+02  0.33321850572E+02  0.00000000000E+00 0.  1.
          2   -1    0    0  501    0  0.00000000000E+00 -0.00000000000E+00 -0.39089042868E+03  0.39089042868E+03  0.00000000000E+00 0. -1.
         25    2    1    2    0    0  0.33844462713E+02 -0.14888756580E+02 -0.19596443463E+03  0.23540738551E+03  0.12508978690E+03 0.  0.
         23    2    1    2    0    0 -0.33844462713E+02  0.14888756580E+02 -0.16160414348E+03  0.18880489374E+03  0.90356327840E+02 0.  0.
          5    1    3    3  502    0  0.43987637345E+02  0.33002083689E+01 -0.65319961705E+01  0.44787754894E+02  0.41800000000E+01 0.  1.
         -5    1    3    3    0  502 -0.10143174632E+02 -0.18188964949E+02 -0.18943243845E+03  0.19061963062E+03  0.41800000000E+01 0.  1.
        -11    1    4    4    0    0 -0.16804268487E+02  0.42054456661E+02 -0.14653373998E+03  0.15337241511E+03  0.00000000000E+00 0. -1.
         11    1    4    4    0    0 -0.17040194226E+02 -0.27165700081E+02 -0.15070403502E+02  0.35432478630E+02  0.00000000000E+00 0.  1.
</event>
<event>
 8    1  0.7039283E-009  0.1326406E+03  0.7561462E-02  0.1223589E+00
         -2   -1    0    0    0  501 -0.00000000000E+00  0.00000000000E+00  0.29952742866E+02  0.29952742866E+02  0.00000000000E+00 0.  1.
          2   -1    0    0  501    0  0.00000000000E+00 -0.00000000000E+00 -0.80132331757E+03  0.80132331757E+03  0.00000000000E+00 0. -1.
         25    2    1    2    0    0 -0.13808687582E+02  0.87819153618E+02 -0.58062505845E+03  0.60056369023E+03  0.12509358069E+03 0.  0.
         23    2    1    2    0    0  0.13808687582E+02 -0.87819153618E+02 -0.19074551626E+03  0.23071237021E+03  0.94559305199E+02 0.  0.
          5    1    3    3  502    0  0.11922249273E+02  0.10830907106E+03 -0.52147898372E+03  0.53275772896E+03  0.41800000000E+01 0.  1.
         -5    1    3    3    0  502 -0.25730936855E+02 -0.20489917447E+02 -0.59146074733E+02  0.67805961277E+02  0.41800000000E+01 0.  1.
        -11    1    4    4    0    0 -0.10041402869E+02 -0.97004571507E+02 -0.11506724686E+03  0.15083496930E+03  0.00000000000E+00 0.  1.
         11    1    4    4    0    0  0.23850090451E+02  0.91854178891E+01 -0.75678269395E+02  0.79877400903E+02  0.00000000000E+00 0. -1.
</event>
<event>
 8    1  0.7039283E-009  0.1075579E+03  0.7561462E-02  0.1265160E+00
         -2   -1    0    0    0  501 -0.00000000000E+00  0.00000000000E+00  0.42586249468E+03  0.42586249468E+03  0.00000000000E+00 0.  1.
          2   -1    0    0  501    0  0.00000000000E+00 -0.00000000000E+00 -0.38133558674E+02  0.38133558674E+02  0.00000000000E+00 0. -1.
         25    2    1    2    0    0 -0.16263116383E+02 -0.58680134951E+02  0.23907317133E+03  0.27660760614E+03  0.12509172368E+03 0.  0.
         23    2    1    2    0    0  0.16263116383E+02  0.58680134951E+02  0.14865576468E+03  0.18738844722E+03  0.96478218193E+02 0.  0.
          5    1    3    3  502    0  0.35043212240E+02 -0.96793731137E+01  0.18147637485E+03  0.18512931701E+03  0.41800000000E+01 0.  1.
         -5    1    3    3    0  502 -0.51306328623E+02 -0.49000761838E+02  0.57596796477E+02  0.91478289128E+02  0.41800000000E+01 0.  1.
        -11    1    4    4    0    0 -0.32829336544E+02  0.46411860335E+02  0.10960220973E+03  0.12346850002E+03  0.00000000000E+00 0.  1.
         11    1    4    4    0    0  0.49092452927E+02  0.12268274616E+02  0.39053554952E+02  0.63919947206E+02  0.00000000000E+00 0. -1.
</event>
<event>
 8    1  0.7039283E-009  0.1351031E+03  0.7561462E-02  0.1220074E+00
          2   -1    0    0  501    0  0.00000000000E+00  0.00000000000E+00  0.54222529286E+03  0.54222529286E+03  0.00000000000E+00 0. -1.
         -2   -1    0    0    0  501 -0.00000000000E+00 -0.00000000000E+00 -0.34423675927E+02  0.34423675927E+02  0.00000000000E+00 0.  1.
         25    2    1    2    0    0 -0.56649914118E+02  0.60853784276E+02  0.28485748529E+03  0.32202930973E+03  0.12508674418E+03 0.  0.
         23    2    1    2    0    0  0.56649914118E+02 -0.60853784276E+02  0.22294413164E+03  0.25461965906E+03  0.90634922158E+02 0.  0.
          5    1    3    3  502    0  0.33122895873E+02 -0.10964503128E+02  0.64705021824E+02  0.73631235282E+02  0.41800000000E+01 0.  1.
         -5    1    3    3    0  502 -0.89772809991E+02  0.71818287404E+02  0.22015246347E+03  0.24839807445E+03  0.41800000000E+01 0.  1.
        -11    1    4    4    0    0 -0.14578724978E+02 -0.44659208492E+02  0.11558003737E+03  0.12476269139E+03  0.00000000000E+00 0.  1.
         11    1    4    4    0    0  0.71228639096E+02 -0.16194575784E+02  0.10736409427E+03  0.12985696767E+03  0.00000000000E+00 0. -1.
</event>
<event>
 8    1  0.7039283E-009  0.1091476E+03  0.7561462E-02  0.1262157E+00
          2   -1    0    0  501    0  0.00000000000E+00  0.00000000000E+00  0.14700638260E+03  0.14700638260E+03  0.00000000000E+00 0. -1.
         -2   -1    0    0    0  501 -0.00000000000E+00 -0.00000000000E+00 -0.10393564580E+03  0.10393564580E+03  0.00000000000E+00 0.  1.
         25    2    1    2    0    0 -0.53292948097E+02  0.59148108120E+01 -0.20113463518E+01  0.13611271095E+03  0.12508997268E+03 0.  0.
         23    2    1    2    0    0  0.53292948097E+02 -0.59148108120E+01  0.45082083155E+02  0.11482931745E+03  0.90984914246E+02 0.  0.
          5    1    3    3  502    0  0.76445423173E+01  0.55430494773E+02 -0.10295144940E+02  0.57047709747E+02  0.41800000000E+01 0.  1.
         -5    1    3    3    0  502 -0.60937490415E+02 -0.49515683961E+02  0.82837985885E+01  0.79065001203E+02  0.41800000000E+01 0.  1.
        -11    1    4    4    0    0  0.65535054002E+02 -0.16264935975E+02  0.61894658416E+02  0.91598800132E+02  0.00000000000E+00 0. -1.
         11    1    4    4    0    0 -0.12242105904E+02  0.10350125163E+02 -0.16812575261E+02  0.23230517316E+02  0.00000000000E+00 0.  1.
</event>
<event>
 8    1  0.7039283E-009  0.1016131E+03  0.7561462E-02  0.1276940E+00
          3   -1    0    0  501    0  0.00000000000E+00  0.00000000000E+00  0.36282316211E+03  0.36282316211E+03  0.00000000000E+00 0. -1.
         -3   -1    0    0    0  501 -0.00000000000E+00 -0.00000000000E+00 -0.38466007399E+02  0.38466007399E+02  0.00000000000E+00 0.  1.
         25    2    1    2    0    0 -0.32052966659E+02 -0.22877513891E+01  0.23976552777E+03  0.27233726271E+03  0.12508976727E+03 0.  0.
         23    2    1    2    0    0  0.32052966659E+02  0.22877513891E+01  0.84591626947E+02  0.12895190680E+03  0.91870694134E+02 0.  0.
          5    1    3    3  502    0 -0.20492407421E+02  0.53366588201E+02  0.18351582809E+03  0.19225884390E+03  0.41800000000E+01 0. -1.
         -5    1    3    3    0  502 -0.11560559238E+02 -0.55654339590E+02  0.56249699676E+02  0.80078418808E+02  0.41800000000E+01 0. -1.
        -11    1    4    4    0    0  0.11724574832E+02 -0.40165898709E+02  0.66410748966E+02  0.78493010214E+02  0.00000000000E+00 0. -1.
         11    1    4    4    0    0  0.20328391827E+02  0.42453650099E+02  0.18180877981E+02  0.50458896590E+02  0.00000000000E+00 0.  1.
</event>
<event>
 8    1  0.7039283E-009  0.9048628E+02  0.7561462E-02  0.1301678E+00
         -3   -1    0    0    0  501 -0.00000000000E+00  0.00000000000E+00  0.56581417764E+02  0.56581417764E+02  0.00000000000E+00 0.  1.
          3   -1    0    0  501    0  0.00000000000E+00 -0.00000000000E+00 -0.26551977828E+03  0.26551977828E+03  0.00000000000E+00 0. -1.
         25    2    1    2    0    0 -0.40461320080E+02  0.23008015205E+02 -0.12923817854E+03  0.18578666353E+03  0.12509072854E+03 0.  0.
         23    2    1    2    0    0  0.40461320080E+02 -0.23008015205E+02 -0.79700181978E+02  0.13631453251E+03  0.10031473262E+03 0.  0.
          5    1    3    3  502    0  0.10569843965E+02 -0.37723672940E+02 -0.87706196930E+02  0.96149084662E+02  0.41800000000E+01 0. -1.
         -5    1    3    3    0  502 -0.51031164045E+02  0.60731688145E+02 -0.41531981605E+02  0.89637578865E+02  0.41800000000E+01 0. -1.
        -11    1    4    4    0    0 -0.75225929403E+01 -0.98291388075E+01  0.20780465984E+02  0.24187375648E+02  0.00000000000E+00 0.  1.
         11    1    4    4    0    0  0.47983913021E+02 -0.13178876397E+02 -0.10048064796E+03  0.11212715687E+03  0.00000000000E+00 0. -1.
</event>
<event>
 8    1  0.7039283E-009  0.2504077E+03  0.7561462E-02  0.1113047E+00
          1   -1    0    0  501    0  0.00000000000E+00  0.00000000000E+00  0.98875366318E+03  0.98875366318E+03  0.00000000000E+00 0. -1.
         -1   -1    0    0    0  501 -0.00000000000E+00 -0.00000000000E+00 -0.65095260681E+02  0.65095260681E+02  0.00000000000E+00 0.  1.
         25    2    1    2    0    0 -0.22290281762E+03 -0.46686741644E+02  0.42806631322E+03  0.50075314088E+03  0.12509045384E+03 0.  0.
         23    2    1    2    0    0  0.22290281762E+03  0.46686741644E+02  0.49559208928E+03  0.55309578298E+03  0.91859176178E+02 0.  0.
          5    1    3    3  502    0 -0.19744938044E+03 -0.80932653557E+02  0.38363297912E+03  0.43900807204E+03  0.41800000000E+01 0. -1.
         -5    1    3    3    0  502 -0.25453437180E+02  0.34245911912E+02  0.44433334098E+02  0.61745068840E+02  0.41800000000E+01 0. -1.
        -11    1    4    4    0    0  0.21272741578E+03  0.65955960600E+02  0.46442192828E+03  0.51506394712E+03  0.00000000000E+00 0. -1.
         11    1    4    4    0    0  0.10175401837E+02 -0.19269218956E+02  0.31170161007E+02  0.38031835861E+02  0.00000000000E+00 0.  1.
</event>
<event>
 8    1  0.7039283E-009  0.1034759E+03  0.7561462E-02  0.1273152E+00
         -2   -1    0    0    0  501 -0.00000000000E+00  0.00000000000E+00  0.16004534923E+02  0.16004534923E+02  0.00000000000E+00 0.  1.
          2   -1    0    0  501    0  0.00000000000E+00 -0.00000000000E+00 -0.92701279926E+03  0.92701279926E+03  0.00000000000E+00 0. -1.
         25    2    1    2    0    0  0.35006684193E+02  0.15228213963E+02 -0.64840011901E+03  0.66145797072E+03  0.12508623530E+03 0.  0.
         23    2    1    2    0    0 -0.35006684193E+02 -0.15228213963E+02 -0.26260814532E+03  0.28155936346E+03  0.94102448007E+02 0.  0.
          5    1    3    3  502    0 -0.33931198697E+02  0.43686807015E+02 -0.24520125401E+03  0.25139807223E+03  0.41800000000E+01 0. -1.
         -5    1    3    3    0  502  0.68937882890E+02 -0.28458593052E+02 -0.40319886500E+03  0.41005989849E+03  0.41800000000E+01 0. -1.
        -11    1    4    4    0    0 -0.21498392274E+02  0.25801244247E+02 -0.30182465319E+02  0.45153807013E+02  0.00000000000E+00 0.  1.
         11    1    4    4    0    0 -0.13508291918E+02 -0.41029458210E+02 -0.23242568000E+03  0.23640555644E+03  0.00000000000E+00 0. -1.
</event>
<event>
 8    1  0.7039283E-009  0.1578692E+03  0.7561462E-02  0.1191124E+00
          1   -1    0    0  501    0  0.00000000000E+00  0.00000000000E+00  0.42345580137E+03  0.42345580137E+03  0.00000000000E+00 0. -1.
         -1   -1    0    0    0  501 -0.00000000000E+00 -0.00000000000E+00 -0.71993382815E+02  0.71993382815E+02  0.00000000000E+00 0.  1.
         25    2    1    2    0    0  0.11270026543E+02 -0.13563505560E+03  0.18436382237E+03  0.26107039915E+03  0.12507538729E+03 0.  0.
         23    2    1    2    0    0 -0.11270026543E+02  0.13563505560E+03  0.16709859619E+03  0.23437878504E+03  0.92128129397E+02 0.  0.
          5    1    3    3  502    0  0.29915789335E+02 -0.23244758068E+02  0.12865829056E+03  0.13418532468E+03  0.41800000000E+01 0.  1.
         -5    1    3    3    0  502 -0.18645762792E+02 -0.11239029753E+03  0.55705531815E+02  0.12688507447E+03  0.41800000000E+01 0.  1.
        -11    1    4    4    0    0  0.27008946180E+02  0.49682822206E+01  0.36821352652E+02  0.45934507868E+02  0.00000000000E+00 0.  1.
         11    1    4    4    0    0 -0.38278972723E+02  0.13066677338E+03  0.13027724354E+03  0.18844427718E+03  0.00000000000E+00 0. -1.
</event>
<event>
 8    1  0.7039283E-009  0.9896993E+02  0.7561462E-02  0.1282477E+00
          1   -1    0    0  501    0  0.00000000000E+00  0.00000000000E+00  0.20237415218E+03  0.20237415218E+03  0.00000000000E+00 0. -1.
         -1   -1    0    0    0  501 -0.00000000000E+00 -0.00000000000E+00 -0.87248999445E+02  0.87248999445E+02  0.00000000000E+00 0.  1.
         25    2    1    2    0    0  0.56645112411E+02 -0.38349186543E+02  0.25298300630E+02  0.14479461324E+03  0.12508455996E+03 0.  0.
         23    2    1    2    0    0 -0.56645112411E+02  0.38349186543E+02  0.89826852109E+02  0.14482853839E+03  0.90703436005E+02 0.  0.
          5    1    3    3  502    0  0.57654552644E+02  0.62151745033E+00 -0.38823533408E+02  0.69636002691E+02  0.41800000000E+01 0. -1.
         -5    1    3    3    0  502 -0.10094402332E+01 -0.38970703993E+02  0.64121834038E+02  0.75158610549E+02  0.41800000000E+01 0. -1.
        -11    1    4    4    0    0  0.66152711623E+00  0.43390422636E+02  0.72940681473E+02  0.84873490610E+02  0.00000000000E+00 0. -1.
         11    1    4    4    0    0 -0.57306639527E+02 -0.50412360935E+01  0.16886170636E+02  0.59955047777E+02  0.00000000000E+00 0.  1.
</event>
<event>
 8    1  0.7039283E-009  0.1395807E+03  0.7561462E-02  0.1213894E+00
          2   -1    0    0  501    0  0.00000000000E+00  0.00000000000E+00  0.61611838549E+03  0.61611838549E+03  0.00000000000E+00 0. -1.
         -2   -1    0    0    0  501 -0.00000000000E+00 -0.00000000000E+00 -0.40887522141E+02  0.40887522141E+02  0.00000000000E+00 0.  1.
         25    2    1    2    0    0  0.38680811214E+02 -0.10873343835E+03  0.29243430214E+03  0.33835540857E+03  0.12508955061E+03 0.  0.
         23    2    1    2    0    0 -0.38680811214E+02  0.10873343835E+03  0.28279656121E+03  0.31865049906E+03  0.90802421469E+02 0.  0.
          5    1    3    3  502    0 -0.41020535464E+02 -0.25920301037E+02  0.48834746944E+02  0.68969930004E+02  0.41800000000E+01 0. -1.
         -5    1    3    3    0  502  0.79701346679E+02 -0.82813137313E+02  0.24359955519E+03  0.26938547857E+03  0.41800000000E+01 0. -1.
        -11    1    4    4    0    0 -0.12415321972E+02  0.30933943144E+02  0.19734635687E+03  0.20014153399E+03  0.00000000000E+00 0. -1.
         11    1    4    4    0    0 -0.26265489242E+02  0.77799495206E+02  0.85450204347E+02  0.11850896507E+03  0.00000000000E+00 0.  1.
</event>
<event>
 8    1  0.7039283E-009  0.2573821E+03  0.7561462E-02  0.1108726E+00
         -2   -1    0    0    0  501 -0.00000000000E+00  0.00000000000E+00  0.11991744716E+03  0.11991744716E+03  0.00000000000E+00 0.  1.
          2   -1    0    0  501    0  0.00000000000E+00 -0.00000000000E+00 -0.57843116793E+03  0.57843116793E+03  0.00000000000E+00 0. -1.
         25    2    1    2    0    0  0.22270562850E+03 -0.81825065485E+02 -0.19056648834E+03  0.32902259341E+03  0.12508853739E+03 0.  0.
         23    2    1    2    0    0 -0.22270562850E+03  0.81825065485E+02 -0.26794723242E+03  0.36932602168E+03  0.91174846414E+02 0.  0.
          5    1    3    3  502    0  0.33796853344E+02 -0.67908970087E+02 -0.33973331985E+02  0.83219680367E+02  0.41800000000E+01 0.  1.
         -5    1    3    3    0  502  0.18890877515E+03 -0.13916095398E+02 -0.15659315636E+03  0.24580291304E+03  0.41800000000E+01 0.  1.
        -11    1    4    4    0    0 -0.19522671935E+03  0.39997434669E+02 -0.18207457683E+03  0.26993409984E+03  0.00000000000E+00 0.  1.
         11    1    4    4    0    0 -0.27478909145E+02  0.41827630816E+02 -0.85872655597E+02  0.99391921838E+02  0.00000000000E+00 0. -1.
</event>
<event>
 8    1  0.7039283E-009  0.9547356E+02  0.7561462E-02  0.1290113E+00
          1   -1    0    0  501    0  0.00000000000E+00  0.00000000000E+00  0.53332280582E+03  0.53332280582E+03  0.00000000000E+00 0. -1.
         -1   -1    0    0    0  501 -0.00000000000E+00 -0.00000000000E+00 -0.28127887271E+02  0.28127887271E+02  0.00000000000E+00 0.  1.
         25    2    1    2    0    0 -0.48067573022E+02  0.31825922423E+02  0.26129988310E+03  0.29537884917E+03  0.12509058605E+03 0.  0.
         23    2    1    2    0    0  0.48067573022E+02 -0.31825922423E+02  0.24389503545E+03  0.26607184392E+03  0.89364740774E+02 0.  0.
          5    1    3    3  502    0 -0.61609741755E+02  0.14923210930E+02  0.26543912291E+03  0.27293563871E+03  0.41800000000E+01 0. -1.
         -5    1    3    3    0  502  0.13542168733E+02  0.16902711493E+02 -0.41392398148E+01  0.22443210467E+02  0.41800000000E+01 0. -1.
        -11    1    4    4    0    0  0.62583964496E+02  0.78851741019E+01  0.16329946256E+03  0.17505897023E+03  0.00000000000E+00 0. -1.
         11    1    4    4    0    0 -0.14516391474E+02 -0.39711096525E+02  0.80595572885E+02  0.91012873690E+02  0.00000000000E+00 0.  1.
</event>
<event>
 8    1  0.7039283E-009  0.1100064E+03  0.7561462E-02  0.1260558E+00
          2   -1    0    0  501    0  0.00000000000E+00  0.00000000000E+00  0.38685131773E+03  0.38685131773E+03  0.00000000000E+00 0. -1.
         -2   -1    0    0    0  501 -0.00000000000E+00 -0.00000000000E+00 -0.48453992443E+02  0.48453992443E+02  0.00000000000E+00 0.  1.
         25    2    1    2    0    0  0.39834132356E+01  0.55895142493E+02  0.28455404370E+03  0.31584714935E+03  0.12509309907E+03 0.  0.
         23    2    1    2    0    0 -0.39834132356E+01 -0.55895142493E+02  0.53843281590E+02  0.11945816082E+03  0.90724961717E+02 0.  0.
          5    1    3    3  502    0  0.51203126849E+02  0.25309462762E+02  0.54786180149E+02  0.79254823448E+02  0.41800000000E+01 0. -1.
         -5    1    3    3    0  502 -0.47219713613E+02  0.30585679731E+02  0.22976786355E+03  0.23659232591E+03  0.41800000000E+01 0. -1.
        -11    1    4    4    0    0 -0.41654713916E+02 -0.35071362431E+01  0.16773870654E+02  0.45041957470E+02  0.00000000000E+00 0. -1.
         11    1    4    4    0    0  0.37671300680E+02 -0.52388006249E+02  0.37069410936E+02  0.74416203349E+02  0.00000000000E+00 0.  1.
</event>
<event>
 8    1  0.7039283E-009  0.1436231E+03  0.7561462E-02  0.1208535E+00
          2   -1    0    0  501    0  0.00000000000E+00  0.00000000000E+00  0.93725156062E+03  0.93725156062E+03  0.00000000000E+00 0. -1.
         -2   -1    0    0    0  501 -0.00000000000E+00 -0.00000000000E+00 -0.39116992215E+02  0.39116992215E+02  0.00000000000E+00 0.  1.
         25    2    1    2    0    0 -0.10720094766E+03  0.43420571832E+02  0.74194124544E+03  0.76125021076E+03  0.12509069693E+03 0.  0.
         23    2    1    2    0    0  0.10720094766E+03 -0.43420571832E+02  0.15619332297E+03  0.21511834208E+03  0.92207145716E+02 0.  0.
          5    1    3    3  502    0 -0.12628299115E+03  0.47163566874E+02  0.71584148075E+03  0.72843551111E+03  0.41800000000E+01 0. -1.
         -5    1    3    3    0  502  0.19082043494E+02 -0.37429950420E+01  0.26099764694E+02  0.32814699646E+02  0.41800000000E+01 0. -1.
        -11    1    4    4    0    0  0.25454065970E+00 -0.23746338177E+02 -0.12414331499E+01  0.23780128764E+02  0.00000000000E+00 0.  1.
         11    1    4    4    0    0  0.10694640700E+03 -0.19674233655E+02  0.15743475612E+03  0.19133821331E+03  0.00000000000E+00 0. -1.
</event>
<event>
 8    1  0.7039283E-009  0.1947972E+03  0.7561462E-02  0.1154204E+00
         -1   -1    0    0    0  501 -0.00000000000E+00  0.00000000000E+00  0.33518199089E+02  0.33518199089E+02  0.00000000000E+00 0.  1.
          1   -1    0    0  501    0  0.00000000000E+00 -0.00000000000E+00 -0.14062527426E+04  0.14062527426E+04  0.00000000000E+00 0. -1.
         25    2    1    2    0    0  0.18793108022E+03  0.11818883145E+01 -0.71237946753E+03  0.74729544054E+03  0.12508589816E+03 0.  0.
         23    2    1    2    0    0 -0.18793108022E+03 -0.11818883145E+01 -0.66035507598E+03  0.69247550115E+03  0.90188721853E+02 0.  0.
          5    1    3    3  502    0  0.90806465072E+01  0.84375433965E+01 -0.26634898617E+03  0.26667003040E+03  0.41800000000E+01 0.  1.
         -5    1    3    3    0  502  0.17885043371E+03 -0.72556550820E+01 -0.44603048136E+03  0.48062541014E+03  0.41800000000E+01 0.  1.
        -11    1    4    4    0    0 -0.64755159988E+02  0.28524408191E+02 -0.13937115250E+03  0.15630480081E+03  0.00000000000E+00 0.  1.
         11    1    4    4    0    0 -0.12317592023E+03 -0.29706296505E+02 -0.52098392349E+03  0.53617070034E+03  0.00000000000E+00 0. -1.
</event>
<event>
 8    1  0.7039283E-009  0.1137863E+03  0.7561462E-02  0.1253715E+00
          1   -1    0    0  501    0  0.00000000000E+00  0.00000000000E+00  0.55002457103E+03  0.55002457103E+03  0.00000000000E+00 0. -1.
         -1   -1    0    0    0  501 -0.00000000000E+00 -0.00000000000E+00 -0.32993891997E+02  0.32993891997E+02  0.00000000000E+00 0.  1.
         25    2    1    2    0    0  0.34959308301E+02  0.35084316755E+02  0.42017379836E+03  0.44118745164E+03  0.12508910478E+03 0.  0.
         23    2    1    2    0    0 -0.34959308301E+02 -0.35084316755E+02  0.96856880679E+02  0.14183101139E+03  0.91003944635E+02 0.  0.
          5    1    3    3  502    0  0.76616378927E+02  0.44894621122E+02  0.23949321670E+03  0.25546050531E+03  0.41800000000E+01 0.  1.
         -5    1    3    3    0  502 -0.41657070626E+02 -0.98103043669E+01  0.18068058166E+03  0.18572694633E+03  0.41800000000E+01 0.  1.
        -11    1    4    4    0    0 -0.21174377428E+02  0.25726323146E+02  0.97686505125E+01  0.34722103838E+02  0.00000000000E+00 0.  1.
         11    1    4    4    0    0 -0.13784930874E+02 -0.60810639902E+02  0.87088230166E+02  0.10710890756E+03  0.00000000000E+00 0. -1.
</event>
<event>
 8    1  0.7039283E-009  0.7264714E+02  0.7561462E-02  0.1351316E+00
         -2   -1    0    0    0  501 -0.00000000000E+00  0.00000000000E+00  0.35703746083E+02  0.35703746083E+02  0.00000000000E+00 0.  1.
          2   -1    0    0  501    0  0.00000000000E+00 -0.00000000000E+00 -0.41541376537E+03  0.41541376537E+03  0.00000000000E+00 0. -1.
         25    2    1    2    0    0 -0.84436018410E+01  0.39562572783E+02 -0.27817327955E+03  0.30767262878E+03  0.12508229878E+03 0.  0.
         23    2    1    2    0    0  0.84436018410E+01 -0.39562572783E+02 -0.10153673974E+03  0.14344488268E+03  0.92899048819E+02 0.  0.
          5    1    3    3  502    0 -0.21497767134E+02 -0.40940759414E+01 -0.25574507449E+03  0.25671371404E+03  0.41800000000E+01 0. -1.
         -5    1    3    3    0  502  0.13054165293E+02  0.43656648725E+02 -0.22428205060E+02  0.50958914741E+02  0.41800000000E+01 0. -1.
        -11    1    4    4    0    0 -0.89796222954E+01 -0.53930707883E+02 -0.19009788110E+02  0.57883736172E+02  0.00000000000E+00 0.  1.
         11    1    4    4    0    0  0.17423224136E+02  0.14368135099E+02 -0.82526951632E+02  0.85561146504E+02  0.00000000000E+00 0. -1.
</event>
<event>
 8    1  0.7039283E-009  0.9838127E+02  0.7561462E-02  0.1283737E+00
         -1   -1    0    0    0  501 -0.00000000000E+00  0.00000000000E+00  0.67671225820E+02  0.67671225820E+02  0.00000000000E+00 0.  1.
          1   -1    0    0  501    0  0.00000000000E+00 -0.00000000000E+00 -0.20219327281E+03  0.20219327281E+03  0.00000000000E+00 0. -1.
         25    2    1    2    0    0 -0.19556520978E+02 -0.38776675100E+02 -0.72956142955E+02  0.15118397885E+03  0.12509160093E+03 0.  0.
         23    2    1    2    0    0  0.19556520978E+02  0.38776675100E+02 -0.61565904036E+02  0.11868051978E+03  0.91698512476E+02 0.  0.
          5    1    3    3  502    0  0.25873339697E+01  0.26958309919E+02  0.20856868538E+02  0.34437278289E+02  0.41800000000E+01 0.  1.
         -5    1    3    3    0  502 -0.22143854947E+02 -0.65734985019E+02 -0.93813011493E+02  0.11674670056E+03  0.41800000000E+01 0.  1.
        -11    1    4    4    0    0  0.43830320262E+02 -0.10382957847E+02 -0.38288352250E+02  0.59117685221E+02  0.00000000000E+00 0.  1.
         11    1    4    4    0    0 -0.24273799284E+02  0.49159632947E+02 -0.23277551786E+02  0.59562834556E+02  0.00000000000E+00 0. -1.
</event>
<event>
 8    1  0.7039283E-009  0.2006984E+03  0.7561462E-02  0.1149151E+00
         -1   -1    0    0    0  501 -0.00000000000E+00  0.00000000000E+00  0.24759631633E+03  0.24759631633E+03  0.00000000000E+00 0.  1.
          1   -1    0    0  501    0  0.00000000000E+00 -0.00000000000E+00 -0.17522193554E+03  0.17522193554E+03  0.00000000000E+00 0. -1.
         25    2    1    2    0    0 -0.16701377098E+03 -0.47571755743E+02  0.75311088213E+02  0.22688331951E+03  0.12509040339E+03 0.  0.
         23    2    1    2    0    0  0.16701377098E+03  0.47571755743E+02 -0.29367074239E+01  0.19593493236E+03  0.90692898440E+02 0.  0.
          5    1    3    3  502    0 -0.14264327890E+03  0.17484797501E+02  0.58957525086E+02  0.15539075044E+03  0.41800000000E+01 0.  1.
         -5    1    3    3    0  502 -0.24370492077E+02 -0.65056553244E+02  0.16353563127E+02  0.71492569062E+02  0.41800000000E+01 0.  1.
        -11    1    4    4    0    0  0.79304543627E+02 -0.14443839116E+02  0.25979141669E+02  0.84692094851E+02  0.00000000000E+00 0.  1.
         11    1    4    4    0    0  0.87709227350E+02  0.62015594859E+02 -0.28915849093E+02  0.11124283751E+03  0.00000000000E+00 0. -1.
</event>
<event>
 8    1  0.7039283E-009  0.1397331E+03  0.7561462E-02  0.1213689E+00
         -1   -1    0    0    0  501 -0.00000000000E+00  0.00000000000E+00  0.22083235377E+03  0.22083235377E+03  0.00000000000E+00 0.  1.
          1   -1    0    0  501    0  0.00000000000E+00 -0.00000000000E+00 -0.13549915232E+03  0.13549915232E+03  0.00000000000E+00 0. -1.
         25    2    1    2    0    0  0.10027304890E+03  0.86376511780E+02  0.72049565927E+02  0.19584418858E+03  0.12509284602E+03 0.  0.
         23    2    1    2    0    0 -0.10027304890E+03 -0.86376511780E+02  0.13283635527E+02  0.16048731751E+03  0.89800545573E+02 0.  0.
          5    1    3    3  502    0  0.10610079954E+03  0.65447957707E+02  0.10023254280E+03  0.16001515512E+03  0.41800000000E+01 0. -1.
         -5    1    3    3    0  502 -0.58277506390E+01  0.20928554073E+02 -0.28182976875E+02  0.35829033459E+02  0.41800000000E+01 0. -1.
        -11    1    4    4    0    0 -0.35512829861E+02 -0.35946737480E+02 -0.38422450280E+02  0.63479238383E+02  0.00000000000E+00 0. -1.
         11    1    4    4    0    0 -0.64760219041E+02 -0.50429774300E+02  0.51706085808E+02  0.97008079126E+02  0.00000000000E+00 0.  1.
</event>
<event>
 8    1  0.7039283E-009  0.1028327E+03  0.7561462E-02  0.1274450E+00
         -2   -1    0    0    0  501 -0.00000000000E+00  0.00000000000E+00  0.16801901397E+02  0.16801901397E+02  0.00000000000E+00 0.  1.
          2   -1    0    0  501    0  0.00000000000E+00 -0.00000000000E+00 -0.69869274086E+03  0.69869274086E+03  0.00000000000E+00 0. -1.
         25    2    1    2    0    0  0.11855308684E+02  0.11305894022E+02 -0.40857642086E+03  0.42761068593E+03  0.12509130847E+03 0.  0.
         23    2    1    2    0    0 -0.11855308684E+02 -0.11305894022E+02 -0.27331441860E+03  0.28788395633E+03  0.88927101106E+02 0.  0.
          5    1    3    3  502    0  0.32309731426E+02 -0.47364455216E+02 -0.26410517237E+03  0.27028933541E+03  0.41800000000E+01 0. -1.
         -5    1    3    3    0  502 -0.20454422742E+02  0.58670349237E+02 -0.14447124849E+03  0.15732135052E+03  0.41800000000E+01 0. -1.
        -11    1    4    4    0    0 -0.79318315980E+01 -0.48176558882E+02 -0.10896527696E+03  0.11940404667E+03  0.00000000000E+00 0.  1.
         11    1    4    4    0    0 -0.39234770858E+01  0.36870664860E+02 -0.16434914164E+03  0.16847990965E+03  0.00000000000E+00 0. -1.
</event>
<event>
 8    1  0.7039283E-009  0.1706005E+03  0.7561462E-02  0.1177223E+00
          2   -1    0    0  501    0  0.00000000000E+00  0.00000000000E+00  0.14349256561E+03  0.14349256561E+03  0.00000000000E+00 0. -1.
         -2   -1    0    0    0  501 -0.00000000000E+00 -0.00000000000E+00 -0.33558340428E+03  0.33558340428E+03  0.00000000000E+00 0.  1.
         25    2    1    2    0    0  0.48788789049E+02  0.15064259314E+03 -0.21514534425E+03  0.29497198527E+03  0.12508963241E+03 0.  0.
         23    2    1    2    0    0 -0.48788789049E+02 -0.15064259314E+03  0.23054505587E+02  0.18410398462E+03  0.91045209221E+02 0.  0.
          5    1    3    3  502    0  0.35861201116E+02  0.58795029094E+02 -0.98989557940E+01  0.69701814306E+02  0.41800000000E+01 0.  1.
         -5    1    3    3    0  502  0.12927587933E+02  0.91847564041E+02 -0.20524638846E+03  0.22527017096E+03  0.41800000000E+01 0.  1.
        -11    1    4    4    0    0 -0.23416809545E+02  0.30242597909E+01 -0.86804232760E+01  0.25156368275E+02  0.00000000000E+00 0.  1.
         11    1    4    4    0    0 -0.25371979504E+02 -0.15366685293E+03  0.31734928863E+02  0.15894761635E+03  0.00000000000E+00 0. -1.
</event>
<event>
 8    1  0.7039283E-009  0.1233919E+03  0.7561462E-02  0.1237604E+00
         -1   -1    0    0    0  501 -0.00000000000E+00  0.00000000000E+00  0.17871075831E+03  0.17871075831E+03  0.00000000000E+00 0.  1.
          1   -1    0    0  501    0  0.00000000000E+00 -0.00000000000E+00 -0.11642818228E+03  0.11642818228E+03  0.00000000000E+00 0. -1.
         25    2    1    2    0    0 -0.88366327805E+02 -0.11272531437E+02  0.51436039725E+01  0.15365514475E+03  0.12509104281E+03 0.  0.
         23    2    1    2    0    0  0.88366327805E+02  0.11272531437E+02  0.57138972061E+02  0.14148379585E+03  0.93899544750E+02 0.  0.
          5    1    3    3  502    0 -0.11485366931E+03 -0.31828761642E+02  0.92750037772E+01  0.11961577453E+03  0.41800000000E+01 0.  1.
         -5    1    3    3    0  502  0.26487341506E+02  0.20556230205E+02 -0.41313998047E+01  0.34039370215E+02  0.41800000000E+01 0.  1.
        -11    1    4    4    0    0  0.82124589655E+02  0.14922393968E+01  0.80745383565E+02  0.11518025860E+03  0.00000000000E+00 0.  1.
         11    1    4    4    0    0  0.62417381506E+01  0.97802920403E+01 -0.23606411504E+02  0.26303537246E+02  0.00000000000E+00 0. -1.
</event>
<event>
 8    1  0.7039283E-009  0.8700269E+02  0.7561462E-02  0.1310277E+00
          1   -1    0    0  501    0  0.00000000000E+00  0.00000000000E+00  0.20409975549E+03  0.20409975549E+03  0.00000000000E+00 0. -1.
         -1   -1    0    0    0  501 -0.00000000000E+00 -0.00000000000E+00 -0.76646837849E+02  0.76646837849E+02  0.00000000000E+00 0.  1.
         25    2    1    2    0    0  0.20433734541E+01 -0.25610745055E+02  0.62788191586E+01  0.12785580471E+03  0.12509035770E+03 0.  0.
         23    2    1    2    0    0 -0.20433734541E+01  0.25610745055E+02  0.12117409848E+03  0.15289078863E+03  0.89623353361E+02 0.  0.
          5    1    3    3  502    0  0.24389962489E+00 -0.67822067862E+02  0.35158952894E+02  0.76508278930E+02  0.41800000000E+01 0. -1.
         -5    1    3    3    0  502  0.17994738292E+01  0.42211322807E+02 -0.28880133735E+02  0.51347525780E+02  0.41800000000E+01 0. -1.
        -11    1    4    4    0    0 -0.22819850878E+02  0.34201671114E+02  0.12361752308E+03  0.13027583012E+03  0.00000000000E+00 0. -1.
         11    1    4    4    0    0  0.20776477424E+02 -0.85909260588E+01 -0.24434245965E+01  0.22614958511E+02  0.00000000000E+00 0.  1.
</event>
<event>
 8    1  0.7039283E-009  0.2370112E+03  0.7561462E-02  0.1121800E+00
          4   -1    0    0  501    0  0.00000000000E+00  0.00000000000E+00  0.41443513291E+03  0.41443513291E+03  0.00000000000E+00 0. -1.
         -4   -1    0    0    0  501 -0.00000000000E+00 -0.00000000000E+00 -0.18088924032E+03  0.18088924032E+03  0.00000000000E+00 0.  1.
         25    2    1    2    0    0 -0.34006786262E+02 -0.20948085972E+03  0.26127102602E+03  0.35909473341E+03  0.12509111249E+03 0.  0.
         23    2    1    2    0    0  0.34006786262E+02  0.20948085972E+03 -0.27725133432E+02  0.23622963982E+03  0.99985336943E+02 0.  0.
          5    1    3    3  502    0  0.41708380542E+02 -0.30143705836E+02  0.55745760843E+02  0.75982197000E+02  0.41800000000E+01 0. -1.
         -5    1    3    3    0  502 -0.75715166804E+02 -0.17933715388E+03  0.20552526518E+03  0.28311253641E+03  0.41800000000E+01 0. -1.
        -11    1    4    4    0    0  0.59023067992E+02  0.17764131163E+03 -0.44490090869E+02  0.19240459022E+03  0.00000000000E+00 0. -1.
         11    1    4    4    0    0 -0.25016281730E+02  0.31839548087E+02  0.16764957438E+02  0.43825049593E+02  0.00000000000E+00 0.  1.
</event>
<event>
 8    1  0.7039283E-009  0.1360050E+03  0.7561462E-02  0.1218808E+00
          3   -1    0    0  501    0  0.00000000000E+00  0.00000000000E+00  0.21164221633E+03  0.21164221633E+03  0.00000000000E+00 0. -1.
         -3   -1    0    0    0  501 -0.00000000000E+00 -0.00000000000E+00 -0.12257510319E+03  0.12257510319E+03  0.00000000000E+00 0.  1.
         25    2    1    2    0    0 -0.10865648632E+03 -0.39486126545E+02  0.74178980455E+02  0.18578295264E+03  0.12508956048E+03 0.  0.
         23    2    1    2    0    0  0.10865648632E+03  0.39486126545E+02  0.14888132687E+02  0.14843436688E+03  0.91900590686E+02 0.  0.
          5    1    3    3  502    0 -0.46656168190E+01 -0.21798656891E+02 -0.29905303217E+02  0.37533304984E+02  0.41800000000E+01 0.  1.
         -5    1    3    3    0  502 -0.10399086950E+03 -0.17687469654E+02  0.10408428367E+03  0.14824964765E+03  0.41800000000E+01 0.  1.
        -11    1    4    4    0    0  0.12248280783E+03  0.27658150828E+02  0.10439731958E+01  0.12557110098E+03  0.00000000000E+00 0.  1.
         11    1    4    4    0    0 -0.13826321507E+02  0.11827975717E+02  0.13844159491E+02  0.22863265908E+02  0.00000000000E+00 0. -1.
</event>
<event>
 8    1  0.7039283E-009  0.8020637E+02  0.7561462E-02  0.1328467E+00
         -2   -1    0    0    0  501 -0.00000000000E+00  0.00000000000E+00  0.38348454149E+02  0.38348454149E+02  0.00000000000E+00 0.  1.
          2   -1    0    0  501    0  0.00000000000E+00 -0.00000000000E+00 -0.41240422400E+03  0.41240422400E+03  0.00000000000E+00 0. -1.
         25    2    1    2    0    0  0.22117305121E+02 -0.19570665496E+02 -0.31043087441E+03  0.33598687111E+03  0.12509062168E+03 0.  0.
         23    2    1    2    0    0 -0.22117305121E+02  0.19570665496E+02 -0.63624895437E+02  0.11476580704E+03  0.90834338294E+02 0.  0.
          5    1    3    3  502    0 -0.28123316025E+02  0.53415337103E+01 -0.10416397855E+02  0.30747790667E+02  0.41800000000E+01 0.  1.
         -5    1    3    3    0  502  0.50240621146E+02 -0.24912199206E+02 -0.30001447656E+03  0.30523908044E+03  0.41800000000E+01 0.  1.
        -11    1    4    4    0    0  0.25266982169E+02  0.73646977650E+01  0.84579473993E+01  0.27644095849E+02  0.00000000000E+00 0. -1.
         11    1    4    4    0    0 -0.47384287290E+02  0.12205967731E+02 -0.72082842836E+02  0.87121711195E+02  0.00000000000E+00 0.  1.
</event>
<event>
 8    1  0.7039283E-009  0.8144021E+02  0.7561462E-02  0.1325013E+00
          2   -1    0    0  501    0  0.00000000000E+00  0.00000000000E+00  0.12884192084E+03  0.12884192084E+03  0.00000000000E+00 0.  1.
         -2   -1    0    0    0  501 -0.00000000000E+00 -0.00000000000E+00 -0.10378422574E+03  0.10378422574E+03  0.00000000000E+00 0. -1.
         25    2    1    2    0    0 -0.74330130802E+01  0.75191460099E+01  0.49866792194E+02  0.13508312792E+03  0.12509583224E+03 0.  0.
         23    2    1    2    0    0  0.74330130802E+01 -0.75191460099E+01 -0.24809097097E+02  0.97543018660E+02  0.93740929963E+02 0.  0.
          5    1    3    3  502    0 -0.45584235803E+01 -0.47336881262E+02  0.62417925376E+02  0.78581355049E+02  0.41800000000E+01 0. -1.
         -5    1    3    3    0  502 -0.28745894998E+01  0.54856027271E+02 -0.12551133183E+02  0.56501772866E+02  0.41800000000E+01 0. -1.
        -11    1    4    4    0    0 -0.21262180055E+02  0.12866259378E+02  0.25848093229E+02  0.35857284542E+02  0.00000000000E+00 0.  1.
         11    1    4    4    0    0  0.28695193136E+02 -0.20385405388E+02 -0.50657190326E+02  0.61685734118E+02  0.00000000000E+00 0. -1.
</event>
<event>
 8    1  0.7039283E-009  0.1190270E+03  0.7561462E-02  0.1244711E+00
          1   -1    0    0  501    0  0.00000000000E+00  0.00000000000E+00  0.38482894338E+03  0.38482894338E+03  0.00000000000E+00 0. -1.
         -1   -1    0    0    0  501 -0.00000000000E+00 -0.00000000000E+00 -0.65026168966E+02  0.65026168966E+02  0.00000000000E+00 0.  1.
         25    2    1    2    0    0  0.10658474155E+03  0.57054698258E+01  0.13208134392E+03  0.21091726347E+03  0.12509097131E+03 0.  0.
         23    2    1    2    0    0 -0.10658474155E+03 -0.57054698258E+01  0.18772143050E+03  0.23893784888E+03  0.10226974450E+03 0.  0.
          5    1    3    3  502    0  0.10393702304E+03  0.26781204079E+02  0.37315989589E+02  0.11371056736E+03  0.41800000000E+01 0. -1.
         -5    1    3    3    0  502  0.26477185077E+01 -0.21075734253E+02  0.94765354327E+02  0.97206696109E+02  0.41800000000E+01 0. -1.
        -11    1    4    4    0    0 -0.22915811288E+02  0.78685428939E+01  0.13915238484E+03  0.14124600731E+03  0.00000000000E+00 0. -1.
         11    1    4    4    0    0 -0.83668930263E+02 -0.13574012720E+02  0.48569045664E+02  0.97691841570E+02  0.00000000000E+00 0.  1.
</event>
<event>
 8    1  0.7039283E-009  0.1674116E+03  0.7561462E-02  0.1180574E+00
         -1   -1    0    0    0  501 -0.00000000000E+00  0.00000000000E+00  0.12305725174E+03  0.12305725174E+03  0.00000000000E+00 0.  1.
          1   -1    0    0  501    0  0.00000000000E+00 -0.00000000000E+00 -0.23462180213E+03  0.23462180213E+03  0.00000000000E+00 0. -1.
         25    2    1    2    0    0  0.65550288804E+02 -0.11118066702E+03 -0.76298267644E+02  0.19526201997E+03  0.12509136548E+03 0.  0.
         23    2    1    2    0    0 -0.65550288804E+02  0.11118066702E+03 -0.35266282744E+02  0.16241703389E+03  0.92073889444E+02 0.  0.
          5    1    3    3  502    0  0.87026090049E+02 -0.12607542413E+03 -0.66064096507E+02  0.16688466127E+03  0.41800000000E+01 0.  1.
         -5    1    3    3    0  502 -0.21475801245E+02  0.14894757107E+02 -0.10234171137E+02  0.28377358709E+02  0.41800000000E+01 0.  1.
        -11    1    4    4    0    0 -0.81765849532E+02  0.60006060820E+02 -0.38867100303E+02  0.10861414719E+03  0.00000000000E+00 0. -1.
         11    1    4    4    0    0  0.16215560728E+02  0.51174606203E+02  0.36008175594E+01  0.53802886696E+02  0.00000000000E+00 0.  1.
</event>
<event>
 8    1  0.7039283E-009  0.1961319E+03  0.7561462E-02  0.1153044E+00
         -1   -1    0    0    0  501 -0.00000000000E+00  0.00000000000E+00  0.53237549719E+03  0.53237549719E+03  0.00000000000E+00 0.  1.
          1   -1    0    0  501    0  0.00000000000E+00 -0.00000000000E+00 -0.76979882113E+02  0.76979882113E+02  0.00000000000E+00 0. -1.
         25    2    1    2    0    0 -0.37139451498E+02 -0.16135106849E+03  0.29615965069E+03  0.36162371458E+03  0.12509063149E+03 0.  0.
         23    2    1    2    0    0  0.37139451498E+02  0.16135106849E+03  0.15923596439E+03  0.24773166472E+03  0.92743620757E+02 0.  0.
          5    1    3    3  502    0 -0.43503423238E+02 -0.12082418564E+01  0.39033930970E+02  0.58609963733E+02  0.41800000000E+01 0. -1.
         -5    1    3    3    0  502  0.63639717408E+01 -0.16014282664E+03  0.25712571972E+03  0.30301375084E+03  0.41800000000E+01 0. -1.
        -11    1    4    4    0    0 -0.27380405496E+02  0.78957705804E+02  0.55114819459E+02  0.10010818765E+03  0.00000000000E+00 0. -1.
         11    1    4    4    0    0  0.64519856994E+02  0.82393362690E+02  0.10412114493E+03  0.14762347707E+03  0.00000000000E+00 0.  1.
</event>
<event>
 8    1  0.7039283E-009  0.1682159E+03  0.7561462E-02  0.1179721E+00
         -2   -1    0    0    0  501 -0.00000000000E+00  0.00000000000E+00  0.22355894740E+02  0.22355894740E+02  0.00000000000E+00 0.  1.
          2   -1    0    0  501    0  0.00000000000E+00 -0.00000000000E+00 -0.13980860722E+04  0.13980860722E+04  0.00000000000E+00 0. -1.
         25    2    1    2    0    0  0.10012754401E+02  0.13579693036E+03 -0.82774005985E+03  0.84813949026E+03  0.12508367884E+03 0.  0.
         23    2    1    2    0    0 -0.10012754401E+02 -0.13579693036E+03 -0.54799011760E+03  0.57230247667E+03  0.93251778920E+02 0.  0.
          5    1    3    3  502    0 -0.24955731195E+01 -0.21030078425E+02 -0.47351938633E+02  0.52040086242E+02  0.41800000000E+01 0.  1.
         -5    1    3    3    0  502  0.12508327520E+02  0.15682700878E+03 -0.78038812122E+03  0.79609940402E+03  0.41800000000E+01 0.  1.
        -11    1    4    4    0    0 -0.25629519579E+02 -0.54711717012E+01 -0.41510925744E+02  0.49091373476E+02  0.00000000000E+00 0.  1.
         11    1    4    4    0    0  0.15616765178E+02 -0.13032575865E+03 -0.50647919186E+03  0.52321110320E+03  0.00000000000E+00 0. -1.
</event>
<event>
 8    1  0.7039283E-009  0.2251747E+03  0.7561462E-02  0.1130083E+00
          1   -1    0    0  501    0  0.00000000000E+00  0.00000000000E+00  0.51834120933E+03  0.51834120933E+03  0.00000000000E+00 0. -1.
         -1   -1    0    0    0  501 -0.00000000000E+00 -0.00000000000E+00 -0.12320030446E+03  0.12320030446E+03  0.00000000000E+00 0.  1.
         25    2    1    2    0    0 -0.19551143848E+03 -0.63207811554E+01  0.57664174567E+02  0.23924398825E+03  0.12509138272E+03 0.  0.
         23    2    1    2    0    0  0.19551143848E+03  0.63207811554E+01  0.33747673030E+03  0.40229752554E+03  0.98428048379E+02 0.  0.
          5    1    3    3  502    0 -0.17989606331E+03  0.38375261304E+02  0.38380250977E+02  0.18795151061E+03  0.41800000000E+01 0.  1.
         -5    1    3    3    0  502 -0.15615375173E+02 -0.44696042459E+02  0.19283923590E+02  0.51292477639E+02  0.41800000000E+01 0.  1.
        -11    1    4    4    0    0  0.12248021186E+03 -0.43995625855E+02  0.19329408650E+03  0.23302279131E+03  0.00000000000E+00 0.  1.
         11    1    4    4    0    0  0.73031226623E+02  0.50316407010E+02  0.14418264380E+03  0.16927473423E+03  0.00000000000E+00 0. -1.
</event>
<event>
 8    1  0.7039283E-009  0.9885654E+02  0.7561462E-02  0.1282719E+00
         -3   -1    0    0    0  501 -0.00000000000E+00  0.00000000000E+00  0.52373084158E+02  0.52373084158E+02  0.00000000000E+00 0.  1.
          3   -1    0    0  501    0  0.00000000000E+00 -0.00000000000E+00 -0.24664618148E+03  0.24664618148E+03  0.00000000000E+00 0. -1.
         25    2    1    2    0    0  0.26947275686E+02  0.15094019281E+02 -0.87168772228E+02  0.15555827813E+03  0.12508396363E+03 0.  0.
         23    2    1    2    0    0 -0.26947275686E+02 -0.15094019281E+02 -0.10710432510E+03  0.14346098752E+03  0.90309099206E+02 0.  0.
          5    1    3    3  502    0  0.39765522624E+02 -0.49037160304E+02 -0.44639949188E+02  0.77434729571E+02  0.41800000000E+01 0.  1.
         -5    1    3    3    0  502 -0.12818246938E+02  0.64131179585E+02 -0.42528823040E+02  0.78123548554E+02  0.41800000000E+01 0.  1.
        -11    1    4    4    0    0 -0.15901969226E+02 -0.39248387546E+02 -0.10998263783E+02  0.43752375438E+02  0.00000000000E+00 0.  1.
         11    1    4    4    0    0 -0.11045306460E+02  0.24154368265E+02 -0.96106061315E+02  0.99708612078E+02  0.00000000000E+00 0. -1.
</event>
<event>
 8    1  0.7039283E-009  0.1579550E+03  0.7561462E-02  0.1191025E+00
         -2   -1    0    0    0  501 -0.00000000000E+00  0.00000000000E+00  0.95953736313E+03  0.95953736313E+03  0.00000000000E+00 0.  1.
          2   -1    0    0  501    0  0.00000000000E+00 -0.00000000000E+00 -0.30462483272E+02  0.30462483272E+02  0.00000000000E+00 0. -1.
         25    2    1    2    0    0 -0.41292146406E+02  0.10820738142E+03  0.31177910301E+03  0.35534550342E+03  0.12510131485E+03 0.  0.
         23    2    1    2    0    0  0.41292146406E+02 -0.10820738142E+03  0.61729577685E+03  0.63465434298E+03  0.91204058025E+02 0.  0.
          5    1    3    3  502    0 -0.12334222577E+02  0.13179483948E+03  0.25326985394E+03  0.28580606025E+03  0.41800000000E+01 0. -1.
         -5    1    3    3    0  502 -0.28957923829E+02 -0.23587458054E+02  0.58509249062E+02  0.69539443165E+02  0.41800000000E+01 0. -1.
        -11    1    4    4    0    0  0.69490975183E+02 -0.80728847538E+02  0.48832320335E+03  0.49980565562E+03  0.00000000000E+00 0. -1.
         11    1    4    4    0    0 -0.28198828778E+02 -0.27478533887E+02  0.12897257350E+03  0.13484868737E+03  0.00000000000E+00 0.  1.
</event>
<event>
 8    1  0.7039283E-009  0.1388000E+03  0.7561462E-02  0.1214953E+00
         -1   -1    0    0    0  501 -0.00000000000E+00  0.00000000000E+00  0.32634164289E+02  0.32634164289E+02  0.00000000000E+00 0.  1.
          1   -1    0    0  501    0  0.00000000000E+00 -0.00000000000E+00 -0.75704558072E+03  0.75704558072E+03  0.00000000000E+00 0. -1.
         25    2    1    2    0    0  0.52481851057E+02 -0.70568577478E+02 -0.56615620586E+03  0.58644277350E+03  0.12509199950E+03 0.  0.
         23    2    1    2    0    0 -0.52481851057E+02  0.70568577478E+02 -0.15825521057E+03  0.20323697151E+03  0.92337890906E+02 0.  0.
          5    1    3    3  502    0 -0.85091961357E+00 -0.93070548307E+02 -0.30485215618E+03  0.31877132957E+03  0.41800000000E+01 0.  1.
         -5    1    3    3    0  502  0.53332770671E+02  0.22501970829E+02 -0.26130404967E+03  0.26767144393E+03  0.41800000000E+01 0.  1.
        -11    1    4    4    0    0 -0.17430699856E+02  0.86252081837E+02 -0.97245340623E+02  0.13114841666E+03  0.00000000000E+00 0. -1.
         11    1    4    4    0    0 -0.35051151201E+02 -0.15683504358E+02 -0.61009869947E+02  0.72088554850E+02  0.00000000000E+00 0.  1.
</event>
<event>
 8    1  0.7039283E-009  0.1587096E+03  0.7561462E-02  0.1190161E+00
          2   -1    0    0  501    0  0.00000000000E+00  0.00000000000E+00  0.17017851050E+04  0.17017851050E+04  0.00000000000E+00 0. -1.
         -2   -1    0    0    0  501 -0.00000000000E+00 -0.00000000000E+00 -0.16996170767E+02  0.16996170767E+02  0.00000000000E+00 0.  1.
         25    2    1    2    0    0  0.97719757194E+02  0.81048651360E+02  0.10684507947E+04  0.10832124804E+04  0.12507654512E+03 0.  0.
         23    2    1    2    0    0 -0.97719757194E+02 -0.81048651360E+02  0.61633813947E+03  0.63556879532E+03  0.89201774548E+02 0.  0.
          5    1    3    3  502    0  0.39990820172E+02  0.96327330933E+02  0.45364398720E+03  0.46549818464E+03  0.41800000000E+01 0. -1.
         -5    1    3    3    0  502  0.57728937022E+02 -0.15278679573E+02  0.61480680755E+03  0.61771429579E+03  0.41800000000E+01 0. -1.
        -11    1    4    4    0    0 -0.30209912937E+02 -0.80154375596E+02  0.29339439858E+03  0.30564298763E+03  0.00000000000E+00 0.  1.
         11    1    4    4    0    0 -0.67509844257E+02 -0.89427576412E+00  0.32294374089E+03  0.32992580769E+03  0.00000000000E+00 0. -1.
</event>
<event>
 8    1  0.7039283E-009  0.1128782E+03  0.7561462E-02  0.1255331E+00
         -1   -1    0    0    0  501 -0.00000000000E+00  0.00000000000E+00  0.33080834884E+02  0.33080834884E+02  0.00000000000E+00 0.  1.
          1   -1    0    0  501    0  0.00000000000E+00 -0.00000000000E+00 -0.60746974013E+03  0.60746974013E+03  0.00000000000E+00 0. -1.
         25    2    1    2    0    0  0.38416737479E+02  0.36725035662E+02 -0.48098704016E+03  0.49981995619E+03  0.12508749676E+03 0.  0.
         23    2    1    2    0    0 -0.38416737479E+02 -0.36725035662E+02 -0.93401865094E+02  0.14073061883E+03  0.90865971131E+02 0.  0.
          5    1    3    3  502    0 -0.13950585525E+01 -0.39544959722E+02 -0.76129589994E+02  0.85900738649E+02  0.41800000000E+01 0.  1.
         -5    1    3    3    0  502  0.39811796032E+02  0.76269995384E+02 -0.40485745016E+03  0.41391921754E+03  0.41800000000E+01 0.  1.
        -11    1    4    4    0    0  0.14399654467E+02  0.18480463093E+02 -0.43703631624E+02  0.49587145331E+02  0.00000000000E+00 0. -1.
         11    1    4    4    0    0 -0.52816391946E+02 -0.55205498755E+02 -0.49698233470E+02  0.91143473497E+02  0.00000000000E+00 0.  1.
</event>
<event>
 8    1  0.7039283E-009  0.2840537E+03  0.7561462E-02  0.1093495E+00
         -1   -1    0    0    0  501 -0.00000000000E+00  0.00000000000E+00  0.65318528093E+02  0.65318528093E+02  0.00000000000E+00 0.  1.
          1   -1    0    0  501    0  0.00000000000E+00 -0.00000000000E+00 -0.14514383551E+04  0.14514383551E+04  0.00000000000E+00 0. -1.
         25    2    1    2    0    0  0.19505316159E+02 -0.26750804798E+03 -0.96376629638E+03  0.10081836939E+04  0.12509146087E+03 0.  0.
         23    2    1    2    0    0 -0.19505316159E+02  0.26750804798E+03 -0.42235353064E+03  0.50857318927E+03  0.91231414067E+02 0.  0.
          5    1    3    3  502    0  0.11773119261E+02  0.10980853997E+02 -0.72336135397E+02  0.74223812727E+02  0.41800000000E+01 0.  1.
         -5    1    3    3    0  502  0.77321968977E+01 -0.27848890197E+03 -0.89143016098E+03  0.93395988120E+03  0.41800000000E+01 0.  1.
        -11    1    4    4    0    0 -0.35808984207E+02  0.15010486185E+03 -0.30478526526E+03  0.34162524910E+03  0.00000000000E+00 0.  1.
         11    1    4    4    0    0  0.16303668049E+02  0.11740318613E+03 -0.11756826538E+03  0.16694794018E+03  0.00000000000E+00 0. -1.
</event>
<event>
 8    1  0.7039283E-009  0.1128805E+03  0.7561462E-02  0.1255327E+00
         -2   -1    0    0    0  501 -0.00000000000E+00  0.00000000000E+00  0.94822204933E+01  0.94822204933E+01  0.00000000000E+00 0.  1.
          2   -1    0    0  501    0  0.00000000000E+00 -0.00000000000E+00 -0.19051106760E+04  0.19051106760E+04  0.00000000000E+00 0. -1.
         25    2    1    2    0    0 -0.45449228949E+02 -0.48331900764E+02 -0.14547983610E+04  0.14616727930E+04  0.12508987833E+03 0.  0.
         23    2    1    2    0    0  0.45449228949E+02  0.48331900764E+02 -0.44083009455E+03  0.45292010351E+03  0.80024014268E+02 0.  0.
          5    1    3    3  502    0 -0.66697578582E+02 -0.66115866436E+02 -0.69155840381E+03  0.69791860060E+03  0.41800000000E+01 0. -1.
         -5    1    3    3    0  502  0.21248349633E+02  0.17783965672E+02 -0.76323995714E+03  0.76375419238E+03  0.41800000000E+01 0. -1.
        -11    1    4    4    0    0 -0.21807995567E+02  0.23440494331E+02 -0.14994154050E+03  0.15332159343E+03  0.00000000000E+00 0.  1.
         11    1    4    4    0    0  0.67257224516E+02  0.24891406433E+02 -0.29088855406E+03  0.29959851008E+03  0.00000000000E+00 0. -1.
</event>
<event>
 8    1  0.7039283E-009  0.1254530E+03  0.7561462E-02  0.1234363E+00
          2   -1    0    0  501    0  0.00000000000E+00  0.00000000000E+00  0.13153220968E+03  0.13153220968E+03  0.00000000000E+00 0. -1.
         -2   -1    0    0    0  501 -0.00000000000E+00 -0.00000000000E+00 -0.14308957336E+03  0.14308957336E+03  0.00000000000E+00 0.  1.
         25    2    1    2    0    0  0.25323607944E+02  0.76694316004E+02  0.18448911449E+02  0.15002786470E+03  0.12507875370E+03 0.  0.
         23    2    1    2    0    0 -0.25323607944E+02 -0.76694316004E+02 -0.30006275127E+02  0.12459391835E+03  0.89999803978E+02 0.  0.
          5    1    3    3  502    0 -0.35980631869E+02 -0.53213155134E+01  0.29412457927E+02  0.46962616514E+02  0.41800000000E+01 0.  1.
         -5    1    3    3    0  502  0.61304239813E+02  0.82015631517E+02 -0.10963546479E+02  0.10306524819E+03  0.41800000000E+01 0.  1.
        -11    1    4    4    0    0  0.17543296877E+02 -0.65078017855E+02 -0.40932461143E+02  0.78856718474E+02  0.00000000000E+00 0.  1.
         11    1    4    4    0    0 -0.42866904821E+02 -0.11616298149E+02  0.10926186016E+02  0.45737199876E+02  0.00000000000E+00 0. -1.
</event>
<event>
 8    1  0.7039283E-009  0.3291249E+03  0.7561462E-02  0.1071525E+00
          2   -1    0    0  501    0  0.00000000000E+00  0.00000000000E+00  0.23433683172E+04  0.23433683172E+04  0.00000000000E+00 0.  1.
         -2   -1    0    0    0  501 -0.00000000000E+00 -0.00000000000E+00 -0.48179058579E+02  0.48179058579E+02  0.00000000000E+00 0. -1.
         25    2    1    2    0    0 -0.29210281470E+03  0.11434883810E+03  0.13448962484E+04  0.13866482812E+04  0.12509127004E+03 0.  0.
         23    2    1    2    0    0  0.29210281470E+03 -0.11434883810E+03  0.95029301025E+03  0.10048990945E+04  0.91464057185E+02 0.  0.
          5    1    3    3  502    0 -0.19236514686E+03  0.91073168649E+01  0.75822767766E+03  0.78231322149E+03  0.41800000000E+01 0. -1.
         -5    1    3    3    0  502 -0.99737667836E+02  0.10524152123E+03  0.58666857072E+03  0.60433505976E+03  0.41800000000E+01 0. -1.
        -11    1    4    4    0    0  0.21819320509E+03 -0.11502671461E+03  0.63903258986E+03  0.68498326310E+03  0.00000000000E+00 0. -1.
         11    1    4    4    0    0  0.73909609608E+02  0.67787650840E+00  0.31126042038E+03  0.31991583144E+03  0.00000000000E+00 0.  1.
</event>
<event>
 8    1  0.7039283E-009  0.1144786E+03  0.7561462E-02  0.1252494E+00
         -2   -1    0    0    0  501 -0.00000000000E+00  0.00000000000E+00  0.52434312891E+03  0.52434312891E+03  0.00000000000E+00 0. -1.
          2   -1    0    0  501    0  0.00000000000E+00 -0.00000000000E+00 -0.39100710937E+02  0.39100710937E+02  0.00000000000E+00 0.  1.
         25    2    1    2    0    0 -0.79288361393E+02 -0.24647604638E+02  0.18049465823E+03  0.23477683857E+03  0.12509074151E+03 0.  0.
         23    2    1    2    0    0  0.79288361393E+02  0.24647604638E+02  0.30474775974E+03  0.32866700128E+03  0.90866121281E+02 0.  0.
          5    1    3    3  502    0 -0.45935116156E+01 -0.40966967366E+02  0.30868298717E+01  0.41549893896E+02  0.41800000000E+01 0.  1.
         -5    1    3    3    0  502 -0.74694849777E+02  0.16319362728E+02  0.17740782836E+03  0.19322694467E+03  0.41800000000E+01 0.  1.
        -11    1    4    4    0    0  0.55166389776E+02 -0.21236460656E+02  0.89458489271E+02  0.10722471322E+03  0.00000000000E+00 0.  1.
         11    1    4    4    0    0  0.24121971616E+02  0.45884065293E+02  0.21528927047E+03  0.22144228806E+03  0.00000000000E+00 0. -1.
</event>
<event>
 8    1  0.7039283E-009  0.1810438E+03  0.7561462E-02  0.1166797E+00
         -2   -1    0    0    0  501 -0.00000000000E+00  0.00000000000E+00  0.33771763737E+02  0.33771763737E+02  0.00000000000E+00 0. -1.
          2   -1    0    0  501    0  0.00000000000E+00 -0.00000000000E+00 -0.10573722529E+04  0.10573722529E+04  0.00000000000E+00 0.  1.
         25    2    1    2    0    0 -0.14737280004E+03 -0.44495767833E+02 -0.56001237146E+03  0.59410531773E+03  0.12509459148E+03 0.  0.
         23    2    1    2    0    0  0.14737280004E+03  0.44495767833E+02 -0.46358811770E+03  0.49703869891E+03  0.91841764942E+02 0.  0.
          5    1    3    3  502    0 -0.12824428879E+03  0.14119798619E+02 -0.44739950385E+03  0.46564981989E+03  0.41800000000E+01 0.  1.
         -5    1    3    3    0  502 -0.19128511251E+02 -0.58615566451E+02 -0.11261286761E+03  0.12845549783E+03  0.41800000000E+01 0.  1.
        -11    1    4    4    0    0  0.10564725070E+03 -0.58539819866E+01 -0.20993560454E+03  0.23509268116E+03  0.00000000000E+00 0. -1.
         11    1    4    4    0    0  0.41725549346E+02  0.50349749819E+02 -0.25365251317E+03  0.26194601774E+03  0.00000000000E+00 0.  1.
</event>
<event>
 8    1  0.7039283E-009  0.8807726E+02  0.7561462E-02  0.1307576E+00
         -1   -1    0    0    0  501 -0.00000000000E+00  0.00000000000E+00  0.26171542225E+02  0.26171542225E+02  0.00000000000E+00 0.  1.
          1   -1    0    0  501    0  0.00000000000E+00 -0.00000000000E+00 -0.47771059862E+03  0.47771059862E+03  0.00000000000E+00 0. -1.
         25    2    1    2    0    0  0.26403123865E+02  0.12515216308E+02 -0.24487718388E+03  0.27652349677E+03  0.12508658398E+03 0.  0.
         23    2    1    2    0    0 -0.26403123865E+02 -0.12515216308E+02 -0.20666187252E+03  0.22735864408E+03  0.90161343687E+02 0.  0.
          5    1    3    3  502    0  0.23871460797E+02  0.51146107320E+02 -0.22650346078E+03  0.23346747328E+03  0.41800000000E+01 0.  1.
         -5    1    3    3    0  502  0.25316630678E+01 -0.38630891012E+02 -0.18373723104E+02  0.43056023492E+02  0.41800000000E+01 0.  1.
        -11    1    4    4    0    0 -0.52100314391E+02 -0.14864254216E+00 -0.67307515312E+02  0.85116193945E+02  0.00000000000E+00 0.  1.
         11    1    4    4    0    0  0.25697190526E+02 -0.12366573766E+02 -0.13935435720E+03  0.14224245013E+03  0.00000000000E+00 0. -1.
</event>
<event>
 8    1  0.7039283E-009  0.2537503E+03  0.7561462E-02  0.1110957E+00
         -1   -1    0    0    0  501 -0.00000000000E+00  0.00000000000E+00  0.36911302960E+03  0.36911302960E+03  0.00000000000E+00 0.  1.
          1   -1    0    0  501    0  0.00000000000E+00 -0.00000000000E+00 -0.19762934269E+03  0.19762934269E+03  0.00000000000E+00 0. -1.
         25    2    1    2    0    0 -0.24225189119E+03  0.37703197979E+02  0.54968268852E+02  0.28067113412E+03  0.12508902839E+03 0.  0.
         23    2    1    2    0    0  0.24225189119E+03 -0.37703197979E+02  0.11651541806E+03  0.28607123816E+03  0.90296183393E+02 0.  0.
          5    1    3    3  502    0 -0.21641950313E+03  0.62825322751E+02  0.77055626685E+02  0.23820047128E+03  0.41800000000E+01 0. -1.
         -5    1    3    3    0  502 -0.25832388067E+02 -0.25122124772E+02 -0.22087357833E+02  0.42470662843E+02  0.41800000000E+01 0. -1.
        -11    1    4    4    0    0  0.19618058937E+03 -0.37651835565E+02  0.12967199188E+03  0.23815816141E+03  0.00000000000E+00 0.  1.
         11    1    4    4    0    0  0.46071301821E+02 -0.51362414126E-01 -0.13156573820E+02  0.47913076757E+02  0.00000000000E+00 0. -1.
</event>
<event>
 8    1  0.7039283E-009  0.1093889E+03  0.7561462E-02  0.1261706E+00
          1   -1    0    0  501    0  0.00000000000E+00  0.00000000000E+00  0.32948509477E+03  0.32948509477E+03  0.00000000000E+00 0. -1.
         -1   -1    0    0    0  501 -0.00000000000E+00 -0.00000000000E+00 -0.47949311676E+02  0.47949311676E+02  0.00000000000E+00 0.  1.
         25    2    1    2    0    0 -0.10772369549E+02  0.61265045236E+02  0.14520759562E+03  0.20150002233E+03  0.12509022127E+03 0.  0.
         23    2    1    2    0    0  0.10772369549E+02 -0.61265045236E+02  0.13632818747E+03  0.17593438411E+03  0.92185048147E+02 0.  0.
          5    1    3    3  502    0  0.44919119308E+02  0.67918764555E+02  0.69179918394E+02  0.10692997413E+03  0.41800000000E+01 0. -1.
         -5    1    3    3    0  502 -0.55691488857E+02 -0.66537193190E+01  0.76027677230E+02  0.94570048201E+02  0.41800000000E+01 0. -1.
        -11    1    4    4    0    0 -0.17247477453E+02 -0.45919469137E+02  0.16241151600E+02  0.51670573150E+02  0.00000000000E+00 0.  1.
         11    1    4    4    0    0  0.28019847002E+02 -0.15345576098E+02  0.12008703587E+03  0.12426381096E+03  0.00000000000E+00 0. -1.
</event>
<event>
 8    1  0.7039283E-009  0.9963724E+02  0.7561462E-02  0.1281061E+00
         -1   -1    0    0    0  501 -0.00000000000E+00  0.00000000000E+00  0.22380670380E+03  0.22380670380E+03  0.00000000000E+00 0.  1.
          1   -1    0    0  501    0  0.00000000000E+00 -0.00000000000E+00 -0.90485149666E+02  0.90485149666E+02  0.00000000000E+00 0. -1.
         25    2    1    2    0    0  0.10058125826E+02  0.62278114719E+02  0.14600626545E+03  0.20234818736E+03  0.12508888803E+03 0.  0.
         23    2    1    2    0    0 -0.10058125826E+02 -0.62278114719E+02 -0.12684711317E+02  0.11194366610E+03  0.91601053551E+02 0.  0.
          5    1    3    3  502    0  0.41763986948E+02  0.83282662226E+02  0.13196137846E+03  0.16159056358E+03  0.41800000000E+01 0. -1.
         -5    1    3    3    0  502 -0.31705861122E+02 -0.21004547507E+02  0.14044886986E+02  0.40757623777E+02  0.41800000000E+01 0. -1.
        -11    1    4    4    0    0  0.77088963923E+01 -0.29241752594E+02  0.38203825796E+02  0.48724116040E+02  0.00000000000E+00 0.  1.
         11    1    4    4    0    0 -0.17767022218E+02 -0.33036362125E+02 -0.50888537113E+02  0.63219550065E+02  0.00000000000E+00 0. -1.
</event>
<event>
 8    1  0.7039283E-009  0.1102054E+03  0.7561462E-02  0.1260190E+00
          1   -1    0    0  501    0  0.00000000000E+00  0.00000000000E+00  0.13988847599E+03  0.13988847599E+03  0.00000000000E+00 0. -1.
         -1   -1    0    0    0  501 -0.00000000000E+00 -0.00000000000E+00 -0.11871009064E+03  0.11871009064E+03  0.00000000000E+00 0.  1.
         25    2    1    2    0    0 -0.49076086881E+02  0.43899255028E+02 -0.11140479589E+02  0.14180146083E+03  0.12509171481E+03 0.  0.
         23    2    1    2    0    0  0.49076086881E+02 -0.43899255028E+02  0.32318864935E+02  0.11679710579E+03  0.90892507915E+02 0.  0.
          5    1    3    3  502    0  0.33881427265E+02  0.26495186135E+02 -0.32756301610E+02  0.54225397158E+02  0.41800000000E+01 0. -1.
         -5    1    3    3    0  502 -0.82957514146E+02  0.17404068893E+02  0.21615822021E+02  0.87576063676E+02  0.41800000000E+01 0. -1.
        -11    1    4    4    0    0  0.33391617876E+02 -0.60742460361E+02  0.51889421027E+02  0.86586134281E+02  0.00000000000E+00 0. -1.
         11    1    4    4    0    0  0.15684469005E+02  0.16843205333E+02 -0.19570556093E+02  0.30210971511E+02  0.00000000000E+00 0.  1.
</event>
<event>
 8    1  0.7039283E-009  0.9800719E+02  0.7561462E-02  0.1284543E+00
         -2   -1    0    0    0  501 -0.00000000000E+00  0.00000000000E+00  0.23258297835E+03  0.23258297835E+03  0.00000000000E+00 0.  1.
          2   -1    0    0  501    0  0.00000000000E+00 -0.00000000000E+00 -0.82941502655E+02  0.82941502655E+02  0.00000000000E+00 0. -1.
         25    2    1    2    0    0  0.43976738330E+02 -0.11488071240E+02 -0.16048251234E+01  0.13310188065E+03  0.12509039082E+03 0.  0.
         23    2    1    2    0    0 -0.43976738330E+02  0.11488071240E+02  0.15124630082E+03  0.18242260035E+03  0.91305160380E+02 0.  0.
          5    1    3    3  502    0  0.27494181071E+02 -0.65159661528E+02  0.18664413192E+02  0.73263525734E+02  0.41800000000E+01 0.  1.
         -5    1    3    3    0  502  0.16482557259E+02  0.53671590287E+02 -0.20269238315E+02  0.59838354921E+02  0.41800000000E+01 0.  1.
        -11    1    4    4    0    0 -0.13266003889E-01  0.23335478434E+02 -0.11559937118E+01  0.23364097483E+02  0.00000000000E+00 0. -1.
         11    1    4    4    0    0 -0.43963472326E+02 -0.11847407194E+02  0.15240229453E+03  0.15905850286E+03  0.00000000000E+00 0.  1.
</event>
<event>
 8    1  0.7039283E-009  0.1838791E+03  0.7561462E-02  0.1164101E+00
          2   -1    0    0  501    0  0.00000000000E+00  0.00000000000E+00  0.49816057136E+03  0.49816057136E+03  0.00000000000E+00 0. -1.
         -2   -1    0    0    0  501 -0.00000000000E+00 -0.00000000000E+00 -0.12378806082E+03  0.12378806082E+03  0.00000000000E+00 0.  1.
         25    2    1    2    0    0 -0.95490364826E+02 -0.12692063116E+03  0.38690379419E+03  0.43654280433E+03  0.12509123737E+03 0.  0.
         23    2    1    2    0    0  0.95490364826E+02  0.12692063116E+03 -0.12531283649E+02  0.18540582785E+03  0.94821050103E+02 0.  0.
          5    1    3    3  502    0  0.87525968389E+01  0.93501258486E+01  0.10961818626E+03  0.11044298060E+03  0.41800000000E+01 0.  1.
         -5    1    3    3    0  502 -0.10424296167E+03 -0.13627075701E+03  0.27728560793E+03  0.32609982373E+03  0.41800000000E+01 0.  1.
        -11    1    4    4    0    0  0.11168821973E+03  0.94020992140E+02 -0.21721327309E+02  0.14760088567E+03  0.00000000000E+00 0.  1.
         11    1    4    4    0    0 -0.16197854903E+02  0.32899639024E+02  0.91900436603E+01  0.37804942188E+02  0.00000000000E+00 0. -1.
</event>
<event>
 8    1  0.7039283E-009  0.2178022E+03  0.7561462E-02  0.1135532E+00
         -1   -1    0    0    0  501 -0.00000000000E+00  0.00000000000E+00  0.30306684056E+03  0.30306684056E+03  0.00000000000E+00 0.  1.
          1   -1    0    0  501    0  0.00000000000E+00 -0.00000000000E+00 -0.37536682118E+03  0.37536682118E+03  0.00000000000E+00 0. -1.
         25    2    1    2    0    0 -0.21150957554E+03 -0.28478298805E+02 -0.27534403394E+03  0.37014644569E+03  0.12508693052E+03 0.  0.
         23    2    1    2    0    0  0.21150957554E+03  0.28478298805E+02  0.20304405331E+03  0.30828721605E+03  0.90921977247E+02 0.  0.
          5    1    3    3  502    0 -0.26450296989E+02  0.13006662990E+02  0.64400778063E+01  0.30458799962E+02  0.41800000000E+01 0.  1.
         -5    1    3    3    0  502 -0.18505927855E+03 -0.41484961796E+02 -0.28178411174E+03  0.33968764573E+03  0.41800000000E+01 0.  1.
        -11    1    4    4    0    0  0.15262807293E+03  0.35886761822E+02  0.19206275205E+03  0.24793404173E+03  0.00000000000E+00 0.  1.
         11    1    4    4    0    0  0.58881502607E+02 -0.74084630161E+01  0.10981301261E+02  0.60353174324E+02  0.00000000000E+00 0. -1.
</event>
<event>
 8    1  0.7039283E-009  0.4183060E+03  0.7561462E-02  0.1037619E+00
         -1   -1    0    0    0  501 -0.00000000000E+00  0.00000000000E+00  0.87663365048E+02  0.87663365048E+02  0.00000000000E+00 0.  1.
          1   -1    0    0  501    0  0.00000000000E+00 -0.00000000000E+00 -0.20754130207E+04  0.20754130207E+04  0.00000000000E+00 0. -1.
         25    2    1    2    0    0  0.34918320623E+03 -0.20883647550E+03 -0.11680917533E+04  0.12432325507E+04  0.12508895169E+03 0.  0.
         23    2    1    2    0    0 -0.34918320623E+03  0.20883647550E+03 -0.81965790231E+03  0.91984383507E+03  0.93445273207E+02 0.  0.
          5    1    3    3  502    0  0.35692010756E+03 -0.20698079023E+03 -0.11597771883E+04  0.12309888747E+04  0.41800000000E+01 0. -1.
         -5    1    3    3    0  502 -0.77369013346E+01 -0.18556852650E+01 -0.83145650646E+01  0.12243676012E+02  0.41800000000E+01 0. -1.
        -11    1    4    4    0    0 -0.12566003887E+03  0.12221142496E+03 -0.39610997871E+03  0.43316185542E+03  0.00000000000E+00 0.  1.
         11    1    4    4    0    0 -0.22352316736E+03  0.86625050540E+02 -0.42354792360E+03  0.48668197965E+03  0.00000000000E+00 0. -1.
</event>
<event>
 8    1  0.7039283E-009  0.1002161E+03  0.7561462E-02  0.1279842E+00
          2   -1    0    0  501    0  0.00000000000E+00  0.00000000000E+00  0.22131023544E+03  0.22131023544E+03  0.00000000000E+00 0.  1.
         -2   -1    0    0    0  501 -0.00000000000E+00 -0.00000000000E+00 -0.60658685660E+02  0.60658685660E+02  0.00000000000E+00 0. -1.
         25    2    1    2    0    0 -0.24537687169E+02 -0.11243646117E+02  0.12748029823E+03  0.18062968945E+03  0.12508933050E+03 0.  0.
         23    2    1    2    0    0  0.24537687169E+02  0.11243646117E+02  0.33171251551E+02  0.10133923165E+03  0.91873773581E+02 0.  0.
          5    1    3    3  502    0  0.38072333568E+02 -0.42964696856E+02  0.53867223777E+02  0.78832848209E+02  0.41800000000E+01 0.  1.
         -5    1    3    3    0  502 -0.62610020737E+02  0.31721050739E+02  0.73613074453E+02  0.10179684124E+03  0.41800000000E+01 0.  1.
        -11    1    4    4    0    0  0.65152786199E+01 -0.28334667232E+02  0.47379253993E+02  0.55588631316E+02  0.00000000000E+00 0.  1.
         11    1    4    4    0    0  0.18022408549E+02  0.39578313349E+02 -0.14208002441E+02  0.45750600333E+02  0.00000000000E+00 0. -1.
</event>
<event>
 8    1  0.7039283E-009  0.1350938E+03  0.7561462E-02  0.1220087E+00
         -2   -1    0    0    0  501 -0.00000000000E+00  0.00000000000E+00  0.23443985416E+02  0.23443985416E+02  0.00000000000E+00 0.  1.
          2   -1    0    0  501    0  0.00000000000E+00 -0.00000000000E+00 -0.11347724773E+04  0.11347724773E+04  0.00000000000E+00 0. -1.
         25    2    1    2    0    0 -0.75077284939E+02  0.89293612207E+02 -0.69438403098E+03  0.71514106570E+03  0.12509042122E+03 0.  0.
         23    2    1    2    0    0  0.75077284939E+02 -0.89293612207E+02 -0.41694446094E+03  0.44307539705E+03  0.94144442561E+02 0.  0.
          5    1    3    3  502    0 -0.17740759821E+02  0.50364749248E+02 -0.76603840503E+02  0.93471724632E+02  0.41800000000E+01 0. -1.
         -5    1    3    3    0  502 -0.57336525118E+02  0.38928862959E+02 -0.61778019048E+03  0.62166934107E+03  0.41800000000E+01 0. -1.
        -11    1    4    4    0    0  0.86509866406E+02 -0.37727171907E+02 -0.22490695735E+03  0.24390661317E+03  0.00000000000E+00 0. -1.
         11    1    4    4    0    0 -0.11432581467E+02 -0.51566440300E+02 -0.19203750360E+03  0.19916878388E+03  0.00000000000E+00 0.  1.
</event>
<event>
 8    1  0.7039283E-009  0.1057911E+03  0.7561462E-02  0.1268569E+00
         -2   -1    0    0    0  501 -0.00000000000E+00  0.00000000000E+00  0.15353240950E+02  0.15353240950E+02  0.00000000000E+00 0. -1.
          2   -1    0    0  501    0  0.00000000000E+00 -0.00000000000E+00 -0.85798475743E+03  0.85798475743E+03  0.00000000000E+00 0.  1.
         25    2    1    2    0    0 -0.97726943773E+01 -0.22542400287E+02 -0.48250635728E+03  0.49906554207E+03  0.12510141928E+03 0.  0.
         23    2    1    2    0    0  0.97726943773E+01  0.22542400287E+02 -0.36012515920E+03  0.37427245630E+03  0.98924597000E+02 0.  0.
          5    1    3    3  502    0 -0.38027096909E+02 -0.54638472284E+02 -0.15485025861E+03  0.16860456027E+03  0.41800000000E+01 0. -1.
         -5    1    3    3    0  502  0.28254402532E+02  0.32096071996E+02 -0.32765609867E+03  0.33046098180E+03  0.41800000000E+01 0. -1.
        -11    1    4    4    0    0  0.40818766079E+02 -0.22960019089E+02 -0.16259067429E+03  0.16920124559E+03  0.00000000000E+00 0. -1.
         11    1    4    4    0    0 -0.31046071702E+02  0.45502419377E+02 -0.19753448491E+03  0.20507121072E+03  0.00000000000E+00 0.  1.
</event>
<event>
 8    1  0.7039283E-009  0.8790427E+02  0.7561462E-02  0.1308008E+00
          1   -1    0    0  501    0  0.00000000000E+00  0.00000000000E+00  0.45674829431E+03  0.45674829431E+03  0.00000000000E+00 0. -1.
         -1   -1    0    0    0  501 -0.00000000000E+00 -0.00000000000E+00 -0.32330111026E+02  0.32330111026E+02  0.00000000000E+00 0.  1.
         25    2    1    2    0    0 -0.39249659137E+01 -0.56113375252E+02  0.27136102416E+03  0.30405374987E+03  0.12509101142E+03 0.  0.
         23    2    1    2    0    0  0.39249659137E+01  0.56113375252E+02  0.15305715913E+03  0.18502465547E+03  0.87427186457E+02 0.  0.
          5    1    3    3  502    0  0.46265102011E+02 -0.74194239341E+01  0.38208711694E+02  0.60604336189E+02  0.41800000000E+01 0.  1.
         -5    1    3    3    0  502 -0.50190067925E+02 -0.48693951318E+02  0.23315231246E+03  0.24344941368E+03  0.41800000000E+01 0.  1.
        -11    1    4    4    0    0  0.73663964705E+01  0.97450173957E+01 -0.97994443367E+01  0.15660723812E+02  0.00000000000E+00 0.  1.
         11    1    4    4    0    0 -0.34414305568E+01  0.46368357856E+02  0.16285660347E+03  0.16936393166E+03  0.00000000000E+00 0. -1.
</event>
<event>
 8    1  0.7039283E-009  0.9190683E+02  0.7561462E-02  0.1298299E+00
          1   -1    0    0  501    0  0.00000000000E+00  0.00000000000E+00  0.42564754821E+02  0.42564754821E+02  0.00000000000E+00 0. -1.
         -1   -1    0    0    0  501 -0.00000000000E+00 -0.00000000000E+00 -0.27458685109E+03  0.27458685109E+03  0.00000000000E+00 0.  1.
         25    2    1    2    0    0 -0.16676580719E+02 -0.87358741481E-01 -0.13531112924E+03  0.18502840836E+03  0.12509314221E+03 0.  0.
         23    2    1    2    0    0  0.16676580719E+02  0.87358741480E-01 -0.96710967031E+02  0.13212319755E+03  0.88461359991E+02 0.  0.
          5    1    3    3  502    0 -0.20117918616E+02 -0.60026551163E+02 -0.87940712458E+02  0.10843873294E+03  0.41800000000E+01 0. -1.
         -5    1    3    3    0  502  0.34413378972E+01  0.59939192421E+02 -0.47370416777E+02  0.76589675416E+02  0.41800000000E+01 0. -1.
        -11    1    4    4    0    0  0.23405614549E+02 -0.24978675734E+02 -0.10024666367E+03  0.10592993255E+03  0.00000000000E+00 0.  1.
         11    1    4    4    0    0 -0.67290338300E+01  0.25066034475E+02  0.35356966389E+01  0.26193264999E+02  0.00000000000E+00 0. -1.
</event>
<event>
 8    1  0.7039283E-009  0.1042981E+03  0.7561462E-02  0.1271509E+00
          2   -1    0    0  501    0  0.00000000000E+00  0.00000000000E+00  0.23385788538E+03  0.23385788538E+03  0.00000000000E+00 0. -1.
         -2   -1    0    0    0  501 -0.00000000000E+00 -0.00000000000E+00 -0.76706396248E+02  0.76706396248E+02  0.00000000000E+00 0.  1.
         25    2    1    2    0    0  0.40471381581E+02 -0.65765114769E+02  0.88921328685E+02  0.17180737122E+03  0.12509111505E+03 0.  0.
         23    2    1    2    0    0 -0.40471381581E+02  0.65765114769E+02  0.68230160450E+02  0.13875691041E+03  0.92925466601E+02 0.  0.
          5    1    3    3  502    0  0.15034885359E+02 -0.87233300878E+02  0.13998177646E+02  0.89716876546E+02  0.41800000000E+01 0.  1.
         -5    1    3    3    0  502  0.25436496222E+02  0.21468186109E+02  0.74923151039E+02  0.82090494678E+02  0.41800000000E+01 0.  1.
        -11    1    4    4    0    0 -0.21110480476E+02  0.63525645599E+02 -0.88394795805E+00  0.66947303147E+02  0.00000000000E+00 0.  1.
         11    1    4    4    0    0 -0.19360901105E+02  0.22394691699E+01  0.69114108408E+02  0.71809607260E+02  0.00000000000E+00 0. -1.
</event>
<event>
 8    1  0.7039283E-009  0.1232884E+03  0.7561462E-02  0.1237769E+00
         -4   -1    0    0    0  501 -0.00000000000E+00  0.00000000000E+00  0.88830035050E+02  0.88830035050E+02  0.00000000000E+00 0.  1.
          4   -1    0    0  501    0  0.00000000000E+00 -0.00000000000E+00 -0.17881317599E+03  0.17881317599E+03  0.00000000000E+00 0. -1.
         25    2    1    2    0    0 -0.54131176204E+02  0.44236665249E+02 -0.40342604947E+02  0.14886316018E+03  0.12508256431E+03 0.  0.
         23    2    1    2    0    0  0.54131176204E+02 -0.44236665249E+02 -0.49640535988E+02  0.11878005085E+03  0.82203715719E+02 0.  0.
          5    1    3    3  502    0 -0.52740221967E+02 -0.32394548066E+02 -0.36570967221E+02  0.72012816922E+02  0.41800000000E+01 0. -1.
         -5    1    3    3    0  502 -0.13909542376E+01  0.76631213316E+02 -0.37716377255E+01  0.76850343259E+02  0.41800000000E+01 0. -1.
        -11    1    4    4    0    0 -0.15402283501E+02 -0.34227557744E+02 -0.14567479492E+02  0.40261240728E+02  0.00000000000E+00 0. -1.
         11    1    4    4    0    0  0.69533459706E+02 -0.10009107505E+02 -0.35073056496E+02  0.78518810126E+02  0.00000000000E+00 0.  1.
</event>
<event>
 8    1  0.7039283E-009  0.1014992E+03  0.7561462E-02  0.1277175E+00
          1   -1    0    0  501    0  0.00000000000E+00  0.00000000000E+00  0.61367502430E+02  0.61367502430E+02  0.00000000000E+00 0. -1.
         -1   -1    0    0    0  501 -0.00000000000E+00 -0.00000000000E+00 -0.23214624755E+03  0.23214624755E+03  0.00000000000E+00 0.  1.
         25    2    1    2    0    0 -0.30978748668E+02  0.33017200933E+02 -0.11088452428E+03  0.17317684268E+03  0.12508006511E+03 0.  0.
         23    2    1    2    0    0  0.30978748668E+02 -0.33017200933E+02 -0.59894220832E+02  0.12033690730E+03  0.94041667052E+02 0.  0.
          5    1    3    3  502    0 -0.54449360731E+02 -0.22816025700E+02 -0.92374410415E+02  0.10970783022E+03  0.41800000000E+01 0. -1.
         -5    1    3    3    0  502  0.23470612062E+02  0.55833226633E+02 -0.18510113868E+02  0.63469012456E+02  0.41800000000E+01 0. -1.
        -11    1    4    4    0    0  0.36015910519E+02  0.11880509933E+02  0.80240918745E+01  0.38764395741E+02  0.00000000000E+00 0. -1.
         11    1    4    4    0    0 -0.50371618505E+01 -0.44897710865E+02 -0.67918312707E+02  0.81572511555E+02  0.00000000000E+00 0.  1.
</event>
<event>
 8    1  0.7039283E-009  0.1198227E+03  0.7561462E-02  0.1243390E+00
          2   -1    0    0  501    0  0.00000000000E+00  0.00000000000E+00  0.74729628179E+03  0.74729628179E+03  0.00000000000E+00 0. -1.
         -2   -1    0    0    0  501 -0.00000000000E+00 -0.00000000000E+00 -0.25958680455E+02  0.25958680455E+02  0.00000000000E+00 0.  1.
         25    2    1    2    0    0  0.70019809716E+02 -0.39918317961E+02  0.47641377303E+03  0.49911318193E+03  0.12509052474E+03 0.  0.
         23    2    1    2    0    0 -0.70019809716E+02  0.39918317961E+02  0.24492382830E+03  0.27414178031E+03  0.93111697342E+02 0.  0.
          5    1    3    3  502    0  0.10276615869E+03 -0.42795998306E+02  0.30939988516E+03  0.32884364397E+03  0.41800000000E+01 0.  1.
         -5    1    3    3    0  502 -0.32746348971E+02  0.28776803446E+01  0.16701388788E+03  0.17026953796E+03  0.41800000000E+01 0.  1.
        -11    1    4    4    0    0 -0.77305673627E+02  0.30275466009E+02  0.24811905689E+03  0.26164066467E+03  0.00000000000E+00 0. -1.
         11    1    4    4    0    0  0.72858639108E+01  0.96428519527E+01 -0.31952285847E+01  0.12501115647E+02  0.00000000000E+00 0.  1.
</event>
<event>
 8    1  0.7039283E-009  0.1653249E+03  0.7561462E-02  0.1182813E+00
          2   -1    0    0  501    0  0.00000000000E+00  0.00000000000E+00  0.71163667446E+03  0.71163667446E+03  0.00000000000E+00 0. -1.
         -2   -1    0    0    0  501 -0.00000000000E+00 -0.00000000000E+00 -0.44306330449E+02  0.44306330449E+02  0.00000000000E+00 0.  1.
         25    2    1    2    0    0  0.22869161562E+02  0.13167524561E+03  0.25741240381E+03  0.31586385526E+03  0.12508981001E+03 0.  0.
         23    2    1    2    0    0 -0.22869161562E+02 -0.13167524561E+03  0.40991794021E+03  0.44007914966E+03  0.88179200491E+02 0.  0.
          5    1    3    3  502    0 -0.18744059694E+02  0.13144995454E+03  0.14877540119E+03  0.19945431236E+03  0.41800000000E+01 0. -1.
         -5    1    3    3    0  502  0.41613221256E+02  0.22529107389E+00  0.10863700262E+03  0.11640954289E+03  0.41800000000E+01 0. -1.
        -11    1    4    4    0    0 -0.48549864524E+02 -0.47290526588E+02  0.22875492432E+03  0.23858394466E+03  0.00000000000E+00 0. -1.
         11    1    4    4    0    0  0.25680702961E+02 -0.84384719022E+02  0.18116301589E+03  0.20149520499E+03  0.00000000000E+00 0.  1.
</event>
<event>
 8    1  0.7039283E-009  0.9480564E+02  0.7561462E-02  0.1291614E+00
         -1   -1    0    0    0  501 -0.00000000000E+00  0.00000000000E+00  0.85532427847E+02  0.85532427847E+02  0.00000000000E+00 0.  1.
          1   -1    0    0  501    0  0.00000000000E+00 -0.00000000000E+00 -0.22071728893E+03  0.22071728893E+03  0.00000000000E+00 0. -1.
         25    2    1    2    0    0 -0.37849875132E+02  0.81349184098E+02 -0.62805353393E+02  0.16625922579E+03  0.12508922793E+03 0.  0.
         23    2    1    2    0    0  0.37849875132E+02 -0.81349184098E+02 -0.72379507690E+02  0.13999049099E+03  0.79424439771E+02 0.  0.
          5    1    3    3  502    0 -0.46603585258E+01  0.53176736292E+02  0.31629898509E+02  0.62188480476E+02  0.41800000000E+01 0. -1.
         -5    1    3    3    0  502 -0.33189516606E+02  0.28172447806E+02 -0.94435251902E+02  0.10407074531E+03  0.41800000000E+01 0. -1.
        -11    1    4    4    0    0  0.34996246654E+02 -0.51016071256E+02 -0.44217367159E+00  0.61867376894E+02  0.00000000000E+00 0.  1.
         11    1    4    4    0    0  0.28536284780E+01 -0.30333112842E+02 -0.71937334018E+02  0.78123114095E+02  0.00000000000E+00 0. -1.
</event>
<event>
 8    1  0.7039283E-009  0.1091477E+03  0.7561462E-02  0.1262156E+00
          2   -1    0    0  501    0  0.00000000000E+00  0.00000000000E+00  0.75600536214E+02  0.75600536214E+02  0.00000000000E+00 0. -1.
         -2   -1    0    0    0  501 -0.00000000000E+00 -0.00000000000E+00 -0.16345796724E+03  0.16345796724E+03  0.00000000000E+00 0.  1.
         25    2    1    2    0    0  0.46184906928E+01  0.22135105462E+02 -0.56061548051E+02  0.13892972874E+03  0.12508908428E+03 0.  0.
         23    2    1    2    0    0 -0.46184906928E+01 -0.22135105462E+02 -0.31795882978E+02  0.10012877472E+03  0.92214424046E+02 0.  0.
          5    1    3    3  502    0 -0.34983474300E+01  0.72851158854E+02 -0.19090713732E+02  0.75507996476E+02  0.41800000000E+01 0.  1.
         -5    1    3    3    0  502  0.81168381228E+01 -0.50716053392E+02 -0.36970834319E+02  0.63421732261E+02  0.41800000000E+01 0.  1.
        -11    1    4    4    0    0  0.10943206980E+02 -0.55672220382E+02 -0.27043190886E+02  0.62852876423E+02  0.00000000000E+00 0. -1.
         11    1    4    4    0    0 -0.15561697673E+02  0.33537114921E+02 -0.47526920921E+01  0.37275898296E+02  0.00000000000E+00 0.  1.
</event>
<event>
 8    1  0.7039283E-009  0.1202238E+03  0.7561462E-02  0.1242728E+00
         -3   -1    0    0    0  501 -0.00000000000E+00  0.00000000000E+00  0.10352871411E+03  0.10352871411E+03  0.00000000000E+00 0.  1.
          3   -1    0    0  501    0  0.00000000000E+00 -0.00000000000E+00 -0.16227130203E+03  0.16227130203E+03  0.00000000000E+00 0. -1.
         25    2    1    2    0    0  0.34196824712E+02 -0.56786098378E+02 -0.13013288537E+02  0.14217090332E+03  0.12509650787E+03 0.  0.
         23    2    1    2    0    0 -0.34196824712E+02  0.56786098378E+02 -0.45729299385E+02  0.12362911283E+03  0.93802478253E+02 0.  0.
          5    1    3    3  502    0  0.79031738791E+02 -0.49556542949E+02  0.40807957764E+01  0.93466528659E+02  0.41800000000E+01 0. -1.
         -5    1    3    3    0  502 -0.44834914079E+02 -0.72295554293E+01 -0.17094084313E+02  0.48704374657E+02  0.41800000000E+01 0. -1.
        -11    1    4    4    0    0 -0.21874459300E+02 -0.16342260383E+02  0.11825806659E+02  0.29755859040E+02  0.00000000000E+00 0.  1.
         11    1    4    4    0    0 -0.12322365412E+02  0.73128358761E+02 -0.57555106044E+02  0.93873253785E+02  0.00000000000E+00 0. -1.
</event>
<event>
 8    1  0.7039283E-009  0.5449276E+02  0.7561462E-02  0.1422513E+00
         -1   -1    0    0    0  501 -0.00000000000E+00  0.00000000000E+00  0.15894344800E+02  0.15894344800E+02  0.00000000000E+00 0.  1.
          1   -1    0    0  501    0  0.00000000000E+00 -0.00000000000E+00 -0.74848647595E+03  0.74848647595E+03  0.00000000000E+00 0. -1.
         25    2    1    2    0    0  0.14713701837E+02  0.40535287383E+01 -0.41094357515E+03  0.42983125384E+03  0.12508941084E+03 0.  0.
         23    2    1    2    0    0 -0.14713701837E+02 -0.40535287383E+01 -0.32164855600E+03  0.33454956691E+03  0.90734199862E+02 0.  0.
          5    1    3    3  502    0  0.89146470763E+01 -0.91010305654E+00 -0.41831152296E+03  0.41842837124E+03  0.41800000000E+01 0. -1.
         -5    1    3    3    0  502  0.57990547602E+01  0.49636317948E+01  0.73679478077E+01  0.11402882601E+02  0.41800000000E+01 0. -1.
        -11    1    4    4    0    0  0.36763177619E+02  0.77749987410E+01 -0.10388630624E+03  0.11047328391E+03  0.00000000000E+00 0.  1.
         11    1    4    4    0    0 -0.51476879456E+02 -0.11828527479E+02 -0.21776224977E+03  0.22407628300E+03  0.00000000000E+00 0. -1.
</event>
<event>
 8    1  0.7039283E-009  0.2933636E+03  0.7561462E-02  0.1088606E+00
          3   -1    0    0  501    0  0.00000000000E+00  0.00000000000E+00  0.64948465671E+03  0.64948465671E+03  0.00000000000E+00 0. -1.
         -3   -1    0    0    0  501 -0.00000000000E+00 -0.00000000000E+00 -0.15205018381E+03  0.15205018381E+03  0.00000000000E+00 0.  1.
         25    2    1    2    0    0  0.36768981248E+02  0.28693716202E+03  0.32261093876E+03  0.45101012014E+03  0.12508963880E+03 0.  0.
         23    2    1    2    0    0 -0.36768981248E+02 -0.28693716202E+03  0.17482353415E+03  0.35052472038E+03  0.92840823859E+02 0.  0.
          5    1    3    3  502    0  0.86933521042E+01  0.38784761860E+02  0.12881851817E+03  0.13487592501E+03  0.41800000000E+01 0.  1.
         -5    1    3    3    0  502  0.28075629144E+02  0.24815240016E+03  0.19379242059E+03  0.31613419514E+03  0.41800000000E+01 0.  1.
        -11    1    4    4    0    0 -0.52241710950E+02 -0.14336389682E+03  0.52783639777E+02  0.16145747398E+03  0.00000000000E+00 0.  1.
         11    1    4    4    0    0  0.15472729701E+02 -0.14357326519E+03  0.12203989437E+03  0.18906724640E+03  0.00000000000E+00 0. -1.
</event>
<event>
 8    1  0.7039283E-009  0.1428981E+03  0.7561462E-02  0.1209482E+00
          2   -1    0    0  501    0  0.00000000000E+00  0.00000000000E+00  0.42048992282E+03  0.42048992282E+03  0.00000000000E+00 0. -1.
         -2   -1    0    0    0  501 -0.00000000000E+00 -0.00000000000E+00 -0.61993007709E+02  0.61993007709E+02  0.00000000000E+00 0.  1.
         25    2    1    2    0    0 -0.62032303540E+02  0.96633319079E+02  0.14379003548E+03  0.22250676963E+03  0.12509069985E+03 0.  0.
         23    2    1    2    0    0  0.62032303540E+02 -0.96633319079E+02  0.21470687963E+03  0.25997616090E+03  0.91118357292E+02 0.  0.
          5    1    3    3  502    0 -0.84646731753E+02  0.11311813429E+03  0.12337111381E+03  0.18761312754E+03  0.41800000000E+01 0.  1.
         -5    1    3    3    0  502  0.22614428213E+02 -0.16484815216E+02  0.20418921664E+02  0.34893642086E+02  0.41800000000E+01 0.  1.
        -11    1    4    4    0    0  0.34239117683E+02 -0.37277090089E+02  0.19809409268E+02  0.54353576890E+02  0.00000000000E+00 0.  1.
         11    1    4    4    0    0  0.27793185858E+02 -0.59356228989E+02  0.19489747036E+03  0.20562258401E+03  0.00000000000E+00 0. -1.
</event>
<event>
 8    1  0.7039283E-009  0.7622666E+02  0.7561462E-02  0.1340114E+00
          1   -1    0    0  501    0  0.00000000000E+00  0.00000000000E+00  0.66119873694E+02  0.66119873694E+02  0.00000000000E+00 0. -1.
         -1   -1    0    0    0  501 -0.00000000000E+00 -0.00000000000E+00 -0.20498383416E+03  0.20498383416E+03  0.00000000000E+00 0.  1.
         25    2    1    2    0    0  0.17094238274E+02 -0.26343454792E+02 -0.44836358877E+02  0.13654600849E+03  0.12509325627E+03 0.  0.
         23    2    1    2    0    0 -0.17094238274E+02  0.26343454792E+02 -0.94027601587E+02  0.13455769937E+03  0.90985680225E+02 0.  0.
          5    1    3    3  502    0 -0.26854695521E+02 -0.20398179257E+02  0.32677509645E+02  0.47143954280E+02  0.41800000000E+01 0.  1.
         -5    1    3    3    0  502  0.43948933796E+02 -0.59452755350E+01 -0.77513868522E+02  0.89402054206E+02  0.41800000000E+01 0.  1.
        -11    1    4    4    0    0  0.18445103685E+02 -0.11717582626E+02  0.52300607675E+01  0.22469471026E+02  0.00000000000E+00 0. -1.
         11    1    4    4    0    0 -0.35539341960E+02  0.38061037418E+02 -0.99257662354E+02  0.11208822834E+03  0.00000000000E+00 0.  1.
</event>
<event>
 8    1  0.7039283E-009  0.9012131E+02  0.7561462E-02  0.1302558E+00
          1   -1    0    0  501    0  0.00000000000E+00  0.00000000000E+00  0.10990372110E+03  0.10990372110E+03  0.00000000000E+00 0. -1.
         -1   -1    0    0    0  501 -0.00000000000E+00 -0.00000000000E+00 -0.14120569114E+03  0.14120569114E+03  0.00000000000E+00 0.  1.
         25    2    1    2    0    0  0.36638475878E+02 -0.47444968649E+02  0.23095445279E+01  0.13873108902E+03  0.12509027979E+03 0.  0.
         23    2    1    2    0    0 -0.36638475878E+02  0.47444968649E+02 -0.33611514574E+02  0.11237832322E+03  0.88914288238E+02 0.  0.
          5    1    3    3  502    0 -0.22221941460E+02 -0.28732451042E+02  0.49039154476E+02  0.61169269220E+02  0.41800000000E+01 0.  1.
         -5    1    3    3    0  502  0.58860417337E+02 -0.18712517607E+02 -0.46729609948E+02  0.77561819797E+02  0.41800000000E+01 0.  1.
        -11    1    4    4    0    0 -0.30441633759E+02 -0.33302166365E+01 -0.50028110350E+02  0.58656587303E+02  0.00000000000E+00 0.  1.
         11    1    4    4    0    0 -0.61968421183E+01  0.50775185286E+02  0.16416595776E+02  0.53721735917E+02  0.00000000000E+00 0. -1.
</event>
<event>
 8    1  0.7039283E-009  0.1098767E+03  0.7561462E-02  0.1260798E+00
          2   -1    0    0  501    0  0.00000000000E+00  0.00000000000E+00  0.45875671441E+03  0.45875671441E+03  0.00000000000E+00 0. -1.
         -2   -1    0    0    0  501 -0.00000000000E+00 -0.00000000000E+00 -0.34592195116E+02  0.34592195116E+02  0.00000000000E+00 0.  1.
         25    2    1    2    0    0  0.22102777957E+02 -0.13467553208E+02  0.12447704386E+03  0.17836023844E+03  0.12509169607E+03 0.  0.
         23    2    1    2    0    0 -0.22102777957E+02  0.13467553208E+02  0.29968747543E+03  0.31498867108E+03  0.93463213067E+02 0.  0.
          5    1    3    3  502    0  0.72004664386E+02 -0.16663604685E+02  0.94009743721E+02  0.11965639026E+03  0.41800000000E+01 0.  1.
         -5    1    3    3    0  502 -0.49901886429E+02  0.31960514778E+01  0.30467300142E+02  0.58703848189E+02  0.41800000000E+01 0.  1.
        -11    1    4    4    0    0 -0.50202857379E+02 -0.18026660009E+02  0.14000734709E+03  0.14982437919E+03  0.00000000000E+00 0.  1.
         11    1    4    4    0    0  0.28100079422E+02  0.31494213216E+02  0.15968012834E+03  0.16516429189E+03  0.00000000000E+00 0. -1.
</event>
<event>
 8    1  0.7039283E-009  0.8270596E+02  0.7561462E-02  0.1321543E+00
          1   -1    0    0  501    0  0.00000000000E+00  0.00000000000E+00  0.71287321916E+02  0.71287321916E+02  0.00000000000E+00 0. -1.
         -1   -1    0    0    0  501 -0.00000000000E+00 -0.00000000000E+00 -0.23822186552E+03  0.23822186552E+03  0.00000000000E+00 0.  1.
         25    2    1    2    0    0  0.24617739246E+02  0.59628876359E+02 -0.13264272900E+03  0.19339861926E+03  0.12508915378E+03 0.  0.
         23    2    1    2    0    0 -0.24617739246E+02 -0.59628876359E+02 -0.34291814606E+02  0.11611056818E+03  0.90244664731E+02 0.  0.
          5    1    3    3  502    0  0.15163460599E+02  0.62025448487E+02 -0.15552575922E+03  0.16817497132E+03  0.41800000000E+01 0.  1.
         -5    1    3    3    0  502  0.94542786470E+01 -0.23965721277E+01  0.22883030227E+02  0.25223647933E+02  0.41800000000E+01 0.  1.
        -11    1    4    4    0    0 -0.45205605989E+02 -0.28331113571E+02  0.13842267149E+02  0.55116305834E+02  0.00000000000E+00 0. -1.
         11    1    4    4    0    0  0.20587866743E+02 -0.31297762789E+02 -0.48134081755E+02  0.60994262345E+02  0.00000000000E+00 0.  1.
</event>
<event>
 8    1  0.7039283E-009  0.1005205E+03  0.7561462E-02  0.1279205E+00
         -1   -1    0    0    0  501 -0.00000000000E+00  0.00000000000E+00  0.14437782913E+03  0.14437782913E+03  0.00000000000E+00 0.  1.
          1   -1    0    0  501    0  0.00000000000E+00 -0.00000000000E+00 -0.20516677073E+03  0.20516677073E+03  0.00000000000E+00 0. -1.
         25    2    1    2    0    0  0.52972425850E+02  0.68396396990E+02  0.71049196833E+02  0.16786855130E+03  0.12509083550E+03 0.  0.
         23    2    1    2    0    0 -0.52972425850E+02 -0.68396396990E+02 -0.13183813843E+03  0.18167604856E+03  0.90226087426E+02 0.  0.
          5    1    3    3  502    0  0.92818869705E+01  0.26088395329E+02 -0.35437456002E+02  0.45166840541E+02  0.41800000000E+01 0.  1.
         -5    1    3    3    0  502  0.43690538880E+02  0.42308001661E+02  0.10648665284E+03  0.12270171076E+03  0.41800000000E+01 0.  1.
        -11    1    4    4    0    0 -0.61661456763E+02 -0.77799913250E+02 -0.13585232705E+03  0.16825818410E+03  0.00000000000E+00 0.  1.
         11    1    4    4    0    0  0.86890309127E+01  0.94035162599E+01  0.40141886196E+01  0.13417864455E+02  0.00000000000E+00 0. -1.
</event>
<event>
 8    1  0.7039283E-009  0.1056230E+03  0.7561462E-02  0.1268897E+00
          3   -1    0    0  501    0  0.00000000000E+00  0.00000000000E+00  0.49744544517E+02  0.49744544517E+02  0.00000000000E+00 0. -1.
         -3   -1    0    0    0  501 -0.00000000000E+00 -0.00000000000E+00 -0.29492584892E+03  0.29492584892E+03  0.00000000000E+00 0.  1.
         25    2    1    2    0    0 -0.21481269535E+02 -0.41940876333E+02 -0.95168800243E+02  0.16409091928E+03  0.12509295425E+03 0.  0.
         23    2    1    2    0    0  0.21481269535E+02  0.41940876333E+02 -0.15001250416E+03  0.18057947416E+03  0.88795906625E+02 0.  0.
          5    1    3    3  502    0  0.34489217907E+02 -0.60925650492E+02 -0.30787389275E+02  0.76594887415E+02  0.41800000000E+01 0. -1.
         -5    1    3    3    0  502 -0.55970487442E+02  0.18984774159E+02 -0.64381410969E+02  0.87496031868E+02  0.41800000000E+01 0. -1.
        -11    1    4    4    0    0  0.45487586007E+02  0.21418041799E+02 -0.13785483546E+03  0.14673720952E+03  0.00000000000E+00 0.  1.
         11    1    4    4    0    0 -0.24006316472E+02  0.20522834534E+02 -0.12157668697E+02  0.33842264641E+02  0.00000000000E+00 0. -1.
</event>
<event>
 8    1  0.7039283E-009  0.1271993E+03  0.7561462E-02  0.1231672E+00
         -1   -1    0    0    0  501 -0.00000000000E+00  0.00000000000E+00  0.33238936512E+02  0.33238936512E+02  0.00000000000E+00 0.  1.
          1   -1    0    0  501    0  0.00000000000E+00 -0.00000000000E+00 -0.60594421493E+03  0.60594421493E+03  0.00000000000E+00 0. -1.
         25    2    1    2    0    0  0.71531724786E+02 -0.55763816937E+01 -0.18382590098E+03  0.23363682425E+03  0.12508525128E+03 0.  0.
         23    2    1    2    0    0 -0.71531724786E+02  0.55763816937E+01 -0.38887937743E+03  0.40554632720E+03  0.89959822276E+02 0.  0.
          5    1    3    3  502    0 -0.34988921285E+02 -0.79666263978E+01 -0.61818392147E+02  0.71600822317E+02  0.41800000000E+01 0. -1.
         -5    1    3    3    0  502  0.10652064607E+03  0.23902447041E+01 -0.12200750883E+03  0.16203600193E+03  0.41800000000E+01 0. -1.
        -11    1    4    4    0    0  0.11447142477E+02 -0.21500002805E+02 -0.50156116406E+02  0.55757718788E+02  0.00000000000E+00 0. -1.
         11    1    4    4    0    0 -0.82978867263E+02  0.27076384499E+02 -0.33872326103E+03  0.34978860841E+03  0.00000000000E+00 0.  1.
</event>
<event>
 8    1  0.7039283E-009  0.9585482E+02  0.7561462E-02  0.1289262E+00
         -3   -1    0    0    0  501 -0.00000000000E+00  0.00000000000E+00  0.14063773262E+03  0.14063773262E+03  0.00000000000E+00 0. -1.
          3   -1    0    0  501    0  0.00000000000E+00 -0.00000000000E+00 -0.10501646773E+03  0.10501646773E+03  0.00000000000E+00 0.  1.
         25    2    1    2    0    0  0.40670567639E+01 -0.33371797205E+02 -0.24762455681E+02  0.13187882108E+03  0.12509447005E+03 0.  0.
         23    2    1    2    0    0 -0.40670567639E+01  0.33371797205E+02  0.60383720576E+02  0.11377537927E+03  0.90379341771E+02 0.  0.
          5    1    3    3  502    0  0.48119429865E+01  0.31544106482E+02  0.32116138543E+02  0.45465417671E+02  0.41800000000E+01 0.  1.
         -5    1    3    3    0  502 -0.74488622251E+00 -0.64915903688E+02 -0.56878594224E+02  0.86413403405E+02  0.41800000000E+01 0.  1.
        -11    1    4    4    0    0 -0.44687257708E+02  0.50875660141E+01  0.40192450004E+02  0.60318051748E+02  0.00000000000E+00 0.  1.
         11    1    4    4    0    0  0.40620200944E+02  0.28284231191E+02  0.20191270572E+02  0.53457327525E+02  0.00000000000E+00 0. -1.
</event>
<event>
 8    1  0.7039283E-009  0.1019376E+03  0.7561462E-02  0.1276273E+00
          2   -1    0    0  501    0  0.00000000000E+00  0.00000000000E+00  0.57059846082E+03  0.57059846082E+03  0.00000000000E+00 0. -1.
         -2   -1    0    0    0  501 -0.00000000000E+00 -0.00000000000E+00 -0.35680941340E+02  0.35680941340E+02  0.00000000000E+00 0.  1.
         25    2    1    2    0    0  0.21048618368E+02  0.87212409294E+02  0.32724098015E+03  0.36163947287E+03  0.12508957022E+03 0.  0.
         23    2    1    2    0    0 -0.21048618368E+02 -0.87212409294E+02  0.20767653934E+03  0.24463992930E+03  0.93113378983E+02 0.  0.
          5    1    3    3  502    0  0.69276290304E+01  0.12017069528E+02  0.25787492265E+03  0.25828153270E+03  0.41800000000E+01 0.  1.
         -5    1    3    3    0  502  0.14120989337E+02  0.75195339766E+02  0.69366057500E+02  0.10335794017E+03  0.41800000000E+01 0.  1.
        -11    1    4    4    0    0  0.21424095956E+02 -0.56284778753E+02  0.49470464587E+02  0.77937764102E+02  0.00000000000E+00 0.  1.
         11    1    4    4    0    0 -0.42472714323E+02 -0.30927630540E+02  0.15820607475E+03  0.16670216519E+03  0.00000000000E+00 0. -1.
</event>
<event>
 8    1  0.7039283E-009  0.1027509E+03  0.7561462E-02  0.1274615E+00
          2   -1    0    0  501    0  0.00000000000E+00  0.00000000000E+00  0.51431513740E+03  0.51431513740E+03  0.00000000000E+00 0. -1.
         -2   -1    0    0    0  501 -0.00000000000E+00 -0.00000000000E+00 -0.28649116170E+02  0.28649116170E+02  0.00000000000E+00 0.  1.
         25    2    1    2    0    0 -0.26600425335E+02  0.44187620546E+02  0.24299084432E+03  0.27812310391E+03  0.12509109507E+03 0.  0.
         23    2    1    2    0    0  0.26600425335E+02 -0.44187620546E+02  0.24267517691E+03  0.26484114966E+03  0.92679364630E+02 0.  0.
          5    1    3    3  502    0 -0.72097763383E+02  0.50925318442E+02  0.17310552564E+03  0.19435655623E+03  0.41800000000E+01 0.  1.
         -5    1    3    3    0  502  0.45497338049E+02 -0.67376978961E+01  0.69885318677E+02  0.83766547673E+02  0.41800000000E+01 0.  1.
        -11    1    4    4    0    0  0.40567303660E+02 -0.38308792770E+02  0.24335753578E+03  0.24967210487E+03  0.00000000000E+00 0. -1.
         11    1    4    4    0    0 -0.13966878325E+02 -0.58788277762E+01 -0.68235887209E+00  0.15169044788E+02  0.00000000000E+00 0.  1.
</event>
<event>
 8    1  0.7039283E-009  0.8466597E+02  0.7561462E-02  0.1316308E+00
         -1   -1    0    0    0  501 -0.00000000000E+00  0.00000000000E+00  0.14303345573E+03  0.14303345573E+03  0.00000000000E+00 0.  1.
          1   -1    0    0  501    0  0.00000000000E+00 -0.00000000000E+00 -0.11480695584E+03  0.11480695584E+03  0.00000000000E+00 0. -1.
         25    2    1    2    0    0  0.64700548652E+02  0.17050038654E+02  0.54442869765E+01  0.14196364655E+03  0.12508865603E+03 0.  0.
         23    2    1    2    0    0 -0.64700548652E+02 -0.17050038654E+02  0.22782212916E+02  0.11587676503E+03  0.91823366489E+02 0.  0.
          5    1    3    3  502    0  0.70997102195E+02  0.21958803205E+02  0.54394941901E+02  0.92190344737E+02  0.41800000000E+01 0. -1.
         -5    1    3    3    0  502 -0.62965535434E+01 -0.49087645506E+01 -0.48950654925E+02  0.49773301815E+02  0.41800000000E+01 0. -1.
        -11    1    4    4    0    0 -0.74404204782E+02 -0.13952572736E+02  0.47343936376E+02  0.89286663544E+02  0.00000000000E+00 0.  1.
         11    1    4    4    0    0  0.97036561306E+01 -0.30974659188E+01 -0.24561723461E+02  0.26590101481E+02  0.00000000000E+00 0. -1.
</event>
<event>
 8    1  0.7039283E-009  0.2539378E+03  0.7561462E-02  0.1110841E+00
         -1   -1    0    0    0  501 -0.00000000000E+00  0.00000000000E+00  0.16247675292E+03  0.16247675292E+03  0.00000000000E+00 0.  1.
          1   -1    0    0  501    0  0.00000000000E+00 -0.00000000000E+00 -0.54575756842E+03  0.54575756842E+03  0.00000000000E+00 0. -1.
         25    2    1    2    0    0  0.10122359973E+03  0.21595581428E+03 -0.28531500947E+02  0.27082249965E+03  0.12509056282E+03 0.  0.
         23    2    1    2    0    0 -0.10122359973E+03 -0.21595581428E+03 -0.35474931456E+03  0.43741182169E+03  0.92730225444E+02 0.  0.
          5    1    3    3  502    0  0.10208774109E+03  0.23157811260E+03 -0.26451870378E+02  0.25449460302E+03  0.41800000000E+01 0.  1.
         -5    1    3    3    0  502 -0.86414136760E+00 -0.15622298321E+02 -0.20796305685E+01  0.16327896632E+02  0.41800000000E+01 0.  1.
        -11    1    4    4    0    0 -0.62069928430E+02 -0.13862365912E+03 -0.14300764667E+03  0.20861539226E+03  0.00000000000E+00 0. -1.
         11    1    4    4    0    0 -0.39153671296E+02 -0.77332155158E+02 -0.21174166789E+03  0.22879642942E+03  0.00000000000E+00 0.  1.
</event>
<event>
 8    1  0.7039283E-009  0.1074900E+03  0.7561462E-02  0.1265290E+00
          2   -1    0    0  501    0  0.00000000000E+00  0.00000000000E+00  0.83795021268E+02  0.83795021268E+02  0.00000000000E+00 0. -1.
         -2   -1    0    0    0  501 -0.00000000000E+00 -0.00000000000E+00 -0.21709282597E+03  0.21709282597E+03  0.00000000000E+00 0.  1.
         25    2    1    2    0    0 -0.49877960052E+02  0.53483226310E+02 -0.38784770390E+02  0.15000036275E+03  0.12509030344E+03 0.  0.
         23    2    1    2    0    0  0.49877960052E+02 -0.53483226310E+02 -0.94513034315E+02  0.15088748449E+03  0.92119774891E+02 0.  0.
          5    1    3    3  502    0 -0.24675104195E+02 -0.33308257615E+02  0.15544434379E+02  0.44467995599E+02  0.41800000000E+01 0.  1.
         -5    1    3    3    0  502 -0.25202855857E+02  0.86791483925E+02 -0.54329204770E+02  0.10553236715E+03  0.41800000000E+01 0.  1.
        -11    1    4    4    0    0  0.43262248925E+02 -0.18181118304E+02 -0.10369193734E+03  0.11381648877E+03  0.00000000000E+00 0.  1.
         11    1    4    4    0    0  0.66157111264E+01 -0.35302108006E+02  0.91789030295E+01  0.37070995727E+02  0.00000000000E+00 0. -1.
</event>
<event>
 8    1  0.7039283E-009  0.1011030E+03  0.7561462E-02  0.1277993E+00
          1   -1    0    0  501    0  0.00000000000E+00  0.00000000000E+00  0.23100054402E+03  0.23100054402E+03  0.00000000000E+00 0. -1.
         -1   -1    0    0    0  501 -0.00000000000E+00 -0.00000000000E+00 -0.74056579605E+02  0.74056579605E+02  0.00000000000E+00 0.  1.
         25    2    1    2    0    0  0.19013758115E+02  0.47990940464E+02  0.14341195002E+03  0.19718330389E+03  0.12509841949E+03 0.  0.
         23    2    1    2    0    0 -0.19013758115E+02 -0.47990940464E+02  0.13532014402E+02  0.10787381974E+03  0.93749625106E+02 0.  0.
          5    1    3    3  502    0  0.71765615159E+02  0.35066847202E+02  0.96119519428E+02  0.12504567848E+03  0.41800000000E+01 0.  1.
         -5    1    3    3    0  502 -0.52751857044E+02  0.12924093263E+02  0.47292430588E+02  0.72137625406E+02  0.41800000000E+01 0.  1.
        -11    1    4    4    0    0  0.10909298932E+02 -0.32027359656E+02  0.48516229111E+02  0.59148871983E+02  0.00000000000E+00 0. -1.
         11    1    4    4    0    0 -0.29923057047E+02 -0.15963580809E+02 -0.34984214709E+02  0.48724947759E+02  0.00000000000E+00 0.  1.
</event>
<event>
 8    1  0.7039283E-009  0.1693439E+03  0.7561462E-02  0.1178534E+00
          1   -1    0    0  501    0  0.00000000000E+00  0.00000000000E+00  0.71302317843E+02  0.71302317843E+02  0.00000000000E+00 0. -1.
         -1   -1    0    0    0  501 -0.00000000000E+00 -0.00000000000E+00 -0.41886769823E+03  0.41886769823E+03  0.00000000000E+00 0.  1.
         25    2    1    2    0    0  0.13267663046E+03 -0.62846421496E+01 -0.21450565054E+03  0.28160669741E+03  0.12508826050E+03 0.  0.
         23    2    1    2    0    0 -0.13267663046E+03  0.62846421496E+01 -0.13305972985E+03  0.20856331866E+03  0.90283892176E+02 0.  0.
          5    1    3    3  502    0  0.14778931665E+03  0.19676183650E+02 -0.19517578524E+03  0.24564179991E+03  0.41800000000E+01 0. -1.
         -5    1    3    3    0  502 -0.15112686184E+02 -0.25960825800E+02 -0.19329865294E+02  0.35964897500E+02  0.41800000000E+01 0. -1.
        -11    1    4    4    0    0 -0.84761977594E+02  0.46476320020E+02 -0.93956496268E+02  0.13480528313E+03  0.00000000000E+00 0.  1.
         11    1    4    4    0    0 -0.47914652868E+02 -0.40191677870E+02 -0.39103233582E+02  0.73758035536E+02  0.00000000000E+00 0. -1.
</event>
<event>
 8    1  0.7039283E-009  0.6461981E+02  0.7561462E-02  0.1379407E+00
         -1   -1    0    0    0  501 -0.00000000000E+00  0.00000000000E+00  0.32248363409E+02  0.32248363409E+02  0.00000000000E+00 0.  1.
          1   -1    0    0  501    0  0.00000000000E+00 -0.00000000000E+00 -0.40431097227E+03  0.40431097227E+03  0.00000000000E+00 0. -1.
         25    2    1    2    0    0  0.48946891138E+01 -0.34725986751E+02 -0.23049851369E+03  0.26458871896E+03  0.12509105984E+03 0.  0.
         23    2    1    2    0    0 -0.48946891138E+01  0.34725986751E+02 -0.14156409517E+03  0.17197061672E+03  0.91124353687E+02 0.  0.
          5    1    3    3  502    0  0.17524070017E+02 -0.37742572609E+02 -0.24270610950E+03  0.24628301363E+03  0.41800000000E+01 0.  1.
         -5    1    3    3    0  502 -0.12629380903E+02  0.30165858581E+01  0.12207595807E+02  0.18305705330E+02  0.41800000000E+01 0.  1.
        -11    1    4    4    0    0 -0.13387700802E+02 -0.16841705636E+02 -0.48234939498E+00  0.21519903402E+02  0.00000000000E+00 0.  1.
         11    1    4    4    0    0  0.84930116885E+01  0.51567692386E+02 -0.14108174578E+03  0.15045071332E+03  0.00000000000E+00 0. -1.
</event>
<event>
 8    1  0.7039283E-009  0.1209917E+03  0.7561462E-02  0.1241470E+00
          3   -1    0    0  501    0  0.00000000000E+00  0.00000000000E+00  0.21741524816E+02  0.21741524816E+02  0.00000000000E+00 0. -1.
         -3   -1    0    0    0  501 -0.00000000000E+00 -0.00000000000E+00 -0.95653540564E+03  0.95653540564E+03  0.00000000000E+00 0.  1.
         25    2    1    2    0    0 -0.88563736333E+02  0.60544928905E+01 -0.62409885162E+03  0.64267122388E+03  0.12508690230E+03 0.  0.
         23    2    1    2    0    0  0.88563736333E+02 -0.60544928905E+01 -0.31069502920E+03  0.33560570658E+03  0.90661992255E+02 0.  0.
          5    1    3    3  502    0 -0.11785901805E+03 -0.11039397812E+02 -0.50937399148E+03  0.52296458010E+03  0.41800000000E+01 0. -1.
         -5    1    3    3    0  502  0.29295281721E+02  0.17093890702E+02 -0.11472486014E+03  0.11970664378E+03  0.41800000000E+01 0. -1.
        -11    1    4    4    0    0  0.58857655367E+02  0.84416054893E+00 -0.29592139412E+03  0.30171908740E+03  0.00000000000E+00 0.  1.
         11    1    4    4    0    0  0.29706080967E+02 -0.68986534394E+01 -0.14773635075E+02  0.33886619173E+02  0.00000000000E+00 0. -1.
</event>
<event>
 8    1  0.7039283E-009  0.4333278E+03  0.7561462E-02  0.1032814E+00
         -3   -1    0    0    0  501 -0.00000000000E+00  0.00000000000E+00  0.36336995683E+03  0.36336995683E+03  0.00000000000E+00 0.  1.
          3   -1    0    0  501    0  0.00000000000E+00 -0.00000000000E+00 -0.60060588844E+03  0.60060588844E+03  0.00000000000E+00 0. -1.
         25    2    1    2    0    0  0.30425113701E+03  0.29550391832E+03 -0.28709359729E+03  0.52722121497E+03  0.12509258890E+03 0.  0.
         23    2    1    2    0    0 -0.30425113701E+03 -0.29550391832E+03  0.49857665682E+02  0.43675463030E+03  0.91528684836E+02 0.  0.
          5    1    3    3  502    0  0.18736732329E+03  0.10561974835E+03 -0.10538644778E+03  0.23955337788E+03  0.41800000000E+01 0. -1.
         -5    1    3    3    0  502  0.11688381372E+03  0.18988416997E+03 -0.18170714951E+03  0.28766783709E+03  0.41800000000E+01 0. -1.
        -11    1    4    4    0    0 -0.24453312659E+03 -0.20013385007E+03  0.61806016331E+01  0.31605095757E+03  0.00000000000E+00 0.  1.
         11    1    4    4    0    0 -0.59718010411E+02 -0.95370068251E+02  0.43677064049E+02  0.12070367273E+03  0.00000000000E+00 0. -1.
</event>
<event>
 8    1  0.7039283E-009  0.1368082E+03  0.7561462E-02  0.1217689E+00
         -2   -1    0    0    0  501 -0.00000000000E+00  0.00000000000E+00  0.40577594454E+02  0.40577594454E+02  0.00000000000E+00 0.  1.
          2   -1    0    0  501    0  0.00000000000E+00 -0.00000000000E+00 -0.53285078777E+03  0.53285078777E+03  0.00000000000E+00 0. -1.
         25    2    1    2    0    0 -0.60575659600E+02 -0.77058898810E+02 -0.29594923208E+03  0.33591791604E+03  0.12508962357E+03 0.  0.
         23    2    1    2    0    0  0.60575659600E+02  0.77058898810E+02 -0.19632396124E+03  0.23751046619E+03  0.90888059561E+02 0.  0.
          5    1    3    3  502    0 -0.73046472935E+02  0.11536148540E+01 -0.18975828006E+03  0.20337845335E+03  0.41800000000E+01 0. -1.
         -5    1    3    3    0  502  0.12470813334E+02 -0.78212513664E+02 -0.10619095202E+03  0.13253946269E+03  0.41800000000E+01 0. -1.
        -11    1    4    4    0    0 -0.16038330969E+02  0.19818344043E+02 -0.94237903495E+02  0.97625699875E+02  0.00000000000E+00 0. -1.
         11    1    4    4    0    0  0.76613990570E+02  0.57240554767E+02 -0.10208605774E+03  0.13988476631E+03  0.00000000000E+00 0.  1.
</event>
<event>
 8    1  0.7039283E-009  0.1250273E+03  0.7561462E-02  0.1235027E+00
         -2   -1    0    0    0  501 -0.00000000000E+00  0.00000000000E+00  0.79280495870E+02  0.79280495870E+02  0.00000000000E+00 0. -1.
          2   -1    0    0  501    0  0.00000000000E+00 -0.00000000000E+00 -0.29494290710E+03  0.29494290710E+03  0.00000000000E+00 0.  1.
         25    2    1    2    0    0 -0.38001199725E+02  0.94568457329E+02 -0.76254698183E+02  0.17846140048E+03  0.12508560335E+03 0.  0.
         23    2    1    2    0    0  0.38001199725E+02 -0.94568457329E+02 -0.13940771305E+03  0.19576200249E+03  0.92200687951E+02 0.  0.
          5    1    3    3  502    0 -0.15054421436E+02  0.11370322541E+03 -0.22701792086E+02  0.11699531118E+03  0.41800000000E+01 0.  1.
         -5    1    3    3    0  502 -0.22946778288E+02 -0.19134768081E+02 -0.53552906097E+02  0.61466089308E+02  0.41800000000E+01 0.  1.
        -11    1    4    4    0    0  0.35789927731E+01 -0.42779282249E+02  0.20194231085E+00  0.42929208701E+02  0.00000000000E+00 0. -1.
         11    1    4    4    0    0  0.34422206952E+02 -0.51789175079E+02 -0.13960965536E+03  0.15283279379E+03  0.00000000000E+00 0.  1.
</event>
<event>
 8    1  0.7039283E-009  0.7227042E+02  0.7561462E-02  0.1352538E+00
         -2   -1    0    0    0  501 -0.00000000000E+00  0.00000000000E+00  0.44442087573E+02  0.44442087573E+02  0.00000000000E+00 0.  1.
          2   -1    0    0  501    0  0.00000000000E+00 -0.00000000000E+00 -0.44560179212E+03  0.44560179212E+03  0.00000000000E+00 0. -1.
         25    2    1    2    0    0  0.63388679050E+02  0.22139393165E+02 -0.11768264647E+03  0.18440465940E+03  0.12509035041E+03 0.  0.
         23    2    1    2    0    0 -0.63388679050E+02 -0.22139393165E+02 -0.28347705807E+03  0.30563922029E+03  0.92454384239E+02 0.  0.
          5    1    3    3  502    0  0.20408219947E+02 -0.43767614270E+01 -0.13042664170E+03  0.13215230890E+03  0.41800000000E+01 0. -1.
         -5    1    3    3    0  502  0.42980459102E+02  0.26516154592E+02  0.12743995225E+02  0.52252350505E+02  0.41800000000E+01 0. -1.
        -11    1    4    4    0    0 -0.47138095420E+02 -0.28550524194E+02 -0.28283905781E+03  0.28815805575E+03  0.00000000000E+00 0. -1.
         11    1    4    4    0    0 -0.16250583629E+02  0.64111310295E+01 -0.63800026437E+00  0.17481164541E+02  0.00000000000E+00 0.  1.
</event>
<event>
 8    1  0.7039283E-009  0.1720720E+03  0.7561462E-02  0.1175704E+00
         -1   -1    0    0    0  501 -0.00000000000E+00  0.00000000000E+00  0.60970159273E+02  0.60970159273E+02  0.00000000000E+00 0.  1.
          1   -1    0    0  501    0  0.00000000000E+00 -0.00000000000E+00 -0.83104326745E+03  0.83104326745E+03  0.00000000000E+00 0. -1.
         25    2    1    2    0    0 -0.68276342121E+02 -0.14121887793E+03 -0.16313886786E+03  0.25858543172E+03  0.12509078670E+03 0.  0.
         23    2    1    2    0    0  0.68276342121E+02  0.14121887793E+03 -0.60693424032E+03  0.63342799500E+03  0.90870360423E+02 0.  0.
          5    1    3    3  502    0  0.20916630713E+02 -0.67835510340E+02 -0.18567836858E+02  0.73494209766E+02  0.41800000000E+01 0. -1.
         -5    1    3    3    0  502 -0.89192972834E+02 -0.73383367585E+02 -0.14457103100E+03  0.18509122196E+03  0.41800000000E+01 0. -1.
        -11    1    4    4    0    0  0.40459699672E+02  0.98434241238E+02 -0.53344482258E+03  0.54395741183E+03  0.00000000000E+00 0. -1.
         11    1    4    4    0    0  0.27816642449E+02  0.42784636688E+02 -0.73489417739E+02  0.89470583173E+02  0.00000000000E+00 0.  1.
</event>
<event>
 8    1  0.7039283E-009  0.1104184E+03  0.7561462E-02  0.1259797E+00
          1   -1    0    0  501    0  0.00000000000E+00  0.00000000000E+00  0.53571855711E+02  0.53571855711E+02  0.00000000000E+00 0. -1.
         -1   -1    0    0    0  501 -0.00000000000E+00 -0.00000000000E+00 -0.39967432390E+03  0.39967432390E+03  0.00000000000E+00 0.  1.
         25    2    1    2    0    0 -0.19705572879E+02  0.85331768594E+02 -0.12293478591E+03  0.19604219649E+03  0.12509900433E+03 0.  0.
         23    2    1    2    0    0  0.19705572879E+02 -0.85331768594E+02 -0.22316768228E+03  0.25720398312E+03  0.93167881722E+02 0.  0.
          5    1    3    3  502    0  0.24605026219E+02 -0.10862191287E+02 -0.74865402757E+02  0.79659873492E+02  0.41800000000E+01 0.  1.
         -5    1    3    3    0  502 -0.44310599098E+02  0.96193959881E+02 -0.48069383150E+02  0.11638232300E+03  0.41800000000E+01 0.  1.
        -11    1    4    4    0    0  0.42844151714E+01 -0.24415386007E+02  0.58476208724E+00  0.24795347021E+02  0.00000000000E+00 0. -1.
         11    1    4    4    0    0  0.15421157707E+02 -0.60916382588E+02 -0.22375244437E+03  0.23240863610E+03  0.00000000000E+00 0.  1.
</event>
<event>
 8    1  0.7039283E-009  0.1098810E+03  0.7561462E-02  0.1260790E+00
          1   -1    0    0  501    0  0.00000000000E+00  0.00000000000E+00  0.36558388486E+02  0.36558388486E+02  0.00000000000E+00 0.  1.
         -1   -1    0    0    0  501 -0.00000000000E+00 -0.00000000000E+00 -0.39886734803E+03  0.39886734803E+03  0.00000000000E+00 0. -1.
         25    2    1    2    0    0  0.32655421552E+02 -0.31006256648E+02 -0.26060208376E+03  0.29255559912E+03  0.12509023946E+03 0.  0.
         23    2    1    2    0    0 -0.32655421552E+02  0.31006256648E+02 -0.10170687578E+03  0.14287013739E+03  0.89665060474E+02 0.  0.
          5    1    3    3  502    0 -0.41855085440E+02 -0.90422499761E+01 -0.15825786025E+03  0.16400193045E+03  0.41800000000E+01 0.  1.
         -5    1    3    3    0  502  0.74510506992E+02 -0.21964006672E+02 -0.10234422352E+03  0.12855366867E+03  0.41800000000E+01 0.  1.
        -11    1    4    4    0    0  0.70371236232E+01  0.53068564746E+02 -0.66732588761E+02  0.85551341753E+02  0.00000000000E+00 0.  1.
         11    1    4    4    0    0 -0.39692545175E+02 -0.22062308098E+02 -0.34974287017E+02  0.57318795638E+02  0.00000000000E+00 0. -1.
</event>
<event>
 8    1  0.7039283E-009  0.1145665E+03  0.7561462E-02  0.1252340E+00
          2   -1    0    0  501    0  0.00000000000E+00  0.00000000000E+00  0.44978231260E+03  0.44978231260E+03  0.00000000000E+00 0. -1.
         -2   -1    0    0    0  501 -0.00000000000E+00 -0.00000000000E+00 -0.36300885938E+02  0.36300885938E+02  0.00000000000E+00 0.  1.
         25    2    1    2    0    0  0.44082591773E+01 -0.46267627012E+02  0.13733870299E+03  0.19149348588E+03  0.12509080595E+03 0.  0.
         23    2    1    2    0    0 -0.44082591773E+01  0.46267627012E+02  0.27614272367E+03  0.29458971266E+03  0.91477696262E+02 0.  0.
          5    1    3    3  502    0  0.59155480420E+02 -0.39431806515E+02  0.46248611145E+02  0.84915514846E+02  0.41800000000E+01 0. -1.
         -5    1    3    3    0  502 -0.54747221243E+02 -0.68358204966E+01  0.91090091848E+02  0.10657797103E+03  0.41800000000E+01 0. -1.
        -11    1    4    4    0    0 -0.22877664855E+02 -0.22075587469E+02  0.82855435378E+02  0.88745378939E+02  0.00000000000E+00 0. -1.
         11    1    4    4    0    0  0.18469405677E+02  0.68343214481E+02  0.19328728829E+03  0.20584433372E+03  0.00000000000E+00 0.  1.
</event>
<event>
 8    1  0.7039283E-009  0.1068642E+03  0.7561462E-02  0.1266490E+00
         -2   -1    0    0    0  501 -0.00000000000E+00  0.00000000000E+00  0.23678898081E+02  0.23678898081E+02  0.00000000000E+00 0.  1.
          2   -1    0    0  501    0  0.00000000000E+00 -0.00000000000E+00 -0.55917095170E+03  0.55917095170E+03  0.00000000000E+00 0. -1.
         25    2    1    2    0    0 -0.33750290258E+02 -0.27789321148E+01 -0.33510712267E+03  0.35929251592E+03  0.12509006266E+03 0.  0.
         23    2    1    2    0    0  0.33750290258E+02  0.27789321148E+01 -0.20038493094E+03  0.22355733386E+03  0.93150182047E+02 0.  0.
          5    1    3    3  502    0 -0.49174104580E+02 -0.47042664338E+02 -0.27291189775E+03  0.28129962880E+03  0.41800000000E+01 0. -1.
         -5    1    3    3    0  502  0.15423814322E+02  0.44263732224E+02 -0.62195224922E+02  0.77992887123E+02  0.41800000000E+01 0. -1.
        -11    1    4    4    0    0  0.29903976835E+02  0.46125496512E+02 -0.99228648687E+02  0.11343779784E+03  0.00000000000E+00 0.  1.
         11    1    4    4    0    0  0.38463134229E+01 -0.43346564397E+02 -0.10115628226E+03  0.11011953601E+03  0.00000000000E+00 0. -1.
</event>
<event>
 8    1  0.7039283E-009  0.1176362E+03  0.7561462E-02  0.1247048E+00
          1   -1    0    0  501    0  0.00000000000E+00  0.00000000000E+00  0.13238388498E+04  0.13238388498E+04  0.00000000000E+00 0. -1.
         -1   -1    0    0    0  501 -0.00000000000E+00 -0.00000000000E+00 -0.16283604628E+02  0.16283604628E+02  0.00000000000E+00 0.  1.
         25    2    1    2    0    0  0.77214169183E+02  0.24773411199E+02  0.96145138483E+03  0.97293913318E+03  0.12508413831E+03 0.  0.
         23    2    1    2    0    0 -0.77214169183E+02 -0.24773411199E+02  0.34610386033E+03  0.36718332124E+03  0.91978037777E+02 0.  0.
          5    1    3    3  502    0  0.10543478653E+03 -0.62507547498E+01  0.62781943697E+03  0.63665554579E+03  0.41800000000E+01 0.  1.
         -5    1    3    3    0  502 -0.28220617345E+02  0.31024165949E+02  0.33363194786E+03  0.33628358739E+03  0.41800000000E+01 0.  1.
        -11    1    4    4    0    0 -0.28423395710E+02  0.69048896884E+01  0.18846715513E+02  0.34796057405E+02  0.00000000000E+00 0.  1.
         11    1    4    4    0    0 -0.48790773473E+02 -0.31678300888E+02  0.32725714482E+03  0.33238726383E+03  0.00000000000E+00 0. -1.
</event>
<event>
 8    1  0.7039283E-009  0.1105863E+03  0.7561462E-02  0.1259488E+00
         -1   -1    0    0    0  501 -0.00000000000E+00  0.00000000000E+00  0.84638760493E+02  0.84638760493E+02  0.00000000000E+00 0.  1.
          1   -1    0    0  501    0  0.00000000000E+00 -0.00000000000E+00 -0.23860273947E+03  0.23860273947E+03  0.00000000000E+00 0. -1.
         25    2    1    2    0    0  0.55044421950E+02 -0.46470549550E+02 -0.14815228348E+03  0.20684918727E+03  0.12509231316E+03 0.  0.
         23    2    1    2    0    0 -0.55044421950E+02  0.46470549550E+02 -0.58116954911E+01  0.11639231269E+03  0.91235926503E+02 0.  0.
          5    1    3    3  502    0  0.83589188171E+02 -0.51265466692E+02 -0.14802157689E+03  0.17760394162E+03  0.41800000000E+01 0. -1.
         -5    1    3    3    0  502 -0.28544766221E+02  0.47949171413E+01 -0.13070659255E+00  0.29245245651E+02  0.41800000000E+01 0. -1.
        -11    1    4    4    0    0 -0.47080443951E+00  0.38646566112E+02  0.31467722587E+02  0.49839705997E+02  0.00000000000E+00 0.  1.
         11    1    4    4    0    0 -0.54573617511E+02  0.78239834384E+01 -0.37279418078E+02  0.66552606690E+02  0.00000000000E+00 0. -1.
</event>
<event>
 8    1  0.7039283E-009  0.1214688E+03  0.7561462E-02  0.1240693E+00
          1   -1    0    0  501    0  0.00000000000E+00  0.00000000000E+00  0.15519939128E+03  0.15519939128E+03  0.00000000000E+00 0. -1.
         -1   -1    0    0    0  501 -0.00000000000E+00 -0.00000000000E+00 -0.35098167550E+03  0.35098167550E+03  0.00000000000E+00 0.  1.
         25    2    1    2    0    0 -0.11861002120E+03  0.15726489887E+02  0.81239645413E+02  0.19121651794E+03  0.12509283406E+03 0.  0.
         23    2    1    2    0    0  0.11861002120E+03 -0.15726489887E+02 -0.27702192964E+03  0.31496454884E+03  0.90254406634E+02 0.  0.
          5    1    3    3  502    0 -0.31463843381E+02 -0.74472114797E+01  0.94509602658E+02  0.99974855807E+02  0.41800000000E+01 0.  1.
         -5    1    3    3    0  502 -0.87146177819E+02  0.23173701366E+02 -0.13269957245E+02  0.91241662133E+02  0.41800000000E+01 0.  1.
        -11    1    4    4    0    0  0.38281447891E+02 -0.38450989073E+00 -0.19650482630E+03  0.20019931034E+03  0.00000000000E+00 0.  1.
         11    1    4    4    0    0  0.80328573309E+02 -0.15341979996E+02 -0.80517103336E+02  0.11476523851E+03  0.00000000000E+00 0. -1.
</event>
<event>
 8    1  0.7039283E-009  0.1878188E+03  0.7561462E-02  0.1160443E+00
          1   -1    0    0  501    0  0.00000000000E+00  0.00000000000E+00  0.22422228411E+04  0.22422228411E+04  0.00000000000E+00 0. -1.
         -1   -1    0    0    0  501 -0.00000000000E+00 -0.00000000000E+00 -0.26060002880E+02  0.26060002880E+02  0.00000000000E+00 0.  1.
         25    2    1    2    0    0 -0.62364828230E+02 -0.14269779828E+03  0.18428467854E+04  0.18536411142E+04  0.12509625290E+03 0.  0.
         23    2    1    2    0    0  0.62364828230E+02  0.14269779828E+03  0.37331605280E+03  0.41464172972E+03  0.91163892619E+02 0.  0.
          5    1    3    3  502    0  0.36467807344E+01  0.21629345758E+02  0.23953187624E+03  0.24057040496E+03  0.41800000000E+01 0. -1.
         -5    1    3    3    0  502 -0.66011608964E+02 -0.16432714404E+03  0.16033149091E+04  0.16130707093E+04  0.41800000000E+01 0. -1.
        -11    1    4    4    0    0  0.13296214909E+02  0.12231407479E+03  0.21584960150E+03  0.24845235497E+03  0.00000000000E+00 0.  1.
         11    1    4    4    0    0  0.49068613320E+02  0.20383723490E+02  0.15746645130E+03  0.16618937475E+03  0.00000000000E+00 0. -1.
</event>
<event>
 8    1  0.7039283E-009  0.8345681E+02  0.7561462E-02  0.1319518E+00
         -1   -1    0    0    0  501 -0.00000000000E+00  0.00000000000E+00  0.31833300711E+02  0.31833300711E+02  0.00000000000E+00 0.  1.
          1   -1    0    0  501    0  0.00000000000E+00 -0.00000000000E+00 -0.44442291204E+03  0.44442291204E+03  0.00000000000E+00 0. -1.
         25    2    1    2    0    0  0.15063217959E+02  0.44831039136E+02 -0.26179724436E+03  0.29397692014E+03  0.12509160568E+03 0.  0.
         23    2    1    2    0    0 -0.15063217959E+02 -0.44831039136E+02 -0.15079236696E+03  0.18227929261E+03  0.90833253690E+02 0.  0.
          5    1    3    3  502    0  0.43193070907E+01  0.62599322373E+02 -0.26517389719E+03  0.27252889705E+03  0.41800000000E+01 0. -1.
         -5    1    3    3    0  502  0.10743910868E+02 -0.17768283236E+02  0.33766528294E+01  0.21448023085E+02  0.41800000000E+01 0. -1.
        -11    1    4    4    0    0 -0.42364629731E+02 -0.27553881856E+02 -0.33532773628E+02  0.60650021968E+02  0.00000000000E+00 0.  1.
         11    1    4    4    0    0  0.27301411772E+02 -0.17277157280E+02 -0.11725959334E+03  0.12162927065E+03  0.00000000000E+00 0. -1.
</event>
<event>
 8    1  0.7039283E-009  0.2787322E+03  0.7561462E-02  0.1096383E+00
          1   -1    0    0  501    0  0.00000000000E+00  0.00000000000E+00  0.76523952512E+03  0.76523952512E+03  0.00000000000E+00 0. -1.
         -1   -1    0    0    0  501 -0.00000000000E+00 -0.00000000000E+00 -0.11523504032E+03  0.11523504032E+03  0.00000000000E+00 0.  1.
         25    2    1    2    0    0 -0.16825767095E+03  0.21418794336E+03  0.26238279937E+03  0.39834550695E+03  0.12508913059E+03 0.  0.
         23    2    1    2    0    0  0.16825767095E+03 -0.21418794336E+03  0.38762168543E+03  0.48212905848E+03  0.89502732373E+02 0.  0.
          5    1    3    3  502    0 -0.52001948283E+02  0.72534830059E+02  0.17234179326E+03  0.19412539839E+03  0.41800000000E+01 0.  1.
         -5    1    3    3    0  502 -0.11625572267E+03  0.14165311330E+03  0.90041006109E+02  0.20422010856E+03  0.41800000000E+01 0.  1.
        -11    1    4    4    0    0  0.15181456287E+03 -0.13253870809E+03  0.24808467411E+03  0.31962505561E+03  0.00000000000E+00 0.  1.
         11    1    4    4    0    0  0.16443108083E+02 -0.81649235266E+02  0.13953701132E+03  0.16250400288E+03  0.00000000000E+00 0. -1.
</event>
<event>
 8    1  0.7039283E-009  0.1331289E+03  0.7561462E-02  0.1222885E+00
          2   -1    0    0  501    0  0.00000000000E+00  0.00000000000E+00  0.30264507990E+03  0.30264507990E+03  0.00000000000E+00 0.  1.
         -2   -1    0    0    0  501 -0.00000000000E+00 -0.00000000000E+00 -0.18002193536E+03  0.18002193536E+03  0.00000000000E+00 0. -1.
         25    2    1    2    0    0 -0.80319336412E+02  0.62050148068E+02  0.24940531317E+03  0.29690365952E+03  0.12508939253E+03 0.  0.
         23    2    1    2    0    0  0.80319336412E+02 -0.62050148068E+02 -0.12678216863E+03  0.18576335574E+03  0.90182533649E+02 0.  0.
          5    1    3    3  502    0 -0.44722833229E+02 -0.18432800955E+02  0.22536192618E+02  0.53528051905E+02  0.41800000000E+01 0.  1.
         -5    1    3    3    0  502 -0.35596503183E+02  0.80482949023E+02  0.22686912055E+03  0.24337560762E+03  0.41800000000E+01 0.  1.
        -11    1    4    4    0    0  0.67220164851E+02 -0.10674488389E+01 -0.37889523325E+02  0.77170629047E+02  0.00000000000E+00 0. -1.
         11    1    4    4    0    0  0.13099171560E+02 -0.60982699229E+02 -0.88892645302E+02  0.10859272669E+03  0.00000000000E+00 0.  1.
</event>
<event>
 8    1  0.7039283E-009  0.1187691E+03  0.7561462E-02  0.1245142E+00
          2   -1    0    0  501    0  0.00000000000E+00  0.00000000000E+00  0.20059798247E+03  0.20059798247E+03  0.00000000000E+00 0. -1.
         -2   -1    0    0    0  501 -0.00000000000E+00 -0.00000000000E+00 -0.10397051625E+03  0.10397051625E+03  0.00000000000E+00 0.  1.
         25    2    1    2    0    0 -0.68470861136E+02 -0.23481706879E+02  0.10927357781E+03  0.18118402014E+03  0.12508910810E+03 0.  0.
         23    2    1    2    0    0  0.68470861136E+02  0.23481706879E+02 -0.12646111588E+02  0.12338447857E+03  0.99116880658E+02 0.  0.
          5    1    3    3  502    0  0.29148029247E+02  0.89627654588E+01 -0.36734709865E+00  0.30782237046E+02  0.41800000000E+01 0. -1.
         -5    1    3    3    0  502 -0.97618890383E+02 -0.32444472338E+02  0.10964092491E+03  0.15040178310E+03  0.41800000000E+01 0. -1.
        -11    1    4    4    0    0  0.84586107354E+02  0.16215537974E+02 -0.36627914472E+02  0.93591438432E+02  0.00000000000E+00 0.  1.
         11    1    4    4    0    0 -0.16115246218E+02  0.72661689052E+01  0.23981802884E+02  0.29793040140E+02  0.00000000000E+00 0. -1.
</event>
<event>
 8    1  0.7039283E-009  0.9126224E+02  0.7561462E-02  0.1299823E+00
          2   -1    0    0  501    0  0.00000000000E+00  0.00000000000E+00  0.77664763024E+03  0.77664763024E+03  0.00000000000E+00 0. -1.
         -2   -1    0    0    0  501 -0.00000000000E+00 -0.00000000000E+00 -0.20397648739E+02  0.20397648739E+02  0.00000000000E+00 0.  1.
         25    2    1    2    0    0  0.84986560345E+01  0.28973551598E+02  0.63533591055E+03  0.64823651278E+03  0.12508862227E+03 0.  0.
         23    2    1    2    0    0 -0.84986560345E+01 -0.28973551598E+02  0.12091407095E+03  0.14880876619E+03  0.81315081607E+02 0.  0.
          5    1    3    3  502    0  0.79081635838E+00  0.77072478355E+02  0.44935054994E+03  0.45593221145E+03  0.41800000000E+01 0. -1.
         -5    1    3    3    0  502  0.77078396761E+01 -0.48098926757E+02  0.18598536061E+03  0.19230430133E+03  0.41800000000E+01 0. -1.
        -11    1    4    4    0    0  0.17724076275E+02 -0.23865950578E+02  0.53603018585E+01  0.30206941467E+02  0.00000000000E+00 0.  1.
         11    1    4    4    0    0 -0.26222732310E+02 -0.51076010202E+01  0.11555376909E+03  0.11860182473E+03  0.00000000000E+00 0. -1.
</event>
<event>
 8    1  0.7039283E-009  0.6768734E+02  0.7561462E-02  0.1368139E+00
         -2   -1    0    0    0  501 -0.00000000000E+00  0.00000000000E+00  0.36279531299E+02  0.36279531299E+02  0.00000000000E+00 0.  1.
          2   -1    0    0  501    0  0.00000000000E+00 -0.00000000000E+00 -0.34349049871E+03  0.34349049871E+03  0.00000000000E+00 0. -1.
         25    2    1    2    0    0  0.11582997649E+01 -0.26505065701E+02 -0.16833501893E+03  0.21139540370E+03  0.12508987945E+03 0.  0.
         23    2    1    2    0    0 -0.11582997649E+01  0.26505065701E+02 -0.13887594848E+03  0.16837462631E+03  0.91430987919E+02 0.  0.
          5    1    3    3  502    0 -0.33828284799E+02 -0.40870732093E+02 -0.16480032835E+03  0.17318022467E+03  0.41800000000E+01 0. -1.
         -5    1    3    3    0  502  0.34986584564E+02  0.14365666393E+02 -0.35346905783E+01  0.38215179024E+02  0.41800000000E+01 0. -1.
        -11    1    4    4    0    0 -0.17249323292E+02  0.20823433617E+02 -0.14700608477E+03  0.14947221648E+03  0.00000000000E+00 0. -1.
         11    1    4    4    0    0  0.16091023527E+02  0.56816320832E+01  0.81301362844E+01  0.18902409827E+02  0.00000000000E+00 0.  1.
</event>
<event>
 8    1  0.7039283E-009  0.2998017E+03  0.7561462E-02  0.1085340E+00
          2   -1    0    0  501    0  0.00000000000E+00  0.00000000000E+00  0.29690188809E+04  0.29690188809E+04  0.00000000000E+00 0. -1.
         -2   -1    0    0    0  501 -0.00000000000E+00 -0.00000000000E+00 -0.34026197750E+02  0.34026197750E+02  0.00000000000E+00 0.  1.
         25    2    1    2    0    0  0.26758287838E+03 -0.12661297338E+03  0.16769365068E+04  0.17074517647E+04  0.12507613261E+03 0.  0.
         23    2    1    2    0    0 -0.26758287838E+03  0.12661297338E+03  0.12580561763E+04  0.12955933140E+04  0.90693167249E+02 0.  0.
          5    1    3    3  502    0  0.15106185043E+03 -0.66837216236E+02  0.12496438811E+04  0.12605213993E+04  0.41800000000E+01 0.  1.
         -5    1    3    3    0  502  0.11652102795E+03 -0.59775757146E+02  0.42729262577E+03  0.44693036542E+03  0.41800000000E+01 0.  1.
        -11    1    4    4    0    0 -0.10257044608E+03  0.13909269977E+02  0.31402695246E+03  0.33064647446E+03  0.00000000000E+00 0.  1.
         11    1    4    4    0    0 -0.16501243230E+03  0.11270370340E+03  0.94402922388E+03  0.96494683953E+03  0.00000000000E+00 0. -1.
</event>
<event>
 8    1  0.7039283E-009  0.1020240E+03  0.7561462E-02  0.1276096E+00
         -2   -1    0    0    0  501 -0.00000000000E+00  0.00000000000E+00  0.98948802747E+02  0.98948802747E+02  0.00000000000E+00 0.  1.
          2   -1    0    0  501    0  0.00000000000E+00 -0.00000000000E+00 -0.14837917349E+03  0.14837917349E+03  0.00000000000E+00 0. -1.
         25    2    1    2    0    0 -0.21134791328E+02 -0.47346840728E+02 -0.42086168969E+02  0.14180019978E+03  0.12509056043E+03 0.  0.
         23    2    1    2    0    0  0.21134791328E+02  0.47346840728E+02 -0.73442017712E+01  0.10552777645E+03  0.91617528735E+02 0.  0.
          5    1    3    3  502    0  0.32245372075E+02 -0.23770172868E+02 -0.67029911475E+02  0.78200169890E+02  0.41800000000E+01 0. -1.
         -5    1    3    3    0  502 -0.53380163403E+02 -0.23576667860E+02  0.24943742507E+02  0.63600029894E+02  0.41800000000E+01 0. -1.
        -11    1    4    4    0    0 -0.29492578638E+02  0.45973568597E+02 -0.43535014212E+01  0.54793559648E+02  0.00000000000E+00 0.  1.
         11    1    4    4    0    0  0.50627369966E+02  0.13732721311E+01 -0.29907003500E+01  0.50734216803E+02  0.00000000000E+00 0. -1.
</event>
<event>
 8    1  0.7039283E-009  0.1071326E+03  0.7561462E-02  0.1265974E+00
          1   -1    0    0  501    0  0.00000000000E+00  0.00000000000E+00  0.19559300247E+04  0.19559300247E+04  0.00000000000E+00 0. -1.
         -1   -1    0    0    0  501 -0.00000000000E+00 -0.00000000000E+00 -0.13499049411E+02  0.13499049411E+02  0.00000000000E+00 0.  1.
         25    2    1    2    0    0  0.19037866632E+02  0.47015948226E+02  0.17036415641E+04  0.17089806924E+04  0.12508992083E+03 0.  0.
         23    2    1    2    0    0 -0.19037866632E+02 -0.47015948226E+02  0.23878941117E+03  0.26044838170E+03  0.90774648931E+02 0.  0.
          5    1    3    3  502    0  0.13757591646E+02  0.79397055490E+02  0.15354161360E+04  0.15375348278E+04  0.41800000000E+01 0. -1.
         -5    1    3    3    0  502  0.52802749862E+01 -0.32381107263E+02  0.16822542810E+03  0.17144586455E+03  0.41800000000E+01 0. -1.
        -11    1    4    4    0    0  0.87865148400E+01 -0.66152022178E+02  0.18767265783E+03  0.19918413436E+03  0.00000000000E+00 0. -1.
         11    1    4    4    0    0 -0.27824381472E+02  0.19136073952E+02  0.51116753340E+02  0.61264247344E+02  0.00000000000E+00 0.  1.
</event>
<event>
 8    1  0.7039283E-009  0.9429068E+02  0.7561462E-02  0.1292782E+00
         -2   -1    0    0    0  501 -0.00000000000E+00  0.00000000000E+00  0.42614780705E+02  0.42614780705E+02  0.00000000000E+00 0.  1.
          2   -1    0    0  501    0  0.00000000000E+00 -0.00000000000E+00 -0.66633633125E+03  0.66633633125E+03  0.00000000000E+00 0. -1.
         25    2    1    2    0    0 -0.72084685654E+01 -0.29536910018E+02 -0.59482343572E+03  0.60859464676E+03  0.12509249906E+03 0.  0.
         23    2    1    2    0    0  0.72084685654E+01  0.29536910018E+02 -0.28898114832E+02  0.10035646519E+03  0.91169775655E+02 0.  0.
          5    1    3    3  502    0 -0.47967220021E+02 -0.52637219023E+01 -0.50139408662E+03  0.50372816426E+03  0.41800000000E+01 0. -1.
         -5    1    3    3    0  502  0.40758751456E+02 -0.24273188116E+02 -0.93429349091E+02  0.10486648251E+03  0.41800000000E+01 0. -1.
        -11    1    4    4    0    0 -0.25636098240E+02 -0.20393314570E+02  0.24866821393E+01  0.32852403264E+02  0.00000000000E+00 0.  1.
         11    1    4    4    0    0  0.32844566806E+02  0.49930224589E+02 -0.31384796971E+02  0.67504061930E+02  0.00000000000E+00 0. -1.
</event>
<event>
 8    1  0.7039283E-009  0.1119317E+03  0.7561462E-02  0.1257034E+00
         -1   -1    0    0    0  501 -0.00000000000E+00  0.00000000000E+00  0.87803062092E+03  0.87803062092E+03  0.00000000000E+00 0.  1.
          1   -1    0    0  501    0  0.00000000000E+00 -0.00000000000E+00 -0.17784118591E+02  0.17784118591E+02  0.00000000000E+00 0. -1.
         25    2    1    2    0    0 -0.53895921506E+02 -0.93128932575E+01  0.58902858105E+03  0.60464296093E+03  0.12508773151E+03 0.  0.
         23    2    1    2    0    0  0.53895921506E+02  0.93128932575E+01  0.27121792129E+03  0.29117177859E+03  0.90721240526E+02 0.  0.
          5    1    3    3  502    0 -0.14687868986E+02  0.52435412210E+02  0.36170712841E+03  0.36580695058E+03  0.41800000000E+01 0. -1.
         -5    1    3    3    0  502 -0.39208052521E+02 -0.61748305467E+02  0.22732145263E+03  0.23883601035E+03  0.41800000000E+01 0. -1.
        -11    1    4    4    0    0 -0.13781468846E+02 -0.18285393709E+02  0.23149691120E+02  0.32560600510E+02  0.00000000000E+00 0. -1.
         11    1    4    4    0    0  0.67677390352E+02  0.27598286966E+02  0.24806823017E+03  0.25861117808E+03  0.00000000000E+00 0.  1.
</event>
<event>
 8    1  0.7039283E-009  0.2378237E+03  0.7561462E-02  0.1121251E+00
         -1   -1    0    0    0  501 -0.00000000000E+00  0.00000000000E+00  0.39122164393E+03  0.39122164393E+03  0.00000000000E+00 0.  1.
          1   -1    0    0  501    0  0.00000000000E+00 -0.00000000000E+00 -0.28107469004E+03  0.28107469004E+03  0.00000000000E+00 0. -1.
         25    2    1    2    0    0  0.19604035083E+02 -0.22070960535E+03  0.28030414603E+03  0.37856754414E+03  0.12508366445E+03 0.  0.
         23    2    1    2    0    0 -0.19604035083E+02  0.22070960535E+03 -0.17015719214E+03  0.29372878982E+03  0.90697760981E+02 0.  0.
          5    1    3    3  502    0 -0.54658905510E+01  0.15139161823E+02  0.25428315054E+02  0.30383248455E+02  0.41800000000E+01 0. -1.
         -5    1    3    3    0  502  0.25069925634E+02 -0.23584876718E+03  0.25487583097E+03  0.34818429569E+03  0.41800000000E+01 0. -1.
        -11    1    4    4    0    0 -0.18369304373E+02  0.15535258406E+03 -0.63916971816E+02  0.16898886355E+03  0.00000000000E+00 0.  1.
         11    1    4    4    0    0 -0.12347307104E+01  0.65357021292E+02 -0.10624022032E+03  0.12473992627E+03  0.00000000000E+00 0. -1.
</event>
<event>
 8    1  0.7039283E-009  0.1940359E+03  0.7561462E-02  0.1154871E+00
          1   -1    0    0  501    0  0.00000000000E+00  0.00000000000E+00  0.51960975882E+02  0.51960975882E+02  0.00000000000E+00 0. -1.
         -1   -1    0    0    0  501 -0.00000000000E+00 -0.00000000000E+00 -0.84033909845E+03  0.84033909845E+03  0.00000000000E+00 0.  1.
         25    2    1    2    0    0 -0.51504240166E+02 -0.16438765776E+03 -0.31674730324E+03  0.38164611113E+03  0.12509560843E+03 0.  0.
         23    2    1    2    0    0  0.51504240166E+02  0.16438765776E+03 -0.47163081933E+03  0.51065396320E+03  0.93036829351E+02 0.  0.
          5    1    3    3  502    0 -0.86793087728E+02 -0.74102649576E+02 -0.14727571233E+03  0.18636483196E+03  0.41800000000E+01 0.  1.
         -5    1    3    3    0  502  0.35288847562E+02 -0.90285008185E+02 -0.16947159091E+03  0.19528127916E+03  0.41800000000E+01 0.  1.
        -11    1    4    4    0    0  0.58008556674E+02  0.13860082424E+03 -0.45528728180E+03  0.47943893260E+03  0.00000000000E+00 0.  1.
         11    1    4    4    0    0 -0.65043165079E+01  0.25786833526E+02 -0.16343537531E+02  0.31215030603E+02  0.00000000000E+00 0. -1.
</event>
<event>
 8    1  0.7039283E-009  0.6619588E+02  0.7561462E-02  0.1373529E+00
         -2   -1    0    0    0  501 -0.00000000000E+00  0.00000000000E+00  0.68752842680E+02  0.68752842680E+02  0.00000000000E+00 0.  1.
          2   -1    0    0  501    0  0.00000000000E+00 -0.00000000000E+00 -0.17771490053E+03  0.17771490053E+03  0.00000000000E+00 0. -1.
         25    2    1    2    0    0 -0.21747227214E+02 -0.14972398361E+01 -0.52553252993E+02  0.13742158126E+03  0.12509061906E+03 0.  0.
         23    2    1    2    0    0  0.21747227214E+02  0.14972398361E+01 -0.56408804860E+02  0.10904616195E+03  0.90740997086E+02 0.  0.
          5    1    3    3  502    0 -0.41465041958E+01  0.18897469531E+02  0.38004144101E+02  0.42849681686E+02  0.41800000000E+01 0.  1.
         -5    1    3    3    0  502 -0.17600723018E+02 -0.20394709367E+02 -0.90557397094E+02  0.94571899576E+02  0.41800000000E+01 0.  1.
        -11    1    4    4    0    0  0.32318650447E+02  0.36511961355E+02 -0.53451424954E+02  0.72351042275E+02  0.00000000000E+00 0. -1.
         11    1    4    4    0    0 -0.10571423233E+02 -0.35014721519E+02 -0.29573799063E+01  0.36695119677E+02  0.00000000000E+00 0.  1.
</event>
<event>
 8    1  0.7039283E-009  0.1581358E+03  0.7561462E-02  0.1190818E+00
         -3   -1    0    0    0  501 -0.00000000000E+00  0.00000000000E+00  0.33110786982E+02  0.33110786982E+02  0.00000000000E+00 0.  1.
          3   -1    0    0  501    0  0.00000000000E+00 -0.00000000000E+00 -0.83393310462E+03  0.83393310462E+03  0.00000000000E+00 0. -1.
         25    2    1    2    0    0  0.12388127594E+03 -0.10686795024E+02 -0.37585346558E+03  0.41517959682E+03  0.12508993526E+03 0.  0.
         23    2    1    2    0    0 -0.12388127594E+03  0.10686795024E+02 -0.42496885205E+03  0.45186429478E+03  0.90122347768E+02 0.  0.
          5    1    3    3  502    0 -0.18903035942E+02 -0.13914742302E+02 -0.18053618247E+02  0.29905690980E+02  0.41800000000E+01 0.  1.
         -5    1    3    3    0  502  0.14278431189E+03  0.32279472786E+01 -0.35779984734E+03  0.38527390584E+03  0.41800000000E+01 0.  1.
        -11    1    4    4    0    0  0.11180413160E+02  0.91988342108E+01 -0.81786294855E+02  0.83057920846E+02  0.00000000000E+00 0. -1.
         11    1    4    4    0    0 -0.13506168911E+03  0.14879608130E+01 -0.34318255720E+03  0.36880637393E+03  0.00000000000E+00 0.  1.
</event>
<event>
 8    1  0.7039283E-009  0.1136941E+03  0.7561462E-02  0.1253878E+00
         -4   -1    0    0    0  501 -0.00000000000E+00  0.00000000000E+00  0.52385125931E+02  0.52385125931E+02  0.00000000000E+00 0.  1.
          4   -1    0    0  501    0  0.00000000000E+00 -0.00000000000E+00 -0.39701643112E+03  0.39701643112E+03  0.00000000000E+00 0. -1.
         25    2    1    2    0    0 -0.26475999930E+02 -0.90686779853E+02 -0.20275838819E+03  0.25628477837E+03  0.12508338431E+03 0.  0.
         23    2    1    2    0    0  0.26475999930E+02  0.90686779853E+02 -0.14187291700E+03  0.19311677868E+03  0.90780477074E+02 0.  0.
          5    1    3    3  502    0  0.87824498890E+00 -0.77126338086E+02 -0.21074128455E+03  0.22445178715E+03  0.41800000000E+01 0. -1.
         -5    1    3    3    0  502 -0.27354244919E+02 -0.13560441767E+02  0.79828963574E+01  0.31832991224E+02  0.41800000000E+01 0. -1.
        -11    1    4    4    0    0  0.71966484707E+01 -0.12463118113E+02  0.25300548833E+01  0.14612400214E+02  0.00000000000E+00 0.  1.
         11    1    4    4    0    0  0.19279351460E+02  0.10314989797E+03 -0.14440297189E+03  0.17850437847E+03  0.00000000000E+00 0. -1.
</event>
<event>
 8    1  0.7039283E-009  0.8925832E+02  0.7561462E-02  0.1304658E+00
          1   -1    0    0  501    0  0.00000000000E+00  0.00000000000E+00  0.64792664841E+02  0.64792664841E+02  0.00000000000E+00 0. -1.
         -1   -1    0    0    0  501 -0.00000000000E+00 -0.00000000000E+00 -0.21075331610E+03  0.21075331610E+03  0.00000000000E+00 0.  1.
         25    2    1    2    0    0  0.31005563396E+02  0.86966743440E+01 -0.11578038529E+03  0.17346394573E+03  0.12509063012E+03 0.  0.
         23    2    1    2    0    0 -0.31005563396E+02 -0.86966743440E+01 -0.30180265966E+02  0.10208203521E+03  0.92048445682E+02 0.  0.
          5    1    3    3  502    0 -0.80685767591E+01 -0.43383306414E+02 -0.46110627388E+01  0.44563970939E+02  0.41800000000E+01 0. -1.
         -5    1    3    3    0  502  0.39074140155E+02  0.52079980757E+02 -0.11116932255E+03  0.12889997479E+03  0.41800000000E+01 0. -1.
        -11    1    4    4    0    0 -0.45564255587E+02 -0.20732890532E+02  0.15701237286E+02  0.52464111441E+02  0.00000000000E+00 0. -1.
         11    1    4    4    0    0  0.14558692191E+02  0.12036216188E+02 -0.45881503252E+02  0.49617923768E+02  0.00000000000E+00 0.  1.
</event>
<event>
 8    1  0.7039283E-009  0.7561305E+02  0.7561462E-02  0.1341983E+00
          2   -1    0    0  501    0  0.00000000000E+00  0.00000000000E+00  0.13527929303E+04  0.13527929303E+04  0.00000000000E+00 0. -1.
         -2   -1    0    0    0  501 -0.00000000000E+00 -0.00000000000E+00 -0.11472794744E+02  0.11472794744E+02  0.00000000000E+00 0.  1.
         25    2    1    2    0    0 -0.38144960244E+02 -0.74155885495E+01  0.10101587616E+04  0.10186154172E+04  0.12508643222E+03 0.  0.
         23    2    1    2    0    0  0.38144960244E+02  0.74155885495E+01  0.33116137395E+03  0.34565030787E+03  0.91083756968E+02 0.  0.
          5    1    3    3  502    0 -0.51666764984E+01  0.28027313812E+02  0.53823514273E+02  0.61046440963E+02  0.41800000000E+01 0.  1.
         -5    1    3    3    0  502 -0.32978283745E+02 -0.35442902361E+02  0.95633524732E+03  0.95756897621E+03  0.41800000000E+01 0.  1.
        -11    1    4    4    0    0  0.47625726802E+02  0.25046887604E+02  0.31597229476E+03  0.32052152422E+03  0.00000000000E+00 0. -1.
         11    1    4    4    0    0 -0.94807665586E+01 -0.17631299054E+02  0.15189079197E+02  0.25128783650E+02  0.00000000000E+00 0.  1.
</event>
<event>
 8    1  0.7039283E-009  0.1359964E+03  0.7561462E-02  0.1218820E+00
          3   -1    0    0  501    0  0.00000000000E+00  0.00000000000E+00  0.22823004788E+03  0.22823004788E+03  0.00000000000E+00 0. -1.
         -3   -1    0    0    0  501 -0.00000000000E+00 -0.00000000000E+00 -0.11682361610E+03  0.11682361610E+03  0.00000000000E+00 0.  1.
         25    2    1    2    0    0 -0.15421675481E+02  0.96940081726E+02  0.13475317854E+03  0.20842381683E+03  0.12508741253E+03 0.  0.
         23    2    1    2    0    0  0.15421675481E+02 -0.96940081726E+02 -0.23346746761E+02  0.13662984715E+03  0.92127287104E+02 0.  0.
          5    1    3    3  502    0 -0.81436981142E+01 -0.29624039263E+02  0.37067298229E+02  0.48325567966E+02  0.41800000000E+01 0. -1.
         -5    1    3    3    0  502 -0.72779773665E+01  0.12656412099E+03  0.97685880310E+02  0.16009824886E+03  0.41800000000E+01 0. -1.
        -11    1    4    4    0    0  0.36888524353E+02 -0.74253098250E+02 -0.48915598028E+02  0.96265370508E+02  0.00000000000E+00 0.  1.
         11    1    4    4    0    0 -0.21466848873E+02 -0.22686983476E+02  0.25568851267E+02  0.40364476645E+02  0.00000000000E+00 0. -1.
</event>
<event>
 8    1  0.7039283E-009  0.1093544E+03  0.7561462E-02  0.1261770E+00
          1   -1    0    0  501    0  0.00000000000E+00  0.00000000000E+00  0.77847800333E+02  0.77847800333E+02  0.00000000000E+00 0. -1.
         -1   -1    0    0    0  501 -0.00000000000E+00 -0.00000000000E+00 -0.18867837517E+03  0.18867837517E+03  0.00000000000E+00 0.  1.
         25    2    1    2    0    0  0.18072748790E+02 -0.47127001984E+02 -0.82876093083E+02  0.15831370779E+03  0.12508878729E+03 0.  0.
         23    2    1    2    0    0 -0.18072748790E+02  0.47127001984E+02 -0.27954481757E+02  0.10821246771E+03  0.91547291351E+02 0.  0.
          5    1    3    3  502    0 -0.11490944942E+02 -0.85131057265E+02 -0.59841510937E+02  0.10477508081E+03  0.41800000000E+01 0.  1.
         -5    1    3    3    0  502  0.29563693732E+02  0.38004055282E+02 -0.23034582147E+02  0.53538626987E+02  0.41800000000E+01 0.  1.
        -11    1    4    4    0    0 -0.19166515673E+02 -0.13685918098E+02  0.19890456736E+02  0.30826773208E+02  0.00000000000E+00 0. -1.
         11    1    4    4    0    0  0.10937668838E+01  0.60812920082E+02 -0.47844938493E+02  0.77385694507E+02  0.00000000000E+00 0.  1.
</event>
<event>
 8    1  0.7039283E-009  0.1015651E+03  0.7561462E-02  0.1277039E+00
          1   -1    0    0  501    0  0.00000000000E+00  0.00000000000E+00  0.19939091453E+03  0.19939091453E+03  0.00000000000E+00 0. -1.
         -1   -1    0    0    0  501 -0.00000000000E+00 -0.00000000000E+00 -0.77910414286E+02  0.77910414286E+02  0.00000000000E+00 0.  1.
         25    2    1    2    0    0 -0.58466500406E+02  0.20300881402E+02  0.78409849643E+02  0.16007897697E+03  0.12508683740E+03 0.  0.
         23    2    1    2    0    0  0.58466500406E+02 -0.20300881402E+02  0.43070650598E+02  0.11722235184E+03  0.89752667780E+02 0.  0.
          5    1    3    3  502    0 -0.81990664226E+02 -0.23791835149E+02  0.67107492625E+02  0.10867110198E+03  0.41800000000E+01 0.  1.
         -5    1    3    3    0  502  0.23524163819E+02  0.44092716551E+02  0.11302357019E+02  0.51407874985E+02  0.41800000000E+01 0.  1.
        -11    1    4    4    0    0  0.39313394643E+02  0.38290765136E+00 -0.22887974989E+02  0.45492296224E+02  0.00000000000E+00 0.  1.
         11    1    4    4    0    0  0.19153105763E+02 -0.20683789054E+02  0.65958625587E+02  0.71730055620E+02  0.00000000000E+00 0. -1.
</event>
<event>
 8    1  0.7039283E-009  0.8858228E+02  0.7561462E-02  0.1306322E+00
         -1   -1    0    0    0  501 -0.00000000000E+00  0.00000000000E+00  0.20775678691E+03  0.20775678691E+03  0.00000000000E+00 0.  1.
          1   -1    0    0  501    0  0.00000000000E+00 -0.00000000000E+00 -0.69987067742E+02  0.69987067742E+02  0.00000000000E+00 0. -1.
         25    2    1    2    0    0 -0.15909148425E+02  0.50215368531E+02  0.66515260461E+02  0.15115031726E+03  0.12508978493E+03 0.  0.
         23    2    1    2    0    0  0.15909148425E+02 -0.50215368531E+02  0.71254458704E+02  0.12659353738E+03  0.90410406380E+02 0.  0.
          5    1    3    3  502    0  0.24275136285E+02  0.55142596908E+02  0.86745921476E+02  0.10569917468E+03  0.41800000000E+01 0.  1.
         -5    1    3    3    0  502 -0.40184284709E+02 -0.49272283765E+01 -0.20230661015E+02  0.45451142584E+02  0.41800000000E+01 0.  1.
        -11    1    4    4    0    0  0.36378200813E+02 -0.35759163033E+02  0.84155413639E+02  0.98408459393E+02  0.00000000000E+00 0.  1.
         11    1    4    4    0    0 -0.20469052388E+02 -0.14456205498E+02 -0.12900954936E+02  0.28185077991E+02  0.00000000000E+00 0. -1.
</event>
<event>
 8    1  0.7039283E-009  0.1108588E+03  0.7561462E-02  0.1258988E+00
          2   -1    0    0  501    0  0.00000000000E+00  0.00000000000E+00  0.84148560609E+02  0.84148560609E+02  0.00000000000E+00 0. -1.
         -2   -1    0    0    0  501 -0.00000000000E+00 -0.00000000000E+00 -0.20217766414E+03  0.20217766414E+03  0.00000000000E+00 0.  1.
         25    2    1    2    0    0  0.58784951947E+02  0.25041582465E+02 -0.26499024366E+02  0.14294581817E+03  0.12509419336E+03 0.  0.
         23    2    1    2    0    0 -0.58784951947E+02 -0.25041582465E+02 -0.91530079162E+02  0.14338040657E+03  0.89985744258E+02 0.  0.
          5    1    3    3  502    0  0.13670375749E+01 -0.47574760723E+02 -0.78110927610E+01  0.48411901633E+02  0.41800000000E+01 0. -1.
         -5    1    3    3    0  502  0.57417914372E+02  0.72616343188E+02 -0.18687931605E+02  0.94533916541E+02  0.41800000000E+01 0. -1.
        -11    1    4    4    0    0 -0.15142947804E+02  0.15525229428E+02  0.11360192214E+02  0.24482556732E+02  0.00000000000E+00 0. -1.
         11    1    4    4    0    0 -0.43642004142E+02 -0.40566811893E+02 -0.10289027138E+03  0.11889784984E+03  0.00000000000E+00 0.  1.
</event>
<event>
 8    1  0.7039283E-009  0.1166747E+03  0.7561462E-02  0.1248686E+00
         -2   -1    0    0    0  501 -0.00000000000E+00  0.00000000000E+00  0.69394438962E+02  0.69394438962E+02  0.00000000000E+00 0.  1.
          2   -1    0    0  501    0  0.00000000000E+00 -0.00000000000E+00 -0.30121660310E+03  0.30121660310E+03  0.00000000000E+00 0. -1.
         25    2    1    2    0    0  0.88584101135E+02  0.30373200667E+02 -0.10431206452E+03  0.18787880866E+03  0.12509102943E+03 0.  0.
         23    2    1    2    0    0 -0.88584101135E+02 -0.30373200667E+02 -0.12751009962E+03  0.18273223341E+03  0.91447084854E+02 0.  0.
          5    1    3    3  502    0  0.97800480607E+02 -0.33739630165E+00 -0.23261369859E+02  0.10061615959E+03  0.41800000000E+01 0.  1.
         -5    1    3    3    0  502 -0.92163794715E+01  0.30710596969E+02 -0.81050694661E+02  0.87262649065E+02  0.41800000000E+01 0.  1.
        -11    1    4    4    0    0 -0.54378246381E+02  0.41351069405E+01 -0.12224648682E+03  0.13385924073E+03  0.00000000000E+00 0. -1.
         11    1    4    4    0    0 -0.34205854755E+02 -0.34508307607E+02 -0.52636127975E+01  0.48872992676E+02  0.00000000000E+00 0.  1.
</event>
<event>
 8    1  0.7039283E-009  0.1346780E+03  0.7561462E-02  0.1220675E+00
          1   -1    0    0  501    0  0.00000000000E+00  0.00000000000E+00  0.12367117540E+03  0.12367117540E+03  0.00000000000E+00 0. -1.
         -1   -1    0    0    0  501 -0.00000000000E+00 -0.00000000000E+00 -0.20644514998E+03  0.20644514998E+03  0.00000000000E+00 0.  1.
         25    2    1    2    0    0  0.91567792499E+02  0.14390700311E+02 -0.11895338372E+03  0.19592985703E+03  0.12508736347E+03 0.  0.
         23    2    1    2    0    0 -0.91567792499E+02 -0.14390700311E+02  0.36179409131E+02  0.13418646835E+03  0.90029471643E+02 0.  0.
          5    1    3    3  502    0  0.81291169913E+02  0.62570861928E+02 -0.98967128461E+02  0.14260200554E+03  0.41800000000E+01 0. -1.
         -5    1    3    3    0  502  0.10276622586E+02 -0.48180161618E+02 -0.19986255259E+02  0.53327851490E+02  0.41800000000E+01 0. -1.
        -11    1    4    4    0    0 -0.30823463082E+02 -0.40695528313E+02 -0.11842633838E+02  0.52406677793E+02  0.00000000000E+00 0.  1.
         11    1    4    4    0    0 -0.60744329417E+02  0.26304828002E+02  0.48022042968E+02  0.81779790556E+02  0.00000000000E+00 0. -1.
</event>
<event>
 8    1  0.7039283E-009  0.8287982E+02  0.7561462E-02  0.1321072E+00
         -1   -1    0    0    0  501 -0.00000000000E+00  0.00000000000E+00  0.31896888168E+02  0.31896888168E+02  0.00000000000E+00 0.  1.
          1   -1    0    0  501    0  0.00000000000E+00 -0.00000000000E+00 -0.40251176471E+03  0.40251176471E+03  0.00000000000E+00 0. -1.
         25    2    1    2    0    0  0.12883894858E+02 -0.28553545986E+02 -0.24556149248E+03  0.27736036020E+03  0.12508806132E+03 0.  0.
         23    2    1    2    0    0 -0.12883894858E+02  0.28553545986E+02 -0.12505338406E+03  0.15704829268E+03  0.89691234984E+02 0.  0.
          5    1    3    3  502    0  0.17603985841E+02  0.29515123387E+02 -0.12053607606E+02  0.36657941600E+02  0.41800000000E+01 0.  1.
         -5    1    3    3    0  502 -0.47200909826E+01 -0.58068669372E+02 -0.23350788487E+03  0.24070241860E+03  0.41800000000E+01 0.  1.
        -11    1    4    4    0    0  0.18488522456E+02  0.36014295837E+02 -0.11700686247E+03  0.12381219986E+03  0.00000000000E+00 0. -1.
         11    1    4    4    0    0 -0.31372417314E+02 -0.74607498509E+01 -0.80465215876E+01  0.33236092822E+02  0.00000000000E+00 0.  1.
</event>
<event>
 8    1  0.7039283E-009  0.1798983E+03  0.7561462E-02  0.1167902E+00
          2   -1    0    0  501    0  0.00000000000E+00  0.00000000000E+00  0.98333062619E+03  0.98333062619E+03  0.00000000000E+00 0. -1.
         -2   -1    0    0    0  501 -0.00000000000E+00 -0.00000000000E+00 -0.53440099841E+02  0.53440099841E+02  0.00000000000E+00 0.  1.
         25    2    1    2    0    0 -0.14573172470E+03 -0.35937916332E+02  0.78465097282E+03  0.80861243362E+03  0.12509056416E+03 0.  0.
         23    2    1    2    0    0  0.14573172470E+03  0.35937916332E+02  0.14523955353E+03  0.22815829241E+03  0.91828149677E+02 0.  0.
          5    1    3    3  502    0 -0.10196802356E+03 -0.82395196622E+02  0.50733664454E+03  0.52401754699E+03  0.41800000000E+01 0.  1.
         -5    1    3    3    0  502 -0.43763701142E+02  0.46457280290E+02  0.27731432828E+03  0.28459488664E+03  0.41800000000E+01 0.  1.
        -11    1    4    4    0    0  0.15221065779E+02  0.30454036214E+02  0.17133996057E+01  0.34089073079E+02  0.00000000000E+00 0. -1.
         11    1    4    4    0    0  0.13051065892E+03  0.54838801186E+01  0.14352615392E+03  0.19406921933E+03  0.00000000000E+00 0.  1.
</event>
<event>
 8    1  0.7039283E-009  0.1517226E+03  0.7561462E-02  0.1198372E+00
         -1   -1    0    0    0  501 -0.00000000000E+00  0.00000000000E+00  0.31471714184E+02  0.31471714184E+02  0.00000000000E+00 0.  1.
          1   -1    0    0  501    0  0.00000000000E+00 -0.00000000000E+00 -0.79177599383E+03  0.79177599383E+03  0.00000000000E+00 0. -1.
         25    2    1    2    0    0 -0.57353446431E+02  0.96021407397E+02 -0.45283831151E+03  0.48292727245E+03  0.12508671236E+03 0.  0.
         23    2    1    2    0    0  0.57353446431E+02 -0.96021407397E+02 -0.30746596813E+03  0.34032043556E+03  0.93665088507E+02 0.  0.
          5    1    3    3  502    0 -0.39068304929E+02 -0.22522477799E+02 -0.89966398322E+02  0.10072248847E+03  0.41800000000E+01 0.  1.
         -5    1    3    3    0  502 -0.18285141502E+02  0.11854388520E+03 -0.36287191319E+03  0.38220478398E+03  0.41800000000E+01 0.  1.
        -11    1    4    4    0    0  0.36128174340E+02 -0.10791876259E+03 -0.19979416674E+03  0.22993349770E+03  0.00000000000E+00 0.  1.
         11    1    4    4    0    0  0.21225272091E+02  0.11897355193E+02 -0.10767180139E+03  0.11038693786E+03  0.00000000000E+00 0. -1.
</event>
<event>
 8    1  0.7039283E-009  0.1069245E+03  0.7561462E-02  0.1266374E+00
          1   -1    0    0  501    0  0.00000000000E+00  0.00000000000E+00  0.35795546773E+02  0.35795546773E+02  0.00000000000E+00 0. -1.
         -1   -1    0    0    0  501 -0.00000000000E+00 -0.00000000000E+00 -0.39036779640E+03  0.39036779640E+03  0.00000000000E+00 0.  1.
         25    2    1    2    0    0 -0.43006735568E+02  0.14247464230E+02 -0.22315051277E+03  0.25980022531E+03  0.12508971252E+03 0.  0.
         23    2    1    2    0    0  0.43006735568E+02 -0.14247464230E+02 -0.13142173686E+03  0.16636311787E+03  0.91391709287E+02 0.  0.
          5    1    3    3  502    0 -0.70803900230E+02  0.32826791915E+02 -0.20921650072E+03  0.22333787661E+03  0.41800000000E+01 0. -1.
         -5    1    3    3    0  502  0.27797164662E+02 -0.18579327686E+02 -0.13934012045E+02  0.36462348693E+02  0.41800000000E+01 0. -1.
        -11    1    4    4    0    0  0.51071136558E+02  0.28508220159E+02 -0.76271181340E+02  0.96115933690E+02  0.00000000000E+00 0.  1.
         11    1    4    4    0    0 -0.80644009903E+01 -0.42755684389E+02 -0.55150555517E+02  0.70247184177E+02  0.00000000000E+00 0. -1.
</event>
<event>
 8    1  0.7039283E-009  0.1476258E+03  0.7561462E-02  0.1203421E+00
          2   -1    0    0  501    0  0.00000000000E+00  0.00000000000E+00  0.11055971091E+04  0.11055971091E+04  0.00000000000E+00 0. -1.
         -2   -1    0    0    0  501 -0.00000000000E+00 -0.00000000000E+00 -0.20966922567E+02  0.20966922567E+02  0.00000000000E+00 0.  1.
         25    2    1    2    0    0  0.80018870489E+02 -0.65423112608E+02  0.71434756483E+03  0.73254706623E+03  0.12509819168E+03 0.  0.
         23    2    1    2    0    0 -0.80018870489E+02  0.65423112608E+02  0.37028262169E+03  0.39401696543E+03  0.86353609193E+02 0.  0.
          5    1    3    3  502    0 -0.20300504941E+02 -0.57295228293E+02  0.23912848653E+03  0.24676863487E+03  0.41800000000E+01 0.  1.
         -5    1    3    3    0  502  0.10031937543E+03 -0.81278843151E+01  0.47521907830E+03  0.48577843136E+03  0.41800000000E+01 0.  1.
        -11    1    4    4    0    0 -0.59581354488E+01  0.58943930079E+02  0.13961424329E+03  0.15166417903E+03  0.00000000000E+00 0. -1.
         11    1    4    4    0    0 -0.74060735040E+02  0.64791825290E+01  0.23066837839E+03  0.24235278639E+03  0.00000000000E+00 0.  1.
</event>
<event>
 8    1  0.7039283E-009  0.1162434E+03  0.7561462E-02  0.1249426E+00
          1   -1    0    0  501    0  0.00000000000E+00  0.00000000000E+00  0.41893621686E+02  0.41893621686E+02  0.00000000000E+00 0. -1.
         -1   -1    0    0    0  501 -0.00000000000E+00 -0.00000000000E+00 -0.56931604796E+03  0.56931604796E+03  0.00000000000E+00 0.  1.
         25    2    1    2    0    0  0.37315847631E+02  0.93143995634E+02 -0.37248998391E+03  0.40554238381E+03  0.12509020965E+03 0.  0.
         23    2    1    2    0    0 -0.37315847631E+02 -0.93143995634E+02 -0.15493244237E+03  0.20566728583E+03  0.90701126549E+02 0.  0.
          5    1    3    3  502    0  0.38022437396E+02  0.72137646825E+02 -0.87245021755E+02  0.11949356491E+03  0.41800000000E+01 0. -1.
         -5    1    3    3    0  502 -0.70658976410E+00  0.21006348808E+02 -0.28524496215E+03  0.28604881890E+03  0.41800000000E+01 0. -1.
        -11    1    4    4    0    0 -0.59440876635E+02 -0.39475572200E+02 -0.11453638208E+03  0.13494488295E+03  0.00000000000E+00 0.  1.
         11    1    4    4    0    0  0.22125029004E+02 -0.53668423434E+02 -0.40396060287E+02  0.70722402879E+02  0.00000000000E+00 0. -1.
</event>
<event>
 8    1  0.7039283E-009  0.3595645E+03  0.7561462E-02  0.1058756E+00
         -1   -1    0    0    0  501 -0.00000000000E+00  0.00000000000E+00  0.24586857593E+03  0.24586857593E+03  0.00000000000E+00 0.  1.
          1   -1    0    0  501    0  0.00000000000E+00 -0.00000000000E+00 -0.55932851463E+03  0.55932851463E+03  0.00000000000E+00 0. -1.
         25    2    1    2    0    0 -0.28530720353E+03  0.18986682335E+03 -0.25544579718E+03  0.44536530967E+03  0.12509233694E+03 0.  0.
         23    2    1    2    0    0  0.28530720353E+03 -0.18986682335E+03 -0.58014141524E+02  0.35983178090E+03  0.93078778072E+02 0.  0.
          5    1    3    3  502    0 -0.14960998467E+03  0.25997704609E+02 -0.11192415453E+03  0.18868894224E+03  0.41800000000E+01 0.  1.
         -5    1    3    3    0  502 -0.13569721886E+03  0.16386911874E+03 -0.14352164265E+03  0.25667636743E+03  0.41800000000E+01 0.  1.
        -11    1    4    4    0    0  0.34625783832E+02 -0.66613496136E+02 -0.30803882445E+01  0.75138482585E+02  0.00000000000E+00 0.  1.
         11    1    4    4    0    0  0.25068141970E+03 -0.12325332722E+03 -0.54933753279E+02  0.28469329831E+03  0.00000000000E+00 0. -1.
</event>
<event>
 8    1  0.7039283E-009  0.6179849E+02  0.7561462E-02  0.1390436E+00
          2   -1    0    0  501    0  0.00000000000E+00  0.00000000000E+00  0.14399194248E+03  0.14399194248E+03  0.00000000000E+00 0. -1.
         -2   -1    0    0    0  501 -0.00000000000E+00 -0.00000000000E+00 -0.91462982999E+02  0.91462982999E+02  0.00000000000E+00 0.  1.
         25    2    1    2    0    0  0.12112256738E+02 -0.26631939256E+02  0.52884559349E+02  0.13892730235E+03  0.12509217309E+03 0.  0.
         23    2    1    2    0    0 -0.12112256738E+02  0.26631939256E+02 -0.35559986818E+00  0.96527623128E+02  0.91986350203E+02 0.  0.
          5    1    3    3  502    0  0.88453861448E+01 -0.63190893897E+00 -0.40591054412E+02  0.41758187978E+02  0.41800000000E+01 0. -1.
         -5    1    3    3    0  502  0.32668705930E+01 -0.26000030317E+02  0.93475613761E+02  0.97169114373E+02  0.41800000000E+01 0. -1.
        -11    1    4    4    0    0 -0.98722857936E+01  0.56474562005E+02  0.19564763284E+02  0.60577373191E+02  0.00000000000E+00 0. -1.
         11    1    4    4    0    0 -0.22399709443E+01 -0.29842622749E+02 -0.19920363152E+02  0.35950249936E+02  0.00000000000E+00 0.  1.
</event>
<event>
 8    1  0.7039283E-009  0.1138746E+03  0.7561462E-02  0.1253558E+00
          2   -1    0    0  501    0  0.00000000000E+00  0.00000000000E+00  0.42149192142E+02  0.42149192142E+02  0.00000000000E+00 0. -1.
         -2   -1    0    0    0  501 -0.00000000000E+00 -0.00000000000E+00 -0.43312276079E+03  0.43312276079E+03  0.00000000000E+00 0.  1.
         25    2    1    2    0    0  0.17502018342E+02  0.57775416250E+02 -0.30778588265E+03  0.33767447307E+03  0.12509029074E+03 0.  0.
         23    2    1    2    0    0 -0.17502018342E+02 -0.57775416250E+02 -0.83187685995E+02  0.13759747986E+03  0.91479811944E+02 0.  0.
          5    1    3    3  502    0 -0.15843196424E+02  0.82164116377E+02 -0.12674861048E+03  0.15193627464E+03  0.41800000000E+01 0.  1.
         -5    1    3    3    0  502  0.33345214766E+02 -0.24388700127E+02 -0.18103727217E+03  0.18573819843E+03  0.41800000000E+01 0.  1.
        -11    1    4    4    0    0 -0.96004124314E+01 -0.79111436468E+02 -0.82688579618E+02  0.11483983846E+03  0.00000000000E+00 0.  1.
         11    1    4    4    0    0 -0.79016059101E+01  0.21336020218E+02 -0.49910637655E+00  0.22757641395E+02  0.00000000000E+00 0. -1.
</event>
<event>
 8    1  0.7039283E-009  0.1480539E+03  0.7561462E-02  0.1202885E+00
         -1   -1    0    0    0  501 -0.00000000000E+00  0.00000000000E+00  0.38602599385E+03  0.38602599385E+03  0.00000000000E+00 0.  1.
          1   -1    0    0  501    0  0.00000000000E+00 -0.00000000000E+00 -0.76930324058E+02  0.76930324058E+02  0.00000000000E+00 0. -1.
         25    2    1    2    0    0 -0.19978184629E+02  0.11885163384E+03  0.24231761620E+03  0.29814441331E+03  0.12508966920E+03 0.  0.
         23    2    1    2    0    0  0.19978184629E+02 -0.11885163384E+03  0.66778053591E+02  0.16481190459E+03  0.90436810689E+02 0.  0.
          5    1    3    3  502    0 -0.67960802085E+02  0.95315461837E+02  0.19020806183E+03  0.22338372159E+03  0.41800000000E+01 0.  1.
         -5    1    3    3    0  502  0.47982617456E+02  0.23536172001E+02  0.52109554370E+02  0.74760691724E+02  0.41800000000E+01 0.  1.
        -11    1    4    4    0    0  0.19963126319E+02 -0.27346530586E+02 -0.19478105929E+02  0.39060923672E+02  0.00000000000E+00 0. -1.
         11    1    4    4    0    0  0.15058310252E-01 -0.91505103252E+02  0.86256159520E+02  0.12575098092E+03  0.00000000000E+00 0.  1.
</event>
<event>
 8    1  0.7039283E-009  0.1147139E+03  0.7561462E-02  0.1252081E+00
          1   -1    0    0  501    0  0.00000000000E+00  0.00000000000E+00  0.52955041619E+03  0.52955041619E+03  0.00000000000E+00 0. -1.
         -1   -1    0    0    0  501 -0.00000000000E+00 -0.00000000000E+00 -0.38269088932E+02  0.38269088932E+02  0.00000000000E+00 0.  1.
         25    2    1    2    0    0 -0.55425359335E+02 -0.72671352936E+02  0.27691253953E+03  0.31730353545E+03  0.12509149877E+03 0.  0.
         23    2    1    2    0    0  0.55425359335E+02  0.72671352936E+02  0.21436878773E+03  0.25051596968E+03  0.91930288344E+02 0.  0.
          5    1    3    3  502    0 -0.44030361117E+02 -0.23978260410E+02  0.17784458419E+02  0.53360931716E+02  0.41800000000E+01 0. -1.
         -5    1    3    3    0  502 -0.11394998217E+02 -0.48693092526E+02  0.25912808111E+03  0.26394260373E+03  0.41800000000E+01 0. -1.
        -11    1    4    4    0    0  0.78413461830E+02  0.37504864005E+02  0.13195091584E+03  0.15800737329E+03  0.00000000000E+00 0.  1.
         11    1    4    4    0    0 -0.22988102496E+02  0.35166488931E+02  0.82417871889E+02  0.92508596394E+02  0.00000000000E+00 0. -1.
</event>
<event>
 8    1  0.7039283E-009  0.1696112E+03  0.7561462E-02  0.1178254E+00
          2   -1    0    0  501    0  0.00000000000E+00  0.00000000000E+00  0.11491502188E+04  0.11491502188E+04  0.00000000000E+00 0. -1.
         -2   -1    0    0    0  501 -0.00000000000E+00 -0.00000000000E+00 -0.30190281196E+02  0.30190281196E+02  0.00000000000E+00 0.  1.
         25    2    1    2    0    0 -0.14002913387E+03 -0.13878079010E+02  0.76019754574E+03  0.78316623951E+03  0.12509312826E+03 0.  0.
         23    2    1    2    0    0  0.14002913387E+03  0.13878079010E+02  0.35876239185E+03  0.39617426048E+03  0.91884881512E+02 0.  0.
          5    1    3    3  502    0 -0.76758218421E+02 -0.55951328325E+02  0.57717978297E+03  0.58495841691E+03  0.41800000000E+01 0.  1.
         -5    1    3    3    0  502 -0.63270915452E+02  0.42073249315E+02  0.18301776277E+03  0.19820782260E+03  0.41800000000E+01 0.  1.
        -11    1    4    4    0    0  0.24485782329E+02 -0.34896962515E+02  0.93040239441E+02  0.10234176901E+03  0.00000000000E+00 0.  1.
         11    1    4    4    0    0  0.11554335154E+03  0.48775041526E+02  0.26572215241E+03  0.29383249147E+03  0.00000000000E+00 0. -1.
</event>
<event>
 8    1  0.7039283E-009  0.9266372E+02  0.7561462E-02  0.1296526E+00
          4   -1    0    0  501    0  0.00000000000E+00  0.00000000000E+00  0.36134091044E+02  0.36134091044E+02  0.00000000000E+00 0. -1.
         -4   -1    0    0    0  501 -0.00000000000E+00 -0.00000000000E+00 -0.42896205799E+03  0.42896205799E+03  0.00000000000E+00 0.  1.
         25    2    1    2    0    0  0.59794157857E+02 -0.13068240638E+02 -0.19987510272E+03  0.24360424922E+03  0.12508738275E+03 0.  0.
         23    2    1    2    0    0 -0.59794157857E+02  0.13068240638E+02 -0.19295286423E+03  0.22149189981E+03  0.89898462959E+02 0.  0.
          5    1    3    3  502    0  0.11304829659E+02 -0.23871060279E+02 -0.19112722534E+03  0.19298889957E+03  0.41800000000E+01 0. -1.
         -5    1    3    3    0  502  0.48489328198E+02  0.10802819641E+02 -0.87478773807E+01  0.50615349648E+02  0.41800000000E+01 0. -1.
        -11    1    4    4    0    0 -0.16588397408E+02  0.49507066295E+02 -0.94956064477E+02  0.10836410256E+03  0.00000000000E+00 0. -1.
         11    1    4    4    0    0 -0.43205760449E+02 -0.36438825657E+02 -0.97996799749E+02  0.11312779726E+03  0.00000000000E+00 0.  1.
</event>
<event>
 8    1  0.7039283E-009  0.1118829E+03  0.7561462E-02  0.1257122E+00
          2   -1    0    0  501    0  0.00000000000E+00  0.00000000000E+00  0.65690831882E+03  0.65690831882E+03  0.00000000000E+00 0.  1.
         -2   -1    0    0    0  501 -0.00000000000E+00 -0.00000000000E+00 -0.24271600673E+02  0.24271600673E+02  0.00000000000E+00 0. -1.
         25    2    1    2    0    0  0.59049287142E+02  0.18779426122E+02  0.30974535019E+03  0.33974865996E+03  0.12508990694E+03 0.  0.
         23    2    1    2    0    0 -0.59049287142E+02 -0.18779426122E+02  0.32289136795E+03  0.34143125953E+03  0.92070539976E+02 0.  0.
          5    1    3    3  502    0  0.42818143720E+02  0.56879468851E+02  0.83969994177E+02  0.11016850607E+03  0.41800000000E+01 0.  1.
         -5    1    3    3    0  502  0.16231143422E+02 -0.38100042730E+02  0.22577535602E+03  0.22958015388E+03  0.41800000000E+01 0.  1.
        -11    1    4    4    0    0  0.16531998790E+02 -0.30157909269E+02  0.92034459188E+02  0.98250435895E+02  0.00000000000E+00 0. -1.
         11    1    4    4    0    0 -0.75581285932E+02  0.11378483147E+02  0.23085690876E+03  0.24318082364E+03  0.00000000000E+00 0.  1.
</event>
<event>
 8    1  0.7039283E-009  0.1266888E+03  0.7561462E-02  0.1232453E+00
         -3   -1    0    0    0  501 -0.00000000000E+00  0.00000000000E+00  0.65185278855E+02  0.65185278855E+02  0.00000000000E+00 0.  1.
          3   -1    0    0  501    0  0.00000000000E+00 -0.00000000000E+00 -0.25988069128E+03  0.25988069128E+03  0.00000000000E+00 0. -1.
         25    2    1    2    0    0  0.67010082081E+02  0.19815900343E+02 -0.88123422414E+02  0.16821536099E+03  0.12509056355E+03 0.  0.
         23    2    1    2    0    0 -0.67010082081E+02 -0.19815900343E+02 -0.10657199001E+03  0.15685060915E+03  0.91441257248E+02 0.  0.
          5    1    3    3  502    0  0.69363441371E+02  0.64275783046E+02 -0.77289097310E+02  0.12220368345E+03  0.41800000000E+01 0. -1.
         -5    1    3    3    0  502 -0.23533592901E+01 -0.44459882703E+02 -0.10834325104E+02  0.46011677544E+02  0.41800000000E+01 0. -1.
        -11    1    4    4    0    0 -0.20324928850E+02  0.35935417759E+02 -0.49195947396E+02  0.64223813515E+02  0.00000000000E+00 0. -1.
         11    1    4    4    0    0 -0.46685153232E+02 -0.55751318102E+02 -0.57376042617E+02  0.92626795630E+02  0.00000000000E+00 0.  1.
</event>
<event>
 8    1  0.7039283E-009  0.1090031E+03  0.7561462E-02  0.1262427E+00
         -1   -1    0    0    0  501 -0.00000000000E+00  0.00000000000E+00  0.54708955112E+02  0.54708955112E+02  0.00000000000E+00 0.  1.
          1   -1    0    0  501    0  0.00000000000E+00 -0.00000000000E+00 -0.36549956191E+03  0.36549956191E+03  0.00000000000E+00 0. -1.
         25    2    1    2    0    0 -0.76208034048E+01 -0.57265454480E+02 -0.27503566812E+03  0.30761887739E+03  0.12508935232E+03 0.  0.
         23    2    1    2    0    0  0.76208034048E+01  0.57265454480E+02 -0.35754938677E+02  0.11258963964E+03  0.89780857607E+02 0.  0.
          5    1    3    3  502    0  0.35492072348E+02  0.12028044657E+02 -0.17213948491E+03  0.17622098548E+03  0.41800000000E+01 0. -1.
         -5    1    3    3    0  502 -0.43112875753E+02 -0.69293499137E+02 -0.10289618321E+03  0.13139789191E+03  0.41800000000E+01 0. -1.
        -11    1    4    4    0    0 -0.27304423798E+02  0.57501907861E+02 -0.15059011449E+01  0.63673139587E+02  0.00000000000E+00 0.  1.
         11    1    4    4    0    0  0.34925227202E+02 -0.23645338138E+00 -0.34249037532E+02  0.48916500051E+02  0.00000000000E+00 0. -1.
</event>
<event>
 8    1  0.7039283E-009  0.1008961E+03  0.7561462E-02  0.1278423E+00
         -1   -1    0    0    0  501 -0.00000000000E+00  0.00000000000E+00  0.16891657723E+02  0.16891657723E+02  0.00000000000E+00 0.  1.
          1   -1    0    0  501    0  0.00000000000E+00 -0.00000000000E+00 -0.86671265494E+03  0.86671265494E+03  0.00000000000E+00 0. -1.
         25    2    1    2    0    0  0.32174961146E+02  0.27102733828E+02 -0.55610443892E+03  0.57154986237E+03  0.12508921571E+03 0.  0.
         23    2    1    2    0    0 -0.32174961146E+02 -0.27102733828E+02 -0.29371655830E+03  0.31205445029E+03  0.96637347966E+02 0.  0.
          5    1    3    3  502    0  0.44973719804E+02  0.61096169950E+02 -0.49131855830E+03  0.49715870261E+03  0.41800000000E+01 0. -1.
         -5    1    3    3    0  502 -0.12798758658E+02 -0.33993436122E+02 -0.64785880617E+02  0.74391159757E+02  0.41800000000E+01 0. -1.
        -11    1    4    4    0    0  0.35613568314E+01 -0.47813609633E+02 -0.23752345473E+03  0.24231429193E+03  0.00000000000E+00 0. -1.
         11    1    4    4    0    0 -0.35736317977E+02  0.20710875805E+02 -0.56193103577E+02  0.69740158365E+02  0.00000000000E+00 0.  1.
</event>
<event>
 8    1  0.7039283E-009  0.1263610E+03  0.7561462E-02  0.1232957E+00
          1   -1    0    0  501    0  0.00000000000E+00  0.00000000000E+00  0.37293902360E+03  0.37293902360E+03  0.00000000000E+00 0. -1.
         -1   -1    0    0    0  501 -0.00000000000E+00 -0.00000000000E+00 -0.65159174786E+02  0.65159174786E+02  0.00000000000E+00 0.  1.
         25    2    1    2    0    0  0.75634766855E+02  0.53486713057E+02  0.25317151528E+03  0.29719466017E+03  0.12508958171E+03 0.  0.
         23    2    1    2    0    0 -0.75634766855E+02 -0.53486713057E+02  0.54608333537E+02  0.14090353822E+03  0.91051032727E+02 0.  0.
          5    1    3    3  502    0  0.10208070106E+03  0.87926062620E+01  0.15133644941E+03  0.18280583354E+03  0.41800000000E+01 0.  1.
         -5    1    3    3    0  502 -0.26445934204E+02  0.44694106796E+02  0.10183506586E+03  0.11438882663E+03  0.41800000000E+01 0.  1.
        -11    1    4    4    0    0 -0.34656277209E+02 -0.56910381178E+01  0.68003145404E+02  0.76536744441E+02  0.00000000000E+00 0.  1.
         11    1    4    4    0    0 -0.40978489646E+02 -0.47795674940E+02 -0.13394811867E+02  0.64366793780E+02  0.00000000000E+00 0. -1.
</event>
<event>
 8    1  0.7039283E-009  0.1329707E+03  0.7561462E-02  0.1223113E+00
          2   -1    0    0  501    0  0.00000000000E+00  0.00000000000E+00  0.27557247096E+03  0.27557247096E+03  0.00000000000E+00 0. -1.
         -2   -1    0    0    0  501 -0.00000000000E+00 -0.00000000000E+00 -0.12376227310E+03  0.12376227310E+03  0.00000000000E+00 0.  1.
         25    2    1    2    0    0 -0.11355943040E+02  0.92700685409E+02 -0.45795913286E+02  0.16268377867E+03  0.12508545740E+03 0.  0.
         23    2    1    2    0    0  0.11355943040E+02 -0.92700685409E+02  0.19760611114E+03  0.23665096538E+03  0.90736595363E+02 0.  0.
          5    1    3    3  502    0 -0.22457482093E+02 -0.15063126802E+02  0.21745681151E+02  0.34951156486E+02  0.41800000000E+01 0. -1.
         -5    1    3    3    0  502  0.11101539053E+02  0.10776381221E+03 -0.67541594437E+02  0.12773262219E+03  0.41800000000E+01 0. -1.
        -11    1    4    4    0    0  0.45753427365E+02 -0.82412040653E+02  0.14597257462E+03  0.17376165602E+03  0.00000000000E+00 0. -1.
         11    1    4    4    0    0 -0.34397484325E+02 -0.10288644756E+02  0.51633536522E+02  0.62889309367E+02  0.00000000000E+00 0.  1.
</event>
<event>
 8    1  0.7039283E-009  0.1310130E+03  0.7561462E-02  0.1225960E+00
         -2   -1    0    0    0  501 -0.00000000000E+00  0.00000000000E+00  0.17701183985E+02  0.17701183985E+02  0.00000000000E+00 0.  1.
          2   -1    0    0  501    0  0.00000000000E+00 -0.00000000000E+00 -0.12730112559E+04  0.12730112559E+04  0.00000000000E+00 0. -1.
         25    2    1    2    0    0  0.27107739919E+02 -0.90962278886E+02 -0.83751665475E+03  0.85210955450E+03  0.12509028790E+03 0.  0.
         23    2    1    2    0    0 -0.27107739919E+02  0.90962278886E+02 -0.41779341712E+03  0.43860288535E+03  0.93873243815E+02 0.  0.
          5    1    3    3  502    0  0.52531148805E+02 -0.91182248940E+02 -0.79810158168E+03  0.80502008124E+03  0.41800000000E+01 0. -1.
         -5    1    3    3    0  502 -0.25423408885E+02  0.21997005445E+00 -0.39415073076E+02  0.47089473259E+02  0.41800000000E+01 0. -1.
        -11    1    4    4    0    0 -0.20792599506E+02 -0.14465114138E+02 -0.51578895976E+02  0.57462633349E+02  0.00000000000E+00 0.  1.
         11    1    4    4    0    0 -0.63151404131E+01  0.10542739302E+03 -0.36621452114E+03  0.38114025200E+03  0.00000000000E+00 0. -1.
</event>
<event>
 8    1  0.7039283E-009  0.1275708E+03  0.7561462E-02  0.1231105E+00
         -2   -1    0    0    0  501 -0.00000000000E+00  0.00000000000E+00  0.69230544564E+02  0.69230544564E+02  0.00000000000E+00 0. -1.
          2   -1    0    0  501    0  0.00000000000E+00 -0.00000000000E+00 -0.38613537571E+03  0.38613537571E+03  0.00000000000E+00 0.  1.
         25    2    1    2    0    0 -0.75828987658E+01  0.12163630982E+03 -0.15369713447E+03  0.23264426259E+03  0.12509057338E+03 0.  0.
         23    2    1    2    0    0  0.75828987658E+01 -0.12163630982E+03 -0.16320769667E+03  0.22272165768E+03  0.90084917310E+02 0.  0.
          5    1    3    3  502    0  0.16069696975E+02  0.73066983700E+02 -0.16137181491E+03  0.17791951640E+03  0.41800000000E+01 0.  1.
         -5    1    3    3    0  502 -0.23652595741E+02  0.48569326124E+02  0.76746804421E+01  0.54724746187E+02  0.41800000000E+01 0.  1.
        -11    1    4    4    0    0 -0.89047493659E+01 -0.89182701949E+02 -0.16334687607E+03  0.18631975422E+03  0.00000000000E+00 0. -1.
         11    1    4    4    0    0  0.16487648132E+02 -0.32453607875E+02  0.13917940298E+00  0.36401903465E+02  0.00000000000E+00 0.  1.
</event>
<event>
 8    1  0.7039283E-009  0.4047640E+03  0.7561462E-02  0.1042142E+00
         -2   -1    0    0    0  501 -0.00000000000E+00  0.00000000000E+00  0.10589556739E+03  0.10589556739E+03  0.00000000000E+00 0.  1.
          2   -1    0    0  501    0  0.00000000000E+00 -0.00000000000E+00 -0.22219396274E+04  0.22219396274E+04  0.00000000000E+00 0. -1.
         25    2    1    2    0    0  0.13756271622E+03 -0.37280746748E+03 -0.16776108890E+04  0.17285644198E+04  0.12509096591E+03 0.  0.
         23    2    1    2    0    0 -0.13756271622E+03  0.37280746748E+03 -0.43843317100E+03  0.59927077500E+03  0.94830942391E+02 0.  0.
          5    1    3    3  502    0  0.96612207551E+02 -0.12134351274E+03 -0.49227136016E+03  0.51614603667E+03  0.41800000000E+01 0. -1.
         -5    1    3    3    0  502  0.40950508666E+02 -0.25146395474E+03 -0.11853395289E+04  0.12124183831E+04  0.41800000000E+01 0. -1.
        -11    1    4    4    0    0 -0.10249280310E+03  0.21897257459E+03 -0.20214232243E+03  0.31514327159E+03  0.00000000000E+00 0.  1.
         11    1    4    4    0    0 -0.35069913113E+02  0.15383489289E+03 -0.23629084858E+03  0.28412750342E+03  0.00000000000E+00 0. -1.
</event>
<event>
 8    1  0.7039283E-009  0.1325603E+03  0.7561462E-02  0.1223705E+00
         -1   -1    0    0    0  501 -0.00000000000E+00  0.00000000000E+00  0.55243473741E+03  0.55243473741E+03  0.00000000000E+00 0.  1.
          1   -1    0    0  501    0  0.00000000000E+00 -0.00000000000E+00 -0.45804234779E+02  0.45804234779E+02  0.00000000000E+00 0. -1.
         25    2    1    2    0    0 -0.53404698238E+02 -0.92088337083E+02  0.18360447703E+03  0.24635400277E+03  0.12508943631E+03 0.  0.
         23    2    1    2    0    0  0.53404698238E+02  0.92088337083E+02  0.32302602560E+03  0.35188496942E+03  0.90249071277E+02 0.  0.
          5    1    3    3  502    0  0.10509704358E+02 -0.58084963542E+02  0.12451017640E+02  0.60471622399E+02  0.41800000000E+01 0.  1.
         -5    1    3    3    0  502 -0.63914402596E+02 -0.34003373541E+02  0.17115345939E+03  0.18588238037E+03  0.41800000000E+01 0.  1.
        -11    1    4    4    0    0 -0.12537781714E+02 -0.70326785031E+01  0.79813177045E+02  0.81097458451E+02  0.00000000000E+00 0. -1.
         11    1    4    4    0    0  0.65942479952E+02  0.99121015586E+02  0.24321284855E+03  0.27078751096E+03  0.00000000000E+00 0.  1.
</event>
<event>
 8    1  0.7039283E-009  0.9679677E+02  0.7561462E-02  0.1287180E+00
         -1   -1    0    0    0  501 -0.00000000000E+00  0.00000000000E+00  0.64973950616E+03  0.64973950616E+03  0.00000000000E+00 0.  1.
          1   -1    0    0  501    0  0.00000000000E+00 -0.00000000000E+00 -0.57950878172E+02  0.57950878172E+02  0.00000000000E+00 0. -1.
         25    2    1    2    0    0 -0.82689475189E+02  0.46502635708E+02  0.54713586313E+03  0.56921380323E+03  0.12508659652E+03 0.  0.
         23    2    1    2    0    0  0.82689475189E+02 -0.46502635708E+02  0.44652764863E+02  0.13847658111E+03  0.90453577432E+02 0.  0.
          5    1    3    3  502    0 -0.74721427899E+02  0.35908413020E+02  0.54895534198E+03  0.55519559238E+03  0.41800000000E+01 0. -1.
         -5    1    3    3    0  502 -0.79680472900E+01  0.10594222689E+02 -0.18194788531E+01  0.14018210845E+02  0.41800000000E+01 0. -1.
        -11    1    4    4    0    0  0.65084844408E+01 -0.10672405306E+02  0.52460170599E+02  0.53928935684E+02  0.00000000000E+00 0.  1.
         11    1    4    4    0    0  0.76180990748E+02 -0.35830230403E+02 -0.78074057367E+01  0.84547645422E+02  0.00000000000E+00 0. -1.
</event>
<event>
 8    1  0.7039283E-009  0.1189127E+03  0.7561462E-02  0.1244902E+00
         -2   -1    0    0    0  501 -0.00000000000E+00  0.00000000000E+00  0.45822557173E+03  0.45822557173E+03  0.00000000000E+00 0.  1.
          2   -1    0    0  501    0  0.00000000000E+00 -0.00000000000E+00 -0.37864320369E+02  0.37864320369E+02  0.00000000000E+00 0. -1.
         25    2    1    2    0    0 -0.65264689059E+02  0.30896710542E+02  0.27616886246E+03  0.31165847294E+03  0.12509067432E+03 0.  0.
         23    2    1    2    0    0  0.65264689059E+02 -0.30896710542E+02  0.14419238891E+03  0.18443141917E+03  0.89495346228E+02 0.  0.
          5    1    3    3  502    0  0.31641214052E+02  0.68503770885E+01  0.13375717183E+03  0.13768277855E+03  0.41800000000E+01 0.  1.
         -5    1    3    3    0  502 -0.96905903110E+02  0.24046333454E+02  0.14241169063E+03  0.17397569439E+03  0.41800000000E+01 0.  1.
        -11    1    4    4    0    0  0.43104883786E+02 -0.56708390212E+02  0.12859905578E+03  0.14700880815E+03  0.00000000000E+00 0.  1.
         11    1    4    4    0    0  0.22159805272E+02  0.25811679669E+02  0.15593333126E+02  0.37422611013E+02  0.00000000000E+00 0. -1.
</event>
<event>
 8    1  0.7039283E-009  0.7347638E+02  0.7561462E-02  0.1348655E+00
          1   -1    0    0  501    0  0.00000000000E+00  0.00000000000E+00  0.21007427048E+03  0.21007427048E+03  0.00000000000E+00 0. -1.
         -1   -1    0    0    0  501 -0.00000000000E+00 -0.00000000000E+00 -0.73657983460E+02  0.73657983460E+02  0.00000000000E+00 0.  1.
         25    2    1    2    0    0  0.18683497359E+02  0.40420540594E+02  0.26136042760E+02  0.13532577852E+03  0.12508829052E+03 0.  0.
         23    2    1    2    0    0 -0.18683497359E+02 -0.40420540594E+02  0.11028024426E+03  0.14840647542E+03  0.88768555786E+02 0.  0.
          5    1    3    3  502    0  0.30118218362E+02  0.35854023151E+02 -0.43762489293E+02  0.64228077370E+02  0.41800000000E+01 0.  1.
         -5    1    3    3    0  502 -0.11434721004E+02  0.45665174429E+01  0.69898532054E+02  0.71097701153E+02  0.41800000000E+01 0.  1.
        -11    1    4    4    0    0  0.27021126772E+02 -0.29384894260E+02  0.15913408447E+02  0.42974991229E+02  0.00000000000E+00 0.  1.
         11    1    4    4    0    0 -0.45704624130E+02 -0.11035646334E+02  0.94366835812E+02  0.10543148419E+03  0.00000000000E+00 0. -1.
</event>
<event>
 8    1  0.7039283E-009  0.1056538E+03  0.7561462E-02  0.1268837E+00
         -2   -1    0    0    0  501 -0.00000000000E+00  0.00000000000E+00  0.17233594709E+02  0.17233594709E+02  0.00000000000E+00 0. -1.
          2   -1    0    0  501    0  0.00000000000E+00 -0.00000000000E+00 -0.89506661534E+03  0.89506661534E+03  0.00000000000E+00 0.  1.
         25    2    1    2    0    0  0.51399131494E+02  0.39757718884E+01 -0.58788155329E+03  0.60325039315E+03  0.12509451890E+03 0.  0.
         23    2    1    2    0    0 -0.51399131494E+02 -0.39757718884E+01 -0.28995146734E+03  0.30904981689E+03  0.93713704603E+02 0.  0.
          5    1    3    3  502    0  0.45646270411E+02 -0.40606199658E+02 -0.50647564643E+03  0.51016418757E+03  0.41800000000E+01 0.  1.
         -5    1    3    3    0  502  0.57528610833E+01  0.44581971546E+02 -0.81405906859E+02  0.93086205579E+02  0.41800000000E+01 0.  1.
        -11    1    4    4    0    0 -0.67127486891E+01 -0.44257211757E+02 -0.15416722672E+03  0.16053440622E+03  0.00000000000E+00 0. -1.
         11    1    4    4    0    0 -0.44686382805E+02  0.40281439868E+02 -0.13578424062E+03  0.14851541067E+03  0.00000000000E+00 0.  1.
</event>
<event>
 8    1  0.7039283E-009  0.1455593E+03  0.7561462E-02  0.1206038E+00
          1   -1    0    0  501    0  0.00000000000E+00  0.00000000000E+00  0.24065840781E+03  0.24065840781E+03  0.00000000000E+00 0.  1.
         -1   -1    0    0    0  501 -0.00000000000E+00 -0.00000000000E+00 -0.14284537678E+03  0.14284537678E+03  0.00000000000E+00 0. -1.
         25    2    1    2    0    0 -0.57395277513E+02  0.13234906180E+03  0.14375800819E+02  0.19147869267E+03  0.12508770546E+03 0.  0.
         23    2    1    2    0    0  0.57395277513E+02 -0.13234906180E+03  0.83437230209E+02  0.19202509192E+03  0.95401113744E+02 0.  0.
          5    1    3    3  502    0 -0.57508862160E+02  0.12204488661E+03  0.57666482935E+02  0.14678255765E+03  0.41800000000E+01 0.  1.
         -5    1    3    3    0  502  0.11358464771E+00  0.10304175182E+02 -0.43290682116E+02  0.44696135020E+02  0.41800000000E+01 0.  1.
        -11    1    4    4    0    0  0.50664596757E+02 -0.10148868153E+03  0.10436178673E+03  0.15413707008E+03  0.00000000000E+00 0.  1.
         11    1    4    4    0    0  0.67306807557E+01 -0.30860380266E+02 -0.20924556520E+02  0.37888021843E+02  0.00000000000E+00 0. -1.
</event>
<event>
 8    1  0.7039283E-009  0.8926505E+02  0.7561462E-02  0.1304641E+00
          4   -1    0    0  501    0  0.00000000000E+00  0.00000000000E+00  0.44189711725E+03  0.44189711725E+03  0.00000000000E+00 0.  1.
         -4   -1    0    0    0  501 -0.00000000000E+00 -0.00000000000E+00 -0.58231109243E+02  0.58231109243E+02  0.00000000000E+00 0. -1.
         25    2    1    2    0    0  0.44953349528E+02 -0.51467738661E+02  0.35425604983E+03  0.38185680857E+03  0.12509013412E+03 0.  0.
         23    2    1    2    0    0 -0.44953349528E+02  0.51467738661E+02  0.29409958172E+02  0.11827141792E+03  0.91942650056E+02 0.  0.
          5    1    3    3  502    0 -0.11010299933E+02 -0.43484762866E+02  0.30009191486E+03  0.30345474303E+03  0.41800000000E+01 0.  1.
         -5    1    3    3    0  502  0.55963649461E+02 -0.79829757953E+01  0.54164134972E+02  0.78402065539E+02  0.41800000000E+01 0.  1.
        -11    1    4    4    0    0 -0.24686740468E+02  0.50841398440E+02 -0.23803302604E+02  0.61326015402E+02  0.00000000000E+00 0. -1.
         11    1    4    4    0    0 -0.20266609060E+02  0.62634022116E+00  0.53213260776E+02  0.56945402513E+02  0.00000000000E+00 0.  1.
</event>
<event>
 8    1  0.7039283E-009  0.1870462E+03  0.7561462E-02  0.1161153E+00
          2   -1    0    0  501    0  0.00000000000E+00  0.00000000000E+00  0.85709048579E+03  0.85709048579E+03  0.00000000000E+00 0. -1.
         -2   -1    0    0    0  501 -0.00000000000E+00 -0.00000000000E+00 -0.47493710596E+02  0.47493710596E+02  0.00000000000E+00 0.  1.
         25    2    1    2    0    0 -0.11992030566E+03 -0.10888043843E+03  0.30970791038E+03  0.37121729230E+03  0.12508980282E+03 0.  0.
         23    2    1    2    0    0  0.11992030566E+03  0.10888043843E+03  0.49988886482E+03  0.53336690409E+03  0.91408684636E+02 0.  0.
          5    1    3    3  502    0 -0.12661564318E+03 -0.49520200085E+02  0.25984443954E+03  0.29329230552E+03  0.41800000000E+01 0. -1.
         -5    1    3    3    0  502  0.66953375239E+01 -0.59360238347E+02  0.49863470838E+02  0.77924986783E+02  0.41800000000E+01 0. -1.
        -11    1    4    4    0    0  0.11447187283E+03  0.60446661412E+02  0.42270194462E+03  0.44207979204E+03  0.00000000000E+00 0.  1.
         11    1    4    4    0    0  0.54484328298E+01  0.48433777019E+02  0.77186920197E+02  0.91287112048E+02  0.00000000000E+00 0. -1.
</event>
<event>
 8    1  0.7039283E-009  0.2301097E+03  0.7561462E-02  0.1126563E+00
         -2   -1    0    0    0  501 -0.00000000000E+00  0.00000000000E+00  0.49012983845E+02  0.49012983845E+02  0.00000000000E+00 0. -1.
          2   -1    0    0  501    0  0.00000000000E+00 -0.00000000000E+00 -0.11647670219E+04  0.11647670219E+04  0.00000000000E+00 0.  1.
         25    2    1    2    0    0 -0.15964684570E+03 -0.12608330845E+03 -0.72935590532E+03  0.76745761651E+03  0.12508813093E+03 0.  0.
         23    2    1    2    0    0  0.15964684570E+03  0.12608330845E+03 -0.38639813272E+03  0.44632238922E+03  0.92282404274E+02 0.  0.
          5    1    3    3  502    0 -0.87684850412E+02  0.51417347275E+01 -0.30723378465E+03  0.31957024464E+03  0.41800000000E+01 0. -1.
         -5    1    3    3    0  502 -0.71961995290E+02 -0.13122504317E+03 -0.42212212067E+03  0.44788737187E+03  0.41800000000E+01 0. -1.
        -11    1    4    4    0    0  0.44644273653E+02 -0.85973899271E+01 -0.64345881657E+02  0.78787173891E+02  0.00000000000E+00 0. -1.
         11    1    4    4    0    0  0.11500257205E+03  0.13468069837E+03 -0.32205225107E+03  0.36753521533E+03  0.00000000000E+00 0.  1.
</event>
<event>
 8    1  0.7039283E-009  0.1515315E+03  0.7561462E-02  0.1198604E+00
         -3   -1    0    0    0  501 -0.00000000000E+00  0.00000000000E+00  0.10886646802E+03  0.10886646802E+03  0.00000000000E+00 0.  1.
          3   -1    0    0  501    0  0.00000000000E+00 -0.00000000000E+00 -0.52816889102E+03  0.52816889102E+03  0.00000000000E+00 0. -1.
         25    2    1    2    0    0 -0.10226798354E+03 -0.35791063193E+02  0.27666828821E+02  0.16778496948E+03  0.12508637777E+03 0.  0.
         23    2    1    2    0    0  0.10226798354E+03  0.35791063193E+02 -0.44696925182E+03  0.46925038955E+03  0.93137937282E+02 0.  0.
          5    1    3    3  502    0  0.94805509989E+01  0.31345711907E+02 -0.48307669646E+01  0.33365299514E+02  0.41800000000E+01 0. -1.
         -5    1    3    3    0  502 -0.11174853454E+03 -0.67136775100E+02  0.32497595786E+02  0.13441966997E+03  0.41800000000E+01 0. -1.
        -11    1    4    4    0    0  0.55268257645E+02 -0.26736130881E+02 -0.24726821065E+03  0.25477631169E+03  0.00000000000E+00 0.  1.
         11    1    4    4    0    0  0.46999725893E+02  0.62527194074E+02 -0.19970104117E+03  0.21447407787E+03  0.00000000000E+00 0. -1.
</event>
<event>
 8    1  0.7039283E-009  0.9230279E+02  0.7561462E-02  0.1297369E+00
         -2   -1    0    0    0  501 -0.00000000000E+00  0.00000000000E+00  0.12296388209E+03  0.12296388209E+03  0.00000000000E+00 0.  1.
          2   -1    0    0  501    0  0.00000000000E+00 -0.00000000000E+00 -0.10337928700E+03  0.10337928700E+03  0.00000000000E+00 0. -1.
         25    2    1    2    0    0  0.41473539687E+01 -0.29109036155E+01 -0.17832742959E+02  0.12645494568E+03  0.12508865921E+03 0.  0.
         23    2    1    2    0    0 -0.41473539687E+01  0.29109036155E+01  0.37417338055E+02  0.99888223407E+02  0.92476624524E+02 0.  0.
          5    1    3    3  502    0  0.49894635954E+02 -0.12387791220E+02 -0.48185935663E+02  0.70585330374E+02  0.41800000000E+01 0.  1.
         -5    1    3    3    0  502 -0.45747281985E+02  0.94768876042E+01  0.30353192704E+02  0.55869615311E+02  0.41800000000E+01 0.  1.
        -11    1    4    4    0    0  0.40853682604E+02  0.44401245760E+01  0.36325791345E+02  0.54847982692E+02  0.00000000000E+00 0.  1.
         11    1    4    4    0    0 -0.45001036573E+02 -0.15292209605E+01  0.10915467103E+01  0.45040240714E+02  0.00000000000E+00 0. -1.
</event>
<event>
 8    1  0.7039283E-009  0.1138244E+03  0.7561462E-02  0.1253647E+00
          3   -1    0    0  501    0  0.00000000000E+00  0.00000000000E+00  0.59721936578E+02  0.59721936578E+02  0.00000000000E+00 0. -1.
         -3   -1    0    0    0  501 -0.00000000000E+00 -0.00000000000E+00 -0.43787831302E+03  0.43787831302E+03  0.00000000000E+00 0.  1.
         25    2    1    2    0    0 -0.54141017264E+02 -0.44505545434E+02 -0.35487125668E+03  0.38274451791E+03  0.12509102226E+03 0.  0.
         23    2    1    2    0    0  0.54141017264E+02  0.44505545434E+02 -0.23285119760E+02  0.11485573168E+03  0.87963907223E+02 0.  0.
          5    1    3    3  502    0 -0.75233931696E+02 -0.20306713683E+01 -0.11038370861E+03  0.13366489304E+03  0.41800000000E+01 0.  1.
         -5    1    3    3    0  502  0.21092914432E+02 -0.42474874066E+02 -0.24448754806E+03  0.24907962487E+03  0.41800000000E+01 0.  1.
        -11    1    4    4    0    0  0.19563817536E+02  0.62636921380E+02 -0.34630066463E+02  0.74198169653E+02  0.00000000000E+00 0.  1.
         11    1    4    4    0    0  0.34577199728E+02 -0.18131375946E+02  0.11344946703E+02  0.40657562032E+02  0.00000000000E+00 0. -1.
</event>
<event>
 8    1  0.7039283E-009  0.1098312E+03  0.7561462E-02  0.1260883E+00
          1   -1    0    0  501    0  0.00000000000E+00  0.00000000000E+00  0.48517282015E+02  0.48517282015E+02  0.00000000000E+00 0. -1.
         -1   -1    0    0    0  501 -0.00000000000E+00 -0.00000000000E+00 -0.32672759293E+03  0.32672759293E+03  0.00000000000E+00 0.  1.
         25    2    1    2    0    0  0.55348468310E+02  0.29834506103E+02 -0.15418324989E+03  0.20826602111E+03  0.12509480526E+03 0.  0.
         23    2    1    2    0    0 -0.55348468310E+02 -0.29834506103E+02 -0.12402706103E+03  0.16697885384E+03  0.92442820505E+02 0.  0.
          5    1    3    3  502    0 -0.25897040494E+02  0.42158146164E+02 -0.94053228220E+02  0.10635529198E+03  0.41800000000E+01 0.  1.
         -5    1    3    3    0  502  0.81245508803E+02 -0.12323640061E+02 -0.60130021668E+02  0.10191072913E+03  0.41800000000E+01 0.  1.
        -11    1    4    4    0    0 -0.68913011688E+02 -0.24177802825E+02 -0.13155453779E+03  0.15046649376E+03  0.00000000000E+00 0.  1.
         11    1    4    4    0    0  0.13564543378E+02 -0.56567032781E+01  0.75274767640E+01  0.16512360082E+02  0.00000000000E+00 0. -1.
</event>
<event>
 8    1  0.7039283E-009  0.1314437E+03  0.7561462E-02  0.1225329E+00
          1   -1    0    0  501    0  0.00000000000E+00  0.00000000000E+00  0.14828715890E+04  0.14828715890E+04  0.00000000000E+00 0. -1.
         -1   -1    0    0    0  501 -0.00000000000E+00 -0.00000000000E+00 -0.23740775126E+02  0.23740775126E+02  0.00000000000E+00 0.  1.
         25    2    1    2    0    0  0.79244827924E+02  0.70941604394E+02  0.12041308615E+04  0.12152728957E+04  0.12507847690E+03 0.  0.
         23    2    1    2    0    0 -0.79244827924E+02 -0.70941604394E+02  0.25499995230E+03  0.29133946837E+03  0.92418916725E+02 0.  0.
          5    1    3    3  502    0  0.13452397819E+01 -0.91814330081E+01  0.64439802076E+03  0.64447838594E+03  0.41800000000E+01 0. -1.
         -5    1    3    3    0  502  0.77899588142E+02  0.80123037402E+02  0.55973284078E+03  0.57079450979E+03  0.41800000000E+01 0. -1.
        -11    1    4    4    0    0  0.75875850800E+01 -0.51296965945E+02  0.96309822093E+02  0.10938250314E+03  0.00000000000E+00 0.  1.
         11    1    4    4    0    0 -0.86832413004E+02 -0.19644638449E+02  0.15869013021E+03  0.18195696523E+03  0.00000000000E+00 0. -1.
</event>
<event>
 8    1  0.7039283E-009  0.5365592E+02  0.7561462E-02  0.1426564E+00
         -1   -1    0    0    0  501 -0.00000000000E+00  0.00000000000E+00  0.97541321722E+02  0.97541321722E+02  0.00000000000E+00 0.  1.
          1   -1    0    0  501    0  0.00000000000E+00 -0.00000000000E+00 -0.15984406632E+03  0.15984406632E+03  0.00000000000E+00 0. -1.
         25    2    1    2    0    0 -0.32073832680E+02  0.26211707335E+01 -0.86742248920E+02  0.15559139666E+03  0.12509541834E+03 0.  0.
         23    2    1    2    0    0  0.32073832680E+02 -0.26211707335E+01  0.24439504320E+02  0.10179399138E+03  0.93429791988E+02 0.  0.
          5    1    3    3  502    0 -0.41134515675E+02  0.64152218929E+01  0.21349924567E+02  0.46973344897E+02  0.41800000000E+01 0.  1.
         -5    1    3    3    0  502  0.90606829948E+01 -0.37940511594E+01 -0.10809217349E+03  0.10861805177E+03  0.41800000000E+01 0.  1.
        -11    1    4    4    0    0  0.39203640604E+02 -0.13778593172E+02  0.54740526130E+02  0.68726270577E+02  0.00000000000E+00 0.  1.
         11    1    4    4    0    0 -0.71298079239E+01  0.11157422438E+02 -0.30301021809E+02  0.33067720804E+02  0.00000000000E+00 0. -1.
</event>
<event>
 8    1  0.7039283E-009  0.8733410E+02  0.7561462E-02  0.1309439E+00
          2   -1    0    0  501    0  0.00000000000E+00  0.00000000000E+00  0.26314475334E+03  0.26314475334E+03  0.00000000000E+00 0. -1.
         -2   -1    0    0    0  501 -0.00000000000E+00 -0.00000000000E+00 -0.54225946116E+02  0.54225946116E+02  0.00000000000E+00 0.  1.
         25    2    1    2    0    0  0.37670914774E+02  0.32735518805E+02  0.10136669363E+03  0.16856334882E+03  0.12509070299E+03 0.  0.
         23    2    1    2    0    0 -0.37670914774E+02 -0.32735518805E+02  0.10755211359E+03  0.14880735064E+03  0.89919177352E+02 0.  0.
          5    1    3    3  502    0  0.50629816554E+02  0.15906074109E+02 -0.10807021145E+02  0.54319845580E+02  0.41800000000E+01 0.  1.
         -5    1    3    3    0  502 -0.12958901780E+02  0.16829444696E+02  0.11217371478E+03  0.11424350324E+03  0.41800000000E+01 0.  1.
        -11    1    4    4    0    0  0.10293700079E+02  0.23630111261E+02  0.13406242637E+02  0.29052878707E+02  0.00000000000E+00 0.  1.
         11    1    4    4    0    0 -0.47964614853E+02 -0.56365630066E+02  0.94145870951E+02  0.11975447193E+03  0.00000000000E+00 0. -1.
</event>
<event>
 8    1  0.7039283E-009  0.1626630E+03  0.7561462E-02  0.1185723E+00
         -4   -1    0    0    0  501 -0.00000000000E+00  0.00000000000E+00  0.28874449876E+03  0.28874449876E+03  0.00000000000E+00 0. -1.
          4   -1    0    0  501    0  0.00000000000E+00 -0.00000000000E+00 -0.17778665651E+03  0.17778665651E+03  0.00000000000E+00 0.  1.
         25    2    1    2    0    0  0.10779749144E+03  0.10353424086E+03 -0.77140762536E+02  0.20961102913E+03  0.12508576297E+03 0.  0.
         23    2    1    2    0    0 -0.10779749144E+03 -0.10353424086E+03  0.18809860479E+03  0.25692012614E+03  0.91034212808E+02 0.  0.
          5    1    3    3  502    0  0.10723395839E+03  0.81704544193E+02 -0.10715238289E+03  0.17226102268E+03  0.41800000000E+01 0. -1.
         -5    1    3    3    0  502  0.56353304768E+00  0.21829696664E+02  0.30011620355E+02  0.37350006456E+02  0.41800000000E+01 0. -1.
        -11    1    4    4    0    0 -0.60713314413E+02 -0.10479622023E+03  0.10016687745E+03  0.15716792822E+03  0.00000000000E+00 0.  1.
         11    1    4    4    0    0 -0.47084177027E+02  0.12619793724E+01  0.87931727333E+02  0.99752197921E+02  0.00000000000E+00 0. -1.
</event>
<event>
 8    1  0.7039283E-009  0.1021084E+03  0.7561462E-02  0.1275924E+00
         -1   -1    0    0    0  501 -0.00000000000E+00  0.00000000000E+00  0.21285366517E+03  0.21285366517E+03  0.00000000000E+00 0.  1.
          1   -1    0    0  501    0  0.00000000000E+00 -0.00000000000E+00 -0.72099629244E+02  0.72099629244E+02  0.00000000000E+00 0. -1.
         25    2    1    2    0    0  0.54482782484E+02 -0.19818253543E+02  0.97635163797E+02  0.16894227282E+03  0.12509088526E+03 0.  0.
         23    2    1    2    0    0 -0.54482782484E+02  0.19818253543E+02  0.43118872124E+02  0.11601102159E+03  0.90764438173E+02 0.  0.
          5    1    3    3  502    0  0.48858455600E+02 -0.52775940793E+02  0.71593500229E+01  0.72395975738E+02  0.41800000000E+01 0. -1.
         -5    1    3    3    0  502  0.56243268840E+01  0.32957687251E+02  0.90475813774E+02  0.96546297080E+02  0.41800000000E+01 0. -1.
        -11    1    4    4    0    0  0.16755534134E+02  0.21456980918E+02 -0.79294605298E+01  0.28355357492E+02  0.00000000000E+00 0. -1.
         11    1    4    4    0    0 -0.71238316618E+02 -0.16387273749E+01  0.51048332654E+02  0.87655664100E+02  0.00000000000E+00 0.  1.
</event>
<event>
 8    1  0.7039283E-009  0.3695462E+03  0.7561462E-02  0.1054867E+00
          2   -1    0    0  501    0  0.00000000000E+00  0.00000000000E+00  0.16066272451E+03  0.16066272451E+03  0.00000000000E+00 0. -1.
         -2   -1    0    0    0  501 -0.00000000000E+00 -0.00000000000E+00 -0.91177910632E+03  0.91177910632E+03  0.00000000000E+00 0.  1.
         25    2    1    2    0    0 -0.17944748963E+03  0.31943166850E+03 -0.41628463270E+03  0.56848845075E+03  0.12509288884E+03 0.  0.
         23    2    1    2    0    0  0.17944748963E+03 -0.31943166850E+03 -0.33483174912E+03  0.50395338009E+03  0.87285260553E+02 0.  0.
          5    1    3    3  502    0 -0.59023744565E+02  0.74148795137E+02 -0.38863880111E+02  0.10251692455E+03  0.41800000000E+01 0. -1.
         -5    1    3    3    0  502 -0.12042374506E+03  0.24528287336E+03 -0.37742075259E+03  0.46597152619E+03  0.41800000000E+01 0. -1.
        -11    1    4    4    0    0  0.40714201003E+02 -0.12944697577E+03 -0.81742562171E+02  0.15841720920E+03  0.00000000000E+00 0. -1.
         11    1    4    4    0    0  0.13873328863E+03 -0.18998469273E+03 -0.25308918695E+03  0.34553617089E+03  0.00000000000E+00 0.  1.
</event>
<event>
 8    1  0.7039283E-009  0.1116084E+03  0.7561462E-02  0.1257620E+00
         -1   -1    0    0    0  501 -0.00000000000E+00  0.00000000000E+00  0.10237161746E+02  0.10237161746E+02  0.00000000000E+00 0.  1.
          1   -1    0    0  501    0  0.00000000000E+00 -0.00000000000E+00 -0.14560600773E+04  0.14560600773E+04  0.00000000000E+00 0. -1.
         25    2    1    2    0    0 -0.53168141735E+02 -0.95902567810E+01 -0.99911616443E+03  0.10083647300E+04  0.12508994499E+03 0.  0.
         23    2    1    2    0    0  0.53168141735E+02  0.95902567810E+01 -0.44670675117E+03  0.45793250910E+03  0.85067250056E+02 0.  0.
          5    1    3    3  502    0  0.35501519613E+02 -0.10043052625E+02 -0.50306568982E+03  0.50443412006E+03  0.41800000000E+01 0. -1.
         -5    1    3    3    0  502 -0.88669661348E+02  0.45279584363E+00 -0.49605047461E+03  0.50393060993E+03  0.41800000000E+01 0. -1.
        -11    1    4    4    0    0 -0.76481011887E+01  0.31697516111E+02 -0.98286359750E+02  0.10355401727E+03  0.00000000000E+00 0.  1.
         11    1    4    4    0    0  0.60816242924E+02 -0.22107259330E+02 -0.34842039142E+03  0.35437849183E+03  0.00000000000E+00 0. -1.
</event>
<event>
 8    1  0.7039283E-009  0.1171801E+03  0.7561462E-02  0.1247823E+00
         -1   -1    0    0    0  501 -0.00000000000E+00  0.00000000000E+00  0.72981037202E+03  0.72981037202E+03  0.00000000000E+00 0.  1.
          1   -1    0    0  501    0  0.00000000000E+00 -0.00000000000E+00 -0.51630378296E+02  0.51630378296E+02  0.00000000000E+00 0. -1.
         25    2    1    2    0    0  0.66394146330E+02  0.57471172225E+02  0.62623806547E+03  0.64461750626E+03  0.12508595618E+03 0.  0.
         23    2    1    2    0    0 -0.66394146330E+02 -0.57471172225E+02  0.51941928258E+02  0.13682324406E+03  0.91167526561E+02 0.  0.
          5    1    3    3  502    0  0.97958929788E+02  0.34657665044E+02  0.33535494482E+03  0.35110898178E+03  0.41800000000E+01 0.  1.
         -5    1    3    3    0  502 -0.31564783459E+02  0.22813507182E+02  0.29088312065E+03  0.29350852448E+03  0.41800000000E+01 0.  1.
        -11    1    4    4    0    0 -0.35691514927E+02 -0.46444704458E+02  0.76242013199E+02  0.96144887470E+02  0.00000000000E+00 0. -1.
         11    1    4    4    0    0 -0.30702631402E+02 -0.11026467767E+02 -0.24300084941E+02  0.40678356586E+02  0.00000000000E+00 0.  1.
</event>
<event>
 8    1  0.7039283E-009  0.9634692E+02  0.7561462E-02  0.1288171E+00
         -2   -1    0    0    0  501 -0.00000000000E+00  0.00000000000E+00  0.10590492380E+03  0.10590492380E+03  0.00000000000E+00 0.  1.
          2   -1    0    0  501    0  0.00000000000E+00 -0.00000000000E+00 -0.42083310327E+03  0.42083310327E+03  0.00000000000E+00 0. -1.
         25    2    1    2    0    0  0.59517053474E+02 -0.39396701644E+01 -0.37732497017E+03  0.40196934870E+03  0.12508966195E+03 0.  0.
         23    2    1    2    0    0 -0.59517053474E+02  0.39396701644E+01  0.62396790695E+02  0.12476867838E+03  0.90089194464E+02 0.  0.
          5    1    3    3  502    0  0.30543138172E+01 -0.46278914737E+02 -0.26633665815E+03  0.27037706015E+03  0.41800000000E+01 0.  1.
         -5    1    3    3    0  502  0.56462739657E+02  0.42339244572E+02 -0.11098831202E+03  0.13159228855E+03  0.41800000000E+01 0.  1.
        -11    1    4    4    0    0  0.38149719762E+01 -0.98936143559E+01  0.58902555564E+02  0.59849383189E+02  0.00000000000E+00 0.  1.
         11    1    4    4    0    0 -0.63332025450E+02  0.13833284520E+02  0.34942351314E+01  0.64919295186E+02  0.00000000000E+00 0. -1.
</event>
<event>
 8    1  0.7039283E-009  0.1230168E+03  0.7561462E-02  0.1238202E+00
         -1   -1    0    0    0  501 -0.00000000000E+00  0.00000000000E+00  0.12443212182E+03  0.12443212182E+03  0.00000000000E+00 0.  1.
          1   -1    0    0  501    0  0.00000000000E+00 -0.00000000000E+00 -0.29552563977E+03  0.29552563977E+03  0.00000000000E+00 0. -1.
         25    2    1    2    0    0 -0.10989659862E+03  0.48825563228E+02  0.22451057316E+02  0.17496496357E+03  0.12508992961E+03 0.  0.
         23    2    1    2    0    0  0.10989659862E+03 -0.48825563228E+02 -0.19354457527E+03  0.24499279802E+03  0.90004280197E+02 0.  0.
          5    1    3    3  502    0 -0.31493864893E+02 -0.22305907615E+01 -0.48115473819E+02  0.57701042294E+02  0.41800000000E+01 0. -1.
         -5    1    3    3    0  502 -0.78402733726E+02  0.51056153990E+02  0.70566531135E+02  0.11726392127E+03  0.41800000000E+01 0. -1.
        -11    1    4    4    0    0  0.32589314408E+02 -0.10458262009E+02 -0.12845981850E+01  0.34250384674E+02  0.00000000000E+00 0.  1.
         11    1    4    4    0    0  0.77307284211E+02 -0.38367301219E+02 -0.19225997709E+03  0.21074241335E+03  0.00000000000E+00 0. -1.
</event>
<event>
 8    1  0.7039283E-009  0.2089182E+03  0.7561462E-02  0.1142426E+00
         -2   -1    0    0    0  501 -0.00000000000E+00  0.00000000000E+00  0.57080540653E+03  0.57080540653E+03  0.00000000000E+00 0.  1.
          2   -1    0    0  501    0  0.00000000000E+00 -0.00000000000E+00 -0.94196041641E+02  0.94196041641E+02  0.00000000000E+00 0. -1.
         25    2    1    2    0    0  0.74485690013E+02 -0.16511187789E+03  0.10972155537E+03  0.24596092125E+03  0.12509158578E+03 0.  0.
         23    2    1    2    0    0 -0.74485690013E+02  0.16511187789E+03  0.36688780952E+03  0.41904052692E+03  0.90433667361E+02 0.  0.
          5    1    3    3  502    0  0.62542854895E+02 -0.18567906154E+03  0.96948895974E+02  0.21864327893E+03  0.41800000000E+01 0.  1.
         -5    1    3    3    0  502  0.11942835118E+02  0.20567183647E+02  0.12772659400E+02  0.27317642321E+02  0.41800000000E+01 0.  1.
        -11    1    4    4    0    0 -0.53818935966E+02  0.16839738188E+03  0.29259406957E+03  0.34185588431E+03  0.00000000000E+00 0. -1.
         11    1    4    4    0    0 -0.20666754047E+02 -0.32855039859E+01  0.74293739946E+02  0.77184642607E+02  0.00000000000E+00 0.  1.
</event>
<event>
 8    1  0.7039283E-009  0.9899641E+02  0.7561462E-02  0.1282421E+00
         -2   -1    0    0    0  501 -0.00000000000E+00  0.00000000000E+00  0.29296313834E+02  0.29296313834E+02  0.00000000000E+00 0.  1.
          2   -1    0    0  501    0  0.00000000000E+00 -0.00000000000E+00 -0.59414715042E+03  0.59414715042E+03  0.00000000000E+00 0. -1.
         25    2    1    2    0    0  0.25995404815E+02 -0.56890232292E+02 -0.20991306129E+03  0.25223695237E+03  0.12509087592E+03 0.  0.
         23    2    1    2    0    0 -0.25995404815E+02  0.56890232292E+02 -0.35493777530E+03  0.37120651188E+03  0.88888641186E+02 0.  0.
          5    1    3    3  502    0  0.79894050695E+01 -0.69992409706E+02 -0.40603236891E+02  0.81417831314E+02  0.41800000000E+01 0.  1.
         -5    1    3    3    0  502  0.18005999745E+02  0.13102177414E+02 -0.16930982440E+03  0.17081912105E+03  0.41800000000E+01 0.  1.
        -11    1    4    4    0    0  0.30962938690E+02  0.21749589431E+02 -0.84064531017E+02  0.92187816916E+02  0.00000000000E+00 0.  1.
         11    1    4    4    0    0 -0.56958343505E+02  0.35140642861E+02 -0.27087324428E+03  0.27901869497E+03  0.00000000000E+00 0. -1.
</event>
<event>
 8    1  0.7039283E-009  0.2048884E+03  0.7561462E-02  0.1145679E+00
          2   -1    0    0  501    0  0.00000000000E+00  0.00000000000E+00  0.34532686557E+03  0.34532686557E+03  0.00000000000E+00 0. -1.
         -2   -1    0    0    0  501 -0.00000000000E+00 -0.00000000000E+00 -0.13313241978E+03  0.13313241978E+03  0.00000000000E+00 0.  1.
         25    2    1    2    0    0 -0.28894871218E+02 -0.18152660186E+03  0.11472247139E+03  0.25019219916E+03  0.12509224721E+03 0.  0.
         23    2    1    2    0    0  0.28894871218E+02  0.18152660186E+03  0.97471974402E+02  0.22826708619E+03  0.93905570014E+02 0.  0.
          5    1    3    3  502    0  0.13130763832E+02 -0.16983004614E+03  0.61264154374E+02  0.18106747511E+03  0.41800000000E+01 0. -1.
         -5    1    3    3    0  502 -0.42025635050E+02 -0.11696555722E+02  0.53458317013E+02  0.69124724050E+02  0.41800000000E+01 0. -1.
        -11    1    4    4    0    0 -0.10831453877E+02  0.13025580939E+03  0.28865994947E+02  0.13385492870E+03  0.00000000000E+00 0.  1.
         11    1    4    4    0    0  0.39726325095E+02  0.51270792477E+02  0.68605979454E+02  0.94412157499E+02  0.00000000000E+00 0. -1.
</event>
<event>
 8    1  0.7039283E-009  0.2094348E+03  0.7561462E-02  0.1142014E+00
         -1   -1    0    0    0  501 -0.00000000000E+00  0.00000000000E+00  0.35076830794E+03  0.35076830794E+03  0.00000000000E+00 0.  1.
          1   -1    0    0  501    0  0.00000000000E+00 -0.00000000000E+00 -0.16462383394E+03  0.16462383394E+03  0.00000000000E+00 0. -1.
         25    2    1    2    0    0 -0.12543782079E+03 -0.15245493364E+03  0.77499303600E+01  0.23384641957E+03  0.12508770062E+03 0.  0.
         23    2    1    2    0    0  0.12543782079E+03  0.15245493364E+03  0.17839454365E+03  0.28154572231E+03  0.92012101779E+02 0.  0.
          5    1    3    3  502    0 -0.22381177507E+02 -0.67495339252E+01  0.45552624942E+02  0.51371075070E+02  0.41800000000E+01 0. -1.
         -5    1    3    3    0  502 -0.10305664328E+03 -0.14570539972E+03 -0.37802694582E+02  0.18247534450E+03  0.41800000000E+01 0. -1.
        -11    1    4    4    0    0  0.11585345724E+03  0.73786546123E+02  0.12713827927E+03  0.18716468684E+03  0.00000000000E+00 0. -1.
         11    1    4    4    0    0  0.95843635490E+01  0.78668387522E+02  0.51256264375E+02  0.94381035476E+02  0.00000000000E+00 0.  1.
</event>
<event>
 8    1  0.7039283E-009  0.2500728E+03  0.7561462E-02  0.1113259E+00
         -1   -1    0    0    0  501 -0.00000000000E+00  0.00000000000E+00  0.31541557439E+03  0.31541557439E+03  0.00000000000E+00 0.  1.
          1   -1    0    0  501    0  0.00000000000E+00 -0.00000000000E+00 -0.20775469215E+03  0.20775469215E+03  0.00000000000E+00 0. -1.
         25    2    1    2    0    0  0.51562114869E+02 -0.22509840557E+03  0.63513694724E+02  0.27020590999E+03  0.12509716422E+03 0.  0.
         23    2    1    2    0    0 -0.51562114869E+02  0.22509840557E+03  0.44147187523E+02  0.25296435655E+03  0.93349063417E+02 0.  0.
          5    1    3    3  502    0  0.81700539305E+02 -0.15151870683E+03  0.78404772637E+02  0.18920274156E+03  0.41800000000E+01 0. -1.
         -5    1    3    3    0  502 -0.30138424436E+02 -0.73579698736E+02 -0.14891077913E+02  0.81003168425E+02  0.41800000000E+01 0. -1.
        -11    1    4    4    0    0  0.26295382786E+02  0.70251472975E+02  0.43631673804E+01  0.75138231551E+02  0.00000000000E+00 0. -1.
         11    1    4    4    0    0 -0.77857497654E+02  0.15484693259E+03  0.39784020143E+02  0.17782612500E+03  0.00000000000E+00 0.  1.
</event>
<event>
 8    1  0.7039283E-009  0.8623302E+02  0.7561462E-02  0.1312239E+00
          2   -1    0    0  501    0  0.00000000000E+00  0.00000000000E+00  0.41427013381E+03  0.41427013381E+03  0.00000000000E+00 0. -1.
         -2   -1    0    0    0  501 -0.00000000000E+00 -0.00000000000E+00 -0.48558291465E+02  0.48558291465E+02  0.00000000000E+00 0.  1.
         25    2    1    2    0    0 -0.40705906804E+02  0.66635304339E+02  0.27470195557E+03  0.31177868038E+03  0.12509015354E+03 0.  0.
         23    2    1    2    0    0  0.40705906804E+02 -0.66635304339E+02  0.91009886773E+02  0.15104974489E+03  0.91847652709E+02 0.  0.
          5    1    3    3  502    0  0.98129922393E+00  0.44900783979E+02  0.25769036423E+03  0.26160817947E+03  0.41800000000E+01 0. -1.
         -5    1    3    3    0  502 -0.41687206028E+02  0.21734520360E+02  0.17011591342E+02  0.50170500912E+02  0.41800000000E+01 0. -1.
        -11    1    4    4    0    0  0.13117811992E+02 -0.80103355763E+01  0.84551028042E+02  0.85936713984E+02  0.00000000000E+00 0. -1.
         11    1    4    4    0    0  0.27588094813E+02 -0.58624968762E+02  0.64588587314E+01  0.65113030907E+02  0.00000000000E+00 0.  1.
</event>
<event>
 8    1  0.7039283E-009  0.1488930E+03  0.7561462E-02  0.1201840E+00
          2   -1    0    0  501    0  0.00000000000E+00  0.00000000000E+00  0.67761321281E+03  0.67761321281E+03  0.00000000000E+00 0. -1.
         -2   -1    0    0    0  501 -0.00000000000E+00 -0.00000000000E+00 -0.50588852581E+02  0.50588852581E+02  0.00000000000E+00 0.  1.
         25    2    1    2    0    0 -0.69651387256E+01  0.11404271851E+03  0.51911280097E+03  0.54605947358E+03  0.12509433941E+03 0.  0.
         23    2    1    2    0    0  0.69651387256E+01 -0.11404271851E+03  0.10791155926E+03  0.18214259182E+03  0.92069345221E+02 0.  0.
          5    1    3    3  502    0  0.45189209188E+02  0.94192024864E+02  0.41376870714E+03  0.42677419976E+03  0.41800000000E+01 0. -1.
         -5    1    3    3    0  502 -0.52154347914E+02  0.19850693642E+02  0.10534409383E+03  0.11928527381E+03  0.41800000000E+01 0. -1.
        -11    1    4    4    0    0  0.41273853159E+02 -0.52171002466E+02  0.84666394742E+02  0.10767424414E+03  0.00000000000E+00 0. -1.
         11    1    4    4    0    0 -0.34308714434E+02 -0.61871716040E+02  0.23245164523E+02  0.74468347676E+02  0.00000000000E+00 0.  1.
</event>
<event>
 8    1  0.7039283E-009  0.1345636E+03  0.7561462E-02  0.1220837E+00
         -2   -1    0    0    0  501 -0.00000000000E+00  0.00000000000E+00  0.28784932744E+02  0.28784932744E+02  0.00000000000E+00 0.  1.
          2   -1    0    0  501    0  0.00000000000E+00 -0.00000000000E+00 -0.71231876233E+03  0.71231876233E+03  0.00000000000E+00 0. -1.
         25    2    1    2    0    0 -0.75031837054E+02  0.54324913982E+02 -0.40211668163E+03  0.43119186237E+03  0.12509046199E+03 0.  0.
         23    2    1    2    0    0  0.75031837054E+02 -0.54324913982E+02 -0.28141714796E+03  0.30991183271E+03  0.90932722568E+02 0.  0.
          5    1    3    3  502    0  0.34783975213E+01  0.72418167566E+02 -0.15348651070E+03  0.16980009308E+03  0.41800000000E+01 0. -1.
         -5    1    3    3    0  502 -0.78510234575E+02 -0.18093253585E+02 -0.24863017092E+03  0.26139176929E+03  0.41800000000E+01 0. -1.
        -11    1    4    4    0    0 -0.68841409619E+00 -0.38457556011E+02 -0.36347564491E+02  0.52920723471E+02  0.00000000000E+00 0.  1.
         11    1    4    4    0    0  0.75720251150E+02 -0.15867357971E+02 -0.24506958347E+03  0.25699110924E+03  0.00000000000E+00 0. -1.
</event>
<event>
 8    1  0.7039283E-009  0.1231374E+03  0.7561462E-02  0.1238009E+00
          4   -1    0    0  501    0  0.00000000000E+00  0.00000000000E+00  0.97839051287E+02  0.97839051287E+02  0.00000000000E+00 0. -1.
         -4   -1    0    0    0  501 -0.00000000000E+00 -0.00000000000E+00 -0.16278608137E+03  0.16278608137E+03  0.00000000000E+00 0.  1.
         25    2    1    2    0    0 -0.19521006684E+02 -0.61595218929E+02 -0.28637315012E+02  0.14367553157E+03  0.12509005501E+03 0.  0.
         23    2    1    2    0    0  0.19521006684E+02  0.61595218929E+02 -0.36309715071E+02  0.11694960109E+03  0.90464208887E+02 0.  0.
          5    1    3    3  502    0 -0.37693867418E+02  0.28431192501E+02 -0.19613348453E+02  0.51296356454E+02  0.41800000000E+01 0.  1.
         -5    1    3    3    0  502  0.18172860734E+02 -0.90026411430E+02 -0.90239665597E+01  0.92379175114E+02  0.41800000000E+01 0.  1.
        -11    1    4    4    0    0  0.53468755728E+02  0.37354203081E+02 -0.62301697186E+01  0.65521441846E+02  0.00000000000E+00 0. -1.
         11    1    4    4    0    0 -0.33947749044E+02  0.24241015848E+02 -0.30079545352E+02  0.51428159243E+02  0.00000000000E+00 0.  1.
</event>
<event>
 8    1  0.7039283E-009  0.1738124E+03  0.7561462E-02  0.1173929E+00
         -2   -1    0    0    0  501 -0.00000000000E+00  0.00000000000E+00  0.27939792563E+03  0.27939792563E+03  0.00000000000E+00 0.  1.
          2   -1    0    0  501    0  0.00000000000E+00 -0.00000000000E+00 -0.15284191574E+03  0.15284191574E+03  0.00000000000E+00 0. -1.
         25    2    1    2    0    0 -0.14342080209E+03 -0.58006144247E+02 -0.21247918048E+02  0.20008289518E+03  0.12508977448E+03 0.  0.
         23    2    1    2    0    0  0.14342080209E+03  0.58006144247E+02  0.14780392794E+03  0.23215694619E+03  0.90092215587E+02 0.  0.
          5    1    3    3  502    0 -0.21971615936E+02 -0.66450940870E+02  0.17481138206E+02  0.72260238322E+02  0.41800000000E+01 0.  1.
         -5    1    3    3    0  502 -0.12144918615E+03  0.84447966233E+01 -0.38729056254E+02  0.12782265686E+03  0.41800000000E+01 0.  1.
        -11    1    4    4    0    0  0.71914053356E+02  0.38528195951E+02  0.13383273033E+03  0.15673944194E+03  0.00000000000E+00 0.  1.
         11    1    4    4    0    0  0.71506748734E+02  0.19477948295E+02  0.13971197604E+02  0.75417504247E+02  0.00000000000E+00 0. -1.
</event>
<event>
 8    1  0.7039283E-009  0.1216841E+03  0.7561462E-02  0.1240344E+00
          2   -1    0    0  501    0  0.00000000000E+00  0.00000000000E+00  0.51093938719E+02  0.51093938719E+02  0.00000000000E+00 0. -1.
         -2   -1    0    0    0  501 -0.00000000000E+00 -0.00000000000E+00 -0.51091071845E+03  0.51091071845E+03  0.00000000000E+00 0.  1.
         25    2    1    2    0    0  0.63484706587E+02  0.14129195628E+02 -0.72474784549E+02  0.15852574326E+03  0.12509146550E+03 0.  0.
         23    2    1    2    0    0 -0.63484706587E+02 -0.14129195628E+02 -0.38734199519E+03  0.40347891391E+03  0.92365960170E+02 0.  0.
          5    1    3    3  502    0  0.22427033655E+02  0.68200728450E+02 -0.46891753425E+02  0.85852315862E+02  0.41800000000E+01 0. -1.
         -5    1    3    3    0  502  0.41057672932E+02 -0.54071532822E+02 -0.25583031124E+02  0.72673427398E+02  0.41800000000E+01 0. -1.
        -11    1    4    4    0    0  0.11038350482E+01 -0.35410202840E+02 -0.64861599442E+02  0.73906210830E+02  0.00000000000E+00 0. -1.
         11    1    4    4    0    0 -0.64588541636E+02  0.21281007212E+02 -0.32248039574E+03  0.32957270308E+03  0.00000000000E+00 0.  1.
</event>
<event>
 8    1  0.7039283E-009  0.9531370E+02  0.7561462E-02  0.1290471E+00
          1   -1    0    0  501    0  0.00000000000E+00  0.00000000000E+00  0.36364459871E+03  0.36364459871E+03  0.00000000000E+00 0. -1.
         -1   -1    0    0    0  501 -0.00000000000E+00 -0.00000000000E+00 -0.52685071354E+02  0.52685071354E+02  0.00000000000E+00 0.  1.
         25    2    1    2    0    0  0.20202688302E+02 -0.45305020688E+02  0.27857080304E+03  0.30936923710E+03  0.12508772539E+03 0.  0.
         23    2    1    2    0    0 -0.20202688302E+02  0.45305020688E+02  0.32388724314E+02  0.10696043296E+03  0.89055102284E+02 0.  0.
          5    1    3    3  502    0 -0.11353601719E+02 -0.78096261025E+02  0.22750487310E+03  0.24083992597E+03  0.41800000000E+01 0. -1.
         -5    1    3    3    0  502  0.31556290021E+02  0.32791240338E+02  0.51065929939E+02  0.68529311125E+02  0.41800000000E+01 0. -1.
        -11    1    4    4    0    0 -0.25130378812E+02  0.54167495189E+01 -0.25681899351E+02  0.36337818713E+02  0.00000000000E+00 0.  1.
         11    1    4    4    0    0  0.49276905100E+01  0.39888271169E+02  0.58070623665E+02  0.70622614250E+02  0.00000000000E+00 0. -1.
</event>
<event>
 8    1  0.7039283E-009  0.1661411E+03  0.7561462E-02  0.1181933E+00
          4   -1    0    0  501    0  0.00000000000E+00  0.00000000000E+00  0.43380112124E+03  0.43380112124E+03  0.00000000000E+00 0. -1.
         -4   -1    0    0    0  501 -0.00000000000E+00 -0.00000000000E+00 -0.81201162158E+02  0.81201162158E+02  0.00000000000E+00 0.  1.
         25    2    1    2    0    0  0.13688401304E+03  0.61622596539E+02  0.22458629484E+03  0.29769236661E+03  0.12508862407E+03 0.  0.
         23    2    1    2    0    0 -0.13688401304E+03 -0.61622596539E+02  0.12801366424E+03  0.21730991679E+03  0.91112700942E+02 0.  0.
          5    1    3    3  502    0  0.91830177795E+00  0.20046881312E+02  0.11846575726E+03  0.12022615677E+03  0.41800000000E+01 0. -1.
         -5    1    3    3    0  502  0.13596571127E+03  0.41575715227E+02  0.10612053758E+03  0.17746620984E+03  0.41800000000E+01 0. -1.
        -11    1    4    4    0    0 -0.55211400145E+02  0.15358457335E+02  0.17798557426E+02  0.60008079157E+02  0.00000000000E+00 0.  1.
         11    1    4    4    0    0 -0.81672612900E+02 -0.76981053874E+02  0.11021510681E+03  0.15730183764E+03  0.00000000000E+00 0. -1.
</event>
<event>
 8    1  0.7039283E-009  0.2549364E+03  0.7561462E-02  0.1110224E+00
         -2   -1    0    0    0  501 -0.00000000000E+00  0.00000000000E+00  0.18770586479E+03  0.18770586479E+03  0.00000000000E+00 0. -1.
          2   -1    0    0  501    0  0.00000000000E+00 -0.00000000000E+00 -0.38865058072E+03  0.38865058072E+03  0.00000000000E+00 0.  1.
         25    2    1    2    0    0 -0.23513623881E+03 -0.75218624988E+02 -0.11566450117E+03  0.29995187775E+03  0.12508381104E+03 0.  0.
         23    2    1    2    0    0  0.23513623881E+03  0.75218624988E+02 -0.85280214760E+02  0.27640456776E+03  0.90442676316E+02 0.  0.
          5    1    3    3  502    0 -0.88570333353E+02 -0.48796228542E+02 -0.11195144459E+03  0.15091843564E+03  0.41800000000E+01 0. -1.
         -5    1    3    3    0  502 -0.14656590546E+03 -0.26422396446E+02 -0.37130565822E+01  0.14903344211E+03  0.41800000000E+01 0. -1.
        -11    1    4    4    0    0  0.81156282454E+02 -0.13038108133E+02 -0.72093148411E+01  0.82512475820E+02  0.00000000000E+00 0.  1.
         11    1    4    4    0    0  0.15397995636E+03  0.88256733121E+02 -0.78070899919E+02  0.19389209194E+03  0.00000000000E+00 0. -1.
</event>
<event>
 8    1  0.7039283E-009  0.1302079E+03  0.7561462E-02  0.1227148E+00
         -2   -1    0    0    0  501 -0.00000000000E+00  0.00000000000E+00  0.16594427721E+02  0.16594427721E+02  0.00000000000E+00 0.  1.
          2   -1    0    0  501    0  0.00000000000E+00 -0.00000000000E+00 -0.10355239309E+04  0.10355239309E+04  0.00000000000E+00 0. -1.
         25    2    1    2    0    0 -0.51126809729E+01  0.69669812121E+02 -0.59610061091E+03  0.61307880299E+03  0.12509859360E+03 0.  0.
         23    2    1    2    0    0  0.51126809729E+01 -0.69669812121E+02 -0.42282889227E+03  0.43903955563E+03  0.95349027498E+02 0.  0.
          5    1    3    3  502    0  0.59246064219E+02  0.43376194596E+02 -0.31684730022E+03  0.32527107840E+03  0.41800000000E+01 0. -1.
         -5    1    3    3    0  502 -0.64358745192E+02  0.26293617525E+02 -0.27925331069E+03  0.28780772459E+03  0.41800000000E+01 0. -1.
        -11    1    4    4    0    0 -0.28626080966E+02 -0.77472413206E+02 -0.32226865216E+03  0.33268380106E+03  0.00000000000E+00 0.  1.
         11    1    4    4    0    0  0.33738761939E+02  0.78026010854E+01 -0.10056024010E+03  0.10635575457E+03  0.00000000000E+00 0. -1.
</event>
<event>
 8    1  0.7039283E-009  0.2925914E+03  0.7561462E-02  0.1089004E+00
         -2   -1    0    0    0  501 -0.00000000000E+00  0.00000000000E+00  0.15233762014E+03  0.15233762014E+03  0.00000000000E+00 0.  1.
          2   -1    0    0  501    0  0.00000000000E+00 -0.00000000000E+00 -0.10616675772E+04  0.10616675772E+04  0.00000000000E+00 0. -1.
         25    2    1    2    0    0 -0.25520405096E+03  0.13524115053E+03 -0.84811021249E+03  0.90463116140E+03  0.12508928504E+03 0.  0.
         23    2    1    2    0    0  0.25520405096E+03 -0.13524115053E+03 -0.61219744562E+02  0.30937403592E+03  0.92440037633E+02 0.  0.
          5    1    3    3  502    0 -0.96612697488E+02  0.30836814475E+02 -0.47777374534E+03  0.48843643044E+03  0.41800000000E+01 0.  1.
         -5    1    3    3    0  502 -0.15859135347E+03  0.10440433605E+03 -0.37033646715E+03  0.41619473096E+03  0.41800000000E+01 0.  1.
        -11    1    4    4    0    0  0.17441589966E+03 -0.11958008403E+03 -0.77982400074E+02  0.22539200800E+03  0.00000000000E+00 0.  1.
         11    1    4    4    0    0  0.80788151292E+02 -0.15661066503E+02  0.16762655512E+02  0.83982027916E+02  0.00000000000E+00 0. -1.
</event>
<event>
 8    1  0.7039283E-009  0.2107893E+03  0.7561462E-02  0.1140942E+00
         -1   -1    0    0    0  501 -0.00000000000E+00  0.00000000000E+00  0.10598702630E+03  0.10598702630E+03  0.00000000000E+00 0.  1.
          1   -1    0    0  501    0  0.00000000000E+00 -0.00000000000E+00 -0.48238106819E+03  0.48238106819E+03  0.00000000000E+00 0. -1.
         25    2    1    2    0    0  0.15519570635E+03  0.11655064256E+03 -0.14507390211E+03  0.27269487650E+03  0.12508516716E+03 0.  0.
         23    2    1    2    0    0 -0.15519570635E+03 -0.11655064256E+03 -0.23132013979E+03  0.31567321799E+03  0.92037024800E+02 0.  0.
          5    1    3    3  502    0  0.11745958122E+03  0.15227692850E+02 -0.10153000688E+03  0.15605912516E+03  0.41800000000E+01 0. -1.
         -5    1    3    3    0  502  0.37736125133E+02  0.10132294971E+03 -0.43543895231E+02  0.11663575133E+03  0.41800000000E+01 0. -1.
        -11    1    4    4    0    0 -0.63647067652E+02 -0.58569092515E+02 -0.38904496896E+02  0.94841170898E+02  0.00000000000E+00 0.  1.
         11    1    4    4    0    0 -0.91548638703E+02 -0.57981550041E+02 -0.19241564289E+03  0.22083204709E+03  0.00000000000E+00 0. -1.
</event>
<event>
 8    1  0.7039283E-009  0.9352521E+02  0.7561462E-02  0.1294533E+00
          1   -1    0    0  501    0  0.00000000000E+00  0.00000000000E+00  0.42387664760E+02  0.42387664760E+02  0.00000000000E+00 0. -1.
         -1   -1    0    0    0  501 -0.00000000000E+00 -0.00000000000E+00 -0.31477677714E+03  0.31477677714E+03  0.00000000000E+00 0.  1.
         25    2    1    2    0    0  0.84330751184E+01  0.25409365652E+02 -0.10772792329E+03  0.16723982210E+03  0.12508836884E+03 0.  0.
         23    2    1    2    0    0 -0.84330751184E+01 -0.25409365652E+02 -0.16466118909E+03  0.18992461980E+03  0.90781613753E+02 0.  0.
          5    1    3    3  502    0  0.32904949379E+02 -0.26305054696E+02  0.30984015787E+01  0.42447191763E+02  0.41800000000E+01 0. -1.
         -5    1    3    3    0  502 -0.24471874260E+02  0.51714420349E+02 -0.11082632487E+03  0.12479263034E+03  0.41800000000E+01 0. -1.
        -11    1    4    4    0    0 -0.29666535832E+02  0.20978793224E+02 -0.10666061856E+03  0.11267963731E+03  0.00000000000E+00 0.  1.
         11    1    4    4    0    0  0.21233460714E+02 -0.46388158876E+02 -0.58000570525E+02  0.77244982485E+02  0.00000000000E+00 0. -1.
</event>
<event>
 8    1  0.7039283E-009  0.1097233E+03  0.7561462E-02  0.1261083E+00
          1   -1    0    0  501    0  0.00000000000E+00  0.00000000000E+00  0.49137740661E+03  0.49137740661E+03  0.00000000000E+00 0. -1.
         -1   -1    0    0    0  501 -0.00000000000E+00 -0.00000000000E+00 -0.26633566834E+02  0.26633566834E+02  0.00000000000E+00 0.  1.
         25    2    1    2    0    0  0.14990815940E+02 -0.94069747212E+01  0.19244964121E+03  0.23021264302E+03  0.12509109028E+03 0.  0.
         23    2    1    2    0    0 -0.14990815940E+02  0.94069747212E+01  0.27229419857E+03  0.28779833042E+03  0.91490615290E+02 0.  0.
          5    1    3    3  502    0  0.49723307465E+02 -0.51411840774E+02  0.11150484889E+03  0.13253825260E+03  0.41800000000E+01 0. -1.
         -5    1    3    3    0  502 -0.34732491525E+02  0.42004866053E+02  0.80944792318E+02  0.97674390415E+02  0.41800000000E+01 0. -1.
        -11    1    4    4    0    0  0.31472527268E+02 -0.20793014979E+02  0.11494360587E+03  0.12097479893E+03  0.00000000000E+00 0.  1.
         11    1    4    4    0    0 -0.46463343208E+02  0.30199989701E+02  0.15735059270E+03  0.16682353150E+03  0.00000000000E+00 0. -1.
</event>
<event>
 8    1  0.7039283E-009  0.1910730E+03  0.7561462E-02  0.1157497E+00
         -1   -1    0    0    0  501 -0.00000000000E+00  0.00000000000E+00  0.42659019755E+02  0.42659019755E+02  0.00000000000E+00 0.  1.
          1   -1    0    0  501    0  0.00000000000E+00 -0.00000000000E+00 -0.92873018233E+03  0.92873018233E+03  0.00000000000E+00 0. -1.
         25    2    1    2    0    0  0.14723138662E+02 -0.16521237147E+03 -0.46623551102E+03  0.51042728110E+03  0.12509420075E+03 0.  0.
         23    2    1    2    0    0 -0.14723138662E+02  0.16521237147E+03 -0.41983565155E+03  0.46096192098E+03  0.93338201057E+02 0.  0.
          5    1    3    3  502    0  0.39008486720E+02 -0.63278913349E+01 -0.47781965187E+02  0.62147347828E+02  0.41800000000E+01 0. -1.
         -5    1    3    3    0  502 -0.24285348058E+02 -0.15888448014E+03 -0.41845354583E+03  0.44827993328E+03  0.41800000000E+01 0. -1.
        -11    1    4    4    0    0 -0.28548005563E+02  0.17969775537E+02 -0.14489552285E+03  0.14877033978E+03  0.00000000000E+00 0. -1.
         11    1    4    4    0    0  0.13824866901E+02  0.14724259594E+03 -0.27494012870E+03  0.31219158120E+03  0.00000000000E+00 0.  1.
</event>
<event>
 8    1  0.7039283E-009  0.2109104E+03  0.7561462E-02  0.1140847E+00
         -1   -1    0    0    0  501 -0.00000000000E+00  0.00000000000E+00  0.60625418620E+02  0.60625418620E+02  0.00000000000E+00 0.  1.
          1   -1    0    0  501    0  0.00000000000E+00 -0.00000000000E+00 -0.12531903230E+04  0.12531903230E+04  0.00000000000E+00 0. -1.
         25    2    1    2    0    0 -0.19261007551E+03 -0.73902792069E+01 -0.10021465157E+04  0.10281526094E+04  0.12508753621E+03 0.  0.
         23    2    1    2    0    0  0.19261007551E+03  0.73902792069E+01 -0.19041838869E+03  0.28566313231E+03  0.90504171130E+02 0.  0.
          5    1    3    3  502    0 -0.41468040516E+02 -0.49942704258E+02 -0.18647552572E+03  0.19749548396E+03  0.41800000000E+01 0.  1.
         -5    1    3    3    0  502 -0.15114203500E+03  0.42552425051E+02 -0.81567099002E+03  0.83065712540E+03  0.41800000000E+01 0.  1.
        -11    1    4    4    0    0  0.10362685581E+03  0.30010964737E+02 -0.52504677384E+02  0.11998301712E+03  0.00000000000E+00 0.  1.
         11    1    4    4    0    0  0.88983219701E+02 -0.22620685530E+02 -0.13791371131E+03  0.16568011519E+03  0.00000000000E+00 0. -1.
</event>
<event>
 8    1  0.7039283E-009  0.1015098E+03  0.7561462E-02  0.1277153E+00
         -2   -1    0    0    0  501 -0.00000000000E+00  0.00000000000E+00  0.26234334729E+02  0.26234334729E+02  0.00000000000E+00 0.  1.
          2   -1    0    0  501    0  0.00000000000E+00 -0.00000000000E+00 -0.65259125497E+03  0.65259125497E+03  0.00000000000E+00 0. -1.
         25    2    1    2    0    0  0.17714676315E+02  0.35405686801E+02 -0.51151716411E+03  0.52807620051E+03  0.12508913600E+03 0.  0.
         23    2    1    2    0    0 -0.17714676315E+02 -0.35405686801E+02 -0.11483975613E+03  0.15074938919E+03  0.89273939868E+02 0.  0.
          5    1    3    3  502    0  0.29682822313E+02 -0.32839236149E+02 -0.34230306583E+03  0.34517871697E+03  0.41800000000E+01 0.  1.
         -5    1    3    3    0  502 -0.11968145998E+02  0.68244922951E+02 -0.16921409829E+03  0.18289748354E+03  0.41800000000E+01 0.  1.
        -11    1    4    4    0    0 -0.18998110886E+02 -0.60809495476E+02 -0.10627931471E+03  0.12391132189E+03  0.00000000000E+00 0. -1.
         11    1    4    4    0    0  0.12834345707E+01  0.25403808674E+02 -0.85604414253E+01  0.26838067309E+02  0.00000000000E+00 0.  1.
</event>
<event>
 8    1  0.7039283E-009  0.1793873E+03  0.7561462E-02  0.1168397E+00
         -2   -1    0    0    0  501 -0.00000000000E+00  0.00000000000E+00  0.19086491418E+03  0.19086491418E+03  0.00000000000E+00 0. -1.
          2   -1    0    0  501    0  0.00000000000E+00 -0.00000000000E+00 -0.21945864857E+03  0.21945864857E+03  0.00000000000E+00 0.  1.
         25    2    1    2    0    0 -0.14538258694E+03  0.67140941804E+02  0.51881502262E+02  0.20972342565E+03  0.12509285487E+03 0.  0.
         23    2    1    2    0    0  0.14538258694E+03 -0.67140941804E+02 -0.80475236645E+02  0.20060013710E+03  0.90111867366E+02 0.  0.
          5    1    3    3  502    0 -0.83893169492E+02  0.79073691789E+02  0.80561294684E+02  0.14070645764E+03  0.41800000000E+01 0. -1.
         -5    1    3    3    0  502 -0.61489417447E+02 -0.11932749986E+02 -0.28679792422E+02  0.69016968012E+02  0.41800000000E+01 0. -1.
        -11    1    4    4    0    0  0.28213139162E+02 -0.56292616053E+02 -0.46011278643E+02  0.77986393722E+02  0.00000000000E+00 0.  1.
         11    1    4    4    0    0  0.11716944778E+03 -0.10848325751E+02 -0.34463958003E+02  0.12261374338E+03  0.00000000000E+00 0. -1.
</event>
<event>
 8    1  0.7039283E-009  0.7474470E+02  0.7561462E-02  0.1344663E+00
         -1   -1    0    0    0  501 -0.00000000000E+00  0.00000000000E+00  0.66602106522E+02  0.66602106522E+02  0.00000000000E+00 0.  1.
          1   -1    0    0  501    0  0.00000000000E+00 -0.00000000000E+00 -0.22601109211E+03  0.22601109211E+03  0.00000000000E+00 0. -1.
         25    2    1    2    0    0 -0.53218800851E+02  0.15483523481E+02 -0.10840595999E+03  0.17455813615E+03  0.12508681174E+03 0.  0.
         23    2    1    2    0    0  0.53218800851E+02 -0.15483523481E+02 -0.51003025598E+02  0.11805506248E+03  0.90904944279E+02 0.  0.
          5    1    3    3  502    0 -0.56767574812E+02  0.19529702347E+02 -0.13462766685E+03  0.14746541258E+03  0.41800000000E+01 0. -1.
         -5    1    3    3    0  502  0.35487739606E+01 -0.40461788665E+01  0.26221706861E+02  0.27092723576E+02  0.41800000000E+01 0. -1.
        -11    1    4    4    0    0  0.36886247864E+02 -0.39118936929E+02 -0.66416522659E+02  0.85451980610E+02  0.00000000000E+00 0. -1.
         11    1    4    4    0    0  0.16332552987E+02  0.23635413449E+02  0.15413497061E+02  0.32603081873E+02  0.00000000000E+00 0.  1.
</event>
<event>
 8    1  0.7039283E-009  0.1065617E+03  0.7561462E-02  0.1267073E+00
         -2   -1    0    0    0  501 -0.00000000000E+00  0.00000000000E+00  0.37404748564E+02  0.37404748564E+02  0.00000000000E+00 0.  1.
          2   -1    0    0  501    0  0.00000000000E+00 -0.00000000000E+00 -0.34250284520E+03  0.34250284520E+03  0.00000000000E+00 0. -1.
         25    2    1    2    0    0  0.30899230354E+02 -0.29629408536E+01 -0.14766240643E+03  0.19600267530E+03  0.12509724616E+03 0.  0.
         23    2    1    2    0    0 -0.30899230354E+02  0.29629408536E+01 -0.15743569021E+03  0.18390491846E+03  0.89841421565E+02 0.  0.
          5    1    3    3  502    0  0.15893451893E+02 -0.63504703415E+02 -0.86353070389E+02  0.10844249321E+03  0.41800000000E+01 0.  1.
         -5    1    3    3    0  502  0.15005778461E+02  0.60541762561E+02 -0.61309336037E+02  0.87560182084E+02  0.41800000000E+01 0.  1.
        -11    1    4    4    0    0  0.45170028909E+01 -0.33721284112E+02 -0.10662067787E+03  0.11191736803E+03  0.00000000000E+00 0. -1.
         11    1    4    4    0    0 -0.35416233245E+02  0.36684224966E+02 -0.50815012341E+02  0.71987550436E+02  0.00000000000E+00 0.  1.
</event>
<event>
 8    1  0.7039283E-009  0.1165532E+03  0.7561462E-02  0.1248894E+00
         -1   -1    0    0    0  501 -0.00000000000E+00  0.00000000000E+00  0.40461716951E+02  0.40461716951E+02  0.00000000000E+00 0.  1.
          1   -1    0    0  501    0  0.00000000000E+00 -0.00000000000E+00 -0.40156641105E+03  0.40156641105E+03  0.00000000000E+00 0. -1.
         25    2    1    2    0    0  0.20133925989E+02  0.63979558352E+02 -0.18761261779E+03  0.23525476556E+03  0.12509017349E+03 0.  0.
         23    2    1    2    0    0 -0.20133925989E+02 -0.63979558352E+02 -0.17349207631E+03  0.20677336244E+03  0.90315912269E+02 0.  0.
          5    1    3    3  502    0  0.57149680030E+02  0.12036719694E+02 -0.15015740709E+03  0.16116974856E+03  0.41800000000E+01 0.  1.
         -5    1    3    3    0  502 -0.37015754042E+02  0.51942838658E+02 -0.37455210702E+02  0.74085017000E+02  0.41800000000E+01 0.  1.
        -11    1    4    4    0    0  0.34983978349E+02 -0.21695292381E+02 -0.47145284931E+02  0.62587876972E+02  0.00000000000E+00 0.  1.
         11    1    4    4    0    0 -0.55117904338E+02 -0.42284265971E+02 -0.12634679138E+03  0.14418548546E+03  0.00000000000E+00 0. -1.
</event>
<event>
 8    1  0.7039283E-009  0.1536779E+03  0.7561462E-02  0.1196025E+00
          1   -1    0    0  501    0  0.00000000000E+00  0.00000000000E+00  0.18591763086E+03  0.18591763086E+03  0.00000000000E+00 0. -1.
         -1   -1    0    0    0  501 -0.00000000000E+00 -0.00000000000E+00 -0.16212749702E+03  0.16212749702E+03  0.00000000000E+00 0.  1.
         25    2    1    2    0    0  0.79167824472E+01 -0.13040507142E+03  0.48889742889E+02  0.18736283841E+03  0.12508584316E+03 0.  0.
         23    2    1    2    0    0 -0.79167824472E+01  0.13040507142E+03 -0.25099609042E+02  0.16068228947E+03  0.90114647412E+02 0.  0.
          5    1    3    3  502    0  0.43054345885E+02 -0.12259292029E+03  0.45248574018E+01  0.13007938937E+03  0.41800000000E+01 0.  1.
         -5    1    3    3    0  502 -0.35137563438E+02 -0.78121511381E+01  0.44364885487E+02  0.57283449041E+02  0.41800000000E+01 0.  1.
        -11    1    4    4    0    0  0.22975571036E+02  0.59060195631E+02  0.25074254352E+02  0.68152049152E+02  0.00000000000E+00 0. -1.
         11    1    4    4    0    0 -0.30892353483E+02  0.71344875793E+02 -0.50173863394E+02  0.92530240319E+02  0.00000000000E+00 0.  1.
</event>
<event>
 8    1  0.7039283E-009  0.1098738E+03  0.7561462E-02  0.1260804E+00
         -2   -1    0    0    0  501 -0.00000000000E+00  0.00000000000E+00  0.20529332052E+03  0.20529332052E+03  0.00000000000E+00 0.  1.
          2   -1    0    0  501    0  0.00000000000E+00 -0.00000000000E+00 -0.13745000017E+03  0.13745000017E+03  0.00000000000E+00 0. -1.
         25    2    1    2    0    0  0.29811283087E+01  0.36033654675E+02  0.15910387801E+03  0.20558624658E+03  0.12507737360E+03 0.  0.
         23    2    1    2    0    0 -0.29811283087E+01 -0.36033654675E+02 -0.91260557663E+02  0.13715707411E+03  0.95792808696E+02 0.  0.
          5    1    3    3  502    0 -0.54188219559E+02  0.14035462078E+02  0.32455090389E+02  0.64839514394E+02  0.41800000000E+01 0.  1.
         -5    1    3    3    0  502  0.57169347867E+02  0.21998192597E+02  0.12664878762E+03  0.14074673218E+03  0.41800000000E+01 0.  1.
        -11    1    4    4    0    0  0.16850393658E+02  0.29376912091E+02 -0.34029691026E+02  0.48009984397E+02  0.00000000000E+00 0. -1.
         11    1    4    4    0    0 -0.19831521967E+02 -0.65410566766E+02 -0.57230866637E+02  0.89147089713E+02  0.00000000000E+00 0.  1.
</event>
<event>
 8    1  0.7039283E-009  0.8789763E+02  0.7561462E-02  0.1308024E+00
         -2   -1    0    0    0  501 -0.00000000000E+00  0.00000000000E+00  0.84021761684E+02  0.84021761684E+02  0.00000000000E+00 0. -1.
          2   -1    0    0  501    0  0.00000000000E+00 -0.00000000000E+00 -0.14522590484E+03  0.14522590484E+03  0.00000000000E+00 0.  1.
         25    2    1    2    0    0 -0.11107938201E+01  0.21457160927E+02 -0.35975680481E+02  0.13192062616E+03  0.12508860221E+03 0.  0.
         23    2    1    2    0    0  0.11107938201E+01 -0.21457160927E+02 -0.25228462676E+02  0.97327040364E+02  0.91511932769E+02 0.  0.
          5    1    3    3  502    0 -0.27845630538E+02 -0.28238665933E+02  0.26305452708E+02  0.47772906924E+02  0.41800000000E+01 0.  1.
         -5    1    3    3    0  502  0.26734836718E+02  0.49695826860E+02 -0.62281133189E+02  0.84147719238E+02  0.41800000000E+01 0.  1.
        -11    1    4    4    0    0  0.36121451669E+02  0.35672959215E+01 -0.37888214340E+02  0.52469054277E+02  0.00000000000E+00 0.  1.
         11    1    4    4    0    0 -0.35010657849E+02 -0.25024456849E+02  0.12659751664E+02  0.44857986087E+02  0.00000000000E+00 0. -1.
</event>
<event>
 8    1  0.7039283E-009  0.8076864E+02  0.7561462E-02  0.1326884E+00
         -2   -1    0    0    0  501 -0.00000000000E+00  0.00000000000E+00  0.35818485498E+03  0.35818485498E+03  0.00000000000E+00 0.  1.
          2   -1    0    0  501    0  0.00000000000E+00 -0.00000000000E+00 -0.56044664470E+02  0.56044664470E+02  0.00000000000E+00 0. -1.
         25    2    1    2    0    0 -0.12144462905E+02  0.74965079009E+02  0.23709827561E+03  0.27862200389E+03  0.12508947880E+03 0.  0.
         23    2    1    2    0    0  0.12144462905E+02 -0.74965079009E+02  0.65041914898E+02  0.13560751555E+03  0.91606203563E+02 0.  0.
          5    1    3    3  502    0 -0.42748567507E+01  0.62211239070E+02  0.25044372545E+03  0.25812408776E+03  0.41800000000E+01 0.  1.
         -5    1    3    3    0  502 -0.78696061540E+01  0.12753839940E+02 -0.13345449840E+02  0.20497916129E+02  0.41800000000E+01 0.  1.
        -11    1    4    4    0    0  0.17241924361E+02 -0.13747866429E+02  0.70565220590E+02  0.73930630621E+02  0.00000000000E+00 0.  1.
         11    1    4    4    0    0 -0.50974614563E+01 -0.61217212581E+02 -0.55233056919E+01  0.61676884934E+02  0.00000000000E+00 0. -1.
</event>
<event>
 8    1  0.7039283E-009  0.1019570E+03  0.7561462E-02  0.1276234E+00
         -1   -1    0    0    0  501 -0.00000000000E+00  0.00000000000E+00  0.63656276036E+02  0.63656276036E+02  0.00000000000E+00 0.  1.
          1   -1    0    0  501    0  0.00000000000E+00 -0.00000000000E+00 -0.26019509567E+03  0.26019509567E+03  0.00000000000E+00 0. -1.
         25    2    1    2    0    0  0.63075149665E+02  0.18492683638E+02 -0.12821045216E+03  0.19080121933E+03  0.12508689540E+03 0.  0.
         23    2    1    2    0    0 -0.63075149665E+02 -0.18492683638E+02 -0.68328367475E+02  0.13305015238E+03  0.93344112794E+02 0.  0.
          5    1    3    3  502    0 -0.34266379746E+02  0.21496923724E+02 -0.57281689873E+02  0.70249319607E+02  0.41800000000E+01 0.  1.
         -5    1    3    3    0  502  0.97341529411E+02 -0.30042400854E+01 -0.70928762290E+02  0.12055189972E+03  0.41800000000E+01 0.  1.
        -11    1    4    4    0    0 -0.36284725965E+02 -0.11813480856E+02  0.18160946390E+02  0.42260615733E+02  0.00000000000E+00 0.  1.
         11    1    4    4    0    0 -0.26790423699E+02 -0.66792027820E+01 -0.86489313865E+02  0.90789536647E+02  0.00000000000E+00 0. -1.
</event>
<event>
 8    1  0.7039283E-009  0.1565895E+03  0.7561462E-02  0.1192602E+00
         -2   -1    0    0    0  501 -0.00000000000E+00  0.00000000000E+00  0.13327227458E+03  0.13327227458E+03  0.00000000000E+00 0.  1.
          2   -1    0    0  501    0  0.00000000000E+00 -0.00000000000E+00 -0.25516866325E+03  0.25516866325E+03  0.00000000000E+00 0. -1.
         25    2    1    2    0    0 -0.71151878091E+02  0.81217966310E+02  0.38762999058E+02  0.16973410247E+03  0.12509255628E+03 0.  0.
         23    2    1    2    0    0  0.71151878091E+02 -0.81217966310E+02 -0.16065938773E+03  0.21870683536E+03  0.10179534940E+03 0.  0.
          5    1    3    3  502    0 -0.89968819182E+02  0.93923699498E+01  0.15963936501E+02  0.91950664527E+02  0.41800000000E+01 0.  1.
         -5    1    3    3    0  502  0.18816941091E+02  0.71825596360E+02  0.22799062557E+02  0.77783437941E+02  0.41800000000E+01 0.  1.
        -11    1    4    4    0    0 -0.26281663419E+02 -0.21710474885E+02 -0.40990027393E+02  0.53312783622E+02  0.00000000000E+00 0. -1.
         11    1    4    4    0    0  0.97433541509E+02 -0.59507491425E+02 -0.11966936034E+03  0.16539405174E+03  0.00000000000E+00 0.  1.
</event>
<event>
 8    1  0.7039283E-009  0.1157612E+03  0.7561462E-02  0.1250258E+00
         -2   -1    0    0    0  501 -0.00000000000E+00  0.00000000000E+00  0.52844270697E+02  0.52844270697E+02  0.00000000000E+00 0. -1.
          2   -1    0    0  501    0  0.00000000000E+00 -0.00000000000E+00 -0.28449740710E+03  0.28449740710E+03  0.00000000000E+00 0.  1.
         25    2    1    2    0    0 -0.32080576553E+02  0.22611806370E+02 -0.94472718252E+02  0.16160408840E+03  0.12510127782E+03 0.  0.
         23    2    1    2    0    0  0.32080576553E+02 -0.22611806370E+02 -0.13718041815E+03  0.17573758940E+03  0.10259033105E+03 0.  0.
          5    1    3    3  502    0  0.43070937935E+02  0.31214896886E+02 -0.25439453253E+02  0.59111028277E+02  0.41800000000E+01 0. -1.
         -5    1    3    3    0  502 -0.75151514487E+02 -0.86030905160E+01 -0.69033264999E+02  0.10249306012E+03  0.41800000000E+01 0. -1.
        -11    1    4    4    0    0 -0.29356047877E+02 -0.28214320368E+02 -0.87570070453E+02  0.96572991359E+02  0.00000000000E+00 0.  1.
         11    1    4    4    0    0  0.61436624429E+02  0.56025139977E+01 -0.49610347696E+02  0.79164598041E+02  0.00000000000E+00 0. -1.
</event>
<event>
 8    1  0.7039283E-009  0.6892518E+02  0.7561462E-02  0.1363787E+00
         -2   -1    0    0    0  501 -0.00000000000E+00  0.00000000000E+00  0.17188957402E+03  0.17188957402E+03  0.00000000000E+00 0. -1.
          2   -1    0    0  501    0  0.00000000000E+00 -0.00000000000E+00 -0.80451205898E+02  0.80451205898E+02  0.00000000000E+00 0.  1.
         25    2    1    2    0    0 -0.43967775811E+02  0.14612076515E+02  0.53500483034E+02  0.14373088991E+03  0.12509831710E+03 0.  0.
         23    2    1    2    0    0  0.43967775811E+02 -0.14612076515E+02  0.37937885091E+02  0.10860989001E+03  0.90609861452E+02 0.  0.
          5    1    3    3  502    0 -0.51516887659E+01  0.20260128484E+01  0.89129250632E+02  0.89398771488E+02  0.41800000000E+01 0.  1.
         -5    1    3    3    0  502 -0.38816087045E+02  0.12586063667E+02 -0.35628767599E+02  0.54332118426E+02  0.41800000000E+01 0.  1.
        -11    1    4    4    0    0 -0.80102413878E+01 -0.33611622086E+02  0.40465521288E+02  0.53210558346E+02  0.00000000000E+00 0. -1.
         11    1    4    4    0    0  0.51978017199E+02  0.18999545571E+02 -0.25276361971E+01  0.55399331661E+02  0.00000000000E+00 0.  1.
</event>
<event>
 8    1  0.7039283E-009  0.1124537E+03  0.7561462E-02  0.1256092E+00
          4   -1    0    0  501    0  0.00000000000E+00  0.00000000000E+00  0.19209118374E+03  0.19209118374E+03  0.00000000000E+00 0.  1.
         -4   -1    0    0    0  501 -0.00000000000E+00 -0.00000000000E+00 -0.89853781558E+02  0.89853781558E+02  0.00000000000E+00 0. -1.
         25    2    1    2    0    0  0.23976320570E+02  0.67735704414E+02  0.82878690628E+02  0.16637062345E+03  0.12508923770E+03 0.  0.
         23    2    1    2    0    0 -0.23976320570E+02 -0.67735704414E+02  0.19358711556E+02  0.11557434185E+03  0.88428949895E+02 0.  0.
          5    1    3    3  502    0 -0.30764188757E+02  0.40368589982E+02 -0.12988829375E+02  0.52557020992E+02  0.41800000000E+01 0.  1.
         -5    1    3    3    0  502  0.54740509327E+02  0.27367114432E+02  0.95867520003E+02  0.11381360246E+03  0.41800000000E+01 0.  1.
        -11    1    4    4    0    0  0.66148735261E+01 -0.79564681997E+02  0.56904402654E+01  0.80041715895E+02  0.00000000000E+00 0. -1.
         11    1    4    4    0    0 -0.30591194096E+02  0.11828977583E+02  0.13668271290E+02  0.35532625951E+02  0.00000000000E+00 0.  1.
</event>
<event>
 8    1  0.7039283E-009  0.1221345E+03  0.7561462E-02  0.1239617E+00
         -2   -1    0    0    0  501 -0.00000000000E+00  0.00000000000E+00  0.74173598147E+02  0.74173598147E+02  0.00000000000E+00 0.  1.
          2   -1    0    0  501    0  0.00000000000E+00 -0.00000000000E+00 -0.29775768344E+03  0.29775768344E+03  0.00000000000E+00 0. -1.
         25    2    1    2    0    0 -0.13981000461E+02  0.68599511498E+02 -0.32323251440E+02  0.14694714949E+03  0.12508921140E+03 0.  0.
         23    2    1    2    0    0  0.13981000461E+02 -0.68599511498E+02 -0.19126083386E+03  0.22498413210E+03  0.95581335921E+02 0.  0.
          5    1    3    3  502    0 -0.44999694450E+02  0.80840809491E+02  0.97175745029E+01  0.93124178568E+02  0.41800000000E+01 0. -1.
         -5    1    3    3    0  502  0.31018693989E+02 -0.12241297992E+02 -0.42040825943E+02  0.53822970926E+02  0.41800000000E+01 0. -1.
        -11    1    4    4    0    0 -0.41038803179E+02 -0.28546336925E+02 -0.71606209038E+02  0.87329982772E+02  0.00000000000E+00 0.  1.
         11    1    4    4    0    0  0.55019803640E+02 -0.40053174573E+02 -0.11965462482E+03  0.13765414933E+03  0.00000000000E+00 0. -1.
</event>
<event>
 8    1  0.7039283E-009  0.1119196E+03  0.7561462E-02  0.1257056E+00
          4   -1    0    0  501    0  0.00000000000E+00  0.00000000000E+00  0.30181026497E+03  0.30181026497E+03  0.00000000000E+00 0. -1.
         -4   -1    0    0    0  501 -0.00000000000E+00 -0.00000000000E+00 -0.81849603796E+02  0.81849603796E+02  0.00000000000E+00 0.  1.
         25    2    1    2    0    0 -0.37580661384E+02  0.57624128891E+02  0.83914569915E+01  0.14300515504E+03  0.12508881436E+03 0.  0.
         23    2    1    2    0    0  0.37580661384E+02 -0.57624128891E+02  0.21156920418E+03  0.24065471372E+03  0.91762283856E+02 0.  0.
          5    1    3    3  502    0 -0.18182038199E+02  0.84588831273E+02  0.41385124863E+02  0.96000301296E+02  0.41800000000E+01 0. -1.
         -5    1    3    3    0  502 -0.19398623186E+02 -0.26964702382E+02 -0.32993667871E+02  0.47004853745E+02  0.41800000000E+01 0. -1.
        -11    1    4    4    0    0  0.44335144831E+02  0.13720389364E+01  0.42382058671E+02  0.61349217234E+02  0.00000000000E+00 0.  1.
         11    1    4    4    0    0 -0.67544834473E+01 -0.58996167827E+02  0.16918714551E+03  0.17930549649E+03  0.00000000000E+00 0. -1.
</event>
<event>
 8    1  0.7039283E-009  0.1880634E+03  0.7561462E-02  0.1160220E+00
          1   -1    0    0  501    0  0.00000000000E+00  0.00000000000E+00  0.41078798784E+03  0.41078798784E+03  0.00000000000E+00 0. -1.
         -1   -1    0    0    0  501 -0.00000000000E+00 -0.00000000000E+00 -0.12654704990E+03  0.12654704990E+03  0.00000000000E+00 0.  1.
         25    2    1    2    0    0 -0.17496723145E+03  0.10435070243E+02  0.32476201687E+02  0.21777172592E+03  0.12508956057E+03 0.  0.
         23    2    1    2    0    0  0.17496723145E+03 -0.10435070243E+02  0.25176473625E+03  0.31956331181E+03  0.89514272965E+02 0.  0.
          5    1    3    3  502    0 -0.62908408562E+02 -0.23700548359E+02 -0.41547022855E+02  0.79137926233E+02  0.41800000000E+01 0.  1.
         -5    1    3    3    0  502 -0.11205882289E+03  0.34135618602E+02  0.74023224542E+02  0.13863379969E+03  0.41800000000E+01 0.  1.
        -11    1    4    4    0    0  0.65904983343E+02  0.33554545472E+02  0.62940363491E+02  0.97112634130E+02  0.00000000000E+00 0.  1.
         11    1    4    4    0    0  0.10906224811E+03 -0.43989615715E+02  0.18882437276E+03  0.22245067768E+03  0.00000000000E+00 0. -1.
</event>
<event>
 8    1  0.7039283E-009  0.1163685E+03  0.7561462E-02  0.1249211E+00
         -1   -1    0    0    0  501 -0.00000000000E+00  0.00000000000E+00  0.38228248915E+02  0.38228248915E+02  0.00000000000E+00 0.  1.
          1   -1    0    0  501    0  0.00000000000E+00 -0.00000000000E+00 -0.47428438113E+03  0.47428438113E+03  0.00000000000E+00 0. -1.
         25    2    1    2    0    0 -0.12279660710E+02 -0.51142218463E+02 -0.36791078765E+03  0.39213892403E+03  0.12509305133E+03 0.  0.
         23    2    1    2    0    0  0.12279660710E+02  0.51142218463E+02 -0.68145344569E+02  0.12037370602E+03  0.84141098987E+02 0.  0.
          5    1    3    3  502    0 -0.62568623228E+02 -0.17818811113E+00 -0.19857548666E+03  0.20824159206E+03  0.41800000000E+01 0. -1.
         -5    1    3    3    0  502  0.50288962518E+02 -0.50964030352E+02 -0.16933530099E+03  0.18389733196E+03  0.41800000000E+01 0. -1.
        -11    1    4    4    0    0  0.37716100974E+02 -0.36574586026E+01 -0.18452185587E+02  0.42146938549E+02  0.00000000000E+00 0.  1.
         11    1    4    4    0    0 -0.25436440264E+02  0.54799677066E+02 -0.49693158982E+02  0.78226767474E+02  0.00000000000E+00 0. -1.
</event>
<event>
 8    1  0.7039283E-009  0.7797665E+02  0.7561462E-02  0.1334893E+00
          4   -1    0    0  501    0  0.00000000000E+00  0.00000000000E+00  0.22484813477E+03  0.22484813477E+03  0.00000000000E+00 0.  1.
         -4   -1    0    0    0  501 -0.00000000000E+00 -0.00000000000E+00 -0.54182719990E+02  0.54182719990E+02  0.00000000000E+00 0. -1.
         25    2    1    2    0    0  0.78552350405E+01  0.36511247562E+00  0.12689385634E+03  0.17835816324E+03  0.12509094929E+03 0.  0.
         23    2    1    2    0    0 -0.78552350405E+01 -0.36511247562E+00  0.43771558442E+02  0.10067269152E+03  0.90317237916E+02 0.  0.
          5    1    3    3  502    0 -0.28435386154E+02 -0.24304996111E+01 -0.14508196581E+02  0.32286819015E+02  0.41800000000E+01 0.  1.
         -5    1    3    3    0  502  0.36290621195E+02  0.27956120867E+01  0.14140205292E+03  0.14607134423E+03  0.41800000000E+01 0.  1.
        -11    1    4    4    0    0 -0.25923378074E+02  0.39188820713E+02  0.25954510591E+02  0.53678876848E+02  0.00000000000E+00 0. -1.
         11    1    4    4    0    0  0.18068143034E+02 -0.39553933188E+02  0.17817047851E+02  0.46993814672E+02  0.00000000000E+00 0.  1.
</event>
<event>
 8    1  0.7039283E-009  0.1226873E+03  0.7561462E-02  0.1238729E+00
         -1   -1    0    0    0  501 -0.00000000000E+00  0.00000000000E+00  0.31926724491E+02  0.31926724491E+02  0.00000000000E+00 0.  1.
          1   -1    0    0  501    0  0.00000000000E+00 -0.00000000000E+00 -0.56043120835E+03  0.56043120835E+03  0.00000000000E+00 0. -1.
         25    2    1    2    0    0  0.71171328910E+02  0.15450818416E+02 -0.23034342947E+03  0.27204694119E+03  0.12508939549E+03 0.  0.
         23    2    1    2    0    0 -0.71171328910E+02 -0.15450818416E+02 -0.29816105439E+03  0.32031099165E+03  0.91624402692E+02 0.  0.
          5    1    3    3  502    0  0.10411318399E+03 -0.13442300643E+01 -0.14154176404E+03  0.17576377728E+03  0.41800000000E+01 0.  1.
         -5    1    3    3    0  502 -0.32941855085E+02  0.16795048480E+02 -0.88801665424E+02  0.96283163907E+02  0.41800000000E+01 0.  1.
        -11    1    4    4    0    0 -0.55029821435E+02  0.24971945877E+02 -0.95390032153E+02  0.11292093500E+03  0.00000000000E+00 0.  1.
         11    1    4    4    0    0 -0.16141507475E+02 -0.40422764293E+02 -0.20277102224E+03  0.20739005665E+03  0.00000000000E+00 0. -1.
</event>
<event>
 8    1  0.7039283E-009  0.9745964E+02  0.7561462E-02  0.1285730E+00
          2   -1    0    0  501    0  0.00000000000E+00  0.00000000000E+00  0.54758254680E+03  0.54758254680E+03  0.00000000000E+00 0. -1.
         -2   -1    0    0    0  501 -0.00000000000E+00 -0.00000000000E+00 -0.30522451840E+02  0.30522451840E+02  0.00000000000E+00 0.  1.
         25    2    1    2    0    0 -0.14481532015E+02  0.50831732973E+01  0.13309644308E+03  0.18328612609E+03  0.12507432764E+03 0.  0.
         23    2    1    2    0    0  0.14481532015E+02 -0.50831732973E+01  0.38396365187E+03  0.39481887255E+03  0.90654855030E+02 0.  0.
          5    1    3    3  502    0 -0.49145623432E+02 -0.31196465796E+02  0.23947405565E+02  0.63082980382E+02  0.41800000000E+01 0. -1.
         -5    1    3    3    0  502  0.34664091417E+02  0.36279639093E+02  0.10914903752E+03  0.12020314570E+03  0.41800000000E+01 0. -1.
        -11    1    4    4    0    0 -0.79284596586E+01 -0.42151658347E+02  0.12250413309E+03  0.12979555230E+03  0.00000000000E+00 0.  1.
         11    1    4    4    0    0  0.22409991674E+02  0.37068485050E+02  0.26145951879E+03  0.26502332025E+03  0.00000000000E+00 0. -1.
</event>
<event>
 8    1  0.7039283E-009  0.1151454E+03  0.7561462E-02  0.1251328E+00
         -1   -1    0    0    0  501 -0.00000000000E+00  0.00000000000E+00  0.44018349950E+02  0.44018349950E+02  0.00000000000E+00 0.  1.
          1   -1    0    0  501    0  0.00000000000E+00 -0.00000000000E+00 -0.44211017134E+03  0.44211017134E+03  0.00000000000E+00 0. -1.
         25    2    1    2    0    0 -0.14104477816E+02 -0.66617937254E+02 -0.31528604478E+03  0.34596301114E+03  0.12509288223E+03 0.  0.
         23    2    1    2    0    0  0.14104477816E+02  0.66617937254E+02 -0.82805776613E+02  0.14016551015E+03  0.90292235200E+02 0.  0.
          5    1    3    3  502    0  0.36959537739E+02  0.25569325542E+01 -0.19207241777E+03  0.19565743380E+03  0.41800000000E+01 0.  1.
         -5    1    3    3    0  502 -0.51064015555E+02 -0.69174869808E+02 -0.12321362701E+03  0.15030557734E+03  0.41800000000E+01 0.  1.
        -11    1    4    4    0    0  0.37181353355E+02  0.81170868168E+00 -0.82789156745E+01  0.38100555810E+02  0.00000000000E+00 0.  1.
         11    1    4    4    0    0 -0.23076875539E+02  0.65806228573E+02 -0.74526860938E+02  0.10206495434E+03  0.00000000000E+00 0. -1.
</event>
<event>
 8    1  0.7039283E-009  0.8879824E+02  0.7561462E-02  0.1305788E+00
          2   -1    0    0  501    0  0.00000000000E+00  0.00000000000E+00  0.10567842350E+04  0.10567842350E+04  0.00000000000E+00 0.  1.
         -2   -1    0    0    0  501 -0.00000000000E+00 -0.00000000000E+00 -0.14121098983E+02  0.14121098983E+02  0.00000000000E+00 0. -1.
         25    2    1    2    0    0 -0.10771931257E+01 -0.73516584663E+01  0.82988271680E+03  0.83929058187E+03  0.12509256553E+03 0.  0.
         23    2    1    2    0    0  0.10771931257E+01  0.73516584663E+01  0.21278041922E+03  0.23161475211E+03  0.91184863686E+02 0.  0.
          5    1    3    3  502    0  0.15647348487E+01  0.39525987765E+02  0.96255999954E+02  0.10415105391E+03  0.41800000000E+01 0.  1.
         -5    1    3    3    0  502 -0.26419279744E+01 -0.46877646232E+02  0.73362671685E+03  0.73513952796E+03  0.41800000000E+01 0.  1.
        -11    1    4    4    0    0 -0.27658201133E+02 -0.31781561126E+02  0.83695225462E+02  0.93701304594E+02  0.00000000000E+00 0.  1.
         11    1    4    4    0    0  0.28735394259E+02  0.39133219592E+02  0.12908519376E+03  0.13791344752E+03  0.00000000000E+00 0. -1.
</event>
<event>
 8    1  0.7039283E-009  0.1629680E+03  0.7561462E-02  0.1185386E+00
          2   -1    0    0  501    0  0.00000000000E+00  0.00000000000E+00  0.22209366750E+03  0.22209366750E+03  0.00000000000E+00 0. -1.
         -2   -1    0    0    0  501 -0.00000000000E+00 -0.00000000000E+00 -0.15502678419E+03  0.15502678419E+03  0.00000000000E+00 0.  1.
         25    2    1    2    0    0  0.71145999847E+02 -0.12992711615E+03  0.56966175054E+02  0.20207739738E+03  0.12508925064E+03 0.  0.
         23    2    1    2    0    0 -0.71145999847E+02  0.12992711615E+03  0.10100708258E+02  0.17504305431E+03  0.92710505061E+02 0.  0.
          5    1    3    3  502    0  0.65408131242E+02 -0.94187185952E+02 -0.20412315512E+02  0.11654863643E+03  0.41800000000E+01 0. -1.
         -5    1    3    3    0  502  0.57378686050E+01 -0.35739930200E+02  0.77378490566E+02  0.85528760947E+02  0.41800000000E+01 0. -1.
        -11    1    4    4    0    0  0.20812428154E+02  0.44978675138E+02  0.30907376498E+01  0.49656732092E+02  0.00000000000E+00 0.  1.
         11    1    4    4    0    0 -0.91958428001E+02  0.84948441014E+02  0.70099706082E+01  0.12538632222E+03  0.00000000000E+00 0. -1.
</event>
<event>
 8    1  0.7039283E-009  0.1264891E+03  0.7561462E-02  0.1232760E+00
          1   -1    0    0  501    0  0.00000000000E+00  0.00000000000E+00  0.21366672637E+02  0.21366672637E+02  0.00000000000E+00 0. -1.
         -1   -1    0    0    0  501 -0.00000000000E+00 -0.00000000000E+00 -0.87099114555E+03  0.87099114555E+03  0.00000000000E+00 0.  1.
         25    2    1    2    0    0  0.22274293666E+02  0.66151148944E+02 -0.31219474703E+03  0.34348925328E+03  0.12508872206E+03 0.  0.
         23    2    1    2    0    0 -0.22274293666E+02 -0.66151148944E+02 -0.53742972589E+03  0.54886856491E+03  0.86913017478E+02 0.  0.
          5    1    3    3  502    0  0.55980719454E+02 -0.11941104509E+02 -0.10941656046E+03  0.12355519831E+03  0.41800000000E+01 0. -1.
         -5    1    3    3    0  502 -0.33706425787E+02  0.78092253453E+02 -0.20277818657E+03  0.21993405497E+03  0.41800000000E+01 0. -1.
        -11    1    4    4    0    0  0.17698354210E+02 -0.68143823115E+02 -0.37733837681E+03  0.38385031325E+03  0.00000000000E+00 0.  1.
         11    1    4    4    0    0 -0.39972647877E+02  0.19926741711E+01 -0.16009134908E+03  0.16501825166E+03  0.00000000000E+00 0. -1.
</event>
<event>
 8    1  0.7039283E-009  0.1421866E+03  0.7561462E-02  0.1210417E+00
         -1   -1    0    0    0  501 -0.00000000000E+00  0.00000000000E+00  0.17297014516E+04  0.17297014516E+04  0.00000000000E+00 0.  1.
          1   -1    0    0  501    0  0.00000000000E+00 -0.00000000000E+00 -0.13865233474E+02  0.13865233474E+02  0.00000000000E+00 0. -1.
         25    2    1    2    0    0  0.10784429142E+03 -0.46547165510E+01  0.10537807108E+04  0.10666553811E+04  0.12509139909E+03 0.  0.
         23    2    1    2    0    0 -0.10784429142E+03  0.46547165510E+01  0.66205550732E+03  0.67691130391E+03  0.90770925996E+02 0.  0.
          5    1    3    3  502    0  0.13222969636E+03  0.29754673653E+01  0.96944850917E+03  0.97843826087E+03  0.41800000000E+01 0.  1.
         -5    1    3    3    0  502 -0.24385404934E+02 -0.76301839163E+01  0.84332201615E+02  0.88217120275E+02  0.41800000000E+01 0.  1.
        -11    1    4    4    0    0  0.29835839946E+01  0.14579485638E+02  0.18190943339E+02  0.23502629523E+02  0.00000000000E+00 0. -1.
         11    1    4    4    0    0 -0.11082787542E+03 -0.99247690866E+01  0.64386456399E+03  0.65340867439E+03  0.00000000000E+00 0.  1.
</event>
<event>
 8    1  0.7039283E-009  0.2553072E+03  0.7561462E-02  0.1109996E+00
          2   -1    0    0  501    0  0.00000000000E+00  0.00000000000E+00  0.22172129908E+03  0.22172129908E+03  0.00000000000E+00 0. -1.
         -2   -1    0    0    0  501 -0.00000000000E+00 -0.00000000000E+00 -0.30610202141E+03  0.30610202141E+03  0.00000000000E+00 0.  1.
         25    2    1    2    0    0 -0.22311341742E+03  0.71856384763E+02 -0.70354270725E+02  0.27484662622E+03  0.12509199603E+03 0.  0.
         23    2    1    2    0    0  0.22311341742E+03 -0.71856384763E+02 -0.14026451605E+02  0.25297669427E+03  0.94114448577E+02 0.  0.
          5    1    3    3  502    0 -0.13002631107E+03  0.10241586240E+03 -0.27543347802E+02  0.16784504416E+03  0.41800000000E+01 0.  1.
         -5    1    3    3    0  502 -0.93087106355E+02 -0.30559477633E+02 -0.42810922922E+02  0.10700158206E+03  0.41800000000E+01 0.  1.
        -11    1    4    4    0    0  0.21651899227E+03 -0.47394382635E+02 -0.29020098070E+02  0.22353717278E+03  0.00000000000E+00 0.  1.
         11    1    4    4    0    0  0.65944251498E+01 -0.24462002128E+02  0.14993646465E+02  0.29439521489E+02  0.00000000000E+00 0. -1.
</event>
<event>
 8    1  0.7039283E-009  0.1088322E+03  0.7561462E-02  0.1262748E+00
         -2   -1    0    0    0  501 -0.00000000000E+00  0.00000000000E+00  0.63976583385E+02  0.63976583385E+02  0.00000000000E+00 0.  1.
          2   -1    0    0  501    0  0.00000000000E+00 -0.00000000000E+00 -0.27638730994E+03  0.27638730994E+03  0.00000000000E+00 0. -1.
         25    2    1    2    0    0  0.67372258566E+01 -0.72996816241E+02 -0.11770726725E+03  0.18675207359E+03  0.12508961122E+03 0.  0.
         23    2    1    2    0    0 -0.67372258566E+01  0.72996816241E+02 -0.94703459309E+02  0.15361181973E+03  0.96197300188E+02 0.  0.
          5    1    3    3  502    0 -0.13887963854E+02  0.29017192546E+02 -0.58621653182E+02  0.66998833013E+02  0.41800000000E+01 0. -1.
         -5    1    3    3    0  502  0.20625189711E+02 -0.10201400879E+03 -0.59085614063E+02  0.11975324058E+03  0.41800000000E+01 0. -1.
        -11    1    4    4    0    0 -0.20826070381E+02  0.48883025973E+02  0.17833745746E+01  0.53164422884E+02  0.00000000000E+00 0.  1.
         11    1    4    4    0    0  0.14088844524E+02  0.24113790268E+02 -0.96486833884E+02  0.10044739685E+03  0.00000000000E+00 0. -1.
</event>
<event>
 8    1  0.7039283E-009  0.1200750E+03  0.7561462E-02  0.1242973E+00
         -2   -1    0    0    0  501 -0.00000000000E+00  0.00000000000E+00  0.54607130228E+02  0.54607130228E+02  0.00000000000E+00 0.  1.
          2   -1    0    0  501    0  0.00000000000E+00 -0.00000000000E+00 -0.47425916110E+03  0.47425916110E+03  0.00000000000E+00 0. -1.
         25    2    1    2    0    0  0.40088645062E+02 -0.98924249254E+02 -0.14444564409E+03  0.21887392288E+03  0.12509253960E+03 0.  0.
         23    2    1    2    0    0 -0.40088645062E+02  0.98924249254E+02 -0.27520638678E+03  0.30999236845E+03  0.94676325560E+02 0.  0.
          5    1    3    3  502    0  0.42885852319E+02 -0.74564098408E+02 -0.16531715327E+03  0.18640341914E+03  0.41800000000E+01 0.  1.
         -5    1    3    3    0  502 -0.27972072572E+01 -0.24360150846E+02  0.20871509178E+02  0.32470503738E+02  0.41800000000E+01 0.  1.
        -11    1    4    4    0    0 -0.32416072317E+02  0.25916555896E+01 -0.22792240579E+02  0.39711517898E+02  0.00000000000E+00 0.  1.
         11    1    4    4    0    0 -0.76725727447E+01  0.96332593665E+02 -0.25241414620E+03  0.27028085055E+03  0.00000000000E+00 0. -1.
</event>
<event>
 8    1  0.7039283E-009  0.1032483E+03  0.7561462E-02  0.1273610E+00
         -2   -1    0    0    0  501 -0.00000000000E+00  0.00000000000E+00  0.47358306863E+02  0.47358306863E+02  0.00000000000E+00 0.  1.
          2   -1    0    0  501    0  0.00000000000E+00 -0.00000000000E+00 -0.39023319213E+03  0.39023319213E+03  0.00000000000E+00 0. -1.
         25    2    1    2    0    0  0.20487550001E+02 -0.69300452259E+02 -0.12923909976E+03  0.19383497620E+03  0.12508781197E+03 0.  0.
         23    2    1    2    0    0 -0.20487550001E+02  0.69300452259E+02 -0.21363578550E+03  0.24375652279E+03  0.92491627545E+02 0.  0.
          5    1    3    3  502    0 -0.35874338485E+02 -0.15911702813E+01 -0.90597994974E+02  0.97544702972E+02  0.41800000000E+01 0. -1.
         -5    1    3    3    0  502  0.56361888486E+02 -0.67709281977E+02 -0.38641104787E+02  0.96290273230E+02  0.41800000000E+01 0. -1.
        -11    1    4    4    0    0  0.11696119311E+02  0.22351280084E+02 -0.28109198279E+01  0.25382675166E+02  0.00000000000E+00 0.  1.
         11    1    4    4    0    0 -0.32183669311E+02  0.46949172175E+02 -0.21082486567E+03  0.21837384762E+03  0.00000000000E+00 0. -1.
</event>
<event>
 8    1  0.7039283E-009  0.1661778E+03  0.7561462E-02  0.1181893E+00
          2   -1    0    0  501    0  0.00000000000E+00  0.00000000000E+00  0.28698452699E+03  0.28698452699E+03  0.00000000000E+00 0. -1.
         -2   -1    0    0    0  501 -0.00000000000E+00 -0.00000000000E+00 -0.12518926351E+03  0.12518926351E+03  0.00000000000E+00 0.  1.
         25    2    1    2    0    0  0.12238507544E+03 -0.56262570776E+02  0.16802534627E+03  0.24904577066E+03  0.12509074839E+03 0.  0.
         23    2    1    2    0    0 -0.12238507544E+03  0.56262570776E+02 -0.62300827805E+01  0.16312801984E+03  0.91806063875E+02 0.  0.
          5    1    3    3  502    0  0.47781577930E+02  0.39627772663E+02  0.54371830051E+02  0.82626919698E+02  0.41800000000E+01 0. -1.
         -5    1    3    3    0  502  0.74603497513E+02 -0.95890343439E+02  0.11365351622E+03  0.16641885096E+03  0.41800000000E+01 0. -1.
        -11    1    4    4    0    0 -0.12026821586E+03  0.32316590961E+02 -0.31286876671E+02  0.12840433968E+03  0.00000000000E+00 0.  1.
         11    1    4    4    0    0 -0.21168595860E+01  0.23945979816E+02  0.25056793891E+02  0.34723680161E+02  0.00000000000E+00 0. -1.
</event>
<event>
 8    1  0.7039283E-009  0.1287838E+03  0.7561462E-02  0.1229272E+00
         -2   -1    0    0    0  501 -0.00000000000E+00  0.00000000000E+00  0.55104903735E+02  0.55104903735E+02  0.00000000000E+00 0. -1.
          2   -1    0    0  501    0  0.00000000000E+00 -0.00000000000E+00 -0.35787762786E+03  0.35787762786E+03  0.00000000000E+00 0.  1.
         25    2    1    2    0    0  0.77574925875E+02  0.40914793281E+02 -0.13895611415E+03  0.20651680841E+03  0.12509396893E+03 0.  0.
         23    2    1    2    0    0 -0.77574925875E+02 -0.40914793281E+02 -0.16381660997E+03  0.20646572318E+03  0.90001798380E+02 0.  0.
          5    1    3    3  502    0 -0.29163300629E+02  0.14938498727E+02 -0.68208619802E+02  0.75786179895E+02  0.41800000000E+01 0. -1.
         -5    1    3    3    0  502  0.10673822650E+03  0.25976294554E+02 -0.70747494347E+02  0.13073062852E+03  0.41800000000E+01 0. -1.
        -11    1    4    4    0    0 -0.40982444259E+02 -0.60518596683E+02 -0.14167466855E+03  0.15941697837E+03  0.00000000000E+00 0.  1.
         11    1    4    4    0    0 -0.36592481616E+02  0.19603803402E+02 -0.22141941417E+02  0.47048744812E+02  0.00000000000E+00 0. -1.
</event>
<event>
 8    1  0.7039283E-009  0.1244975E+03  0.7561462E-02  0.1235857E+00
         -3   -1    0    0    0  501 -0.00000000000E+00  0.00000000000E+00  0.25505312949E+02  0.25505312949E+02  0.00000000000E+00 0. -1.
          3   -1    0    0  501    0  0.00000000000E+00 -0.00000000000E+00 -0.95925423002E+03  0.95925423002E+03  0.00000000000E+00 0.  1.
         25    2    1    2    0    0  0.65491371924E+02 -0.78767642871E+02 -0.67538833793E+03  0.69447148621E+03  0.12509107395E+03 0.  0.
         23    2    1    2    0    0 -0.65491371924E+02  0.78767642871E+02 -0.25836057914E+03  0.29028805676E+03  0.83806358264E+02 0.  0.
          5    1    3    3  502    0  0.32296247085E+01 -0.67970736796E+02 -0.54784890388E+03  0.55207458320E+03  0.41800000000E+01 0. -1.
         -5    1    3    3    0  502  0.62261747216E+02 -0.10796906075E+02 -0.12753943405E+03  0.14239690301E+03  0.41800000000E+01 0. -1.
        -11    1    4    4    0    0 -0.56481527668E+02  0.22976334838E+02 -0.19983249931E+03  0.20892846314E+03  0.00000000000E+00 0.  1.
         11    1    4    4    0    0 -0.90098442561E+01  0.55791308032E+02 -0.58528079828E+02  0.81359593619E+02  0.00000000000E+00 0. -1.
</event>
<event>
 8    1  0.7039283E-009  0.1185133E+03  0.7561462E-02  0.1245570E+00
          3   -1    0    0  501    0  0.00000000000E+00  0.00000000000E+00  0.44670912076E+02  0.44670912076E+02  0.00000000000E+00 0. -1.
         -3   -1    0    0    0  501 -0.00000000000E+00 -0.00000000000E+00 -0.34422317656E+03  0.34422317656E+03  0.00000000000E+00 0.  1.
         25    2    1    2    0    0 -0.47850816767E+02  0.22968329975E+02 -0.20233344170E+03  0.24372941100E+03  0.12509180351E+03 0.  0.
         23    2    1    2    0    0  0.47850816767E+02 -0.22968329975E+02 -0.97218822780E+02  0.14516467764E+03  0.93829842186E+02 0.  0.
          5    1    3    3  502    0 -0.79701212260E+02 -0.15460993337E+02 -0.93343172538E+02  0.12378103978E+03  0.41800000000E+01 0.  1.
         -5    1    3    3    0  502  0.31850395493E+02  0.38429323312E+02 -0.10899026917E+03  0.11994837121E+03  0.41800000000E+01 0.  1.
        -11    1    4    4    0    0  0.21057071518E+02 -0.57906031241E+02 -0.70635198660E+02  0.93732811783E+02  0.00000000000E+00 0.  1.
         11    1    4    4    0    0  0.26793745249E+02  0.34937701266E+02 -0.26583624120E+02  0.51431865858E+02  0.00000000000E+00 0. -1.
</event>
<event>
 8    1  0.7039283E-009  0.1069710E+03  0.7561462E-02  0.1266284E+00
          3   -1    0    0  501    0  0.00000000000E+00  0.00000000000E+00  0.22787952659E+03  0.22787952659E+03  0.00000000000E+00 0. -1.
         -3   -1    0    0    0  501 -0.00000000000E+00 -0.00000000000E+00 -0.53445889958E+02  0.53445889958E+02  0.00000000000E+00 0.  1.
         25    2    1    2    0    0  0.15519347663E-01  0.14484399087E+02  0.77904944469E+02  0.14807239759E+03  0.12508579654E+03 0.  0.
         23    2    1    2    0    0 -0.15519347663E-01 -0.14484399087E+02  0.96528692161E+02  0.13325301896E+03  0.90712626430E+02 0.  0.
          5    1    3    3  502    0 -0.18691879038E+02  0.67134602251E+02  0.40638235805E+02  0.80779822795E+02  0.41800000000E+01 0. -1.
         -5    1    3    3    0  502  0.18707398386E+02 -0.52650203164E+02  0.37266708664E+02  0.67292574792E+02  0.41800000000E+01 0. -1.
        -11    1    4    4    0    0  0.21820104997E+02  0.30845209985E+02  0.23249263895E+02  0.44362960144E+02  0.00000000000E+00 0.  1.
         11    1    4    4    0    0 -0.21835624345E+02 -0.45329609072E+02  0.73279428266E+02  0.88890058815E+02  0.00000000000E+00 0. -1.
</event>
<event>
 8    1  0.7039283E-009  0.1156753E+03  0.7561462E-02  0.1250407E+00
          1   -1    0    0  501    0  0.00000000000E+00  0.00000000000E+00  0.46109259533E+03  0.46109259533E+03  0.00000000000E+00 0. -1.
         -1   -1    0    0    0  501 -0.00000000000E+00 -0.00000000000E+00 -0.32987811385E+02  0.32987811385E+02  0.00000000000E+00 0.  1.
         25    2    1    2    0    0 -0.59377709144E+02  0.56769343336E+00  0.24196324091E+03  0.27878359663E+03  0.12509216276E+03 0.  0.
         23    2    1    2    0    0  0.59377709144E+02 -0.56769343336E+00  0.18614154304E+03  0.21529681008E+03  0.90432338057E+02 0.  0.
          5    1    3    3  502    0 -0.10240973352E+02 -0.56676421504E+02  0.14341532304E+03  0.15460440347E+03  0.41800000000E+01 0. -1.
         -5    1    3    3    0  502 -0.49136735792E+02  0.57244114938E+02  0.98547917871E+02  0.12417919317E+03  0.41800000000E+01 0. -1.
        -11    1    4    4    0    0  0.58273993427E+02  0.31309348969E+02  0.16293426747E+03  0.17585138373E+03  0.00000000000E+00 0. -1.
         11    1    4    4    0    0  0.11037157170E+01 -0.31877042403E+02  0.23207275568E+02  0.39445426351E+02  0.00000000000E+00 0.  1.
</event>
<event>
 8    1  0.7039283E-009  0.2715677E+03  0.7561462E-02  0.1100386E+00
         -2   -1    0    0    0  501 -0.00000000000E+00  0.00000000000E+00  0.54499884586E+02  0.54499884586E+02  0.00000000000E+00 0.  1.
          2   -1    0    0  501    0  0.00000000000E+00 -0.00000000000E+00 -0.14493534849E+04  0.14493534849E+04  0.00000000000E+00 0. -1.
         25    2    1    2    0    0  0.66864647489E+02  0.25023865787E+03 -0.69191283297E+03  0.74932084310E+03  0.12509232793E+03 0.  0.
         23    2    1    2    0    0 -0.66864647489E+02 -0.25023865787E+03 -0.70294076731E+03  0.75453252635E+03  0.90018575817E+02 0.  0.
          5    1    3    3  502    0  0.26076157218E+01  0.16403230952E+03 -0.53072863633E+03  0.55552115715E+03  0.41800000000E+01 0.  1.
         -5    1    3    3    0  502  0.64257031767E+02  0.86206348355E+02 -0.16118419664E+03  0.19379968595E+03  0.41800000000E+01 0.  1.
        -11    1    4    4    0    0  0.37894049804E+01 -0.14273406166E+03 -0.31583691240E+03  0.34661264718E+03  0.00000000000E+00 0.  1.
         11    1    4    4    0    0 -0.70654052469E+02 -0.10750459621E+03 -0.38710385491E+03  0.40791987917E+03  0.00000000000E+00 0. -1.
</event>
<event>
 8    1  0.7039283E-009  0.1115285E+03  0.7561462E-02  0.1257765E+00
         -2   -1    0    0    0  501 -0.00000000000E+00  0.00000000000E+00  0.71664022728E+02  0.71664022728E+02  0.00000000000E+00 0.  1.
          2   -1    0    0  501    0  0.00000000000E+00 -0.00000000000E+00 -0.28577048383E+03  0.28577048383E+03  0.00000000000E+00 0. -1.
         25    2    1    2    0    0 -0.20411373292E+02  0.47485008542E+02 -0.21175748387E+03  0.25131807970E+03  0.12509234595E+03 0.  0.
         23    2    1    2    0    0  0.20411373292E+02 -0.47485008542E+02 -0.23489772324E+01  0.10611642686E+03  0.92648411529E+02 0.  0.
          5    1    3    3  502    0 -0.41206854786E+02 -0.21631543605E+02 -0.14703737173E+03  0.15428347172E+03  0.41800000000E+01 0. -1.
         -5    1    3    3    0  502  0.20795481494E+02  0.69116552147E+02 -0.64720112139E+02  0.97034607984E+02  0.41800000000E+01 0. -1.
        -11    1    4    4    0    0  0.52781747333E+02 -0.86676262940E+01  0.91905339278E+01  0.54272520773E+02  0.00000000000E+00 0.  1.
         11    1    4    4    0    0 -0.32370374041E+02 -0.38817382248E+02 -0.11539511160E+02  0.51843906084E+02  0.00000000000E+00 0. -1.
</event>
<event>
 8    1  0.7039283E-009  0.1295164E+03  0.7561462E-02  0.1228175E+00
         -1   -1    0    0    0  501 -0.00000000000E+00  0.00000000000E+00  0.45427670926E+02  0.45427670926E+02  0.00000000000E+00 0.  1.
          1   -1    0    0  501    0  0.00000000000E+00 -0.00000000000E+00 -0.41318191330E+03  0.41318191330E+03  0.00000000000E+00 0. -1.
         25    2    1    2    0    0  0.75623023336E+02  0.30441924066E+02 -0.21923427196E+03  0.26524799204E+03  0.12508908379E+03 0.  0.
         23    2    1    2    0    0 -0.75623023336E+02 -0.30441924066E+02 -0.14851997042E+03  0.19336159218E+03  0.93193193524E+02 0.  0.
          5    1    3    3  502    0 -0.34239018749E+02  0.13578975519E+02 -0.68913019303E+02  0.78250722748E+02  0.41800000000E+01 0. -1.
         -5    1    3    3    0  502  0.10986204208E+03  0.16862948547E+02 -0.15032125265E+03  0.18699726930E+03  0.41800000000E+01 0. -1.
        -11    1    4    4    0    0 -0.45614265058E+02 -0.55359056822E+02 -0.50100649728E+02  0.87494922436E+02  0.00000000000E+00 0.  1.
         11    1    4    4    0    0 -0.30008758278E+02  0.24917132756E+02 -0.98419320690E+02  0.10586666975E+03  0.00000000000E+00 0. -1.
</event>
<event>
 8    1  0.7039283E-009  0.1476726E+03  0.7561462E-02  0.1203362E+00
         -2   -1    0    0    0  501 -0.00000000000E+00  0.00000000000E+00  0.27423085423E+02  0.27423085423E+02  0.00000000000E+00 0. -1.
          2   -1    0    0  501    0  0.00000000000E+00 -0.00000000000E+00 -0.98841607742E+03  0.98841607742E+03  0.00000000000E+00 0.  1.
         25    2    1    2    0    0 -0.24133687090E+02  0.11305643035E+03 -0.64504898797E+03  0.66715838811E+03  0.12509167300E+03 0.  0.
         23    2    1    2    0    0  0.24133687090E+02 -0.11305643035E+03 -0.31594400403E+03  0.34868077474E+03  0.91615924881E+02 0.  0.
          5    1    3    3  502    0 -0.26940960315E+02 -0.16285361165E+02 -0.59195786910E+02  0.67176200539E+02  0.41800000000E+01 0. -1.
         -5    1    3    3    0  502  0.28072732254E+01  0.12934179151E+03 -0.58585320106E+03  0.59998218757E+03  0.41800000000E+01 0. -1.
        -11    1    4    4    0    0 -0.12757985600E+01 -0.10828787995E+03 -0.29838251212E+03  0.31742718243E+03  0.00000000000E+00 0.  1.
         11    1    4    4    0    0  0.25409485650E+02 -0.47685503977E+01 -0.17561491909E+02  0.31253592305E+02  0.00000000000E+00 0. -1.
</event>
<event>
 8    1  0.7039283E-009  0.7739475E+02  0.7561462E-02  0.1336612E+00
         -1   -1    0    0    0  501 -0.00000000000E+00  0.00000000000E+00  0.34137662220E+03  0.34137662220E+03  0.00000000000E+00 0.  1.
          1   -1    0    0  501    0  0.00000000000E+00 -0.00000000000E+00 -0.43150232054E+02  0.43150232054E+02  0.00000000000E+00 0. -1.
         25    2    1    2    0    0  0.30622388255E+02  0.41094001814E+02  0.20148606308E+03  0.24263078944E+03  0.12508644499E+03 0.  0.
         23    2    1    2    0    0 -0.30622388255E+02 -0.41094001814E+02  0.96740327065E+02  0.14189606481E+03  0.90273776268E+02 0.  0.
          5    1    3    3  502    0  0.36220052653E+02  0.33841743182E+02  0.98265160226E+01  0.50706889206E+02  0.41800000000E+01 0. -1.
         -5    1    3    3    0  502 -0.55976643986E+01  0.72522586326E+01  0.19165954705E+03  0.19192390023E+03  0.41800000000E+01 0. -1.
        -11    1    4    4    0    0 -0.11096859690E+02 -0.63954431974E+02  0.90202042516E+02  0.11112928569E+03  0.00000000000E+00 0.  1.
         11    1    4    4    0    0 -0.19525528565E+02  0.22860430159E+02  0.65382845491E+01  0.30766779124E+02  0.00000000000E+00 0. -1.
</event>
<event>
 8    1  0.7039283E-009  0.1450675E+03  0.7561462E-02  0.1206668E+00
         -1   -1    0    0    0  501 -0.00000000000E+00  0.00000000000E+00  0.25160012349E+02  0.25160012349E+02  0.00000000000E+00 0.  1.
          1   -1    0    0  501    0  0.00000000000E+00 -0.00000000000E+00 -0.98053324107E+03  0.98053324107E+03  0.00000000000E+00 0. -1.
         25    2    1    2    0    0  0.10460889946E+03 -0.36378216649E+01 -0.64690713365E+03  0.66715415172E+03  0.12509822937E+03 0.  0.
         23    2    1    2    0    0 -0.10460889946E+03  0.36378216649E+01 -0.30846609507E+03  0.33853910171E+03  0.92201605091E+02 0.  0.
          5    1    3    3  502    0  0.95513535406E+02  0.41646837220E+02 -0.54902132046E+03  0.55883734415E+03  0.41800000000E+01 0.  1.
         -5    1    3    3    0  502  0.90953640514E+01 -0.45284658885E+02 -0.97885813188E+02  0.10831680756E+03  0.41800000000E+01 0.  1.
        -11    1    4    4    0    0 -0.24121780936E+02 -0.40902756288E+02 -0.10270444713E+03  0.11315078103E+03  0.00000000000E+00 0.  1.
         11    1    4    4    0    0 -0.80487118521E+02  0.44540577953E+02 -0.20576164795E+03  0.22538832068E+03  0.00000000000E+00 0. -1.
</event>
<event>
 8    1  0.7039283E-009  0.8369429E+02  0.7561462E-02  0.1318883E+00
          3   -1    0    0  501    0  0.00000000000E+00  0.00000000000E+00  0.23336118171E+03  0.23336118171E+03  0.00000000000E+00 0. -1.
         -3   -1    0    0    0  501 -0.00000000000E+00 -0.00000000000E+00 -0.54261438294E+02  0.54261438294E+02  0.00000000000E+00 0.  1.
         25    2    1    2    0    0  0.23527410935E+02  0.19505130760E+02  0.92861800921E+02  0.15876325851E+03  0.12509384074E+03 0.  0.
         23    2    1    2    0    0 -0.23527410935E+02 -0.19505130760E+02  0.86237942496E+02  0.12885936149E+03  0.90740085561E+02 0.  0.
          5    1    3    3  502    0  0.19331777647E+01 -0.29254308293E+02  0.10046125423E+03  0.10473532228E+03  0.41800000000E+01 0.  1.
         -5    1    3    3    0  502  0.21594233171E+02  0.48759439053E+02 -0.75994533134E+01  0.54027936233E+02  0.41800000000E+01 0.  1.
        -11    1    4    4    0    0  0.14430069413E+02 -0.39020172901E+02  0.12122112825E+02  0.43332971463E+02  0.00000000000E+00 0.  1.
         11    1    4    4    0    0 -0.37957480348E+02  0.19515042140E+02  0.74115829671E+02  0.85526390032E+02  0.00000000000E+00 0. -1.
</event>
<event>
 8    1  0.7039283E-009  0.1809178E+03  0.7561462E-02  0.1166918E+00
         -1   -1    0    0    0  501 -0.00000000000E+00  0.00000000000E+00  0.86881628489E+02  0.86881628489E+02  0.00000000000E+00 0.  1.
          1   -1    0    0  501    0  0.00000000000E+00 -0.00000000000E+00 -0.48969476134E+03  0.48969476134E+03  0.00000000000E+00 0. -1.
         25    2    1    2    0    0  0.12500629589E+03  0.10823210578E+03 -0.12698882094E+03  0.24313598466E+03  0.12509270026E+03 0.  0.
         23    2    1    2    0    0 -0.12500629589E+03 -0.10823210578E+03 -0.27582431191E+03  0.33344040517E+03  0.88106129322E+02 0.  0.
          5    1    3    3  502    0  0.84237238981E+01 -0.63555590935E+01 -0.68553819136E+02  0.69487054721E+02  0.41800000000E+01 0. -1.
         -5    1    3    3    0  502  0.11658257199E+03  0.11458766488E+03 -0.58435001809E+02  0.17364892994E+03  0.41800000000E+01 0. -1.
        -11    1    4    4    0    0 -0.25093834849E+02 -0.78960279331E+02 -0.13304842143E+03  0.15673643069E+03  0.00000000000E+00 0.  1.
         11    1    4    4    0    0 -0.99912461042E+02 -0.29271826451E+02 -0.14277589048E+03  0.17670397448E+03  0.00000000000E+00 0. -1.
</event>
<event>
 8    1  0.7039283E-009  0.1054936E+03  0.7561462E-02  0.1269150E+00
          2   -1    0    0  501    0  0.00000000000E+00  0.00000000000E+00  0.12762601496E+03  0.12762601496E+03  0.00000000000E+00 0. -1.
         -2   -1    0    0    0  501 -0.00000000000E+00 -0.00000000000E+00 -0.17178062462E+03  0.17178062462E+03  0.00000000000E+00 0.  1.
         25    2    1    2    0    0  0.52132246616E+01 -0.63082143516E+02 -0.10357917109E+03  0.17430998309E+03  0.12509512772E+03 0.  0.
         23    2    1    2    0    0 -0.52132246616E+01  0.63082143516E+02  0.59424561437E+02  0.12509665649E+03  0.90063091337E+02 0.  0.
          5    1    3    3  502    0 -0.40066818624E+02  0.98066611327E+01 -0.71412080420E+02  0.82575287993E+02  0.41800000000E+01 0. -1.
         -5    1    3    3    0  502  0.45280043285E+02 -0.72888804649E+02 -0.32167090672E+02  0.91734695102E+02  0.41800000000E+01 0. -1.
        -11    1    4    4    0    0  0.89940578134E+00 -0.10119835431E+02  0.50018790814E+02  0.51040174710E+02  0.00000000000E+00 0. -1.
         11    1    4    4    0    0 -0.61126304429E+01  0.73201978947E+02  0.94057706226E+01  0.74056481780E+02  0.00000000000E+00 0.  1.
</event>
<event>
 8    1  0.7039283E-009  0.9837519E+02  0.7561462E-02  0.1283750E+00
         -2   -1    0    0    0  501 -0.00000000000E+00  0.00000000000E+00  0.69251849982E+02  0.69251849982E+02  0.00000000000E+00 0.  1.
          2   -1    0    0  501    0  0.00000000000E+00 -0.00000000000E+00 -0.28667324062E+03  0.28667324062E+03  0.00000000000E+00 0. -1.
         25    2    1    2    0    0  0.35704384765E+01 -0.76274537746E+02 -0.59078893888E+02  0.15801341879E+03  0.12508945469E+03 0.  0.
         23    2    1    2    0    0 -0.35704384765E+01  0.76274537746E+02 -0.15834249674E+03  0.19791167181E+03  0.90918262318E+02 0.  0.
          5    1    3    3  502    0  0.40673830354E+02 -0.34316323635E+02  0.23353457880E+02  0.58265143426E+02  0.41800000000E+01 0.  1.
         -5    1    3    3    0  502 -0.37103391877E+02 -0.41958214111E+02 -0.82432351768E+02  0.99748275364E+02  0.41800000000E+01 0.  1.
        -11    1    4    4    0    0 -0.22906973621E+02  0.42896361596E+02 -0.17182329338E+02  0.51575766792E+02  0.00000000000E+00 0.  1.
         11    1    4    4    0    0  0.19336535144E+02  0.33378176150E+02 -0.14116016741E+03  0.14633590502E+03  0.00000000000E+00 0. -1.
</event>
<event>
 8    1  0.7039283E-009  0.1043208E+03  0.7561462E-02  0.1271464E+00
          2   -1    0    0  501    0  0.00000000000E+00  0.00000000000E+00  0.62305934835E+02  0.62305934835E+02  0.00000000000E+00 0.  1.
         -2   -1    0    0    0  501 -0.00000000000E+00 -0.00000000000E+00 -0.40473289450E+03  0.40473289450E+03  0.00000000000E+00 0. -1.
         25    2    1    2    0    0 -0.19986128108E+02  0.90174745943E+01 -0.17027396774E+02  0.12813503641E+03  0.12509154708E+03 0.  0.
         23    2    1    2    0    0  0.19986128108E+02 -0.90174745943E+01 -0.32539956289E+03  0.33890379292E+03  0.92141983714E+02 0.  0.
          5    1    3    3  502    0 -0.69818171062E+02 -0.19261129320E+01  0.92764240253E+01  0.70581947864E+02  0.41800000000E+01 0.  1.
         -5    1    3    3    0  502  0.49832042954E+02  0.10943587526E+02 -0.26303820800E+02  0.57553088549E+02  0.41800000000E+01 0.  1.
        -11    1    4    4    0    0 -0.12014169991E+02  0.32738657514E+02 -0.70762293081E+02  0.78888922533E+02  0.00000000000E+00 0.  1.
         11    1    4    4    0    0  0.32000298099E+02 -0.41756132109E+02 -0.25463726981E+03  0.26001487039E+03  0.00000000000E+00 0. -1.
</event>
<event>
 8    1  0.7039283E-009  0.9388810E+02  0.7561462E-02  0.1293700E+00
         -2   -1    0    0    0  501 -0.00000000000E+00  0.00000000000E+00  0.43874515380E+02  0.43874515380E+02  0.00000000000E+00 0.  1.
          2   -1    0    0  501    0  0.00000000000E+00 -0.00000000000E+00 -0.26873995401E+03  0.26873995401E+03  0.00000000000E+00 0. -1.
         25    2    1    2    0    0  0.12881040121E+01  0.40080371675E+01 -0.11245275745E+03  0.16825771652E+03  0.12508921991E+03 0.  0.
         23    2    1    2    0    0 -0.12881040121E+01 -0.40080371675E+01 -0.11241268118E+03  0.14435675287E+03  0.90468434466E+02 0.  0.
          5    1    3    3  502    0  0.98938571722E+01  0.49597143220E+02 -0.11054502131E+03  0.12163650423E+03  0.41800000000E+01 0. -1.
         -5    1    3    3    0  502 -0.86057531600E+01 -0.45589106053E+02 -0.19077361388E+01  0.46621212289E+02  0.41800000000E+01 0. -1.
        -11    1    4    4    0    0  0.44534392041E+02 -0.17155340841E+01 -0.51692796263E+02  0.68252474806E+02  0.00000000000E+00 0.  1.
         11    1    4    4    0    0 -0.45822496054E+02 -0.22925030834E+01 -0.60719884919E+02  0.76104278063E+02  0.00000000000E+00 0. -1.
</event>
<event>
 8    1  0.7039283E-009  0.1218385E+03  0.7561462E-02  0.1240094E+00
          1   -1    0    0  501    0  0.00000000000E+00  0.00000000000E+00  0.68244604415E+02  0.68244604415E+02  0.00000000000E+00 0. -1.
         -1   -1    0    0    0  501 -0.00000000000E+00 -0.00000000000E+00 -0.33208227519E+03  0.33208227519E+03  0.00000000000E+00 0.  1.
         25    2    1    2    0    0 -0.62867579642E+00  0.89715362573E+02 -0.71557308304E+02  0.16975550256E+03  0.12508893141E+03 0.  0.
         23    2    1    2    0    0  0.62867579642E+00 -0.89715362573E+02 -0.19228036247E+03  0.23057137705E+03  0.90234032418E+02 0.  0.
          5    1    3    3  502    0 -0.32709015194E+02  0.11061008390E+03 -0.53162640923E+02  0.12707560397E+03  0.41800000000E+01 0.  1.
         -5    1    3    3    0  502  0.32080339398E+02 -0.20894721326E+02 -0.18394667381E+02  0.42679898585E+02  0.41800000000E+01 0.  1.
        -11    1    4    4    0    0 -0.55741107494E+00 -0.62721066616E+02 -0.36719431260E+02  0.72681218596E+02  0.00000000000E+00 0. -1.
         11    1    4    4    0    0  0.11860868714E+01 -0.26994295957E+02 -0.15556093121E+03  0.15789015845E+03  0.00000000000E+00 0.  1.
</event>
<event>
 8    1  0.7039283E-009  0.1968331E+03  0.7561462E-02  0.1152439E+00
          2   -1    0    0  501    0  0.00000000000E+00  0.00000000000E+00  0.10837126483E+04  0.10837126483E+04  0.00000000000E+00 0.  1.
         -2   -1    0    0    0  501 -0.00000000000E+00 -0.00000000000E+00 -0.37402032009E+02  0.37402032009E+02  0.00000000000E+00 0. -1.
         25    2    1    2    0    0 -0.71114907470E+02 -0.15330386632E+03  0.51986241579E+03  0.56077187731E+03  0.12509501005E+03 0.  0.
         23    2    1    2    0    0  0.71114907470E+02  0.15330386632E+03  0.52644820049E+03  0.56034280299E+03  0.90977709173E+02 0.  0.
          5    1    3    3  502    0  0.28664316652E+02 -0.83448397425E+02  0.22455472954E+03  0.24130391013E+03  0.41800000000E+01 0. -1.
         -5    1    3    3    0  502 -0.99779224122E+02 -0.69855468896E+02  0.29530768624E+03  0.31946796718E+03  0.41800000000E+01 0. -1.
        -11    1    4    4    0    0  0.43479643289E+02  0.14934096188E+03  0.36906160260E+03  0.40049927440E+03  0.00000000000E+00 0. -1.
         11    1    4    4    0    0  0.27635264181E+02  0.39629044420E+01  0.15738659789E+03  0.15984352859E+03  0.00000000000E+00 0.  1.
</event>
<event>
 8    1  0.7039283E-009  0.9532442E+02  0.7561462E-02  0.1290447E+00
          1   -1    0    0  501    0  0.00000000000E+00  0.00000000000E+00  0.73960155284E+02  0.73960155284E+02  0.00000000000E+00 0. -1.
         -1   -1    0    0    0  501 -0.00000000000E+00 -0.00000000000E+00 -0.25726907626E+03  0.25726907626E+03  0.00000000000E+00 0.  1.
         25    2    1    2    0    0 -0.78395441056E+02  0.47770254021E+01 -0.13176176686E+03  0.19793175070E+03  0.12508856694E+03 0.  0.
         23    2    1    2    0    0  0.78395441056E+02 -0.47770254021E+01 -0.51547154119E+02  0.13329748084E+03  0.94564497310E+02 0.  0.
          5    1    3    3  502    0 -0.83728350915E+02 -0.14988284787E+02 -0.14848199301E+03  0.17117085055E+03  0.41800000000E+01 0. -1.
         -5    1    3    3    0  502  0.53329098593E+01  0.19765310190E+02  0.16720226154E+02  0.26760900155E+02  0.41800000000E+01 0. -1.
        -11    1    4    4    0    0  0.24697125257E+02  0.13151087494E+02 -0.68670768223E+02  0.74152366830E+02  0.00000000000E+00 0.  1.
         11    1    4    4    0    0  0.53698315799E+02 -0.17928112896E+02  0.17123614104E+02  0.59145114013E+02  0.00000000000E+00 0. -1.
</event>
<event>
 8    1  0.7039283E-009  0.1294378E+03  0.7561462E-02  0.1228292E+00
          2   -1    0    0  501    0  0.00000000000E+00  0.00000000000E+00  0.20787302539E+03  0.20787302539E+03  0.00000000000E+00 0. -1.
         -2   -1    0    0    0  501 -0.00000000000E+00 -0.00000000000E+00 -0.12762632910E+03  0.12762632910E+03  0.00000000000E+00 0.  1.
         25    2    1    2    0    0 -0.50292381313E+02 -0.10015658212E+03  0.95597466189E+02  0.19325364272E+03  0.12508968911E+03 0.  0.
         23    2    1    2    0    0  0.50292381313E+02  0.10015658212E+03 -0.15350769904E+02  0.14224571177E+03  0.86241126040E+02 0.  0.
          5    1    3    3  502    0 -0.70649275259E+02 -0.88970773455E+02  0.11573301220E+03  0.16223045687E+03  0.41800000000E+01 0. -1.
         -5    1    3    3    0  502  0.20356893946E+02 -0.11185808663E+02 -0.20135546014E+02  0.31023185843E+02  0.41800000000E+01 0. -1.
        -11    1    4    4    0    0 -0.58850546939E+01  0.35288782006E+02 -0.39308812451E+02  0.53151808441E+02  0.00000000000E+00 0.  1.
         11    1    4    4    0    0  0.56177436007E+02  0.64867800111E+02  0.23958042548E+02  0.89093903329E+02  0.00000000000E+00 0. -1.
</event>
<event>
 8    1  0.7039283E-009  0.1351970E+03  0.7561462E-02  0.1219942E+00
         -2   -1    0    0    0  501 -0.00000000000E+00  0.00000000000E+00  0.68725413431E+02  0.68725413431E+02  0.00000000000E+00 0.  1.
          2   -1    0    0  501    0  0.00000000000E+00 -0.00000000000E+00 -0.29210314584E+03  0.29210314584E+03  0.00000000000E+00 0. -1.
         25    2    1    2    0    0 -0.88098273871E+02  0.13078404659E+02 -0.14343718424E+03  0.21012663084E+03  0.12508646866E+03 0.  0.
         23    2    1    2    0    0  0.88098273871E+02 -0.13078404659E+02 -0.79940548169E+02  0.15070192842E+03  0.91587277837E+02 0.  0.
          5    1    3    3  502    0 -0.22777359189E+02  0.63660628174E+02 -0.43988513795E+02  0.80770944139E+02  0.41800000000E+01 0. -1.
         -5    1    3    3    0  502 -0.65320914682E+02 -0.50582223515E+02 -0.99448670440E+02  0.12935568670E+03  0.41800000000E+01 0. -1.
        -11    1    4    4    0    0 -0.14976555358E+02 -0.73858390019E+01 -0.33651818276E+02  0.37567175852E+02  0.00000000000E+00 0.  1.
         11    1    4    4    0    0  0.10307482923E+03 -0.56925656571E+01 -0.46288729893E+02  0.11313475257E+03  0.00000000000E+00 0. -1.
</event>
<event>
 8    1  0.7039283E-009  0.8098910E+02  0.7561462E-02  0.1326268E+00
          2   -1    0    0  501    0  0.00000000000E+00  0.00000000000E+00  0.76390477254E+03  0.76390477254E+03  0.00000000000E+00 0. -1.
         -2   -1    0    0    0  501 -0.00000000000E+00 -0.00000000000E+00 -0.15738456991E+02  0.15738456991E+02  0.00000000000E+00 0.  1.
         25    2    1    2    0    0  0.32385743654E+01  0.56146984091E+01  0.38680699307E+03  0.40658261892E+03  0.12509101854E+03 0.  0.
         23    2    1    2    0    0 -0.32385743654E+01 -0.56146984091E+01  0.36135932248E+03  0.37306061061E+03  0.92475110394E+02 0.  0.
          5    1    3    3  502    0  0.14046605959E+02  0.35154836526E+02  0.36743753850E+03  0.36940626249E+03  0.41800000000E+01 0.  1.
         -5    1    3    3    0  502 -0.10808031594E+02 -0.29540138116E+02  0.19369454565E+02  0.37176356425E+02  0.41800000000E+01 0.  1.
        -11    1    4    4    0    0  0.35948414190E+02  0.23841398585E+02  0.18938863268E+03  0.19423891206E+03  0.00000000000E+00 0.  1.
         11    1    4    4    0    0 -0.39186988555E+02 -0.29456096994E+02  0.17197068980E+03  0.17882169855E+03  0.00000000000E+00 0. -1.
</event>
<event>
 8    1  0.7039283E-009  0.1299600E+03  0.7561462E-02  0.1227515E+00
         -1   -1    0    0    0  501 -0.00000000000E+00  0.00000000000E+00  0.74364796594E+02  0.74364796594E+02  0.00000000000E+00 0.  1.
          1   -1    0    0  501    0  0.00000000000E+00 -0.00000000000E+00 -0.34002570701E+03  0.34002570701E+03  0.00000000000E+00 0. -1.
         25    2    1    2    0    0  0.53223119054E+02  0.84100977597E+02 -0.21809782325E+03  0.27040165903E+03  0.12507886258E+03 0.  0.
         23    2    1    2    0    0 -0.53223119054E+02 -0.84100977597E+02 -0.47563087169E+02  0.14398884458E+03  0.92546557295E+02 0.  0.
          5    1    3    3  502    0 -0.37946661932E+02  0.39489316086E+01 -0.52335485007E+02  0.64900066283E+02  0.41800000000E+01 0.  1.
         -5    1    3    3    0  502  0.91169780985E+02  0.80152045989E+02 -0.16576233824E+03  0.20550159274E+03  0.41800000000E+01 0.  1.
        -11    1    4    4    0    0 -0.18333619564E+02 -0.38642215644E+02  0.26523029292E+02  0.50327065472E+02  0.00000000000E+00 0.  1.
         11    1    4    4    0    0 -0.34889499489E+02 -0.45458761954E+02 -0.74086116461E+02  0.93661779106E+02  0.00000000000E+00 0. -1.
</event>
<event>
 8    1  0.7039283E-009  0.1389262E+03  0.7561462E-02  0.1214781E+00
         -1   -1    0    0    0  501 -0.00000000000E+00  0.00000000000E+00  0.77843617966E+02  0.77843617966E+02  0.00000000000E+00 0.  1.
          1   -1    0    0  501    0  0.00000000000E+00 -0.00000000000E+00 -0.31367664172E+03  0.31367664172E+03  0.00000000000E+00 0. -1.
         25    2    1    2    0    0  0.54010852902E+02  0.93943357448E+02 -0.90843604863E+02  0.18879283638E+03  0.12509055874E+03 0.  0.
         23    2    1    2    0    0 -0.54010852902E+02 -0.93943357448E+02 -0.14498941890E+03  0.20272742331E+03  0.91290470092E+02 0.  0.
          5    1    3    3  502    0  0.83937652317E+02  0.10333218901E+03 -0.66511725854E+02  0.14887697215E+03  0.41800000000E+01 0.  1.
         -5    1    3    3    0  502 -0.29926799414E+02 -0.93888315577E+01 -0.24331879010E+02  0.39915864231E+02  0.41800000000E+01 0.  1.
        -11    1    4    4    0    0 -0.21688169802E+02 -0.68588132793E+02 -0.14475726681E+03  0.16164583187E+03  0.00000000000E+00 0. -1.
         11    1    4    4    0    0 -0.32322683100E+02 -0.25355224655E+02 -0.23215208990E+00  0.41081591433E+02  0.00000000000E+00 0.  1.
</event>
<event>
 8    1  0.7039283E-009  0.1066517E+03  0.7561462E-02  0.1266899E+00
         -3   -1    0    0    0  501 -0.00000000000E+00  0.00000000000E+00  0.19269027911E+03  0.19269027911E+03  0.00000000000E+00 0.  1.
          3   -1    0    0  501    0  0.00000000000E+00 -0.00000000000E+00 -0.95572660638E+02  0.95572660638E+02  0.00000000000E+00 0. -1.
         25    2    1    2    0    0  0.47565685367E+02  0.39026572535E+02  0.10147127575E+03  0.17242287980E+03  0.12509061471E+03 0.  0.
         23    2    1    2    0    0 -0.47565685367E+02 -0.39026572535E+02 -0.43536572830E+01  0.11584005994E+03  0.98053033445E+02 0.  0.
          5    1    3    3  502    0  0.71372021481E+02  0.42315223062E+01  0.10915345073E+02  0.72446451876E+02  0.41800000000E+01 0. -1.
         -5    1    3    3    0  502 -0.23806336114E+02  0.34795050229E+02  0.90555930679E+02  0.99976427925E+02  0.41800000000E+01 0. -1.
        -11    1    4    4    0    0 -0.50421377425E+01 -0.53999991190E+02 -0.31984391241E+02  0.62963667973E+02  0.00000000000E+00 0. -1.
         11    1    4    4    0    0 -0.42523547625E+02  0.14973418655E+02  0.27630733958E+02  0.52876391971E+02  0.00000000000E+00 0.  1.
</event>
<event>
 8    1  0.7039283E-009  0.1525816E+03  0.7561462E-02  0.1197336E+00
          1   -1    0    0  501    0  0.00000000000E+00  0.00000000000E+00  0.81231583785E+03  0.81231583785E+03  0.00000000000E+00 0. -1.
         -1   -1    0    0    0  501 -0.00000000000E+00 -0.00000000000E+00 -0.47414273749E+02  0.47414273749E+02  0.00000000000E+00 0.  1.
         25    2    1    2    0    0 -0.36773805226E+02  0.11985005496E+03  0.62873331498E+03  0.65319879288E+03  0.12508690271E+03 0.  0.
         23    2    1    2    0    0  0.36773805226E+02 -0.11985005496E+03  0.13616824912E+03  0.20653131871E+03  0.91635392273E+02 0.  0.
          5    1    3    3  502    0 -0.32612272015E+02  0.13455384144E+03  0.61963832146E+03  0.63493103433E+03  0.41800000000E+01 0.  1.
         -5    1    3    3    0  502 -0.41615332118E+01 -0.14703786475E+02  0.90949935208E+01  0.18267758552E+02  0.41800000000E+01 0.  1.
        -11    1    4    4    0    0  0.12798984156E+02 -0.12552057662E+03  0.12994468342E+03  0.18112109181E+03  0.00000000000E+00 0.  1.
         11    1    4    4    0    0  0.23974821070E+02  0.56705216562E+01  0.62235656949E+01  0.25410226901E+02  0.00000000000E+00 0. -1.
</event>
<event>
 8    1  0.7039283E-009  0.7273542E+02  0.7561462E-02  0.1351031E+00
         -2   -1    0    0    0  501 -0.00000000000E+00  0.00000000000E+00  0.39074773277E+02  0.39074773277E+02  0.00000000000E+00 0.  1.
          2   -1    0    0  501    0  0.00000000000E+00 -0.00000000000E+00 -0.35673800285E+03  0.35673800285E+03  0.00000000000E+00 0. -1.
         25    2    1    2    0    0  0.39749034005E+02 -0.27585089031E+02 -0.17062995554E+03  0.21703553519E+03  0.12509563928E+03 0.  0.
         23    2    1    2    0    0 -0.39749034005E+02  0.27585089031E+02 -0.14703327403E+03  0.17877724093E+03  0.89451637005E+02 0.  0.
          5    1    3    3  502    0  0.36134117650E+02 -0.22818926781E+02  0.31937704074E+01  0.43058686083E+02  0.41800000000E+01 0.  1.
         -5    1    3    3    0  502  0.36149163544E+01 -0.47661622505E+01 -0.17382372595E+03  0.17397684911E+03  0.41800000000E+01 0.  1.
        -11    1    4    4    0    0 -0.60889275620E+02  0.52158582908E+00 -0.12176433897E+03  0.13614084685E+03  0.00000000000E+00 0. -1.
         11    1    4    4    0    0  0.21140241615E+02  0.27063503202E+02 -0.25268935062E+02  0.42636394082E+02  0.00000000000E+00 0.  1.
</event>
<event>
 8    1  0.7039283E-009  0.1049388E+03  0.7561462E-02  0.1270240E+00
          2   -1    0    0  501    0  0.00000000000E+00  0.00000000000E+00  0.13215154365E+03  0.13215154365E+03  0.00000000000E+00 0.  1.
         -2   -1    0    0    0  501 -0.00000000000E+00 -0.00000000000E+00 -0.14225822727E+03  0.14225822727E+03  0.00000000000E+00 0. -1.
         25    2    1    2    0    0  0.10148402111E+02  0.50977221558E+02  0.58904929445E+02  0.14771283025E+03  0.12509045656E+03 0.  0.
         23    2    1    2    0    0 -0.10148402111E+02 -0.50977221558E+02 -0.69011613061E+02  0.12669694067E+03  0.92670625632E+02 0.  0.
          5    1    3    3  502    0  0.64062411686E+02  0.43377804952E+02  0.50444796274E+02  0.92454185544E+02  0.41800000000E+01 0. -1.
         -5    1    3    3    0  502 -0.53914009574E+02  0.75994166055E+01  0.84601331710E+01  0.55258644703E+02  0.41800000000E+01 0. -1.
        -11    1    4    4    0    0  0.22808224978E+02 -0.33385956830E+02 -0.78369479961E+02  0.88185104351E+02  0.00000000000E+00 0. -1.
         11    1    4    4    0    0 -0.32956627089E+02 -0.17591264728E+02  0.93578669006E+01  0.38511836320E+02  0.00000000000E+00 0.  1.
</event>
<event>
 8    1  0.7039283E-009  0.1272283E+03  0.7561462E-02  0.1231627E+00
          2   -1    0    0  501    0  0.00000000000E+00  0.00000000000E+00  0.45882181144E+03  0.45882181144E+03  0.00000000000E+00 0. -1.
         -2   -1    0    0    0  501 -0.00000000000E+00 -0.00000000000E+00 -0.38583194275E+02  0.38583194275E+02  0.00000000000E+00 0.  1.
         25    2    1    2    0    0 -0.14451580364E+02 -0.72358028838E+02  0.18597195702E+03  0.23596097941E+03  0.12508989765E+03 0.  0.
         23    2    1    2    0    0  0.14451580364E+02  0.72358028838E+02  0.23426666015E+03  0.26144402631E+03  0.89596753979E+02 0.  0.
          5    1    3    3  502    0 -0.47952380247E+02  0.11020179742E+02  0.10001663039E+03  0.11154225158E+03  0.41800000000E+01 0. -1.
         -5    1    3    3    0  502  0.33500799883E+02 -0.83378208579E+02  0.85955326630E+02  0.12441872783E+03  0.41800000000E+01 0. -1.
        -11    1    4    4    0    0 -0.35137204728E+02  0.12275918177E+02  0.92013608511E+02  0.99256362387E+02  0.00000000000E+00 0.  1.
         11    1    4    4    0    0  0.49588785092E+02  0.60082110661E+02  0.14225305164E+03  0.16218766392E+03  0.00000000000E+00 0. -1.
</event>
<event>
 8    1  0.7039283E-009  0.1066910E+03  0.7561462E-02  0.1266823E+00
         -2   -1    0    0    0  501 -0.00000000000E+00  0.00000000000E+00  0.25905516382E+03  0.25905516382E+03  0.00000000000E+00 0.  1.
          2   -1    0    0  501    0  0.00000000000E+00 -0.00000000000E+00 -0.75794466700E+02  0.75794466700E+02  0.00000000000E+00 0. -1.
         25    2    1    2    0    0  0.83467802773E+02  0.15045405539E+02  0.68820541350E+02  0.16606261553E+03  0.12508911638E+03 0.  0.
         23    2    1    2    0    0 -0.83467802773E+02 -0.15045405539E+02  0.11444015577E+03  0.16878701499E+03  0.90549814183E+02 0.  0.
          5    1    3    3  502    0  0.69424665030E+02 -0.39448053305E+01 -0.21267427947E+02  0.72836264972E+02  0.41800000000E+01 0. -1.
         -5    1    3    3    0  502  0.14043137743E+02  0.18990210869E+02  0.90087969297E+02  0.93226350559E+02  0.41800000000E+01 0. -1.
        -11    1    4    4    0    0 -0.10085588729E+03 -0.87233409396E+01  0.11051812133E+03  0.14987415328E+03  0.00000000000E+00 0.  1.
         11    1    4    4    0    0  0.17388084517E+02 -0.63220645993E+01  0.39220344384E+01  0.18912861711E+02  0.00000000000E+00 0. -1.
</event>
<event>
 8    1  0.7039283E-009  0.2367021E+03  0.7561462E-02  0.1122010E+00
         -2   -1    0    0    0  501 -0.00000000000E+00  0.00000000000E+00  0.50676634678E+03  0.50676634678E+03  0.00000000000E+00 0.  1.
          2   -1    0    0  501    0  0.00000000000E+00 -0.00000000000E+00 -0.12670073400E+03  0.12670073400E+03  0.00000000000E+00 0. -1.
         25    2    1    2    0    0 -0.22770831628E+03 -0.37849476731E+01  0.22120408773E+03  0.34123936014E+03  0.12509056457E+03 0.  0.
         23    2    1    2    0    0  0.22770831628E+03  0.37849476731E+01  0.15886152504E+03  0.29222772064E+03  0.91074987993E+02 0.  0.
          5    1    3    3  502    0 -0.10792429957E+03  0.45606877978E+01  0.24655824191E+02  0.11087757383E+03  0.41800000000E+01 0. -1.
         -5    1    3    3    0  502 -0.11978401671E+03 -0.83456354709E+01  0.19654826354E+03  0.23036178631E+03  0.41800000000E+01 0. -1.
        -11    1    4    4    0    0  0.15888577382E+03  0.44745424657E+02  0.11122257129E+03  0.19904095688E+03  0.00000000000E+00 0.  1.
         11    1    4    4    0    0  0.68822542463E+02 -0.40960476984E+02  0.47638953753E+02  0.93186763763E+02  0.00000000000E+00 0. -1.
</event>
<event>
 8    1  0.7039283E-009  0.6904312E+02  0.7561462E-02  0.1363378E+00
          3   -1    0    0  501    0  0.00000000000E+00  0.00000000000E+00  0.34160156633E+03  0.34160156633E+03  0.00000000000E+00 0. -1.
         -3   -1    0    0    0  501 -0.00000000000E+00 -0.00000000000E+00 -0.44249891794E+02  0.44249891794E+02  0.00000000000E+00 0.  1.
         25    2    1    2    0    0  0.29630686610E+02  0.27420177961E+02  0.22979595419E+03  0.26473224352E+03  0.12508851446E+03 0.  0.
         23    2    1    2    0    0 -0.29630686610E+02 -0.27420177961E+02  0.67555720352E+02  0.12111921461E+03  0.92066525111E+02 0.  0.
          5    1    3    3  502    0  0.21493119379E+02  0.21050163855E+02  0.24444455845E+03  0.24632433525E+03  0.41800000000E+01 0. -1.
         -5    1    3    3    0  502  0.81375672303E+01  0.63700141055E+01 -0.14648604264E+02  0.18407908273E+02  0.41800000000E+01 0. -1.
        -11    1    4    4    0    0 -0.54480114247E+02 -0.41058438394E+02  0.31190626035E+02  0.75011554871E+02  0.00000000000E+00 0. -1.
         11    1    4    4    0    0  0.24849427637E+02  0.13638260433E+02  0.36365094316E+02  0.46107659734E+02  0.00000000000E+00 0.  1.
</event>
<event>
 8    1  0.7039283E-009  0.1021663E+03  0.7561462E-02  0.1275805E+00
         -2   -1    0    0    0  501 -0.00000000000E+00  0.00000000000E+00  0.15478718802E+02  0.15478718802E+02  0.00000000000E+00 0.  1.
          2   -1    0    0  501    0  0.00000000000E+00 -0.00000000000E+00 -0.78147027064E+03  0.78147027064E+03  0.00000000000E+00 0. -1.
         25    2    1    2    0    0  0.78810160403E+01  0.17843861965E+02 -0.48271350310E+03  0.49904003285E+03  0.12509242376E+03 0.  0.
         23    2    1    2    0    0 -0.78810160403E+01 -0.17843861965E+02 -0.28327804873E+03  0.29790895659E+03  0.90126465041E+02 0.  0.
          5    1    3    3  502    0  0.18194411600E+02 -0.52240823699E+02 -0.19922113252E+03  0.20680104525E+03  0.41800000000E+01 0. -1.
         -5    1    3    3    0  502 -0.10313395559E+02  0.70084685664E+02 -0.28349237058E+03  0.29223898760E+03  0.41800000000E+01 0. -1.
        -11    1    4    4    0    0  0.22443278561E+02 -0.36092867171E+02 -0.23035011483E+03  0.23423827872E+03  0.00000000000E+00 0. -1.
         11    1    4    4    0    0 -0.30324294601E+02  0.18249005206E+02 -0.52927933895E+02  0.63670677870E+02  0.00000000000E+00 0.  1.
</event>
<event>
 8    1  0.7039283E-009  0.1106212E+03  0.7561462E-02  0.1259424E+00
          2   -1    0    0  501    0  0.00000000000E+00  0.00000000000E+00  0.27411411527E+03  0.27411411527E+03  0.00000000000E+00 0. -1.
         -2   -1    0    0    0  501 -0.00000000000E+00 -0.00000000000E+00 -0.79093485380E+02  0.79093485380E+02  0.00000000000E+00 0.  1.
         25    2    1    2    0    0 -0.44880759468E+02  0.22772692366E+02  0.22880229222E+01  0.13486200278E+03  0.12509854778E+03 0.  0.
         23    2    1    2    0    0  0.44880759468E+02 -0.22772692366E+02  0.19273260697E+03  0.21834559787E+03  0.89420714791E+02 0.  0.
          5    1    3    3  502    0 -0.41504046040E+02 -0.47070019477E+02  0.12346792981E+02  0.64094370019E+02  0.41800000000E+01 0.  1.
         -5    1    3    3    0  502 -0.33767134278E+01  0.69842711842E+02 -0.10058770059E+02  0.70767632758E+02  0.41800000000E+01 0.  1.
        -11    1    4    4    0    0 -0.12527101501E+02 -0.27979599172E+02  0.12821077376E+03  0.13182484117E+03  0.00000000000E+00 0. -1.
         11    1    4    4    0    0  0.57407860968E+02  0.52069068060E+01  0.64521833204E+02  0.86520756697E+02  0.00000000000E+00 0.  1.
</event>
<event>
 8    1  0.7039283E-009  0.1754962E+03  0.7561462E-02  0.1172234E+00
         -1   -1    0    0    0  501 -0.00000000000E+00  0.00000000000E+00  0.68134682819E+02  0.68134682819E+02  0.00000000000E+00 0.  1.
          1   -1    0    0  501    0  0.00000000000E+00 -0.00000000000E+00 -0.70234563835E+03  0.70234563835E+03  0.00000000000E+00 0. -1.
         25    2    1    2    0    0  0.89267216045E+02  0.13884982223E+03 -0.16540924159E+03  0.26505652903E+03  0.12508731903E+03 0.  0.
         23    2    1    2    0    0 -0.89267216045E+02 -0.13884982223E+03 -0.46880171394E+03  0.50542379214E+03  0.91816412882E+02 0.  0.
          5    1    3    3  502    0  0.22250701299E+02  0.10266058514E+03 -0.15611861617E+03  0.18821472888E+03  0.41800000000E+01 0.  1.
         -5    1    3    3    0  502  0.67016514746E+02  0.36189237093E+02 -0.92906254168E+01  0.76841800153E+02  0.41800000000E+01 0.  1.
        -11    1    4    4    0    0 -0.69237852922E+02 -0.72373988873E+02 -0.37844078150E+03  0.39147068810E+03  0.00000000000E+00 0.  1.
         11    1    4    4    0    0 -0.20029363123E+02 -0.66475833360E+02 -0.90360932437E+02  0.11395310403E+03  0.00000000000E+00 0. -1.
</event>
<event>
 8    1  0.7039283E-009  0.1027426E+03  0.7561462E-02  0.1274632E+00
         -1   -1    0    0    0  501 -0.00000000000E+00  0.00000000000E+00  0.38667874482E+02  0.38667874482E+02  0.00000000000E+00 0.  1.
          1   -1    0    0  501    0  0.00000000000E+00 -0.00000000000E+00 -0.65599097766E+03  0.65599097766E+03  0.00000000000E+00 0. -1.
         25    2    1    2    0    0  0.49618766274E+01 -0.67676114758E+02 -0.54181670357E+03  0.56019263434E+03  0.12508305469E+03 0.  0.
         23    2    1    2    0    0 -0.49618766274E+01  0.67676114758E+02 -0.75506399609E+02  0.13446621781E+03  0.88177494978E+02 0.  0.
          5    1    3    3  502    0 -0.15456787096E+02  0.31845895022E+02 -0.84538579641E+02  0.91745938029E+02  0.41800000000E+01 0.  1.
         -5    1    3    3    0  502  0.20418663724E+02 -0.99522009781E+02 -0.45727812393E+03  0.46844669631E+03  0.41800000000E+01 0.  1.
        -11    1    4    4    0    0  0.10522169706E+01  0.28958141636E+02 -0.88549346104E+02  0.93170101551E+02  0.00000000000E+00 0. -1.
         11    1    4    4    0    0 -0.60140935980E+01  0.38717973122E+02  0.13042946495E+02  0.41296116255E+02  0.00000000000E+00 0.  1.
</event>
<event>
 8    1  0.7039283E-009  0.9528212E+02  0.7561462E-02  0.1290542E+00
          2   -1    0    0  501    0  0.00000000000E+00  0.00000000000E+00  0.79213316090E+03  0.79213316090E+03  0.00000000000E+00 0. -1.
         -2   -1    0    0    0  501 -0.00000000000E+00 -0.00000000000E+00 -0.16931189127E+02  0.16931189127E+02  0.00000000000E+00 0.  1.
         25    2    1    2    0    0  0.17054810775E+02 -0.28245655337E+02  0.54313815307E+03  0.55833493999E+03  0.12510063261E+03 0.  0.
         23    2    1    2    0    0 -0.17054810775E+02  0.28245655337E+02  0.23206381871E+03  0.25072941004E+03  0.89010884111E+02 0.  0.
          5    1    3    3  502    0 -0.28055405052E+02  0.18499930889E+02  0.39593401319E+03  0.39737962755E+03  0.41800000000E+01 0. -1.
         -5    1    3    3    0  502  0.45110215827E+02 -0.46745586226E+02  0.14720413988E+03  0.16095531244E+03  0.41800000000E+01 0. -1.
        -11    1    4    4    0    0 -0.22289353305E+01  0.58167118247E+02  0.17705501537E+03  0.18637827198E+03  0.00000000000E+00 0.  1.
         11    1    4    4    0    0 -0.14825875445E+02 -0.29921462910E+02  0.55008803339E+02  0.64351138064E+02  0.00000000000E+00 0. -1.
</event>
<event>
 8    1  0.7039283E-009  0.1227382E+03  0.7561462E-02  0.1238647E+00
          2   -1    0    0  501    0  0.00000000000E+00  0.00000000000E+00  0.17406559579E+03  0.17406559579E+03  0.00000000000E+00 0. -1.
         -2   -1    0    0    0  501 -0.00000000000E+00 -0.00000000000E+00 -0.31666292063E+03  0.31666292063E+03  0.00000000000E+00 0.  1.
         25    2    1    2    0    0 -0.25477484386E+01  0.10884447581E+03 -0.25893762786E+03  0.30749000085E+03  0.12509114503E+03 0.  0.
         23    2    1    2    0    0  0.25477484386E+01 -0.10884447581E+03  0.11634030302E+03  0.18323851556E+03  0.90485780883E+02 0.  0.
          5    1    3    3  502    0  0.23520809914E+02  0.88968734050E+02 -0.70037905054E+02  0.11572140978E+03  0.41800000000E+01 0.  1.
         -5    1    3    3    0  502 -0.26068558353E+02  0.19875741762E+02 -0.18889972281E+03  0.19176859107E+03  0.41800000000E+01 0.  1.
        -11    1    4    4    0    0 -0.14791343425E+02 -0.99537191487E+02  0.46824400281E+02  0.11099081399E+03  0.00000000000E+00 0.  1.
         11    1    4    4    0    0  0.17339091864E+02 -0.93072843242E+01  0.69515902740E+02  0.72247701569E+02  0.00000000000E+00 0. -1.
</event>
<event>
 8    1  0.7039283E-009  0.8242200E+02  0.7561462E-02  0.1322315E+00
          1   -1    0    0  501    0  0.00000000000E+00  0.00000000000E+00  0.28112431434E+03  0.28112431434E+03  0.00000000000E+00 0. -1.
         -1   -1    0    0    0  501 -0.00000000000E+00 -0.00000000000E+00 -0.42816436291E+02  0.42816436291E+02  0.00000000000E+00 0.  1.
         25    2    1    2    0    0 -0.13970960115E+01 -0.13830840252E+00  0.16743545465E+03  0.20899631476E+03  0.12507140801E+03 0.  0.
         23    2    1    2    0    0  0.13970960115E+01  0.13830840252E+00  0.70872423399E+02  0.11494443588E+03  0.90483987170E+02 0.  0.
          5    1    3    3  502    0  0.33050580055E+01  0.46689190889E+02  0.15229700836E+03  0.15938210411E+03  0.41800000000E+01 0. -1.
         -5    1    3    3    0  502 -0.47021540170E+01 -0.46827499291E+02  0.15138446294E+02  0.49614210650E+02  0.41800000000E+01 0. -1.
        -11    1    4    4    0    0 -0.64490535072E+01  0.34632663473E+02 -0.55991457863E+00  0.35232444916E+02  0.00000000000E+00 0.  1.
         11    1    4    4    0    0  0.78461495187E+01 -0.34494355071E+02  0.71432337978E+02  0.79711990961E+02  0.00000000000E+00 0. -1.
</event>
<event>
 8    1  0.7039283E-009  0.1042003E+03  0.7561462E-02  0.1271703E+00
          2   -1    0    0  501    0  0.00000000000E+00  0.00000000000E+00  0.85685464407E+02  0.85685464407E+02  0.00000000000E+00 0.  1.
         -2   -1    0    0    0  501 -0.00000000000E+00 -0.00000000000E+00 -0.15807054548E+03  0.15807054548E+03  0.00000000000E+00 0. -1.
         25    2    1    2    0    0 -0.41590571359E+02 -0.14435492594E+01 -0.53130051971E+02  0.14213462512E+03  0.12509032646E+03 0.  0.
         23    2    1    2    0    0  0.41590571359E+02  0.14435492594E+01 -0.19255029100E+02  0.10162138477E+03  0.90687872597E+02 0.  0.
          5    1    3    3  502    0  0.52832445291E+00  0.53320708065E+02 -0.49417028899E+02  0.72820959761E+02  0.41800000000E+01 0. -1.
         -5    1    3    3    0  502 -0.42118895812E+02 -0.54764257325E+02 -0.37130230718E+01  0.69313665356E+02  0.41800000000E+01 0. -1.
        -11    1    4    4    0    0 -0.11025178809E+02 -0.24624604465E+02  0.17675119704E+02  0.32254233356E+02  0.00000000000E+00 0.  1.
         11    1    4    4    0    0  0.52615750168E+02  0.26068153725E+02 -0.36930148804E+02  0.69367151412E+02  0.00000000000E+00 0. -1.
</event>
<event>
 8    1  0.7039283E-009  0.1167855E+03  0.7561462E-02  0.1248496E+00
          1   -1    0    0  501    0  0.00000000000E+00  0.00000000000E+00  0.27204221788E+02  0.27204221788E+02  0.00000000000E+00 0. -1.
         -1   -1    0    0    0  501 -0.00000000000E+00 -0.00000000000E+00 -0.79732083029E+03  0.79732083029E+03  0.00000000000E+00 0.  1.
         25    2    1    2    0    0  0.84525968274E+01 -0.97720115677E+02 -0.36652383983E+03  0.39950970093E+03  0.12509040161E+03 0.  0.
         23    2    1    2    0    0 -0.84525968274E+01  0.97720115677E+02 -0.40359276868E+03  0.42501535115E+03  0.90167945427E+02 0.  0.
          5    1    3    3  502    0 -0.14111336629E+01 -0.97798652106E+02 -0.12997909086E+03  0.16272247574E+03  0.41800000000E+01 0. -1.
         -5    1    3    3    0  502  0.98637304904E+01  0.78536429099E-01 -0.23654474897E+03  0.23678722519E+03  0.41800000000E+01 0. -1.
        -11    1    4    4    0    0  0.33760260989E+02  0.57357035628E+02 -0.28695278251E+03  0.29456999873E+03  0.00000000000E+00 0.  1.
         11    1    4    4    0    0 -0.42212857816E+02  0.40363080049E+02 -0.11663998616E+03  0.13044535242E+03  0.00000000000E+00 0. -1.
</event>
<event>
 8    1  0.7039283E-009  0.1618985E+03  0.7561462E-02  0.1186570E+00
         -1   -1    0    0    0  501 -0.00000000000E+00  0.00000000000E+00  0.40350934307E+03  0.40350934307E+03  0.00000000000E+00 0.  1.
          1   -1    0    0  501    0  0.00000000000E+00 -0.00000000000E+00 -0.11562400019E+03  0.11562400019E+03  0.00000000000E+00 0. -1.
         25    2    1    2    0    0  0.76132408511E+02  0.11314364670E+03 -0.29233154465E+01  0.18507491060E+03  0.12508616368E+03 0.  0.
         23    2    1    2    0    0 -0.76132408511E+02 -0.11314364670E+03  0.29080865834E+03  0.33405843266E+03  0.91802681080E+02 0.  0.
          5    1    3    3  502    0  0.18941043400E+02  0.12445669710E+03  0.51859049534E+01  0.12606585021E+03  0.41800000000E+01 0.  1.
         -5    1    3    3    0  502  0.57191365111E+02 -0.11313050398E+02 -0.81092203998E+01  0.59009060390E+02  0.41800000000E+01 0.  1.
        -11    1    4    4    0    0 -0.15096653989E+02 -0.47099658448E+02  0.29226666642E+02  0.57449846219E+02  0.00000000000E+00 0. -1.
         11    1    4    4    0    0 -0.61035754522E+02 -0.66043988256E+02  0.26158199169E+03  0.27660858644E+03  0.00000000000E+00 0.  1.
</event>
<event>
 8    1  0.7039283E-009  0.8997263E+02  0.7561462E-02  0.1302918E+00
          3   -1    0    0  501    0  0.00000000000E+00  0.00000000000E+00  0.35135614475E+03  0.35135614475E+03  0.00000000000E+00 0. -1.
         -3   -1    0    0    0  501 -0.00000000000E+00 -0.00000000000E+00 -0.42673141887E+02  0.42673141887E+02  0.00000000000E+00 0.  1.
         25    2    1    2    0    0  0.54627670523E+02 -0.60445969167E+01  0.14347443700E+03  0.19812533286E+03  0.12509202176E+03 0.  0.
         23    2    1    2    0    0 -0.54627670523E+02  0.60445969167E+01  0.16520856586E+03  0.19590395378E+03  0.89798492934E+02 0.  0.
          5    1    3    3  502    0  0.62865083140E+02 -0.21149419844E+02  0.16040513343E+03  0.17362775086E+03  0.41800000000E+01 0.  1.
         -5    1    3    3    0  502 -0.82374126167E+01  0.15104822927E+02 -0.16930696428E+02  0.24497582000E+02  0.41800000000E+01 0.  1.
        -11    1    4    4    0    0 -0.56138709594E+01  0.37253769950E+02  0.28127452681E+02  0.47016087852E+02  0.00000000000E+00 0. -1.
         11    1    4    4    0    0 -0.49013799563E+02 -0.31209173033E+02  0.13708111318E+03  0.14888786593E+03  0.00000000000E+00 0.  1.
</event>
<event>
 8    1  0.7039283E-009  0.6123629E+02  0.7561462E-02  0.1392716E+00
          2   -1    0    0  501    0  0.00000000000E+00  0.00000000000E+00  0.11413653337E+03  0.11413653337E+03  0.00000000000E+00 0.  1.
         -2   -1    0    0    0  501 -0.00000000000E+00 -0.00000000000E+00 -0.12315834716E+03  0.12315834716E+03  0.00000000000E+00 0. -1.
         25    2    1    2    0    0 -0.30555726939E+02  0.31002940693E+02 -0.32088634211E+02  0.13627662558E+03  0.12508718342E+03 0.  0.
         23    2    1    2    0    0  0.30555726939E+02 -0.31002940693E+02  0.23066820424E+02  0.10101825494E+03  0.88191693747E+02 0.  0.
          5    1    3    3  502    0  0.10973477848E+02  0.54342792071E+01 -0.71979026886E+02  0.73132765010E+02  0.41800000000E+01 0. -1.
         -5    1    3    3    0  502 -0.41529204787E+02  0.25568661486E+02  0.39890392675E+02  0.63143860574E+02  0.41800000000E+01 0. -1.
        -11    1    4    4    0    0 -0.10509166383E+02 -0.98013367219E+01 -0.28411137625E+02  0.31838679633E+02  0.00000000000E+00 0. -1.
         11    1    4    4    0    0  0.41064893323E+02 -0.21201603971E+02  0.51477958049E+02  0.69179575306E+02  0.00000000000E+00 0.  1.
</event>
<event>
 8    1  0.7039283E-009  0.1120247E+03  0.7561462E-02  0.1256866E+00
          1   -1    0    0  501    0  0.00000000000E+00  0.00000000000E+00  0.94044344380E+02  0.94044344380E+02  0.00000000000E+00 0. -1.
         -1   -1    0    0    0  501 -0.00000000000E+00 -0.00000000000E+00 -0.15720232841E+03  0.15720232841E+03  0.00000000000E+00 0.  1.
         25    2    1    2    0    0 -0.14278538089E+02  0.49201032442E+02 -0.11105586841E+02  0.13563057531E+03  0.12509076967E+03 0.  0.
         23    2    1    2    0    0  0.14278538089E+02 -0.49201032442E+02 -0.52052397188E+02  0.11561609748E+03  0.89627070131E+02 0.  0.
          5    1    3    3  502    0  0.53352750595E+02  0.29795972243E+02  0.99811030831E+01  0.62059735551E+02  0.41800000000E+01 0. -1.
         -5    1    3    3    0  502 -0.67631288684E+02  0.19405060200E+02 -0.21086689924E+02  0.73570839755E+02  0.41800000000E+01 0. -1.
        -11    1    4    4    0    0  0.46181013494E+02 -0.30258659488E+02 -0.46309893763E+01  0.55405040780E+02  0.00000000000E+00 0.  1.
         11    1    4    4    0    0 -0.31902475405E+02 -0.18942372955E+02 -0.47421407812E+02  0.60211056700E+02  0.00000000000E+00 0. -1.
</event>
<event>
 8    1  0.7039283E-009  0.1383197E+03  0.7561462E-02  0.1215608E+00
          1   -1    0    0  501    0  0.00000000000E+00  0.00000000000E+00  0.25791268565E+03  0.25791268565E+03  0.00000000000E+00 0. -1.
         -1   -1    0    0    0  501 -0.00000000000E+00 -0.00000000000E+00 -0.10834618871E+03  0.10834618871E+03  0.00000000000E+00 0.  1.
         25    2    1    2    0    0 -0.10318246979E+03  0.32545732718E+02  0.71708876679E+01  0.16554493085E+03  0.12509138944E+03 0.  0.
         23    2    1    2    0    0  0.10318246979E+03 -0.32545732718E+02  0.14239560927E+03  0.20071394351E+03  0.91124808842E+02 0.  0.
          5    1    3    3  502    0 -0.13000080569E+03  0.10733962482E+02  0.74647050837E+01  0.13072345487E+03  0.41800000000E+01 0. -1.
         -5    1    3    3    0  502  0.26818335900E+02  0.21811770235E+02 -0.29381741577E+00  0.34821475987E+02  0.41800000000E+01 0. -1.
        -11    1    4    4    0    0  0.66341643664E+02 -0.33782000855E+02  0.26380106234E+02  0.78983208789E+02  0.00000000000E+00 0.  1.
         11    1    4    4    0    0  0.36840826126E+02  0.12362681373E+01  0.11601550304E+03  0.12173073472E+03  0.00000000000E+00 0. -1.
</event>
<event>
 8    1  0.7039283E-009  0.1645096E+03  0.7561462E-02  0.1183698E+00
          1   -1    0    0  501    0  0.00000000000E+00  0.00000000000E+00  0.30454439680E+03  0.30454439680E+03  0.00000000000E+00 0. -1.
         -1   -1    0    0    0  501 -0.00000000000E+00 -0.00000000000E+00 -0.12447161392E+03  0.12447161392E+03  0.00000000000E+00 0.  1.
         25    2    1    2    0    0  0.60526080661E+02  0.13085386368E+03  0.12220441522E+02  0.19126945060E+03  0.12509405846E+03 0.  0.
         23    2    1    2    0    0 -0.60526080661E+02 -0.13085386368E+03  0.16785234136E+03  0.23774656012E+03  0.86964810520E+02 0.  0.
          5    1    3    3  502    0  0.70722843878E+02  0.56515755016E+02 -0.40709203252E+02  0.99350203022E+02  0.41800000000E+01 0. -1.
         -5    1    3    3    0  502 -0.10196763216E+02  0.74338108664E+02  0.52929644773E+02  0.91919247580E+02  0.41800000000E+01 0. -1.
        -11    1    4    4    0    0 -0.55320564521E+02 -0.31318814708E+02  0.38037493032E+02  0.74081602910E+02  0.00000000000E+00 0.  1.
         11    1    4    4    0    0 -0.52055161403E+01 -0.99535048971E+02  0.12981484832E+03  0.16366495721E+03  0.00000000000E+00 0. -1.
</event>
<event>
 8    1  0.7039283E-009  0.1059586E+03  0.7561462E-02  0.1268242E+00
          1   -1    0    0  501    0  0.00000000000E+00  0.00000000000E+00  0.13217419901E+03  0.13217419901E+03  0.00000000000E+00 0. -1.
         -1   -1    0    0    0  501 -0.00000000000E+00 -0.00000000000E+00 -0.92656246858E+02  0.92656246858E+02  0.00000000000E+00 0.  1.
         25    2    1    2    0    0  0.28975245338E+02  0.68611365943E+01  0.31344239590E+02  0.13234778379E+03  0.12508730743E+03 0.  0.
         23    2    1    2    0    0 -0.28975245338E+02 -0.68611365943E+01  0.81737125666E+01  0.92482662086E+02  0.87175645518E+02 0.  0.
          5    1    3    3  502    0  0.61005088550E+02 -0.38545187234E+02  0.23886002417E+02  0.76127299961E+02  0.41800000000E+01 0.  1.
         -5    1    3    3    0  502 -0.32029843212E+02  0.45406323829E+02  0.74582371731E+01  0.56220483825E+02  0.41800000000E+01 0.  1.
        -11    1    4    4    0    0 -0.69635833494E+01  0.35497572333E+02  0.22551516871E+02  0.42627925680E+02  0.00000000000E+00 0. -1.
         11    1    4    4    0    0 -0.22011661989E+02 -0.42358708927E+02 -0.14377804304E+02  0.49854736406E+02  0.00000000000E+00 0.  1.
</event>
<event>
 8    1  0.7039283E-009  0.8710682E+02  0.7561462E-02  0.1310013E+00
          2   -1    0    0  501    0  0.00000000000E+00  0.00000000000E+00  0.14937436213E+04  0.14937436213E+04  0.00000000000E+00 0.  1.
         -2   -1    0    0    0  501 -0.00000000000E+00 -0.00000000000E+00 -0.11857865048E+02  0.11857865048E+02  0.00000000000E+00 0. -1.
         25    2    1    2    0    0 -0.21155163865E+02  0.86625835865E+01  0.12346397564E+04  0.12411711892E+04  0.12509201243E+03 0.  0.
         23    2    1    2    0    0  0.21155163865E+02 -0.86625835865E+01  0.24724599985E+03  0.26443029712E+03  0.90940729488E+02 0.  0.
          5    1    3    3  502    0 -0.48872052230E+02 -0.64260576787E+01  0.19949606141E+03  0.20553812937E+03  0.41800000000E+01 0.  1.
         -5    1    3    3    0  502  0.27716888365E+02  0.15088641265E+02  0.10351436950E+04  0.10356330598E+04  0.41800000000E+01 0.  1.
        -11    1    4    4    0    0 -0.91540964782E+01  0.36993791757E+02  0.84246013284E+02  0.92464743903E+02  0.00000000000E+00 0.  1.
         11    1    4    4    0    0  0.30309260343E+02 -0.45656375343E+02  0.16299998656E+03  0.17196555321E+03  0.00000000000E+00 0. -1.
</event>
<event>
 8    1  0.7039283E-009  0.2262954E+03  0.7561462E-02  0.1129275E+00
         -1   -1    0    0    0  501 -0.00000000000E+00  0.00000000000E+00  0.19130991847E+03  0.19130991847E+03  0.00000000000E+00 0.  1.
          1   -1    0    0  501    0  0.00000000000E+00 -0.00000000000E+00 -0.42034653103E+03  0.42034653103E+03  0.00000000000E+00 0. -1.
         25    2    1    2    0    0 -0.28869840339E+02  0.21935045555E+03 -0.26811181204E+03  0.36943337253E+03  0.12509589503E+03 0.  0.
         23    2    1    2    0    0  0.28869840339E+02 -0.21935045555E+03  0.39075199481E+02  0.24222307696E+03  0.90537604158E+02 0.  0.
          5    1    3    3  502    0  0.58790230737E+01  0.40022541444E+02  0.48596757534E+01  0.40956752610E+02  0.41800000000E+01 0. -1.
         -5    1    3    3    0  502 -0.34748863413E+02  0.17932791411E+03 -0.27297148779E+03  0.32847661992E+03  0.41800000000E+01 0. -1.
        -11    1    4    4    0    0 -0.82533449614E+01 -0.15267918348E+03 -0.70352783918E+01  0.15306386220E+03  0.00000000000E+00 0. -1.
         11    1    4    4    0    0  0.37123185300E+02 -0.66671272074E+02  0.46110477872E+02  0.89159214759E+02  0.00000000000E+00 0.  1.
</event>
<event>
 8    1  0.7039283E-009  0.1756359E+03  0.7561462E-02  0.1172095E+00
          3   -1    0    0  501    0  0.00000000000E+00  0.00000000000E+00  0.13892849006E+03  0.13892849006E+03  0.00000000000E+00 0. -1.
         -3   -1    0    0    0  501 -0.00000000000E+00 -0.00000000000E+00 -0.53154937129E+03  0.53154937129E+03  0.00000000000E+00 0.  1.
         25    2    1    2    0    0  0.75043477019E+02 -0.13257190988E+03  0.41081065307E+02  0.20134975361E+03  0.12508890686E+03 0.  0.
         23    2    1    2    0    0 -0.75043477019E+02  0.13257190988E+03 -0.43370194654E+03  0.46912810773E+03  0.93685475406E+02 0.  0.
          5    1    3    3  502    0  0.26644042862E+02  0.16047347938E+02 -0.15586144228E+02  0.35040300908E+02  0.41800000000E+01 0. -1.
         -5    1    3    3    0  502  0.48399434157E+02 -0.14861925782E+03  0.56667209535E+02  0.16630945270E+03  0.41800000000E+01 0. -1.
        -11    1    4    4    0    0 -0.69301098255E+02  0.62797552654E+02 -0.33704920893E+03  0.34978328159E+03  0.00000000000E+00 0.  1.
         11    1    4    4    0    0 -0.57423787638E+01  0.69774357226E+02 -0.96652737604E+02  0.11934482614E+03  0.00000000000E+00 0. -1.
</event>
<event>
 8    1  0.7039283E-009  0.1177339E+03  0.7561462E-02  0.1246883E+00
          1   -1    0    0  501    0  0.00000000000E+00  0.00000000000E+00  0.19100869540E+04  0.19100869540E+04  0.00000000000E+00 0. -1.
         -1   -1    0    0    0  501 -0.00000000000E+00 -0.00000000000E+00 -0.14296537468E+02  0.14296537468E+02  0.00000000000E+00 0.  1.
         25    2    1    2    0    0 -0.72969224781E+01 -0.71828845026E+02  0.16050695846E+04  0.16115545561E+04  0.12508831913E+03 0.  0.
         23    2    1    2    0    0  0.72969224781E+01  0.71828845026E+02  0.29072083188E+03  0.31282893540E+03  0.90170464531E+02 0.  0.
          5    1    3    3  502    0 -0.50832221730E+02 -0.11939076847E+02  0.31254418415E+03  0.31690344866E+03  0.41800000000E+01 0. -1.
         -5    1    3    3    0  502  0.43535299252E+02 -0.59889768179E+02  0.12925254005E+04  0.12946511074E+04  0.41800000000E+01 0. -1.
        -11    1    4    4    0    0 -0.18725290343E+02  0.79596422124E+02  0.16428642319E+03  0.18351091454E+03  0.00000000000E+00 0.  1.
         11    1    4    4    0    0  0.26022212821E+02 -0.77675770987E+01  0.12643440870E+03  0.12931802085E+03  0.00000000000E+00 0. -1.
</event>
<event>
 8    1  0.7039283E-009  0.1161287E+03  0.7561462E-02  0.1249624E+00
          2   -1    0    0  501    0  0.00000000000E+00  0.00000000000E+00  0.19522919470E+03  0.19522919470E+03  0.00000000000E+00 0. -1.
         -2   -1    0    0    0  501 -0.00000000000E+00 -0.00000000000E+00 -0.76406545865E+02  0.76406545865E+02  0.00000000000E+00 0.  1.
         25    2    1    2    0    0  0.50171768011E+02 -0.71108859116E+01  0.92271324231E+02  0.16348883688E+03  0.12508729553E+03 0.  0.
         23    2    1    2    0    0 -0.50171768011E+02  0.71108859116E+01  0.26551324601E+02  0.10814690369E+03  0.91776952090E+02 0.  0.
          5    1    3    3  502    0 -0.39069849915E+02  0.87511918386E+01  0.47637237550E+02  0.62368384077E+02  0.41800000000E+01 0.  1.
         -5    1    3    3    0  502  0.89241617926E+02 -0.15862077750E+02  0.44634086682E+02  0.10112045280E+03  0.41800000000E+01 0.  1.
        -11    1    4    4    0    0 -0.75562073078E+02  0.68692009714E+01  0.31715616062E+02  0.82235595165E+02  0.00000000000E+00 0. -1.
         11    1    4    4    0    0  0.25390305067E+02  0.24168494026E+00 -0.51642914609E+01  0.25911308521E+02  0.00000000000E+00 0.  1.
</event>
<event>
 8    1  0.7039283E-009  0.2868363E+03  0.7561462E-02  0.1092013E+00
         -1   -1    0    0    0  501 -0.00000000000E+00  0.00000000000E+00  0.15086714842E+03  0.15086714842E+03  0.00000000000E+00 0.  1.
          1   -1    0    0  501    0  0.00000000000E+00 -0.00000000000E+00 -0.61265246572E+03  0.61265246572E+03  0.00000000000E+00 0. -1.
         25    2    1    2    0    0  0.23552897072E+03  0.15386446263E+03 -0.27911626353E+03  0.41557576657E+03  0.12509660381E+03 0.  0.
         23    2    1    2    0    0 -0.23552897072E+03 -0.15386446263E+03 -0.18266905378E+03  0.34794384757E+03  0.92459553016E+02 0.  0.
          5    1    3    3  502    0  0.11086049348E+03  0.11492785692E+03 -0.22069278497E+03  0.27243575215E+03  0.41800000000E+01 0. -1.
         -5    1    3    3    0  502  0.12466847724E+03  0.38936605715E+02 -0.58423478557E+02  0.14314001442E+03  0.41800000000E+01 0. -1.
        -11    1    4    4    0    0 -0.15169886449E+03 -0.79841180145E+02 -0.15861767517E+03  0.23355240613E+03  0.00000000000E+00 0. -1.
         11    1    4    4    0    0 -0.83830106236E+02 -0.74023282487E+02 -0.24051378608E+02  0.11439144144E+03  0.00000000000E+00 0.  1.
</event>
<event>
 8    1  0.7039283E-009  0.6659746E+02  0.7561462E-02  0.1372061E+00
          4   -1    0    0  501    0  0.00000000000E+00  0.00000000000E+00  0.52297970100E+03  0.52297970100E+03  0.00000000000E+00 0. -1.
         -4   -1    0    0    0  501 -0.00000000000E+00 -0.00000000000E+00 -0.28262084953E+02  0.28262084953E+02  0.00000000000E+00 0.  1.
         25    2    1    2    0    0  0.89971178896E+01  0.72827547879E+01  0.39858138032E+03  0.41790972641E+03  0.12508971201E+03 0.  0.
         23    2    1    2    0    0 -0.89971178896E+01 -0.72827547879E+01  0.96136235727E+02  0.13333205953E+03  0.91658472780E+02 0.  0.
          5    1    3    3  502    0 -0.14414997874E+02  0.22078558632E+02  0.38647522634E+03  0.38739621564E+03  0.41800000000E+01 0. -1.
         -5    1    3    3    0  502  0.23412115764E+02 -0.14795803845E+02  0.12106153976E+02  0.30513510779E+02  0.41800000000E+01 0. -1.
        -11    1    4    4    0    0 -0.43518889322E+02 -0.61229155090E+01  0.17243915982E+02  0.47209495449E+02  0.00000000000E+00 0.  1.
         11    1    4    4    0    0  0.34521771432E+02 -0.11598392789E+01  0.78892319745E+02  0.86122564086E+02  0.00000000000E+00 0. -1.
</event>
<event>
 8    1  0.7039283E-009  0.7557107E+02  0.7561462E-02  0.1342112E+00
         -2   -1    0    0    0  501 -0.00000000000E+00  0.00000000000E+00  0.85807092353E+02  0.85807092353E+02  0.00000000000E+00 0.  1.
          2   -1    0    0  501    0  0.00000000000E+00 -0.00000000000E+00 -0.15117110936E+03  0.15117110936E+03  0.00000000000E+00 0. -1.
         25    2    1    2    0    0 -0.10965215991E+02  0.19298020953E+02 -0.66045844782E+02  0.14318798795E+03  0.12509235271E+03 0.  0.
         23    2    1    2    0    0  0.10965215991E+02 -0.19298020953E+02  0.68182777836E+00  0.93790213760E+02  0.91123486180E+02 0.  0.
          5    1    3    3  502    0 -0.50461251094E+02 -0.12781437919E+01 -0.81420554613E+02  0.95889262313E+02  0.41800000000E+01 0. -1.
         -5    1    3    3    0  502  0.39496035103E+02  0.20576164745E+02  0.15374709831E+02  0.47298725637E+02  0.41800000000E+01 0. -1.
        -11    1    4    4    0    0 -0.13587711253E+02 -0.26834259742E+02 -0.37314484432E+02  0.47927801341E+02  0.00000000000E+00 0. -1.
         11    1    4    4    0    0  0.24552927244E+02  0.75362387888E+01  0.37996312210E+02  0.45862412419E+02  0.00000000000E+00 0.  1.
</event>
<event>
 8    1  0.7039283E-009  0.1132892E+03  0.7561462E-02  0.1254597E+00
          2   -1    0    0  501    0  0.00000000000E+00  0.00000000000E+00  0.17560761678E+03  0.17560761678E+03  0.00000000000E+00 0.  1.
         -2   -1    0    0    0  501 -0.00000000000E+00 -0.00000000000E+00 -0.98624770481E+02  0.98624770481E+02  0.00000000000E+00 0. -1.
         25    2    1    2    0    0  0.65692558346E+02  0.71549810713E+01  0.76318081043E+01  0.14167930089E+03  0.12509226127E+03 0.  0.
         23    2    1    2    0    0 -0.65692558346E+02 -0.71549810713E+01  0.69351038196E+02  0.13255308637E+03  0.91619038592E+02 0.  0.
          5    1    3    3  502    0 -0.17174505895E+02  0.44850020562E+02 -0.90001635366E+01  0.49040425578E+02  0.41800000000E+01 0. -1.
         -5    1    3    3    0  502  0.82867064241E+02 -0.37695039491E+02  0.16631971641E+02  0.92638875310E+02  0.41800000000E+01 0. -1.
        -11    1    4    4    0    0  0.47504664797E+01  0.13104298613E+02 -0.15220025813E+02  0.20638283835E+02  0.00000000000E+00 0. -1.
         11    1    4    4    0    0 -0.70443024825E+02 -0.20259279684E+02  0.84571064009E+02  0.11191480254E+03  0.00000000000E+00 0.  1.
</event>
<event>
 8    1  0.7039283E-009  0.1130516E+03  0.7561462E-02  0.1255021E+00
         -1   -1    0    0    0  501 -0.00000000000E+00  0.00000000000E+00  0.11781406624E+03  0.11781406624E+03  0.00000000000E+00 0.  1.
          1   -1    0    0  501    0  0.00000000000E+00 -0.00000000000E+00 -0.16087781418E+03  0.16087781418E+03  0.00000000000E+00 0. -1.
         25    2    1    2    0    0 -0.30828734618E+02  0.18695839597E+02  0.51958520377E+02  0.14016729273E+03  0.12508891564E+03 0.  0.
         23    2    1    2    0    0  0.30828734618E+02 -0.18695839597E+02 -0.95022268317E+02  0.13852458770E+03  0.94126960135E+02 0.  0.
          5    1    3    3  502    0 -0.23395425842E+02 -0.52758358974E+02  0.18025656421E+02  0.60606823720E+02  0.41800000000E+01 0. -1.
         -5    1    3    3    0  502 -0.74333087761E+01  0.71454198571E+02  0.33932863955E+02  0.79560469010E+02  0.41800000000E+01 0. -1.
        -11    1    4    4    0    0 -0.25702522775E+02  0.15686976048E+02 -0.50426457840E+02  0.58732687192E+02  0.00000000000E+00 0. -1.
         11    1    4    4    0    0  0.56531257393E+02 -0.34382815645E+02 -0.44595810477E+02  0.79791900505E+02  0.00000000000E+00 0.  1.
</event>
<event>
 8    1  0.7039283E-009  0.1111339E+03  0.7561462E-02  0.1258484E+00
          2   -1    0    0  501    0  0.00000000000E+00  0.00000000000E+00  0.49173755582E+03  0.49173755582E+03  0.00000000000E+00 0. -1.
         -2   -1    0    0    0  501 -0.00000000000E+00 -0.00000000000E+00 -0.49749928729E+02  0.49749928729E+02  0.00000000000E+00 0.  1.
         25    2    1    2    0    0  0.41860860541E+02 -0.57415434188E+02  0.38447307333E+03  0.41050672817E+03  0.12508943214E+03 0.  0.
         23    2    1    2    0    0 -0.41860860541E+02  0.57415434188E+02  0.57514553760E+02  0.13098075637E+03  0.93803896070E+02 0.  0.
          5    1    3    3  502    0  0.54901402242E+02  0.16876745899E+02  0.92861641070E+02  0.10926914158E+03  0.41800000000E+01 0.  1.
         -5    1    3    3    0  502 -0.13040541701E+02 -0.74292180087E+02  0.29161143226E+03  0.30123758659E+03  0.41800000000E+01 0.  1.
        -11    1    4    4    0    0  0.82065528674E+01  0.31904963447E+02 -0.17461241841E+02  0.37284972430E+02  0.00000000000E+00 0.  1.
         11    1    4    4    0    0 -0.50067413408E+02  0.25510470742E+02  0.74975795601E+02  0.93695783944E+02  0.00000000000E+00 0. -1.
</event>
<event>
 8    1  0.7039283E-009  0.7537502E+02  0.7561462E-02  0.1342714E+00
         -1   -1    0    0    0  501 -0.00000000000E+00  0.00000000000E+00  0.47151232937E+02  0.47151232937E+02  0.00000000000E+00 0.  1.
          1   -1    0    0  501    0  0.00000000000E+00 -0.00000000000E+00 -0.30844501396E+03  0.30844501396E+03  0.00000000000E+00 0. -1.
         25    2    1    2    0    0  0.27403511503E+02  0.32327543574E+02 -0.19057341547E+03  0.23187333570E+03  0.12510393521E+03 0.  0.
         23    2    1    2    0    0 -0.27403511503E+02 -0.32327543574E+02 -0.70720365548E+02  0.12372291120E+03  0.92249477699E+02 0.  0.
          5    1    3    3  502    0  0.50457746574E+02  0.95103962596E+01 -0.15537327863E+02  0.53808110759E+02  0.41800000000E+01 0.  1.
         -5    1    3    3    0  502 -0.23054235071E+02  0.22817147315E+02 -0.17503608761E+03  0.17806522494E+03  0.41800000000E+01 0.  1.
        -11    1    4    4    0    0 -0.30702767849E+02  0.31816877450E+01  0.12408106423E+02  0.33267765111E+02  0.00000000000E+00 0.  1.
         11    1    4    4    0    0  0.32992563463E+01 -0.35509231319E+02 -0.83128471971E+02  0.90455146086E+02  0.00000000000E+00 0. -1.
</event>
<event>
 8    1  0.7039283E-009  0.3117754E+03  0.7561462E-02  0.1079498E+00
         -2   -1    0    0    0  501 -0.00000000000E+00  0.00000000000E+00  0.20310435214E+03  0.20310435214E+03  0.00000000000E+00 0.  1.
          2   -1    0    0  501    0  0.00000000000E+00 -0.00000000000E+00 -0.55965354407E+03  0.55965354407E+03  0.00000000000E+00 0. -1.
         25    2    1    2    0    0 -0.17281659735E+03  0.24426498389E+03 -0.30545940076E+03  0.44551600229E+03  0.12509238229E+03 0.  0.
         23    2    1    2    0    0  0.17281659735E+03 -0.24426498389E+03 -0.51089791173E+02  0.31724189392E+03  0.92202461024E+02 0.  0.
          5    1    3    3  502    0 -0.11671534925E+03  0.70544674720E+02 -0.91762118926E+02  0.16442865551E+03  0.41800000000E+01 0. -1.
         -5    1    3    3    0  502 -0.56101248101E+02  0.17372030917E+03 -0.21369728183E+03  0.28108734678E+03  0.41800000000E+01 0. -1.
        -11    1    4    4    0    0  0.15073482744E+03 -0.17083520027E+03 -0.69862799615E+02  0.23829910748E+03  0.00000000000E+00 0. -1.
         11    1    4    4    0    0  0.22081769913E+02 -0.73429783617E+02  0.18773008442E+02  0.78942786437E+02  0.00000000000E+00 0.  1.
</event>
<event>
 8    1  0.7039283E-009  0.1064308E+03  0.7561462E-02  0.1267326E+00
         -2   -1    0    0    0  501 -0.00000000000E+00  0.00000000000E+00  0.81983604226E+02  0.81983604226E+02  0.00000000000E+00 0.  1.
          2   -1    0    0  501    0  0.00000000000E+00 -0.00000000000E+00 -0.21410700144E+03  0.21410700144E+03  0.00000000000E+00 0. -1.
         25    2    1    2    0    0 -0.49124614751E+02  0.41532962071E+02 -0.30125213613E+02  0.14384910672E+03  0.12508725873E+03 0.  0.
         23    2    1    2    0    0  0.49124614751E+02 -0.41532962071E+02 -0.10199818360E+03  0.15224149894E+03  0.92928089566E+02 0.  0.
          5    1    3    3  502    0 -0.78559762533E+02  0.57662195596E+02  0.14886384241E+01  0.97551286688E+02  0.41800000000E+01 0.  1.
         -5    1    3    3    0  502  0.29435147782E+02 -0.16129233525E+02 -0.31613852037E+02  0.46297820031E+02  0.41800000000E+01 0.  1.
        -11    1    4    4    0    0  0.50655853832E+02 -0.12172931834E+02 -0.67188892000E+01  0.52529413369E+02  0.00000000000E+00 0.  1.
         11    1    4    4    0    0 -0.15312390804E+01 -0.29360030237E+02 -0.95279294396E+02  0.99712085573E+02  0.00000000000E+00 0. -1.
</event>
<event>
 8    1  0.7039283E-009  0.1459421E+03  0.7561462E-02  0.1205550E+00
          3   -1    0    0  501    0  0.00000000000E+00  0.00000000000E+00  0.19584560094E+03  0.19584560094E+03  0.00000000000E+00 0. -1.
         -3   -1    0    0    0  501 -0.00000000000E+00 -0.00000000000E+00 -0.19076992200E+03  0.19076992200E+03  0.00000000000E+00 0.  1.
         25    2    1    2    0    0  0.13068908117E+03 -0.26439687179E+02  0.90662068716E+02  0.20407234419E+03  0.12508884029E+03 0.  0.
         23    2    1    2    0    0 -0.13068908117E+03  0.26439687179E+02 -0.85586389783E+02  0.18254317875E+03  0.90654779228E+02 0.  0.
          5    1    3    3  502    0  0.12848346351E+03 -0.34847954416E+02  0.11621173570E+03  0.17676260984E+03  0.41800000000E+01 0.  1.
         -5    1    3    3    0  502  0.22056176584E+01  0.84082672371E+01 -0.25549666985E+02  0.27309734349E+02  0.41800000000E+01 0.  1.
        -11    1    4    4    0    0 -0.15829445323E+02  0.30231986326E+02  0.71551666139E+01  0.34867474037E+02  0.00000000000E+00 0.  1.
         11    1    4    4    0    0 -0.11485963585E+03 -0.37922991464E+01 -0.92741556397E+02  0.14767570471E+03  0.00000000000E+00 0. -1.
</event>
<event>
 8    1  0.7039283E-009  0.8323530E+02  0.7561462E-02  0.1320113E+00
         -1   -1    0    0    0  501 -0.00000000000E+00  0.00000000000E+00  0.57072553800E+02  0.57072553800E+02  0.00000000000E+00 0.  1.
          1   -1    0    0  501    0  0.00000000000E+00 -0.00000000000E+00 -0.37526452678E+03  0.37526452678E+03  0.00000000000E+00 0. -1.
         25    2    1    2    0    0  0.18744130294E+02  0.56789412654E+02 -0.29188293681E+03  0.32314128854E+03  0.12509302037E+03 0.  0.
         23    2    1    2    0    0 -0.18744130294E+02 -0.56789412654E+02 -0.26309036173E+02  0.10919579205E+03  0.87493861536E+02 0.  0.
          5    1    3    3  502    0 -0.54175842933E+01  0.16464040176E+02  0.80181418148E+01  0.19549369214E+02  0.41800000000E+01 0.  1.
         -5    1    3    3    0  502  0.24161714587E+02  0.40325372479E+02 -0.29990107863E+03  0.30359191932E+03  0.41800000000E+01 0.  1.
        -11    1    4    4    0    0 -0.49693938732E+02 -0.20514133471E+02  0.18947873748E+01  0.53795050311E+02  0.00000000000E+00 0. -1.
         11    1    4    4    0    0  0.30949808439E+02 -0.36275279183E+02 -0.28203823547E+02  0.55400741736E+02  0.00000000000E+00 0.  1.
</event>
<event>
 8    1  0.7039283E-009  0.1407401E+03  0.7561462E-02  0.1212337E+00
          2   -1    0    0  501    0  0.00000000000E+00  0.00000000000E+00  0.45801284918E+03  0.45801284918E+03  0.00000000000E+00 0. -1.
         -2   -1    0    0    0  501 -0.00000000000E+00 -0.00000000000E+00 -0.51401594859E+02  0.51401594859E+02  0.00000000000E+00 0.  1.
         25    2    1    2    0    0 -0.40238084561E+02 -0.83760775869E+02  0.30524446972E+03  0.34271812239E+03  0.12508618667E+03 0.  0.
         23    2    1    2    0    0  0.40238084561E+02  0.83760775869E+02  0.10136678460E+03  0.16669632165E+03  0.94220314198E+02 0.  0.
          5    1    3    3  502    0 -0.68900780429E+02 -0.97628789107E+01  0.94066283974E+02  0.11708360060E+03  0.41800000000E+01 0. -1.
         -5    1    3    3    0  502  0.28662695869E+02 -0.73997896959E+02  0.21117818574E+03  0.22563452179E+03  0.41800000000E+01 0. -1.
        -11    1    4    4    0    0 -0.24317808776E+02  0.57823834848E+02  0.49947884530E+02  0.80185677457E+02  0.00000000000E+00 0.  1.
         11    1    4    4    0    0  0.64555893336E+02  0.25936941021E+02  0.51418900071E+02  0.86510644192E+02  0.00000000000E+00 0. -1.
</event>
<event>
 8    1  0.7039283E-009  0.1563212E+03  0.7561462E-02  0.1192914E+00
         -4   -1    0    0    0  501 -0.00000000000E+00  0.00000000000E+00  0.34112642732E+02  0.34112642732E+02  0.00000000000E+00 0.  1.
          4   -1    0    0  501    0  0.00000000000E+00 -0.00000000000E+00 -0.97075302110E+03  0.97075302110E+03  0.00000000000E+00 0. -1.
         25    2    1    2    0    0  0.23544669089E+02  0.14029919124E+03 -0.58334252315E+03  0.61333069090E+03  0.12509125700E+03 0.  0.
         23    2    1    2    0    0 -0.23544669089E+02 -0.14029919124E+03 -0.35329785522E+03  0.39153497293E+03  0.90785714846E+02 0.  0.
          5    1    3    3  502    0  0.11343630577E+01  0.91001661317E+02 -0.52795065800E+03  0.53575363631E+03  0.41800000000E+01 0. -1.
         -5    1    3    3    0  502  0.22410306031E+02  0.49297529928E+02 -0.55391865154E+02  0.77577054589E+02  0.41800000000E+01 0. -1.
        -11    1    4    4    0    0  0.72611949853E+01  0.10801586920E+02 -0.44638087800E+02  0.46496861346E+02  0.00000000000E+00 0.  1.
         11    1    4    4    0    0 -0.30805864074E+02 -0.15110077817E+03 -0.30865976742E+03  0.34503811158E+03  0.00000000000E+00 0. -1.
</event>
<event>
 8    1  0.7039283E-009  0.1106750E+03  0.7561462E-02  0.1259325E+00
         -1   -1    0    0    0  501 -0.00000000000E+00  0.00000000000E+00  0.89386656873E+02  0.89386656873E+02  0.00000000000E+00 0.  1.
          1   -1    0    0  501    0  0.00000000000E+00 -0.00000000000E+00 -0.20320625592E+03  0.20320625592E+03  0.00000000000E+00 0. -1.
         25    2    1    2    0    0 -0.11712744645E+01  0.61687312909E+02 -0.81936544560E+01  0.13971970545E+03  0.12509102150E+03 0.  0.
         23    2    1    2    0    0  0.11712744645E+01 -0.61687312909E+02 -0.10562594459E+03  0.15287320734E+03  0.91687953927E+02 0.  0.
          5    1    3    3  502    0 -0.49025483441E+02  0.24319345422E+02 -0.42897894124E+02  0.69660823342E+02  0.41800000000E+01 0.  1.
         -5    1    3    3    0  502  0.47854208976E+02  0.37367967488E+02  0.34704239668E+02  0.70058882105E+02  0.41800000000E+01 0.  1.
        -11    1    4    4    0    0  0.23108850201E+02  0.13853676066E+02 -0.49104131765E+02  0.56010347745E+02  0.00000000000E+00 0. -1.
         11    1    4    4    0    0 -0.21937575736E+02 -0.75540988976E+02 -0.56521812823E+02  0.96862859598E+02  0.00000000000E+00 0.  1.
</event>
<event>
 8    1  0.7039283E-009  0.1009767E+03  0.7561462E-02  0.1278255E+00
         -1   -1    0    0    0  501 -0.00000000000E+00  0.00000000000E+00  0.19075742464E+02  0.19075742464E+02  0.00000000000E+00 0.  1.
          1   -1    0    0  501    0  0.00000000000E+00 -0.00000000000E+00 -0.72487540954E+03  0.72487540954E+03  0.00000000000E+00 0. -1.
         25    2    1    2    0    0 -0.27481522603E+02  0.10374402653E+02 -0.30957487417E+03  0.33517920002E+03  0.12508249715E+03 0.  0.
         23    2    1    2    0    0  0.27481522603E+02 -0.10374402653E+02 -0.39622479291E+03  0.40877195198E+03  0.96112225543E+02 0.  0.
          5    1    3    3  502    0 -0.59041209711E+02  0.37911601972E+02 -0.26375314041E+03  0.27295850506E+03  0.41800000000E+01 0.  1.
         -5    1    3    3    0  502  0.31559687108E+02 -0.27537199319E+02 -0.45821733758E+02  0.62220694960E+02  0.41800000000E+01 0.  1.
        -11    1    4    4    0    0 -0.28368945375E+02 -0.17400894512E+02 -0.67456057040E+02  0.75219065554E+02  0.00000000000E+00 0.  1.
         11    1    4    4    0    0  0.55850467978E+02  0.70264918584E+01 -0.32876873587E+03  0.33355288643E+03  0.00000000000E+00 0. -1.
</event>
<event>
 8    1  0.7039283E-009  0.1807127E+03  0.7561462E-02  0.1167115E+00
         -2   -1    0    0    0  501 -0.00000000000E+00  0.00000000000E+00  0.17986789139E+03  0.17986789139E+03  0.00000000000E+00 0.  1.
          2   -1    0    0  501    0  0.00000000000E+00 -0.00000000000E+00 -0.22972214101E+03  0.22972214101E+03  0.00000000000E+00 0. -1.
         25    2    1    2    0    0 -0.13117381743E+03 -0.11019219084E+03 -0.35976904095E+02  0.21514914040E+03  0.12508367474E+03 0.  0.
         23    2    1    2    0    0  0.13117381743E+03  0.11019219084E+03 -0.13877345527E+02  0.19444089200E+03  0.90916392705E+02 0.  0.
          5    1    3    3  502    0 -0.63310246345E+02 -0.84086496220E+02  0.37383275872E+02  0.11177525600E+03  0.41800000000E+01 0.  1.
         -5    1    3    3    0  502 -0.67863571083E+02 -0.26105694617E+02 -0.73360179967E+02  0.10337388440E+03  0.41800000000E+01 0.  1.
        -11    1    4    4    0    0  0.10942873631E+03  0.52044416448E+02 -0.39253737124E+02  0.12737395924E+03  0.00000000000E+00 0.  1.
         11    1    4    4    0    0  0.21745081116E+02  0.58147774390E+02  0.25376391597E+02  0.67066932759E+02  0.00000000000E+00 0. -1.
</event>
<event>
 8    1  0.7039283E-009  0.2948825E+03  0.7561462E-02  0.1087827E+00
         -1   -1    0    0    0  501 -0.00000000000E+00  0.00000000000E+00  0.48263009155E+02  0.48263009155E+02  0.00000000000E+00 0.  1.
          1   -1    0    0  501    0  0.00000000000E+00 -0.00000000000E+00 -0.19064996539E+04  0.19064996539E+04  0.00000000000E+00 0. -1.
         25    2    1    2    0    0  0.26298019037E+03  0.10453230299E+03 -0.96487686505E+03  0.10132718047E+04  0.12508717984E+03 0.  0.
         23    2    1    2    0    0 -0.26298019037E+03 -0.10453230299E+03 -0.89335977972E+03  0.94149085839E+03  0.90706987209E+02 0.  0.
          5    1    3    3  502    0  0.76066979104E+02  0.89192640141E+02 -0.29041809443E+03  0.31321183620E+03  0.41800000000E+01 0.  1.
         -5    1    3    3    0  502  0.18691321127E+03  0.15339662849E+02 -0.67445877062E+03  0.70005996848E+03  0.41800000000E+01 0.  1.
        -11    1    4    4    0    0 -0.17250795666E+03 -0.51604441434E+02 -0.42544690386E+03  0.46198168956E+03  0.00000000000E+00 0.  1.
         11    1    4    4    0    0 -0.90472233711E+02 -0.52927861556E+02 -0.46791287586E+03  0.47950916883E+03  0.00000000000E+00 0. -1.
</event>
<event>
 8    1  0.7039283E-009  0.2380067E+03  0.7561462E-02  0.1121128E+00
          4   -1    0    0  501    0  0.00000000000E+00  0.00000000000E+00  0.97552797757E+03  0.97552797757E+03  0.00000000000E+00 0.  1.
         -4   -1    0    0    0  501 -0.00000000000E+00 -0.00000000000E+00 -0.73047931943E+02  0.73047931943E+02  0.00000000000E+00 0. -1.
         25    2    1    2    0    0  0.15912872645E+03  0.16662633021E+03  0.31046278661E+03  0.40635110846E+03  0.12509115068E+03 0.  0.
         23    2    1    2    0    0 -0.15912872645E+03 -0.16662633021E+03  0.59201725902E+03  0.64222480105E+03  0.94244228511E+02 0.  0.
          5    1    3    3  502    0 -0.10821007350E+01  0.23512740671E+02 -0.52347323235E+01  0.24472325969E+02  0.41800000000E+01 0.  1.
         -5    1    3    3    0  502  0.16021082719E+03  0.14311358954E+03  0.31569751893E+03  0.38187878249E+03  0.41800000000E+01 0.  1.
        -11    1    4    4    0    0 -0.45957406914E+01 -0.31894429816E+02  0.17018971984E+03  0.17321349896E+03  0.00000000000E+00 0.  1.
         11    1    4    4    0    0 -0.15453298576E+03 -0.13473190040E+03  0.42182753919E+03  0.46901130209E+03  0.00000000000E+00 0. -1.
</event>
<event>
 8    1  0.7039283E-009  0.8234866E+02  0.7561462E-02  0.1322515E+00
          1   -1    0    0  501    0  0.00000000000E+00  0.00000000000E+00  0.43917800599E+03  0.43917800599E+03  0.00000000000E+00 0. -1.
         -1   -1    0    0    0  501 -0.00000000000E+00 -0.00000000000E+00 -0.31463498147E+02  0.31463498147E+02  0.00000000000E+00 0.  1.
         25    2    1    2    0    0  0.13584553510E+02  0.45510892894E+02  0.21281358765E+03  0.25138125638E+03  0.12508849469E+03 0.  0.
         23    2    1    2    0    0 -0.13584553510E+02 -0.45510892894E+02  0.19490092019E+03  0.21926024776E+03  0.88503706638E+02 0.  0.
          5    1    3    3  502    0  0.15909754345E+02  0.69121534591E+02  0.21571652450E+03  0.22711670605E+03  0.41800000000E+01 0. -1.
         -5    1    3    3    0  502 -0.23252008353E+01 -0.23610641697E+02 -0.29029368454E+01  0.24264550327E+02  0.41800000000E+01 0. -1.
        -11    1    4    4    0    0  0.73126407697E+01 -0.47960539167E+02  0.19198361955E+03  0.19801868146E+03  0.00000000000E+00 0. -1.
         11    1    4    4    0    0 -0.20897194279E+02  0.24496462726E+01  0.29173006410E+01  0.21241566294E+02  0.00000000000E+00 0.  1.
</event>
<event>
 8    1  0.7039283E-009  0.1456649E+03  0.7561462E-02  0.1205903E+00
         -2   -1    0    0    0  501 -0.00000000000E+00  0.00000000000E+00  0.48195797168E+02  0.48195797168E+02  0.00000000000E+00 0.  1.
          2   -1    0    0  501    0  0.00000000000E+00 -0.00000000000E+00 -0.52101564782E+03  0.52101564782E+03  0.00000000000E+00 0. -1.
         25    2    1    2    0    0 -0.11142025233E+03  0.70234482398E+01 -0.19959270343E+03  0.26066843343E+03  0.12508790297E+03 0.  0.
         23    2    1    2    0    0  0.11142025233E+03 -0.70234482398E+01 -0.27322714722E+03  0.30854301156E+03  0.89899469131E+02 0.  0.
          5    1    3    3  502    0 -0.12960353823E+01 -0.35856475122E+02 -0.99119025395E+02  0.10549606680E+03  0.41800000000E+01 0.  1.
         -5    1    3    3    0  502 -0.11012421695E+03  0.42879923361E+02 -0.10047367804E+03  0.15517236663E+03  0.41800000000E+01 0.  1.
        -11    1    4    4    0    0  0.27661680279E+02 -0.38560672445E+02 -0.14184717726E+03  0.14957511729E+03  0.00000000000E+00 0. -1.
         11    1    4    4    0    0  0.83758572050E+02  0.31537224205E+02 -0.13137996996E+03  0.15896789427E+03  0.00000000000E+00 0.  1.
</event>
<event>
 8    1  0.7039283E-009  0.8092032E+02  0.7561462E-02  0.1326460E+00
         -1   -1    0    0    0  501 -0.00000000000E+00  0.00000000000E+00  0.10701871653E+03  0.10701871653E+03  0.00000000000E+00 0.  1.
          1   -1    0    0  501    0  0.00000000000E+00 -0.00000000000E+00 -0.12513958100E+03  0.12513958100E+03  0.00000000000E+00 0. -1.
         25    2    1    2    0    0  0.29370685943E+02 -0.25223450761E+02  0.21555107275E+01  0.13096317188E+03  0.12509135263E+03 0.  0.
         23    2    1    2    0    0 -0.29370685943E+02  0.25223450761E+02 -0.20276375192E+02  0.10119512564E+03  0.91271366826E+02 0.  0.
          5    1    3    3  502    0 -0.87528546140E+01  0.79632269792E+01 -0.53915992923E+02  0.55357313344E+02  0.41800000000E+01 0. -1.
         -5    1    3    3    0  502  0.38123540557E+02 -0.33186677741E+02  0.56071503650E+02  0.75605858541E+02  0.41800000000E+01 0. -1.
        -11    1    4    4    0    0  0.13707927387E+02  0.47947779019E+02 -0.15670654633E+02  0.52272996879E+02  0.00000000000E+00 0.  1.
         11    1    4    4    0    0 -0.43078613330E+02 -0.22724328257E+02 -0.46057205591E+01  0.48922128766E+02  0.00000000000E+00 0. -1.
</event>
<event>
 8    1  0.7039283E-009  0.2629427E+03  0.7561462E-02  0.1105388E+00
          2   -1    0    0  501    0  0.00000000000E+00  0.00000000000E+00  0.19034065506E+04  0.19034065506E+04  0.00000000000E+00 0. -1.
         -2   -1    0    0    0  501 -0.00000000000E+00 -0.00000000000E+00 -0.37447990315E+02  0.37447990315E+02  0.00000000000E+00 0.  1.
         25    2    1    2    0    0  0.24078696774E+03  0.12301972088E+02  0.83143298621E+03  0.87467587448E+03  0.12508945795E+03 0.  0.
         23    2    1    2    0    0 -0.24078696774E+03 -0.12301972088E+02  0.10345255741E+04  0.10661786664E+04  0.91455360627E+02 0.  0.
          5    1    3    3  502    0  0.15037829818E+03  0.65458699825E+02  0.56419559066E+03  0.58756498437E+03  0.41800000000E+01 0.  1.
         -5    1    3    3    0  502  0.90408669567E+02 -0.53156727737E+02  0.26723739555E+03  0.28711089011E+03  0.41800000000E+01 0.  1.
        -11    1    4    4    0    0 -0.82814278752E+02  0.37943197209E+02  0.32314245923E+03  0.33573641437E+03  0.00000000000E+00 0. -1.
         11    1    4    4    0    0 -0.15797268899E+03 -0.50245169297E+02  0.71138311484E+03  0.73044225205E+03  0.00000000000E+00 0.  1.
</event>
<event>
 8    1  0.7039283E-009  0.1041967E+03  0.7561462E-02  0.1271710E+00
          1   -1    0    0  501    0  0.00000000000E+00  0.00000000000E+00  0.25786706047E+03  0.25786706047E+03  0.00000000000E+00 0. -1.
         -1   -1    0    0    0  501 -0.00000000000E+00 -0.00000000000E+00 -0.95432591094E+02  0.95432591094E+02  0.00000000000E+00 0.  1.
         25    2    1    2    0    0 -0.52242730829E+02 -0.81593435528E+02  0.21134914817E+02  0.15962720864E+03  0.12508944587E+03 0.  0.
         23    2    1    2    0    0  0.52242730829E+02  0.81593435528E+02  0.14129955456E+03  0.19367244292E+03  0.90314225807E+02 0.  0.
          5    1    3    3  502    0 -0.19353072798E+02 -0.96190654780E+01  0.65298039483E+02  0.68908448014E+02  0.41800000000E+01 0.  1.
         -5    1    3    3    0  502 -0.32889658031E+02 -0.71974370050E+02 -0.44163124666E+02  0.90718760628E+02  0.41800000000E+01 0.  1.
        -11    1    4    4    0    0 -0.33542276763E+01  0.33377607019E+02  0.10764364657E+03  0.11274959043E+03  0.00000000000E+00 0. -1.
         11    1    4    4    0    0  0.55596958506E+02  0.48215828509E+02  0.33655907987E+02  0.80922852498E+02  0.00000000000E+00 0.  1.
</event>
<event>
 8    1  0.7039283E-009  0.2083911E+03  0.7561462E-02  0.1142846E+00
         -2   -1    0    0    0  501 -0.00000000000E+00  0.00000000000E+00  0.97300501026E+02  0.97300501026E+02  0.00000000000E+00 0.  1.
          2   -1    0    0  501    0  0.00000000000E+00 -0.00000000000E+00 -0.53137161792E+03  0.53137161792E+03  0.00000000000E+00 0. -1.
         25    2    1    2    0    0 -0.17864398533E+02 -0.19851058197E+03 -0.20729876443E+03  0.31360166607E+03  0.12509052457E+03 0.  0.
         23    2    1    2    0    0  0.17864398533E+02  0.19851058197E+03 -0.22677235247E+03  0.31507045288E+03  0.90100513587E+02 0.  0.
          5    1    3    3  502    0 -0.84036082929E+01 -0.17763610671E+03 -0.10053979471E+03  0.20433044256E+03  0.41800000000E+01 0. -1.
         -5    1    3    3    0  502 -0.94607902404E+01 -0.20874475260E+02 -0.10675896972E+03  0.10927122350E+03  0.41800000000E+01 0. -1.
        -11    1    4    4    0    0  0.31724226647E+02  0.19921414471E+03 -0.22297320895E+03  0.30068214765E+03  0.00000000000E+00 0. -1.
         11    1    4    4    0    0 -0.13859828114E+02 -0.70356274138E+00 -0.37991435152E+01  0.14388305228E+02  0.00000000000E+00 0.  1.
</event>
<event>
 8    1  0.7039283E-009  0.3252135E+03  0.7561462E-02  0.1073275E+00
         -1   -1    0    0    0  501 -0.00000000000E+00  0.00000000000E+00  0.36687118783E+03  0.36687118783E+03  0.00000000000E+00 0.  1.
          1   -1    0    0  501    0  0.00000000000E+00 -0.00000000000E+00 -0.46966261754E+03  0.46966261754E+03  0.00000000000E+00 0. -1.
         25    2    1    2    0    0 -0.23868909780E+03 -0.21067868698E+03 -0.29655041763E+03  0.45271045164E+03  0.12508640320E+03 0.  0.
         23    2    1    2    0    0  0.23868909780E+03  0.21067868698E+03  0.19375898792E+03  0.38382335373E+03  0.91759614812E+02 0.  0.
          5    1    3    3  502    0 -0.11575907117E+03 -0.11614775383E+03 -0.70488353390E+02  0.17854003372E+03  0.41800000000E+01 0. -1.
         -5    1    3    3    0  502 -0.12293002664E+03 -0.94530933154E+02 -0.22606206424E+03  0.27417041792E+03  0.41800000000E+01 0. -1.
        -11    1    4    4    0    0  0.18704104789E+03  0.10713667308E+03  0.12239019083E+03  0.24787492638E+03  0.00000000000E+00 0.  1.
         11    1    4    4    0    0  0.51648049919E+02  0.10354201390E+03  0.71368797090E+02  0.13594842736E+03  0.00000000000E+00 0. -1.
</event>
<event>
 8    1  0.7039283E-009  0.1425630E+03  0.7561462E-02  0.1209921E+00
         -2   -1    0    0    0  501 -0.00000000000E+00  0.00000000000E+00  0.21312407040E+02  0.21312407040E+02  0.00000000000E+00 0.  1.
          2   -1    0    0  501    0  0.00000000000E+00 -0.00000000000E+00 -0.10447147744E+04  0.10447147744E+04  0.00000000000E+00 0. -1.
         25    2    1    2    0    0 -0.24152093975E+02 -0.94919815796E+02 -0.65916835259E+03  0.67804334961E+03  0.12508705698E+03 0.  0.
         23    2    1    2    0    0  0.24152093975E+02  0.94919815796E+02 -0.36423401472E+03  0.38798383178E+03  0.90950212575E+02 0.  0.
          5    1    3    3  502    0 -0.75506900436E+02 -0.56393425431E+02 -0.37501604703E+03  0.38669887300E+03  0.41800000000E+01 0.  1.
         -5    1    3    3    0  502  0.51354806460E+02 -0.38526390365E+02 -0.28415230555E+03  0.29134447661E+03  0.41800000000E+01 0.  1.
        -11    1    4    4    0    0 -0.29007605584E+02  0.22985136503E+02 -0.56730672018E+02  0.67735713102E+02  0.00000000000E+00 0.  1.
         11    1    4    4    0    0  0.53159699560E+02  0.71934679292E+02 -0.30750334271E+03  0.32024811868E+03  0.00000000000E+00 0. -1.
</event>
<event>
 8    1  0.7039283E-009  0.9250979E+02  0.7561462E-02  0.1296885E+00
         -2   -1    0    0    0  501 -0.00000000000E+00  0.00000000000E+00  0.13097833963E+02  0.13097833963E+02  0.00000000000E+00 0.  1.
          2   -1    0    0  501    0  0.00000000000E+00 -0.00000000000E+00 -0.12491147787E+04  0.12491147787E+04  0.00000000000E+00 0. -1.
         25    2    1    2    0    0  0.47589049243E+02 -0.45482037896E+02 -0.62892135704E+03  0.64461030795E+03  0.12508813851E+03 0.  0.
         23    2    1    2    0    0 -0.47589049243E+02  0.45482037896E+02 -0.60709558771E+03  0.61760230473E+03  0.92380846543E+02 0.  0.
          5    1    3    3  502    0  0.30928798211E+02 -0.10939364450E+02 -0.58587236728E+03  0.58680504718E+03  0.41800000000E+01 0.  1.
         -5    1    3    3    0  502  0.16660251032E+02 -0.34542673446E+02 -0.43048989756E+02  0.57805260766E+02  0.41800000000E+01 0.  1.
        -11    1    4    4    0    0  0.26688322847E+02  0.24394851037E+02 -0.20348694730E+03  0.20667441316E+03  0.00000000000E+00 0. -1.
         11    1    4    4    0    0 -0.74277372089E+02  0.21087186859E+02 -0.40360864041E+03  0.41092789157E+03  0.00000000000E+00 0.  1.
</event>
<event>
 8    1  0.7039283E-009  0.9091903E+02  0.7561462E-02  0.1300641E+00
         -1   -1    0    0    0  501 -0.00000000000E+00  0.00000000000E+00  0.23066671576E+03  0.23066671576E+03  0.00000000000E+00 0.  1.
          1   -1    0    0  501    0  0.00000000000E+00 -0.00000000000E+00 -0.87163699493E+02  0.87163699493E+02  0.00000000000E+00 0. -1.
         25    2    1    2    0    0 -0.50738278365E+02 -0.46471447530E+02  0.14748623056E+03  0.20526733932E+03  0.12509406086E+03 0.  0.
         23    2    1    2    0    0  0.50738278365E+02  0.46471447530E+02 -0.39832142915E+01  0.11256307592E+03  0.88997818729E+02 0.  0.
          5    1    3    3  502    0 -0.48302168904E+02 -0.37334562018E+02  0.16990019929E+03  0.18058382862E+03  0.41800000000E+01 0. -1.
         -5    1    3    3    0  502 -0.24361094609E+01 -0.91368855115E+01 -0.22413968733E+02  0.24683510701E+02  0.41800000000E+01 0. -1.
        -11    1    4    4    0    0  0.67686251282E+02  0.58549855210E+02  0.55586338187E+01  0.89668347635E+02  0.00000000000E+00 0.  1.
         11    1    4    4    0    0 -0.16947972917E+02 -0.12078407680E+02 -0.95418481103E+01  0.22894728289E+02  0.00000000000E+00 0. -1.
</event>
<event>
 8    1  0.7039283E-009  0.1792425E+03  0.7561462E-02  0.1168538E+00
          1   -1    0    0  501    0  0.00000000000E+00  0.00000000000E+00  0.16289717924E+04  0.16289717924E+04  0.00000000000E+00 0. -1.
         -1   -1    0    0    0  501 -0.00000000000E+00 -0.00000000000E+00 -0.22012403829E+02  0.22012403829E+02  0.00000000000E+00 0.  1.
         25    2    1    2    0    0  0.57177254651E+02 -0.13241422941E+03  0.10967479372E+04  0.11132411446E+04  0.12508813603E+03 0.  0.
         23    2    1    2    0    0 -0.57177254651E+02  0.13241422941E+03  0.51021145136E+03  0.53774305157E+03  0.89716764426E+02 0.  0.
          5    1    3    3  502    0  0.52884525662E+01 -0.13665158968E+03  0.85865486738E+03  0.86948679022E+03  0.41800000000E+01 0. -1.
         -5    1    3    3    0  502  0.51888802085E+02  0.42373602714E+01  0.23809306979E+03  0.24375435440E+03  0.41800000000E+01 0. -1.
        -11    1    4    4    0    0 -0.81446374643E+02  0.10212777219E+03  0.37676270879E+03  0.39876525994E+03  0.00000000000E+00 0.  1.
         11    1    4    4    0    0  0.24269119992E+02  0.30286457212E+02  0.13344874256E+03  0.13897779163E+03  0.00000000000E+00 0. -1.
</event>
<event>
 8    1  0.7039283E-009  0.9943860E+02  0.7561462E-02  0.1281481E+00
          2   -1    0    0  501    0  0.00000000000E+00  0.00000000000E+00  0.20002641772E+03  0.20002641772E+03  0.00000000000E+00 0.  1.
         -2   -1    0    0    0  501 -0.00000000000E+00 -0.00000000000E+00 -0.64869833297E+02  0.64869833297E+02  0.00000000000E+00 0. -1.
         25    2    1    2    0    0 -0.59547613547E+01  0.28227898967E+01  0.11575487737E+03  0.17055679776E+03  0.12508797824E+03 0.  0.
         23    2    1    2    0    0  0.59547613547E+01 -0.28227898967E+01  0.19401707046E+02  0.94339453255E+02  0.92087343748E+02 0.  0.
          5    1    3    3  502    0  0.58205569553E+02  0.12842009694E+02  0.48314208846E+02  0.76841009341E+02  0.41800000000E+01 0.  1.
         -5    1    3    3    0  502 -0.64160330908E+02 -0.10019219797E+02  0.67440668527E+02  0.93715788419E+02  0.41800000000E+01 0.  1.
        -11    1    4    4    0    0  0.21586166568E+02 -0.33367458957E+02  0.38278298035E+02  0.55177694812E+02  0.00000000000E+00 0.  1.
         11    1    4    4    0    0 -0.15631405213E+02  0.30544669060E+02 -0.18876590989E+02  0.39161758442E+02  0.00000000000E+00 0. -1.
</event>
<event>
 8    1  0.7039283E-009  0.8253147E+02  0.7561462E-02  0.1322017E+00
         -1   -1    0    0    0  501 -0.00000000000E+00  0.00000000000E+00  0.48924806221E+02  0.48924806221E+02  0.00000000000E+00 0.  1.
          1   -1    0    0  501    0  0.00000000000E+00 -0.00000000000E+00 -0.25332705425E+03  0.25332705425E+03  0.00000000000E+00 0. -1.
         25    2    1    2    0    0 -0.10606672567E+02 -0.19963473206E+02 -0.10210461834E+03  0.16304531002E+03  0.12508948104E+03 0.  0.
         23    2    1    2    0    0  0.10606672567E+02  0.19963473206E+02 -0.10229762969E+03  0.13920655045E+03  0.91665789055E+02 0.  0.
          5    1    3    3  502    0  0.50226562853E+02 -0.29923401126E+02 -0.75987930099E+02  0.95967470904E+02  0.41800000000E+01 0.  1.
         -5    1    3    3    0  502 -0.60833235420E+02  0.99599279204E+01 -0.26116688245E+02  0.67077839118E+02  0.41800000000E+01 0.  1.
        -11    1    4    4    0    0 -0.61018355807E+01 -0.92082036827E+01  0.14179816343E+02  0.17974721251E+02  0.00000000000E+00 0.  1.
         11    1    4    4    0    0  0.16708508148E+02  0.29171676888E+02 -0.11647744603E+03  0.12123182920E+03  0.00000000000E+00 0. -1.
</event>
<event>
 8    1  0.7039283E-009  0.1675012E+03  0.7561462E-02  0.1180479E+00
          2   -1    0    0  501    0  0.00000000000E+00  0.00000000000E+00  0.10618834561E+04  0.10618834561E+04  0.00000000000E+00 0. -1.
         -2   -1    0    0    0  501 -0.00000000000E+00 -0.00000000000E+00 -0.40733713417E+02  0.40733713417E+02  0.00000000000E+00 0.  1.
         25    2    1    2    0    0 -0.16434337822E+03 -0.17297364101E+01  0.71992185820E+03  0.74896655940E+03  0.12510670332E+03 0.  0.
         23    2    1    2    0    0  0.16434337822E+03  0.17297364101E+01  0.30122788451E+03  0.35365061015E+03  0.85549855060E+02 0.  0.
          5    1    3    3  502    0 -0.34660517858E+02  0.18067824382E+02  0.41678746538E+03  0.41863714775E+03  0.41800000000E+01 0. -1.
         -5    1    3    3    0  502 -0.12968286037E+03 -0.19797560792E+02  0.30313439282E+03  0.33032941164E+03  0.41800000000E+01 0. -1.
        -11    1    4    4    0    0  0.76943861780E+02 -0.18747411604E+01  0.61682659813E+02  0.98633782456E+02  0.00000000000E+00 0.  1.
         11    1    4    4    0    0  0.87399516445E+02  0.36044775705E+01  0.23954522470E+03  0.25501682770E+03  0.00000000000E+00 0. -1.
</event>
<event>
 8    1  0.7039283E-009  0.1567155E+03  0.7561462E-02  0.1192456E+00
         -2   -1    0    0    0  501 -0.00000000000E+00  0.00000000000E+00  0.29403389688E+03  0.29403389688E+03  0.00000000000E+00 0.  1.
          2   -1    0    0  501    0  0.00000000000E+00 -0.00000000000E+00 -0.13302661394E+03  0.13302661394E+03  0.00000000000E+00 0. -1.
         25    2    1    2    0    0 -0.82928738417E+02 -0.12437671064E+03  0.15890645609E+03  0.25148542234E+03  0.12508762552E+03 0.  0.
         23    2    1    2    0    0  0.82928738417E+02  0.12437671064E+03  0.21008268450E+01  0.17557508848E+03  0.92062242078E+02 0.  0.
          5    1    3    3  502    0 -0.42007883941E+02 -0.10576480440E+03  0.34269612662E+02  0.11892323119E+03  0.41800000000E+01 0.  1.
         -5    1    3    3    0  502 -0.40920854476E+02 -0.18611906238E+02  0.12463684342E+03  0.13256219115E+03  0.41800000000E+01 0.  1.
        -11    1    4    4    0    0  0.25088366404E+02  0.72462085276E+02 -0.40735431394E+02  0.86830612702E+02  0.00000000000E+00 0. -1.
         11    1    4    4    0    0  0.57840372014E+02  0.51914625365E+02  0.42836258239E+02  0.88744475779E+02  0.00000000000E+00 0.  1.
</event>
<event>
 8    1  0.7039283E-009  0.8419975E+02  0.7561462E-02  0.1317539E+00
         -1   -1    0    0    0  501 -0.00000000000E+00  0.00000000000E+00  0.12603626412E+03  0.12603626412E+03  0.00000000000E+00 0.  1.
          1   -1    0    0  501    0  0.00000000000E+00 -0.00000000000E+00 -0.13739374457E+03  0.13739374457E+03  0.00000000000E+00 0. -1.
         25    2    1    2    0    0 -0.57905866141E+02 -0.12738145189E+02  0.38500989678E+02  0.14368547987E+03  0.12509133161E+03 0.  0.
         23    2    1    2    0    0  0.57905866141E+02  0.12738145189E+02 -0.49858470121E+02  0.11974452882E+03  0.91310106028E+02 0.  0.
          5    1    3    3  502    0 -0.66399213886E+02 -0.35558207715E+02  0.70504776767E+02  0.10325520659E+03  0.41800000000E+01 0.  1.
         -5    1    3    3    0  502  0.84933477445E+01  0.22820062527E+02 -0.32003787089E+02  0.40430273282E+02  0.41800000000E+01 0.  1.
        -11    1    4    4    0    0  0.40028413997E+01  0.13774302031E+02 -0.62702837920E+02  0.64322624472E+02  0.00000000000E+00 0. -1.
         11    1    4    4    0    0  0.53903024741E+02 -0.10361568425E+01  0.12844367799E+02  0.55421904347E+02  0.00000000000E+00 0.  1.
</event>
<event>
 8    1  0.7039283E-009  0.1709005E+03  0.7561462E-02  0.1176912E+00
          1   -1    0    0  501    0  0.00000000000E+00  0.00000000000E+00  0.19500887558E+03  0.19500887558E+03  0.00000000000E+00 0. -1.
         -1   -1    0    0    0  501 -0.00000000000E+00 -0.00000000000E+00 -0.19429868539E+03  0.19429868539E+03  0.00000000000E+00 0.  1.
         25    2    1    2    0    0  0.14690200114E+03 -0.17740549100E+02  0.64620620870E+02  0.20425062728E+03  0.12509024375E+03 0.  0.
         23    2    1    2    0    0 -0.14690200114E+03  0.17740549100E+02 -0.63910430671E+02  0.18505693369E+03  0.90920847647E+02 0.  0.
          5    1    3    3  502    0  0.38388213660E+02  0.51851732824E+02  0.25093699266E+02  0.69350005679E+02  0.41800000000E+01 0. -1.
         -5    1    3    3    0  502  0.10851378748E+03 -0.69592281924E+02  0.39526921604E+02  0.13490062160E+03  0.41800000000E+01 0. -1.
        -11    1    4    4    0    0 -0.50196099275E+02  0.97555435490E+01 -0.71299795795E+02  0.87740981832E+02  0.00000000000E+00 0.  1.
         11    1    4    4    0    0 -0.96705901865E+02  0.79850055514E+01  0.73893651238E+01  0.97315951858E+02  0.00000000000E+00 0. -1.
</event>
<event>
 8    1  0.7039283E-009  0.7513629E+02  0.7561462E-02  0.1343450E+00
         -2   -1    0    0    0  501 -0.00000000000E+00  0.00000000000E+00  0.15230767412E+03  0.15230767412E+03  0.00000000000E+00 0.  1.
          2   -1    0    0  501    0  0.00000000000E+00 -0.00000000000E+00 -0.87711196483E+02  0.87711196483E+02  0.00000000000E+00 0. -1.
         25    2    1    2    0    0  0.15761505157E+02 -0.27377607963E+02  0.13895073348E+02  0.12976382895E+03  0.12509044639E+03 0.  0.
         23    2    1    2    0    0 -0.15761505157E+02  0.27377607963E+02  0.50701404286E+02  0.11025504165E+03  0.92669214686E+02 0.  0.
          5    1    3    3  502    0 -0.11962388909E+02 -0.49416996699E+02  0.55219688516E+02  0.75178618709E+02  0.41800000000E+01 0.  1.
         -5    1    3    3    0  502  0.27723894066E+02  0.22039388736E+02 -0.41324615168E+02  0.54585210239E+02  0.41800000000E+01 0.  1.
        -11    1    4    4    0    0  0.42359194663E+01  0.39818182555E+02  0.69440193019E+02  0.80158412423E+02  0.00000000000E+00 0.  1.
         11    1    4    4    0    0 -0.19997424623E+02 -0.12440574592E+02 -0.18738788733E+02  0.30096629229E+02  0.00000000000E+00 0. -1.
</event>
<event>
 8    1  0.7039283E-009  0.1031221E+03  0.7561462E-02  0.1273864E+00
         -1   -1    0    0    0  501 -0.00000000000E+00  0.00000000000E+00  0.22352784732E+03  0.22352784732E+03  0.00000000000E+00 0. -1.
          1   -1    0    0  501    0  0.00000000000E+00 -0.00000000000E+00 -0.69352495342E+02  0.69352495342E+02  0.00000000000E+00 0.  1.
         25    2    1    2    0    0  0.20295142892E+02  0.53634962452E+02  0.10683943394E+03  0.17421214273E+03  0.12508638617E+03 0.  0.
         23    2    1    2    0    0 -0.20295142892E+02 -0.53634962452E+02  0.47335918033E+02  0.11866819993E+03  0.92481622589E+02 0.  0.
          5    1    3    3  502    0  0.54139142305E+02 -0.68109286466E+01  0.85662870662E+02  0.10165153855E+03  0.41800000000E+01 0.  1.
         -5    1    3    3    0  502 -0.33843999412E+02  0.60445891098E+02  0.21176563280E+02  0.72560604182E+02  0.41800000000E+01 0.  1.
        -11    1    4    4    0    0 -0.32727753670E+02 -0.64963806884E+01 -0.17398646090E+02  0.37630063887E+02  0.00000000000E+00 0.  1.
         11    1    4    4    0    0  0.12432610778E+02 -0.47138581763E+02  0.64734564123E+02  0.81038136045E+02  0.00000000000E+00 0. -1.
</event>
<event>
 8    1  0.7039283E-009  0.7416264E+02  0.7561462E-02  0.1346484E+00
          4   -1    0    0  501    0  0.00000000000E+00  0.00000000000E+00  0.10745479349E+03  0.10745479349E+03  0.00000000000E+00 0. -1.
         -4   -1    0    0    0  501 -0.00000000000E+00 -0.00000000000E+00 -0.11527364226E+03  0.11527364226E+03  0.00000000000E+00 0.  1.
         25    2    1    2    0    0  0.26103652098E+02  0.72745223597E+01 -0.13008175563E+02  0.12865037560E+03  0.12508951667E+03 0.  0.
         23    2    1    2    0    0 -0.26103652098E+02 -0.72745223597E+01  0.51893267975E+01  0.94078060149E+02  0.89941275066E+02 0.  0.
          5    1    3    3  502    0 -0.75065160173E+01  0.54221679782E+02 -0.36769664086E+02  0.66074344024E+02  0.41800000000E+01 0.  1.
         -5    1    3    3    0  502  0.33610168115E+02 -0.46947157423E+02  0.23761488523E+02  0.62576031575E+02  0.41800000000E+01 0.  1.
        -11    1    4    4    0    0 -0.15890540592E+02 -0.15669902366E+02  0.46027820128E+02  0.51152862542E+02  0.00000000000E+00 0. -1.
         11    1    4    4    0    0 -0.10213111505E+02  0.83953800062E+01 -0.40838493331E+02  0.42925197607E+02  0.00000000000E+00 0.  1.
</event>
<event>
 8    1  0.7039283E-009  0.1219834E+03  0.7561462E-02  0.1239861E+00
          2   -1    0    0  501    0  0.00000000000E+00  0.00000000000E+00  0.41001916226E+03  0.41001916226E+03  0.00000000000E+00 0.  1.
         -2   -1    0    0    0  501 -0.00000000000E+00 -0.00000000000E+00 -0.43323886121E+02  0.43323886121E+02  0.00000000000E+00 0. -1.
         25    2    1    2    0    0 -0.60270746903E+02  0.37373585417E+02  0.16751677892E+03  0.22076797913E+03  0.12508909454E+03 0.  0.
         23    2    1    2    0    0  0.60270746903E+02 -0.37373585417E+02  0.19917849722E+03  0.23257506925E+03  0.96900677301E+02 0.  0.
          5    1    3    3  502    0  0.38249394790E+02  0.38816381731E+01  0.57338113770E+02  0.69160790969E+02  0.41800000000E+01 0. -1.
         -5    1    3    3    0  502 -0.98520141693E+02  0.33491947244E+02  0.11017866515E+03  0.15160718817E+03  0.41800000000E+01 0. -1.
        -11    1    4    4    0    0  0.59744889219E+02 -0.56375374040E+02  0.90393745230E+02  0.12214198198E+03  0.00000000000E+00 0. -1.
         11    1    4    4    0    0  0.52585768357E+00  0.19001788622E+02  0.10878475199E+03  0.11043308727E+03  0.00000000000E+00 0.  1.
</event>
<event>
 8    1  0.7039283E-009  0.9545177E+02  0.7561462E-02  0.1290162E+00
         -1   -1    0    0    0  501 -0.00000000000E+00  0.00000000000E+00  0.19171296522E+03  0.19171296522E+03  0.00000000000E+00 0.  1.
          1   -1    0    0  501    0  0.00000000000E+00 -0.00000000000E+00 -0.82690721398E+02  0.82690721398E+02  0.00000000000E+00 0. -1.
         25    2    1    2    0    0  0.35779144324E+02 -0.51480649717E+02  0.52117426232E+02  0.14932038650E+03  0.12509974917E+03 0.  0.
         23    2    1    2    0    0 -0.35779144324E+02  0.51480649717E+02  0.56904817589E+02  0.12508330012E+03  0.92072087191E+02 0.  0.
          5    1    3    3  502    0  0.65491771629E+02  0.20675012478E+01 -0.45037244937E+01  0.65811873145E+02  0.41800000000E+01 0. -1.
         -5    1    3    3    0  502 -0.29712627305E+02 -0.53548150965E+02  0.56621150726E+02  0.83508513354E+02  0.41800000000E+01 0. -1.
        -11    1    4    4    0    0 -0.28914954959E+02  0.31603399072E+02  0.81895878065E+02  0.92421773935E+02  0.00000000000E+00 0.  1.
         11    1    4    4    0    0 -0.68641893653E+01  0.19877250645E+02 -0.24991060477E+02  0.32661526183E+02  0.00000000000E+00 0. -1.
</event>
<event>
 8    1  0.7039283E-009  0.1286013E+03  0.7561462E-02  0.1229546E+00
         -2   -1    0    0    0  501 -0.00000000000E+00  0.00000000000E+00  0.30240926524E+02  0.30240926524E+02  0.00000000000E+00 0.  1.
          2   -1    0    0  501    0  0.00000000000E+00 -0.00000000000E+00 -0.80885601824E+03  0.80885601824E+03  0.00000000000E+00 0. -1.
         25    2    1    2    0    0 -0.10384702516E+03  0.24331001215E+02 -0.51710399727E+03  0.54260472299E+03  0.12508852532E+03 0.  0.
         23    2    1    2    0    0  0.10384702516E+03 -0.24331001215E+02 -0.26151109445E+03  0.29649222178E+03  0.90240693690E+02 0.  0.
          5    1    3    3  502    0  0.58690347593E+01 -0.17924745745E+00 -0.28075806143E+03  0.28085056375E+03  0.41800000000E+01 0. -1.
         -5    1    3    3    0  502 -0.10971605992E+03  0.24510248672E+02 -0.23634593584E+03  0.26175415924E+03  0.41800000000E+01 0. -1.
        -11    1    4    4    0    0  0.82503419244E+02  0.22937773066E+02 -0.13634053395E+03  0.16100216402E+03  0.00000000000E+00 0.  1.
         11    1    4    4    0    0  0.21343605918E+02 -0.47268774281E+02 -0.12517056050E+03  0.13549005776E+03  0.00000000000E+00 0. -1.
</event>
<event>
 8    1  0.7039283E-009  0.9636797E+02  0.7561462E-02  0.1288124E+00
          1   -1    0    0  501    0  0.00000000000E+00  0.00000000000E+00  0.26965053285E+03  0.26965053285E+03  0.00000000000E+00 0. -1.
         -1   -1    0    0    0  501 -0.00000000000E+00 -0.00000000000E+00 -0.68399691332E+02  0.68399691332E+02  0.00000000000E+00 0.  1.
         25    2    1    2    0    0  0.57531349148E+02 -0.44673012357E+02  0.15208732857E+03  0.20996207512E+03  0.12509189947E+03 0.  0.
         23    2    1    2    0    0 -0.57531349148E+02  0.44673012357E+02  0.49163512951E+02  0.12808814906E+03  0.93187921726E+02 0.  0.
          5    1    3    3  502    0  0.57032788732E+02 -0.48249074405E+02  0.17291811945E+03  0.18841141316E+03  0.41800000000E+01 0.  1.
         -5    1    3    3    0  502  0.49856041657E+00  0.35760620486E+01 -0.20830790888E+02  0.21550661969E+02  0.41800000000E+01 0.  1.
        -11    1    4    4    0    0 -0.68056772042E+02  0.16259044741E+01  0.97293935797E+01  0.68767935010E+02  0.00000000000E+00 0.  1.
         11    1    4    4    0    0  0.10525422893E+02  0.43047107883E+02  0.39434119371E+02  0.59320214048E+02  0.00000000000E+00 0. -1.
</event>
<event>
 8    1  0.7039283E-009  0.1009311E+03  0.7561462E-02  0.1278350E+00
          4   -1    0    0  501    0  0.00000000000E+00  0.00000000000E+00  0.67431240726E+03  0.67431240726E+03  0.00000000000E+00 0. -1.
         -4   -1    0    0    0  501 -0.00000000000E+00 -0.00000000000E+00 -0.23947377792E+02  0.23947377792E+02  0.00000000000E+00 0.  1.
         25    2    1    2    0    0 -0.42763495207E+02  0.42107236362E+02  0.28170241963E+03  0.31401176408E+03  0.12508156890E+03 0.  0.
         23    2    1    2    0    0  0.42763495207E+02 -0.42107236362E+02  0.36866260984E+03  0.38424802098E+03  0.90181405239E+02 0.  0.
          5    1    3    3  502    0 -0.14181566787E+02  0.63304494506E+02  0.26780431595E+03  0.27558156670E+03  0.41800000000E+01 0.  1.
         -5    1    3    3    0  502 -0.28581928421E+02 -0.21197258143E+02  0.13898103677E+02  0.38430197382E+02  0.41800000000E+01 0.  1.
        -11    1    4    4    0    0  0.42985761873E+02 -0.65110752443E+02  0.33136830320E+03  0.34042934388E+03  0.00000000000E+00 0. -1.
         11    1    4    4    0    0 -0.22226666543E+00  0.23003516081E+02  0.37294306639E+02  0.43818677094E+02  0.00000000000E+00 0.  1.
</event>
<event>
 8    1  0.7039283E-009  0.9390934E+02  0.7561462E-02  0.1293652E+00
         -2   -1    0    0    0  501 -0.00000000000E+00  0.00000000000E+00  0.15425299959E+03  0.15425299959E+03  0.00000000000E+00 0.  1.
          2   -1    0    0  501    0  0.00000000000E+00 -0.00000000000E+00 -0.11084785466E+03  0.11084785466E+03  0.00000000000E+00 0. -1.
         25    2    1    2    0    0 -0.33780084669E+02  0.51540052917E+02 -0.15257332730E+02  0.14027701978E+03  0.12508950756E+03 0.  0.
         23    2    1    2    0    0  0.33780084669E+02 -0.51540052917E+02  0.58662477663E+02  0.12482383447E+03  0.91335820962E+02 0.  0.
          5    1    3    3  502    0 -0.72591391319E+02  0.32486783347E+02 -0.41217646996E+02  0.89673117542E+02  0.41800000000E+01 0. -1.
         -5    1    3    3    0  502  0.38811306650E+02  0.19053269570E+02  0.25960314265E+02  0.50603902240E+02  0.41800000000E+01 0. -1.
        -11    1    4    4    0    0  0.15014706546E+01 -0.18467665019E+02 -0.23879831233E+02  0.30225079075E+02  0.00000000000E+00 0. -1.
         11    1    4    4    0    0  0.32278614014E+02 -0.33072387898E+02  0.82542308896E+02  0.94598755393E+02  0.00000000000E+00 0.  1.
</event>
<event>
 8    1  0.7039283E-009  0.9522922E+02  0.7561462E-02  0.1290661E+00
         -2   -1    0    0    0  501 -0.00000000000E+00  0.00000000000E+00  0.14043642767E+02  0.14043642767E+02  0.00000000000E+00 0.  1.
          2   -1    0    0  501    0  0.00000000000E+00 -0.00000000000E+00 -0.12445917976E+04  0.12445917976E+04  0.00000000000E+00 0. -1.
         25    2    1    2    0    0  0.57879949325E+02  0.46178902489E+02 -0.76275725382E+03  0.77648485026E+03  0.12509002705E+03 0.  0.
         23    2    1    2    0    0 -0.57879949325E+02 -0.46178902489E+02 -0.46779090104E+03  0.48215059013E+03  0.90323224570E+02 0.  0.
          5    1    3    3  502    0  0.55953959508E+02  0.45761259424E+02 -0.76688085300E+03  0.77029127838E+03  0.41800000000E+01 0. -1.
         -5    1    3    3    0  502  0.19259898165E+01  0.41764306480E+00  0.41235991808E+01  0.61935718859E+01  0.41800000000E+01 0. -1.
        -11    1    4    4    0    0  0.13873379739E+02 -0.38913318421E+02 -0.22936202002E+03  0.23305289796E+03  0.00000000000E+00 0. -1.
         11    1    4    4    0    0 -0.71753329063E+02 -0.72655840678E+01 -0.23842888101E+03  0.24909769217E+03  0.00000000000E+00 0.  1.
</event>
<event>
 8    1  0.7039283E-009  0.1113370E+03  0.7561462E-02  0.1258114E+00
          2   -1    0    0  501    0  0.00000000000E+00  0.00000000000E+00  0.95490273033E+02  0.95490273033E+02  0.00000000000E+00 0. -1.
         -2   -1    0    0    0  501 -0.00000000000E+00 -0.00000000000E+00 -0.37383042055E+03  0.37383042055E+03  0.00000000000E+00 0.  1.
         25    2    1    2    0    0 -0.27422643702E+02  0.10282726598E+03 -0.28507860045E+03  0.32900153717E+03  0.12508698975E+03 0.  0.
         23    2    1    2    0    0  0.27422643702E+02 -0.10282726598E+03  0.67384529392E+01  0.14031915641E+03  0.91206419142E+02 0.  0.
          5    1    3    3  502    0 -0.22092646629E+02  0.15440553204E+02 -0.21515837002E+03  0.21688036405E+03  0.41800000000E+01 0.  1.
         -5    1    3    3    0  502 -0.53299970724E+01  0.87386712774E+02 -0.69920230433E+02  0.11212117312E+03  0.41800000000E+01 0.  1.
        -11    1    4    4    0    0 -0.11099842014E+01 -0.22104242913E+02  0.42197650805E+02  0.47649463304E+02  0.00000000000E+00 0. -1.
         11    1    4    4    0    0  0.28532627903E+02 -0.80723023065E+02 -0.35459197866E+02  0.92669693110E+02  0.00000000000E+00 0.  1.
</event>
<event>
 8    1  0.7039283E-009  0.1029982E+03  0.7561462E-02  0.1274115E+00
          2   -1    0    0  501    0  0.00000000000E+00  0.00000000000E+00  0.21568493437E+02  0.21568493437E+02  0.00000000000E+00 0.  1.
         -2   -1    0    0    0  501 -0.00000000000E+00 -0.00000000000E+00 -0.59541223724E+03  0.59541223724E+03  0.00000000000E+00 0. -1.
         25    2    1    2    0    0 -0.72750534424E+01 -0.24114389459E+02 -0.36553406262E+03  0.38717029177E+03  0.12510497079E+03 0.  0.
         23    2    1    2    0    0  0.72750534424E+01  0.24114389459E+02 -0.20830968118E+03  0.22981043890E+03  0.93730914713E+02 0.  0.
          5    1    3    3  502    0 -0.15116460471E+02 -0.73809235984E+02 -0.18740592174E+03  0.20202663834E+03  0.41800000000E+01 0. -1.
         -5    1    3    3    0  502  0.78414070289E+01  0.49694846525E+02 -0.17812814088E+03  0.18514365344E+03  0.41800000000E+01 0. -1.
        -11    1    4    4    0    0 -0.32538606397E+02  0.23674866435E+02 -0.16949259233E+03  0.17420390082E+03  0.00000000000E+00 0. -1.
         11    1    4    4    0    0  0.39813659840E+02  0.43952302346E+00 -0.38817088852E+02  0.55606538080E+02  0.00000000000E+00 0.  1.
</event>
<event>
 8    1  0.7039283E-009  0.1528773E+03  0.7561462E-02  0.1196981E+00
          1   -1    0    0  501    0  0.00000000000E+00  0.00000000000E+00  0.74008318509E+03  0.74008318509E+03  0.00000000000E+00 0. -1.
         -1   -1    0    0    0  501 -0.00000000000E+00 -0.00000000000E+00 -0.40932016920E+02  0.40932016920E+02  0.00000000000E+00 0.  1.
         25    2    1    2    0    0 -0.72544230048E+02  0.11397191340E+03  0.33249913696E+03  0.38007255563E+03  0.12508880489E+03 0.  0.
         23    2    1    2    0    0  0.72544230048E+02 -0.11397191340E+03  0.36665203121E+03  0.40094264638E+03  0.89827787115E+02 0.  0.
          5    1    3    3  502    0 -0.89036674522E+02  0.64561306763E+02  0.29742547246E+03  0.31713573720E+03  0.41800000000E+01 0.  1.
         -5    1    3    3    0  502  0.16492444474E+02  0.49410606637E+02  0.35073664501E+02  0.62936818433E+02  0.41800000000E+01 0.  1.
        -11    1    4    4    0    0  0.21314663550E+02 -0.77947576316E+02  0.10840487473E+03  0.13521004549E+03  0.00000000000E+00 0.  1.
         11    1    4    4    0    0  0.51229566498E+02 -0.36024337084E+02  0.25824715648E+03  0.26573260089E+03  0.00000000000E+00 0. -1.
</event>
<event>
 8    1  0.7039283E-009  0.8088696E+02  0.7561462E-02  0.1326553E+00
          1   -1    0    0  501    0  0.00000000000E+00  0.00000000000E+00  0.14501834787E+03  0.14501834787E+03  0.00000000000E+00 0. -1.
         -1   -1    0    0    0  501 -0.00000000000E+00 -0.00000000000E+00 -0.85903355249E+02  0.85903355249E+02  0.00000000000E+00 0.  1.
         25    2    1    2    0    0  0.23135774814E+02  0.94843743040E+01  0.34376880939E+02  0.13213068639E+03  0.12510607864E+03 0.  0.
         23    2    1    2    0    0 -0.23135774814E+02 -0.94843743040E+01  0.24738111677E+02  0.98791016719E+02  0.92317243151E+02 0.  0.
          5    1    3    3  502    0  0.34983540235E+02 -0.27064287208E+02  0.67783704400E+02  0.81045830933E+02  0.41800000000E+01 0. -1.
         -5    1    3    3    0  502 -0.11847765422E+02  0.36548661512E+02 -0.33406823461E+02  0.51084855462E+02  0.41800000000E+01 0. -1.
        -11    1    4    4    0    0  0.23872310469E+02  0.12338230253E+02  0.36811913938E+02  0.45576706119E+02  0.00000000000E+00 0. -1.
         11    1    4    4    0    0 -0.47008085283E+02 -0.21822604557E+02 -0.12073802260E+02  0.53214310600E+02  0.00000000000E+00 0.  1.
</event>
<event>
 8    1  0.7039283E-009  0.1060844E+03  0.7561462E-02  0.1267998E+00
          1   -1    0    0  501    0  0.00000000000E+00  0.00000000000E+00  0.34631439154E+02  0.34631439154E+02  0.00000000000E+00 0. -1.
         -1   -1    0    0    0  501 -0.00000000000E+00 -0.00000000000E+00 -0.43950894767E+03  0.43950894767E+03  0.00000000000E+00 0.  1.
         25    2    1    2    0    0  0.19315025451E+02 -0.45786104806E+02 -0.17897744019E+03  0.22393963544E+03  0.12508636465E+03 0.  0.
         23    2    1    2    0    0 -0.19315025451E+02  0.45786104806E+02 -0.22590006833E+03  0.25020075139E+03  0.95394640952E+02 0.  0.
          5    1    3    3  502    0  0.68144821226E+02 -0.36328157483E+02 -0.14244836081E+03  0.16208781442E+03  0.41800000000E+01 0.  1.
         -5    1    3    3    0  502 -0.48829795775E+02 -0.94579473228E+01 -0.36529079377E+02  0.61851821017E+02  0.41800000000E+01 0.  1.
        -11    1    4    4    0    0 -0.45135011199E+02  0.34152173772E+02 -0.62315576120E+02  0.84182962863E+02  0.00000000000E+00 0. -1.
         11    1    4    4    0    0  0.25819985747E+02  0.11633931034E+02 -0.16358449221E+03  0.16601778853E+03  0.00000000000E+00 0.  1.
</event>
<event>
 8    1  0.7039283E-009  0.1706156E+03  0.7561462E-02  0.1177207E+00
         -1   -1    0    0    0  501 -0.00000000000E+00  0.00000000000E+00  0.12248346113E+03  0.12248346113E+03  0.00000000000E+00 0.  1.
          1   -1    0    0  501    0  0.00000000000E+00 -0.00000000000E+00 -0.35213749832E+03  0.35213749832E+03  0.00000000000E+00 0. -1.
         25    2    1    2    0    0 -0.13938078757E+03 -0.71265652200E+02 -0.28126674240E+02  0.20234774731E+03  0.12509078268E+03 0.  0.
         23    2    1    2    0    0  0.13938078757E+03  0.71265652200E+02 -0.20152736294E+03  0.27227321214E+03  0.94940122737E+02 0.  0.
          5    1    3    3  502    0 -0.11640122132E+03 -0.23074444966E+02  0.30852913459E+02  0.12268271681E+03  0.41800000000E+01 0. -1.
         -5    1    3    3    0  502 -0.22979566247E+02 -0.48191207235E+02 -0.58979587699E+02  0.79665030501E+02  0.41800000000E+01 0. -1.
        -11    1    4    4    0    0  0.14448427397E+03  0.59766765922E+02 -0.20626506578E+03  0.25883015492E+03  0.00000000000E+00 0. -1.
         11    1    4    4    0    0 -0.51034864052E+01  0.11498886278E+02  0.47377028378E+01  0.13443057216E+02  0.00000000000E+00 0.  1.
</event>
<event>
 8    1  0.7039283E-009  0.9138462E+02  0.7561462E-02  0.1299533E+00
         -2   -1    0    0    0  501 -0.00000000000E+00  0.00000000000E+00  0.70855076000E+02  0.70855076000E+02  0.00000000000E+00 0. -1.
          2   -1    0    0  501    0  0.00000000000E+00 -0.00000000000E+00 -0.23594584138E+03  0.23594584138E+03  0.00000000000E+00 0.  1.
         25    2    1    2    0    0 -0.36689426414E+02  0.15711253782E+02 -0.23643770554E+02  0.13341384444E+03  0.12508904227E+03 0.  0.
         23    2    1    2    0    0  0.36689426414E+02 -0.15711253782E+02 -0.14144699482E+03  0.17338707294E+03  0.91993843337E+02 0.  0.
          5    1    3    3  502    0 -0.55142013101E+02 -0.42353570657E+01 -0.63933563402E+02  0.84637773999E+02  0.41800000000E+01 0.  1.
         -5    1    3    3    0  502  0.18452586687E+02  0.19946610848E+02  0.40289792848E+02  0.48776070439E+02  0.41800000000E+01 0.  1.
        -11    1    4    4    0    0 -0.27821056631E+02  0.11100958048E+02 -0.50352476390E+02  0.58588517136E+02  0.00000000000E+00 0. -1.
         11    1    4    4    0    0  0.64510483044E+02 -0.26812211830E+02 -0.91094518431E+02  0.11479855580E+03  0.00000000000E+00 0.  1.
</event>
<event>
 8    1  0.7039283E-009  0.1147925E+03  0.7561462E-02  0.1251944E+00
         -2   -1    0    0    0  501 -0.00000000000E+00  0.00000000000E+00  0.32874359716E+03  0.32874359716E+03  0.00000000000E+00 0.  1.
          2   -1    0    0  501    0  0.00000000000E+00 -0.00000000000E+00 -0.62114881935E+02  0.62114881935E+02  0.00000000000E+00 0. -1.
         25    2    1    2    0    0  0.34319941758E+02 -0.68101282368E+02  0.76225002763E+02  0.16515565149E+03  0.12510193887E+03 0.  0.
         23    2    1    2    0    0 -0.34319941758E+02  0.68101282368E+02  0.19040371246E+03  0.22570282761E+03  0.94194212184E+02 0.  0.
          5    1    3    3  502    0 -0.28468789887E+02 -0.16551146554E+02  0.76951174530E+02  0.83805537475E+02  0.41800000000E+01 0.  1.
         -5    1    3    3    0  502  0.62788731645E+02 -0.51550135814E+02 -0.72617176690E+00  0.81350114010E+02  0.41800000000E+01 0.  1.
        -11    1    4    4    0    0  0.22482278462E+02 -0.44324485703E+01  0.72731179636E+02  0.76255648554E+02  0.00000000000E+00 0.  1.
         11    1    4    4    0    0 -0.56802220220E+02  0.72533730939E+02  0.11767253283E+03  0.14944717906E+03  0.00000000000E+00 0. -1.
</event>
<event>
 8    1  0.7039283E-009  0.7948610E+02  0.7561462E-02  0.1330516E+00
         -2   -1    0    0    0  501 -0.00000000000E+00  0.00000000000E+00  0.26186363176E+02  0.26186363176E+02  0.00000000000E+00 0. -1.
          2   -1    0    0  501    0  0.00000000000E+00 -0.00000000000E+00 -0.61635794106E+03  0.61635794106E+03  0.00000000000E+00 0.  1.
         25    2    1    2    0    0  0.25336655401E+02 -0.46051752432E+02 -0.42911821332E+03  0.45005855213E+03  0.12509016481E+03 0.  0.
         23    2    1    2    0    0 -0.25336655401E+02  0.46051752432E+02 -0.16105336456E+03  0.19248575211E+03  0.91377614973E+02 0.  0.
          5    1    3    3  502    0  0.45459846849E+02 -0.19671725382E+02 -0.40686359364E+03  0.40988904680E+03  0.41800000000E+01 0.  1.
         -5    1    3    3    0  502 -0.20123191448E+02 -0.26380027050E+02 -0.22254619675E+02  0.40169505325E+02  0.41800000000E+01 0.  1.
        -11    1    4    4    0    0 -0.31349639141E+02  0.56011059290E+02 -0.16736409681E+03  0.17925060541E+03  0.00000000000E+00 0.  1.
         11    1    4    4    0    0  0.60129837401E+01 -0.99593068580E+01  0.63107322518E+01  0.13235146697E+02  0.00000000000E+00 0. -1.
</event>
<event>
 8    1  0.7039283E-009  0.6812803E+02  0.7561462E-02  0.1366577E+00
         -1   -1    0    0    0  501 -0.00000000000E+00  0.00000000000E+00  0.21584766245E+02  0.21584766245E+02  0.00000000000E+00 0.  1.
          1   -1    0    0  501    0  0.00000000000E+00 -0.00000000000E+00 -0.63004290315E+03  0.63004290315E+03  0.00000000000E+00 0. -1.
         25    2    1    2    0    0  0.75931822455E+01 -0.27387903316E+02 -0.26025709064E+03  0.29015489476E+03  0.12509338934E+03 0.  0.
         23    2    1    2    0    0 -0.75931822455E+01  0.27387903316E+02 -0.34820104626E+03  0.36147277464E+03  0.92794636270E+02 0.  0.
          5    1    3    3  502    0  0.16059800641E+02 -0.30773588434E+02 -0.27226945035E+03  0.27450511276E+03  0.41800000000E+01 0. -1.
         -5    1    3    3    0  502 -0.84666183953E+01  0.33856851182E+01  0.12012359705E+02  0.15649781993E+02  0.41800000000E+01 0. -1.
        -11    1    4    4    0    0 -0.60645764403E+01  0.59151674640E+02 -0.27969255881E+03  0.28594339851E+03  0.00000000000E+00 0.  1.
         11    1    4    4    0    0 -0.15286058053E+01 -0.31763771324E+02 -0.68508487455E+02  0.75529376125E+02  0.00000000000E+00 0. -1.
</event>
<event>
 8    1  0.7039283E-009  0.7291313E+02  0.7561462E-02  0.1350458E+00
         -2   -1    0    0    0  501 -0.00000000000E+00  0.00000000000E+00  0.14250729471E+02  0.14250729471E+02  0.00000000000E+00 0.  1.
          2   -1    0    0  501    0  0.00000000000E+00 -0.00000000000E+00 -0.11182949959E+04  0.11182949959E+04  0.00000000000E+00 0. -1.
         25    2    1    2    0    0 -0.74674096445E+01  0.52119331620E+01 -0.91221471582E+03  0.92079781723E+03  0.12509998404E+03 0.  0.
         23    2    1    2    0    0  0.74674096445E+01 -0.52119331620E+01 -0.19182955060E+03  0.21174790813E+03  0.89194583129E+02 0.  0.
          5    1    3    3  502    0 -0.30288490512E+02 -0.14375100344E+02 -0.66988892249E+02  0.75026796894E+02  0.41800000000E+01 0.  1.
         -5    1    3    3    0  502  0.22821080868E+02  0.19587033506E+02 -0.84522582357E+03  0.84577102033E+03  0.41800000000E+01 0.  1.
        -11    1    4    4    0    0  0.42261572707E+02 -0.16091424994E+02 -0.60998955307E+02  0.75933174796E+02  0.00000000000E+00 0. -1.
         11    1    4    4    0    0 -0.34794163062E+02  0.10879491832E+02 -0.13083059530E+03  0.13581473334E+03  0.00000000000E+00 0.  1.
</event>
<event>
 8    1  0.7039283E-009  0.8476502E+02  0.7561462E-02  0.1316048E+00
         -3   -1    0    0    0  501 -0.00000000000E+00  0.00000000000E+00  0.14509367391E+03  0.14509367391E+03  0.00000000000E+00 0.  1.
          3   -1    0    0  501    0  0.00000000000E+00 -0.00000000000E+00 -0.90861564352E+02  0.90861564352E+02  0.00000000000E+00 0. -1.
         25    2    1    2    0    0  0.29633736506E+01 -0.97946010299E+01 -0.88453402479E+01  0.12582353216E+03  0.12509438600E+03 0.  0.
         23    2    1    2    0    0 -0.29633736506E+01  0.97946010299E+01  0.63077449809E+02  0.11013170610E+03  0.89696779328E+02 0.  0.
          5    1    3    3  502    0  0.54068006201E+02  0.25782724936E+02 -0.18138661657E+02  0.62726243681E+02  0.41800000000E+01 0.  1.
         -5    1    3    3    0  502 -0.51104632550E+02 -0.35577325966E+02  0.92933214088E+01  0.63097288482E+02  0.41800000000E+01 0.  1.
        -11    1    4    4    0    0 -0.24167589013E+02  0.92075074296E+01  0.79310557826E+02  0.83420711663E+02  0.00000000000E+00 0.  1.
         11    1    4    4    0    0  0.21204215362E+02  0.58709360032E+00 -0.16233108017E+02  0.26710994439E+02  0.00000000000E+00 0. -1.
</event>
<event>
 8    1  0.7039283E-009  0.1267586E+03  0.7561462E-02  0.1232346E+00
         -2   -1    0    0    0  501 -0.00000000000E+00  0.00000000000E+00  0.36848713438E+03  0.36848713438E+03  0.00000000000E+00 0. -1.
          2   -1    0    0  501    0  0.00000000000E+00 -0.00000000000E+00 -0.77549836025E+02  0.77549836025E+02  0.00000000000E+00 0.  1.
         25    2    1    2    0    0  0.10629169148E+03  0.24424924538E+02  0.63293639641E+02  0.17761685381E+03  0.12508861387E+03 0.  0.
         23    2    1    2    0    0 -0.10629169148E+03 -0.24424924538E+02  0.22764365871E+03  0.26842011659E+03  0.91286488731E+02 0.  0.
          5    1    3    3  502    0  0.15397086968E+02  0.30701581161E+02 -0.30981480312E+02  0.46443319166E+02  0.41800000000E+01 0.  1.
         -5    1    3    3    0  502  0.90894604514E+02 -0.62766566226E+01  0.94275119953E+02  0.13117353464E+03  0.41800000000E+01 0.  1.
        -11    1    4    4    0    0 -0.52763754340E+02  0.21699554870E+02  0.45249410897E+02  0.72817536625E+02  0.00000000000E+00 0. -1.
         11    1    4    4    0    0 -0.53527937141E+02 -0.46124479408E+02  0.18239424781E+03  0.19560257997E+03  0.00000000000E+00 0.  1.
</event>
<event>
 8    1  0.7039283E-009  0.1986687E+03  0.7561462E-02  0.1150867E+00
         -1   -1    0    0    0  501 -0.00000000000E+00  0.00000000000E+00  0.73996994524E+02  0.73996994524E+02  0.00000000000E+00 0.  1.
          1   -1    0    0  501    0  0.00000000000E+00 -0.00000000000E+00 -0.64092039545E+03  0.64092039545E+03  0.00000000000E+00 0. -1.
         25    2    1    2    0    0 -0.18401102160E+03 -0.22138385903E+02 -0.22861692116E+03  0.31978265358E+03  0.12508031298E+03 0.  0.
         23    2    1    2    0    0  0.18401102160E+03  0.22138385903E+02 -0.33830647977E+03  0.39513473639E+03  0.85615544429E+02 0.  0.
          5    1    3    3  502    0 -0.13646856656E+03 -0.41604178577E+02 -0.82538739979E+02  0.16487781334E+03  0.41800000000E+01 0.  1.
         -5    1    3    3    0  502 -0.47542455037E+02  0.19465792673E+02 -0.14607818118E+03  0.15490484024E+03  0.41800000000E+01 0.  1.
        -11    1    4    4    0    0  0.17990559174E+03 -0.65174349846E+00 -0.31141558359E+03  0.35964720548E+03  0.00000000000E+00 0.  1.
         11    1    4    4    0    0  0.41054298538E+01  0.22790129402E+02 -0.26890896185E+02  0.35487530910E+02  0.00000000000E+00 0. -1.
</event>
<event>
 8    1  0.7039283E-009  0.1206066E+03  0.7561462E-02  0.1242100E+00
          2   -1    0    0  501    0  0.00000000000E+00  0.00000000000E+00  0.16013413947E+03  0.16013413947E+03  0.00000000000E+00 0.  1.
         -2   -1    0    0    0  501 -0.00000000000E+00 -0.00000000000E+00 -0.20216545852E+03  0.20216545852E+03  0.00000000000E+00 0. -1.
         25    2    1    2    0    0  0.42178280831E+02  0.51815545013E+02 -0.14937515105E+03  0.20597013631E+03  0.12508758221E+03 0.  0.
         23    2    1    2    0    0 -0.42178280831E+02 -0.51815545013E+02  0.10734383199E+03  0.15632946168E+03  0.91936631666E+02 0.  0.
          5    1    3    3  502    0  0.71911135341E+02  0.63913162871E+02 -0.14388491889E+03  0.17313707303E+03  0.41800000000E+01 0. -1.
         -5    1    3    3    0  502 -0.29732854510E+02 -0.12097617858E+02 -0.54902321588E+01  0.32833063279E+02  0.41800000000E+01 0. -1.
        -11    1    4    4    0    0  0.51926092348E+01 -0.63532620115E+02  0.71447945508E+02  0.95750540085E+02  0.00000000000E+00 0.  1.
         11    1    4    4    0    0 -0.47370890066E+02  0.11717075101E+02  0.35895886487E+02  0.60578921592E+02  0.00000000000E+00 0. -1.
</event>
<event>
 8    1  0.7039283E-009  0.2164343E+03  0.7561462E-02  0.1136570E+00
         -2   -1    0    0    0  501 -0.00000000000E+00  0.00000000000E+00  0.28735550431E+02  0.28735550431E+02  0.00000000000E+00 0.  1.
          2   -1    0    0  501    0  0.00000000000E+00 -0.00000000000E+00 -0.19148683861E+04  0.19148683861E+04  0.00000000000E+00 0. -1.
         25    2    1    2    0    0 -0.18720657938E+03 -0.88225655140E+02 -0.10424394808E+04  0.10701205872E+04  0.12509168876E+03 0.  0.
         23    2    1    2    0    0  0.18720657938E+03  0.88225655140E+02 -0.84369335489E+03  0.87348334927E+03  0.91239326958E+02 0.  0.
          5    1    3    3  502    0 -0.12257173944E+03 -0.50671150075E+02 -0.89476253299E+03  0.90454898131E+03  0.41800000000E+01 0.  1.
         -5    1    3    3    0  502 -0.64634839940E+02 -0.37554505064E+02 -0.14767694777E+03  0.16557160592E+03  0.41800000000E+01 0.  1.
        -11    1    4    4    0    0  0.14468557304E+03  0.21638314782E+02 -0.51025314407E+03  0.53081108008E+03  0.00000000000E+00 0.  1.
         11    1    4    4    0    0  0.42521006344E+02  0.66587340357E+02 -0.33344021082E+03  0.34267226919E+03  0.00000000000E+00 0. -1.
</event>
<event>
 8    1  0.7039283E-009  0.9660318E+02  0.7561462E-02  0.1287606E+00
         -2   -1    0    0    0  501 -0.00000000000E+00  0.00000000000E+00  0.59889072703E+02  0.59889072703E+02  0.00000000000E+00 0. -1.
          2   -1    0    0  501    0  0.00000000000E+00 -0.00000000000E+00 -0.20501549542E+03  0.20501549542E+03  0.00000000000E+00 0.  1.
         25    2    1    2    0    0 -0.38102575991E+01 -0.23447447786E+02 -0.74969871725E+02  0.14775787556E+03  0.12509039633E+03 0.  0.
         23    2    1    2    0    0  0.38102575991E+01  0.23447447786E+02 -0.70156550996E+02  0.11714669256E+03  0.90758498557E+02 0.  0.
          5    1    3    3  502    0 -0.13962910329E+02  0.50218259823E+02 -0.37771848050E+02  0.64505979487E+02  0.41800000000E+01 0. -1.
         -5    1    3    3    0  502  0.10152652730E+02 -0.73665707609E+02 -0.37198023674E+02  0.83251896076E+02  0.41800000000E+01 0. -1.
        -11    1    4    4    0    0  0.56752431110E+01 -0.21099968128E+02  0.11065109666E+02  0.24491910732E+02  0.00000000000E+00 0. -1.
         11    1    4    4    0    0 -0.18649855119E+01  0.44547415914E+02 -0.81221660662E+02  0.92654781832E+02  0.00000000000E+00 0.  1.
</event>
<event>
 8    1  0.7039283E-009  0.1496563E+03  0.7561462E-02  0.1200896E+00
         -4   -1    0    0    0  501 -0.00000000000E+00  0.00000000000E+00  0.28956000796E+03  0.28956000796E+03  0.00000000000E+00 0.  1.
          4   -1    0    0  501    0  0.00000000000E+00 -0.00000000000E+00 -0.85284245087E+02  0.85284245087E+02  0.00000000000E+00 0. -1.
         25    2    1    2    0    0 -0.77466246071E+02  0.70117412037E+02  0.55522590809E+02  0.17219009611E+03  0.12509676398E+03 0.  0.
         23    2    1    2    0    0  0.77466246071E+02 -0.70117412037E+02  0.14875317207E+03  0.20265415694E+03  0.89575277688E+02 0.  0.
          5    1    3    3  502    0  0.88157622301E+01  0.75497415405E+02  0.31345527170E+02  0.82326131150E+02  0.41800000000E+01 0.  1.
         -5    1    3    3    0  502 -0.86282008301E+02 -0.53800033680E+01  0.24177063639E+02  0.89863964963E+02  0.41800000000E+01 0.  1.
        -11    1    4    4    0    0  0.71152688170E+02 -0.51234994931E+01  0.89737450214E+02  0.11463753858E+03  0.00000000000E+00 0.  1.
         11    1    4    4    0    0  0.63135579013E+01 -0.64993912544E+02  0.59015721852E+02  0.88016618356E+02  0.00000000000E+00 0. -1.
</event>
<event>
 8    1  0.7039283E-009  0.1147852E+03  0.7561462E-02  0.1251957E+00
         -1   -1    0    0    0  501 -0.00000000000E+00  0.00000000000E+00  0.15009373826E+03  0.15009373826E+03  0.00000000000E+00 0.  1.
          1   -1    0    0  501    0  0.00000000000E+00 -0.00000000000E+00 -0.10335024389E+03  0.10335024389E+03  0.00000000000E+00 0. -1.
         25    2    1    2    0    0  0.18269730276E+02 -0.37443461355E+02  0.64615478373E+02  0.14682810414E+03  0.12509011263E+03 0.  0.
         23    2    1    2    0    0 -0.18269730276E+02  0.37443461355E+02 -0.17871984010E+02  0.10661587801E+03  0.96497366746E+02 0.  0.
          5    1    3    3  502    0 -0.13322624055E+02 -0.78346165941E+02  0.44762067460E+02  0.91305690473E+02  0.41800000000E+01 0. -1.
         -5    1    3    3    0  502  0.31592354331E+02  0.40902704586E+02  0.19853410913E+02  0.55522413667E+02  0.41800000000E+01 0. -1.
        -11    1    4    4    0    0 -0.36162147729E+02 -0.17630196620E+02 -0.26348925401E+02  0.48091481897E+02  0.00000000000E+00 0. -1.
         11    1    4    4    0    0  0.17892417454E+02  0.55073657975E+02  0.84769413914E+01  0.58524396114E+02  0.00000000000E+00 0.  1.
</event>
<event>
 8    1  0.7039283E-009  0.1262565E+03  0.7561462E-02  0.1233119E+00
          2   -1    0    0  501    0  0.00000000000E+00  0.00000000000E+00  0.13480220421E+03  0.13480220421E+03  0.00000000000E+00 0.  1.
         -2   -1    0    0    0  501 -0.00000000000E+00 -0.00000000000E+00 -0.23667319489E+03  0.23667319489E+03  0.00000000000E+00 0. -1.
         25    2    1    2    0    0  0.61822210385E+02  0.89428395759E+02 -0.14764721409E+03  0.22196012187E+03  0.12508865738E+03 0.  0.
         23    2    1    2    0    0 -0.61822210385E+02 -0.89428395759E+02  0.45776223412E+02  0.14951527723E+03  0.91869101610E+02 0.  0.
          5    1    3    3  502    0  0.66105149235E+02  0.21828406523E+02 -0.12670304527E+02  0.70882854792E+02  0.41800000000E+01 0. -1.
         -5    1    3    3    0  502 -0.42829388499E+01  0.67599989237E+02 -0.13497690957E+03  0.15107726707E+03  0.41800000000E+01 0. -1.
        -11    1    4    4    0    0 -0.17426916334E+02 -0.29166344151E+01  0.49138948367E+02  0.52219157556E+02  0.00000000000E+00 0.  1.
         11    1    4    4    0    0 -0.44395294051E+02 -0.86511761344E+02 -0.33627249553E+01  0.97296119675E+02  0.00000000000E+00 0. -1.
</event>
<event>
 8    1  0.7039283E-009  0.1116072E+03  0.7561462E-02  0.1257622E+00
          3   -1    0    0  501    0  0.00000000000E+00  0.00000000000E+00  0.45136424506E+03  0.45136424506E+03  0.00000000000E+00 0. -1.
         -3   -1    0    0    0  501 -0.00000000000E+00 -0.00000000000E+00 -0.51050579444E+02  0.51050579444E+02  0.00000000000E+00 0.  1.
         25    2    1    2    0    0 -0.10301283714E+03  0.23855113046E+02  0.21243533073E+03  0.26824794081E+03  0.12508987559E+03 0.  0.
         23    2    1    2    0    0  0.10301283714E+03 -0.23855113046E+02  0.18787833489E+03  0.23416688369E+03  0.91406507765E+02 0.  0.
          5    1    3    3  502    0 -0.72834732949E+02 -0.76951082171E+01  0.21205684208E+03  0.22438736526E+03  0.41800000000E+01 0. -1.
         -5    1    3    3    0  502 -0.30178104193E+02  0.31550221263E+02  0.37848864705E+00  0.43860575556E+02  0.41800000000E+01 0. -1.
        -11    1    4    4    0    0  0.79438886480E+02 -0.15177188365E+02  0.52372538963E+02  0.96352304432E+02  0.00000000000E+00 0.  1.
         11    1    4    4    0    0  0.23573950662E+02 -0.86779246809E+01  0.13550579593E+03  0.13781457926E+03  0.00000000000E+00 0. -1.
</event>
<event>
 8    1  0.7039283E-009  0.1177683E+03  0.7561462E-02  0.1246825E+00
         -1   -1    0    0    0  501 -0.00000000000E+00  0.00000000000E+00  0.53051745292E+02  0.53051745292E+02  0.00000000000E+00 0.  1.
          1   -1    0    0  501    0  0.00000000000E+00 -0.00000000000E+00 -0.48613626814E+03  0.48613626814E+03  0.00000000000E+00 0. -1.
         25    2    1    2    0    0 -0.65872994878E+02 -0.98107350261E+01 -0.67948276905E+02  0.15716641530E+03  0.12509521089E+03 0.  0.
         23    2    1    2    0    0  0.65872994878E+02  0.98107350261E+01 -0.36513624594E+03  0.38202159813E+03  0.90446234643E+02 0.  0.
          5    1    3    3  502    0 -0.69189172965E+02  0.41476783493E+02 -0.68020984221E+02  0.10560204505E+03  0.41800000000E+01 0.  1.
         -5    1    3    3    0  502  0.33161780872E+01 -0.51287518519E+02  0.72707316304E-01  0.51564370250E+02  0.41800000000E+01 0.  1.
        -11    1    4    4    0    0 -0.23106072196E+01 -0.26052730240E+02 -0.39344123034E+02  0.47244509480E+02  0.00000000000E+00 0.  1.
         11    1    4    4    0    0  0.68183602098E+02  0.35863465266E+02 -0.32579212291E+03  0.33477708865E+03  0.00000000000E+00 0. -1.
</event>
<event>
 8    1  0.7039283E-009  0.1120940E+03  0.7561462E-02  0.1256741E+00
         -2   -1    0    0    0  501 -0.00000000000E+00  0.00000000000E+00  0.15165624694E+02  0.15165624694E+02  0.00000000000E+00 0. -1.
          2   -1    0    0  501    0  0.00000000000E+00 -0.00000000000E+00 -0.17245224227E+04  0.17245224227E+04  0.00000000000E+00 0.  1.
         25    2    1    2    0    0  0.29670687873E+02  0.70934492517E+02 -0.14108264835E+04  0.14184467680E+04  0.12509122792E+03 0.  0.
         23    2    1    2    0    0 -0.29670687873E+02 -0.70934492517E+02 -0.29853031456E+03  0.32124127940E+03  0.90352415185E+02 0.  0.
          5    1    3    3  502    0  0.57030214718E+02  0.54524139444E+02 -0.43677254169E+03  0.44386152430E+03  0.41800000000E+01 0. -1.
         -5    1    3    3    0  502 -0.27359526845E+02  0.16410353073E+02 -0.97405394177E+03  0.97458524372E+03  0.41800000000E+01 0. -1.
        -11    1    4    4    0    0  0.16357529620E+02 -0.64479130262E+02 -0.22151558436E+03  0.23128830738E+03  0.00000000000E+00 0.  1.
         11    1    4    4    0    0 -0.46028217494E+02 -0.64553622549E+01 -0.77014730197E+02  0.89952972017E+02  0.00000000000E+00 0. -1.
</event>
<event>
 8    1  0.7039283E-009  0.7717506E+02  0.7561462E-02  0.1337265E+00
          2   -1    0    0  501    0  0.00000000000E+00  0.00000000000E+00  0.28112975586E+03  0.28112975586E+03  0.00000000000E+00 0. -1.
         -2   -1    0    0    0  501 -0.00000000000E+00 -0.00000000000E+00 -0.89047992131E+02  0.89047992131E+02  0.00000000000E+00 0.  1.
         25    2    1    2    0    0  0.44550445106E+02  0.32261203614E+02 -0.13743258504E+02  0.13735084593E+03  0.12510335849E+03 0.  0.
         23    2    1    2    0    0 -0.44550445106E+02 -0.32261203614E+02  0.20582502223E+03  0.23282690206E+03  0.93908993865E+02 0.  0.
          5    1    3    3  502    0  0.34983377747E+02  0.24349336804E+02  0.53677486352E+02  0.68669293447E+02  0.41800000000E+01 0. -1.
         -5    1    3    3    0  502  0.95670673588E+01  0.79118668102E+01 -0.67420744856E+02  0.68681552481E+02  0.41800000000E+01 0. -1.
        -11    1    4    4    0    0 -0.67559902339E+02 -0.13875291932E+02  0.18299807753E+03  0.19556369937E+03  0.00000000000E+00 0. -1.
         11    1    4    4    0    0  0.23009457233E+02 -0.18385911682E+02  0.22826944700E+02  0.37263202692E+02  0.00000000000E+00 0.  1.
</event>
<event>
 8    1  0.7039283E-009  0.7812171E+02  0.7561462E-02  0.1334468E+00
         -4   -1    0    0    0  501 -0.00000000000E+00  0.00000000000E+00  0.33593920615E+03  0.33593920615E+03  0.00000000000E+00 0.  1.
          4   -1    0    0  501    0  0.00000000000E+00 -0.00000000000E+00 -0.38492138812E+02  0.38492138812E+02  0.00000000000E+00 0. -1.
         25    2    1    2    0    0 -0.11332498979E+01 -0.12966077760E+02  0.23672572615E+03  0.26805256578E+03  0.12507479831E+03 0.  0.
         23    2    1    2    0    0  0.11332498979E+01  0.12966077760E+02  0.60721341192E+02  0.10637877919E+03  0.86371059720E+02 0.  0.
          5    1    3    3  502    0 -0.10464746097E+02 -0.66664738828E+02  0.99082919646E+02  0.11995247259E+03  0.41800000000E+01 0. -1.
         -5    1    3    3    0  502  0.93314961992E+01  0.53698661068E+02  0.13764280650E+03  0.14810009319E+03  0.41800000000E+01 0. -1.
        -11    1    4    4    0    0  0.98210298550E+01  0.20331818626E+02  0.80471694903E+02  0.83579478083E+02  0.00000000000E+00 0.  1.
         11    1    4    4    0    0 -0.86877799571E+01 -0.73657408656E+01 -0.19750353711E+02  0.22799301103E+02  0.00000000000E+00 0. -1.
</event>
<event>
 8    1  0.7039283E-009  0.1387650E+03  0.7561462E-02  0.1215001E+00
          1   -1    0    0  501    0  0.00000000000E+00  0.00000000000E+00  0.38489888077E+03  0.38489888077E+03  0.00000000000E+00 0. -1.
         -1   -1    0    0    0  501 -0.00000000000E+00 -0.00000000000E+00 -0.64056963233E+02  0.64056963233E+02  0.00000000000E+00 0.  1.
         25    2    1    2    0    0 -0.10160229016E+03  0.41169435656E+02  0.13719515731E+03  0.21560807675E+03  0.12508550584E+03 0.  0.
         23    2    1    2    0    0  0.10160229016E+03 -0.41169435656E+02  0.18364676023E+03  0.23334776725E+03  0.93311843519E+02 0.  0.
          5    1    3    3  502    0 -0.82340750630E+02  0.83804767354E+02  0.11169430871E+03  0.16216142958E+03  0.41800000000E+01 0. -1.
         -5    1    3    3    0  502 -0.19261539533E+02 -0.42635331698E+02  0.25500848592E+02  0.53446647164E+02  0.41800000000E+01 0. -1.
        -11    1    4    4    0    0  0.54860292371E+02 -0.74530478478E+01  0.16297017136E+03  0.17211762360E+03  0.00000000000E+00 0. -1.
         11    1    4    4    0    0  0.46741997791E+02 -0.33716387808E+02  0.20676588870E+02  0.61230143652E+02  0.00000000000E+00 0.  1.
</event>
<event>
 8    1  0.7039283E-009  0.6408272E+02  0.7561462E-02  0.1381456E+00
         -2   -1    0    0    0  501 -0.00000000000E+00  0.00000000000E+00  0.16483006074E+02  0.16483006074E+02  0.00000000000E+00 0.  1.
          2   -1    0    0  501    0  0.00000000000E+00 -0.00000000000E+00 -0.12576379067E+04  0.12576379067E+04  0.00000000000E+00 0. -1.
         25    2    1    2    0    0 -0.20122952628E+02 -0.41938527932E+00 -0.10850012201E+04  0.10923737764E+04  0.12509081016E+03 0.  0.
         23    2    1    2    0    0  0.20122952628E+02  0.41938527932E+00 -0.15615368059E+03  0.18174713637E+03  0.90790641097E+02 0.  0.
          5    1    3    3  502    0 -0.20055384338E+02  0.10828535229E+02 -0.33104488204E+02  0.40408602493E+02  0.41800000000E+01 0. -1.
         -5    1    3    3    0  502 -0.67568290561E-01 -0.11247920509E+02 -0.10518967319E+04  0.10519651739E+04  0.41800000000E+01 0. -1.
        -11    1    4    4    0    0  0.42523424635E+02 -0.32258825772E+02 -0.89153604708E+02  0.10390976237E+03  0.00000000000E+00 0.  1.
         11    1    4    4    0    0 -0.22400472006E+02  0.32678211051E+02 -0.67000075882E+02  0.77837374003E+02  0.00000000000E+00 0. -1.
</event>
<event>
 8    1  0.7039283E-009  0.1216465E+03  0.7561462E-02  0.1240405E+00
          2   -1    0    0  501    0  0.00000000000E+00  0.00000000000E+00  0.13637998423E+03  0.13637998423E+03  0.00000000000E+00 0. -1.
         -2   -1    0    0    0  501 -0.00000000000E+00 -0.00000000000E+00 -0.14386916478E+03  0.14386916478E+03  0.00000000000E+00 0.  1.
         25    2    1    2    0    0  0.67059687469E+02 -0.20456550469E+02 -0.59826137592E+02  0.15537865772E+03  0.12509152008E+03 0.  0.
         23    2    1    2    0    0 -0.67059687469E+02  0.20456550469E+02  0.52336957036E+02  0.12487049129E+03  0.89095512692E+02 0.  0.
          5    1    3    3  502    0 -0.62520670940E+01  0.38570659941E+02  0.69406849623E+01  0.39905258538E+02  0.41800000000E+01 0.  1.
         -5    1    3    3    0  502  0.73311754563E+02 -0.59027210410E+02 -0.66766822554E+02  0.11547339919E+03  0.41800000000E+01 0.  1.
        -11    1    4    4    0    0  0.18366486401E+02  0.15802406997E+02  0.25574938997E+02  0.35229552854E+02  0.00000000000E+00 0.  1.
         11    1    4    4    0    0 -0.85426173870E+02  0.46541434718E+01  0.26762018039E+02  0.89640938432E+02  0.00000000000E+00 0. -1.
</event>
<event>
 8    1  0.7039283E-009  0.1348338E+03  0.7561462E-02  0.1220455E+00
          1   -1    0    0  501    0  0.00000000000E+00  0.00000000000E+00  0.65417995657E+03  0.65417995657E+03  0.00000000000E+00 0. -1.
         -1   -1    0    0    0  501 -0.00000000000E+00 -0.00000000000E+00 -0.47681848910E+02  0.47681848910E+02  0.00000000000E+00 0.  1.
         25    2    1    2    0    0  0.92372531243E+02 -0.69682899403E+02  0.17091632350E+03  0.24134670372E+03  0.12508977080E+03 0.  0.
         23    2    1    2    0    0 -0.92372531243E+02  0.69682899403E+02  0.43558178416E+03  0.46051510176E+03  0.94627042972E+02 0.  0.
          5    1    3    3  502    0  0.74414166885E+02 -0.38257364383E+02  0.18436631840E+03  0.20250803916E+03  0.41800000000E+01 0. -1.
         -5    1    3    3    0  502  0.17958364358E+02 -0.31425535019E+02 -0.13449994905E+02  0.38838664557E+02  0.41800000000E+01 0. -1.
        -11    1    4    4    0    0 -0.19142917003E+02  0.73670727640E+02  0.21813726721E+03  0.23103613295E+03  0.00000000000E+00 0.  1.
         11    1    4    4    0    0 -0.73229614239E+02 -0.39878282374E+01  0.21744451695E+03  0.22947896882E+03  0.00000000000E+00 0. -1.
</event>
<event>
 8    1  0.7039283E-009  0.2539632E+03  0.7561462E-02  0.1110825E+00
         -2   -1    0    0    0  501 -0.00000000000E+00  0.00000000000E+00  0.57793437109E+02  0.57793437109E+02  0.00000000000E+00 0.  1.
          2   -1    0    0  501    0  0.00000000000E+00 -0.00000000000E+00 -0.12286165367E+04  0.12286165367E+04  0.00000000000E+00 0. -1.
         25    2    1    2    0    0 -0.18669862763E+03 -0.14908935084E+03 -0.70910471749E+03  0.75865714046E+03  0.12508854588E+03 0.  0.
         23    2    1    2    0    0  0.18669862763E+03  0.14908935084E+03 -0.46171838205E+03  0.52775283331E+03  0.90858002638E+02 0.  0.
          5    1    3    3  502    0 -0.83394238072E+02 -0.14278423106E+03 -0.46219584347E+03  0.49090162528E+03  0.41800000000E+01 0. -1.
         -5    1    3    3    0  502 -0.10330438956E+03 -0.63051197728E+01 -0.24690887403E+03  0.26775551518E+03  0.41800000000E+01 0. -1.
        -11    1    4    4    0    0  0.65709213988E+02  0.54171405414E+02 -0.82619883167E+02  0.11865195768E+03  0.00000000000E+00 0.  1.
         11    1    4    4    0    0  0.12098941364E+03  0.94917945422E+02 -0.37909849889E+03  0.40910087562E+03  0.00000000000E+00 0. -1.
</event>
<event>
 8    1  0.7039283E-009  0.1031816E+03  0.7561462E-02  0.1273744E+00
          2   -1    0    0  501    0  0.00000000000E+00  0.00000000000E+00  0.57796826741E+03  0.57796826741E+03  0.00000000000E+00 0. -1.
         -2   -1    0    0    0  501 -0.00000000000E+00 -0.00000000000E+00 -0.26155940613E+02  0.26155940613E+02  0.00000000000E+00 0.  1.
         25    2    1    2    0    0 -0.61418468899E+02  0.38164533322E+01  0.29231359250E+03  0.32385362200E+03  0.12508852260E+03 0.  0.
         23    2    1    2    0    0  0.61418468899E+02 -0.38164533322E+01  0.25949873430E+03  0.28027058602E+03  0.86169685203E+02 0.  0.
          5    1    3    3  502    0 -0.68323619377E+02  0.49187387040E+02  0.12848072101E+03  0.15366289103E+03  0.41800000000E+01 0.  1.
         -5    1    3    3    0  502  0.69051504777E+01 -0.45370933708E+02  0.16383287149E+03  0.17019073097E+03  0.41800000000E+01 0.  1.
        -11    1    4    4    0    0  0.13373304878E+02  0.18650857406E+02  0.97212387006E+01  0.24923929209E+02  0.00000000000E+00 0.  1.
         11    1    4    4    0    0  0.48045164021E+02 -0.22467310739E+02  0.24977749560E+03  0.25534665681E+03  0.00000000000E+00 0. -1.
</event>
<event>
 8    1  0.7039283E-009  0.1146604E+03  0.7561462E-02  0.1252175E+00
         -1   -1    0    0    0  501 -0.00000000000E+00  0.00000000000E+00  0.53975679796E+02  0.53975679796E+02  0.00000000000E+00 0.  1.
          1   -1    0    0  501    0  0.00000000000E+00 -0.00000000000E+00 -0.33057290838E+03  0.33057290838E+03  0.00000000000E+00 0. -1.
         25    2    1    2    0    0  0.58354170717E+02 -0.49427619811E+02 -0.13698392505E+03  0.20066084770E+03  0.12510747874E+03 0.  0.
         23    2    1    2    0    0 -0.58354170717E+02  0.49427619811E+02 -0.13961330353E+03  0.18388774048E+03  0.92057198166E+02 0.  0.
          5    1    3    3  502    0  0.46759557994E+02  0.23260543161E+02 -0.92871130094E+01  0.53209322492E+02  0.41800000000E+01 0. -1.
         -5    1    3    3    0  502  0.11594612722E+02 -0.72688162972E+02 -0.12769681205E+03  0.14745152521E+03  0.41800000000E+01 0. -1.
        -11    1    4    4    0    0  0.73373174416E-01  0.44573600976E+02 -0.16504473214E+02  0.47531136360E+02  0.00000000000E+00 0.  1.
         11    1    4    4    0    0 -0.58427543891E+02  0.48540188350E+01 -0.12310883032E+03  0.13635660412E+03  0.00000000000E+00 0. -1.
</event>
<event>
 8    1  0.7039283E-009  0.1295367E+03  0.7561462E-02  0.1228145E+00
         -3   -1    0    0    0  501 -0.00000000000E+00  0.00000000000E+00  0.42016177517E+03  0.42016177517E+03  0.00000000000E+00 0.  1.
          3   -1    0    0  501    0  0.00000000000E+00 -0.00000000000E+00 -0.63869547834E+02  0.63869547834E+02  0.00000000000E+00 0. -1.
         25    2    1    2    0    0 -0.91730827065E+02 -0.39870293353E+02  0.86077610292E+02  0.18183598473E+03  0.12510309917E+03 0.  0.
         23    2    1    2    0    0  0.91730827065E+02  0.39870293353E+02  0.27021461704E+03  0.30219533827E+03  0.91114753393E+02 0.  0.
          5    1    3    3  502    0  0.30619254601E+02 -0.23783350122E+01  0.85233482069E+01  0.32145218842E+02  0.41800000000E+01 0.  1.
         -5    1    3    3    0  502 -0.12235008167E+03 -0.37491958340E+02  0.77554262085E+02  0.14969076588E+03  0.41800000000E+01 0.  1.
        -11    1    4    4    0    0  0.22445202361E+02  0.10786809579E+02  0.35603177059E+01  0.25155878679E+02  0.00000000000E+00 0. -1.
         11    1    4    4    0    0  0.69285624704E+02  0.29083483773E+02  0.26665429933E+03  0.27703945959E+03  0.00000000000E+00 0.  1.
</event>
<event>
 8    1  0.7039283E-009  0.1951176E+03  0.7561462E-02  0.1153925E+00
         -2   -1    0    0    0  501 -0.00000000000E+00  0.00000000000E+00  0.64307554034E+02  0.64307554034E+02  0.00000000000E+00 0.  1.
          2   -1    0    0  501    0  0.00000000000E+00 -0.00000000000E+00 -0.72874792115E+03  0.72874792115E+03  0.00000000000E+00 0. -1.
         25    2    1    2    0    0 -0.16604937734E+03  0.53904350105E+02 -0.22466330086E+03  0.31080104590E+03  0.12508243963E+03 0.  0.
         23    2    1    2    0    0  0.16604937734E+03 -0.53904350105E+02 -0.43977706626E+03  0.48225442929E+03  0.93206179406E+02 0.  0.
          5    1    3    3  502    0 -0.88569703745E+02  0.70162350401E+02 -0.19642584467E+03  0.22664494852E+03  0.41800000000E+01 0.  1.
         -5    1    3    3    0  502 -0.77479673599E+02 -0.16258000297E+02 -0.28237456189E+02  0.84156097383E+02  0.41800000000E+01 0.  1.
        -11    1    4    4    0    0  0.16368740422E+03 -0.21149542717E+02 -0.36896241541E+03  0.40419566233E+03  0.00000000000E+00 0.  1.
         11    1    4    4    0    0  0.23619731217E+01 -0.32754807387E+02 -0.70814650849E+02  0.78058766957E+02  0.00000000000E+00 0. -1.
</event>
<event>
 8    1  0.7039283E-009  0.7498966E+02  0.7561462E-02  0.1343903E+00
         -1   -1    0    0    0  501 -0.00000000000E+00  0.00000000000E+00  0.22920736080E+03  0.22920736080E+03  0.00000000000E+00 0.  1.
          1   -1    0    0  501    0  0.00000000000E+00 -0.00000000000E+00 -0.68686656704E+02  0.68686656704E+02  0.00000000000E+00 0. -1.
         25    2    1    2    0    0  0.89948566375E+01  0.27481407936E+01  0.16728580321E+03  0.20908812327E+03  0.12507934927E+03 0.  0.
         23    2    1    2    0    0 -0.89948566375E+01 -0.27481407936E+01 -0.67650991130E+01  0.88805894234E+02  0.88046922495E+02 0.  0.
          5    1    3    3  502    0 -0.10963764595E+02 -0.36480782372E+02  0.15969546537E+03  0.16422900376E+03  0.41800000000E+01 0. -1.
         -5    1    3    3    0  502  0.19958621233E+02  0.39228923166E+02  0.75903378349E+01  0.44859119504E+02  0.41800000000E+01 0. -1.
        -11    1    4    4    0    0  0.14133438034E+02 -0.29120060871E+02  0.25453494760E+02  0.41177814552E+02  0.00000000000E+00 0.  1.
         11    1    4    4    0    0 -0.23128294671E+02  0.26371920077E+02 -0.32218593873E+02  0.47628079681E+02  0.00000000000E+00 0. -1.
</event>
<event>
 8    1  0.7039283E-009  0.1063580E+03  0.7561462E-02  0.1267467E+00
         -4   -1    0    0    0  501 -0.00000000000E+00  0.00000000000E+00  0.44331460460E+02  0.44331460460E+02  0.00000000000E+00 0.  1.
          4   -1    0    0  501    0  0.00000000000E+00 -0.00000000000E+00 -0.40156668657E+03  0.40156668657E+03  0.00000000000E+00 0. -1.
         25    2    1    2    0    0 -0.48080394872E+02  0.22612411794E+02 -0.10411803047E+03  0.17120263308E+03  0.12508689686E+03 0.  0.
         23    2    1    2    0    0  0.48080394872E+02 -0.22612411794E+02 -0.25311719564E+03  0.27469551395E+03  0.92554119953E+02 0.  0.
          5    1    3    3  502    0  0.29775447227E+02 -0.27980721746E-01 -0.81578916455E+02  0.86943487683E+02  0.41800000000E+01 0. -1.
         -5    1    3    3    0  502 -0.77855842099E+02  0.22640392516E+02 -0.22539114019E+02  0.84259145396E+02  0.41800000000E+01 0. -1.
        -11    1    4    4    0    0 -0.21130245796E+02  0.11761775783E+02 -0.10364553856E+03  0.10642943352E+03  0.00000000000E+00 0. -1.
         11    1    4    4    0    0  0.69210640668E+02 -0.34374187577E+02 -0.14947165708E+03  0.16826608043E+03  0.00000000000E+00 0.  1.
</event>
<event>
 8    1  0.7039283E-009  0.1110981E+03  0.7561462E-02  0.1258550E+00
         -2   -1    0    0    0  501 -0.00000000000E+00  0.00000000000E+00  0.19940949392E+02  0.19940949392E+02  0.00000000000E+00 0. -1.
          2   -1    0    0  501    0  0.00000000000E+00 -0.00000000000E+00 -0.11665856916E+04  0.11665856916E+04  0.00000000000E+00 0.  1.
         25    2    1    2    0    0 -0.25266075375E+02 -0.51439842542E+02 -0.96916246189E+03  0.97888057082E+03  0.12508741914E+03 0.  0.
         23    2    1    2    0    0  0.25266075375E+02  0.51439842542E+02 -0.17748228027E+03  0.20764607013E+03  0.91282521123E+02 0.  0.
          5    1    3    3  502    0  0.42114634416E+02  0.79274301195E+00 -0.17075495872E+03  0.17592327646E+03  0.41800000000E+01 0.  1.
         -5    1    3    3    0  502 -0.67380709791E+02 -0.52232585554E+02 -0.79840750317E+03  0.80295729436E+03  0.41800000000E+01 0.  1.
        -11    1    4    4    0    0  0.49638091669E+02  0.49435225952E+02 -0.16688793578E+03  0.18099548287E+03  0.00000000000E+00 0.  1.
         11    1    4    4    0    0 -0.24372016295E+02  0.20046165904E+01 -0.10594344490E+02  0.26650587256E+02  0.00000000000E+00 0. -1.
</event>
<event>
 8    1  0.7039283E-009  0.2261770E+03  0.7561462E-02  0.1129360E+00
          2   -1    0    0  501    0  0.00000000000E+00  0.00000000000E+00  0.36906010609E+03  0.36906010609E+03  0.00000000000E+00 0. -1.
         -2   -1    0    0    0  501 -0.00000000000E+00 -0.00000000000E+00 -0.18625529926E+03  0.18625529926E+03  0.00000000000E+00 0.  1.
         25    2    1    2    0    0 -0.20448169398E+03  0.47909178628E+02  0.21345492978E+03  0.32452696438E+03  0.12508673390E+03 0.  0.
         23    2    1    2    0    0  0.20448169398E+03 -0.47909178628E+02 -0.30650122945E+02  0.23078844097E+03  0.90641170996E+02 0.  0.
          5    1    3    3  502    0 -0.19369769382E+03  0.78945587391E+02  0.16816355521E+03  0.26841694444E+03  0.41800000000E+01 0. -1.
         -5    1    3    3    0  502 -0.10784000156E+02 -0.31036408763E+02  0.45291374563E+02  0.56110019944E+02  0.41800000000E+01 0. -1.
        -11    1    4    4    0    0  0.16723427444E+03 -0.38677689095E+02  0.13635901900E+02  0.17218944219E+03  0.00000000000E+00 0. -1.
         11    1    4    4    0    0  0.37247419536E+02 -0.92314895336E+01 -0.44286024845E+02  0.58598998776E+02  0.00000000000E+00 0.  1.
</event>
<event>
 8    1  0.7039283E-009  0.1851187E+03  0.7561462E-02  0.1162939E+00
         -1   -1    0    0    0  501 -0.00000000000E+00  0.00000000000E+00  0.63379234782E+03  0.63379234782E+03  0.00000000000E+00 0.  1.
          1   -1    0    0  501    0  0.00000000000E+00 -0.00000000000E+00 -0.61910214750E+02  0.61910214750E+02  0.00000000000E+00 0. -1.
         25    2    1    2    0    0 -0.16393136586E+03  0.39000984995E+01  0.33798928679E+03  0.39594856705E+03  0.12509918576E+03 0.  0.
         23    2    1    2    0    0  0.16393136586E+03 -0.39000984995E+01  0.23389284628E+03  0.29975399553E+03  0.90872937720E+02 0.  0.
          5    1    3    3  502    0 -0.41266197290E+02 -0.55541046966E+02  0.10045461731E+03  0.12205043825E+03  0.41800000000E+01 0. -1.
         -5    1    3    3    0  502 -0.12266516857E+03  0.59441145466E+02  0.23753466948E+03  0.27389812880E+03  0.41800000000E+01 0. -1.
        -11    1    4    4    0    0  0.75263405702E+02 -0.85989331303E+01  0.38157515955E+02  0.84820504082E+02  0.00000000000E+00 0. -1.
         11    1    4    4    0    0  0.88667960162E+02  0.46988346308E+01  0.19573533033E+03  0.21493349145E+03  0.00000000000E+00 0.  1.
</event>
<event>
 8    1  0.7039283E-009  0.1067889E+03  0.7561462E-02  0.1266634E+00
         -2   -1    0    0    0  501 -0.00000000000E+00  0.00000000000E+00  0.23537709203E+03  0.23537709203E+03  0.00000000000E+00 0.  1.
          2   -1    0    0  501    0  0.00000000000E+00 -0.00000000000E+00 -0.52626097513E+02  0.52626097513E+02  0.00000000000E+00 0. -1.
         25    2    1    2    0    0 -0.12291906493E+02 -0.58198747595E-01  0.70274915467E+02  0.14400324795E+03  0.12508907756E+03 0.  0.
         23    2    1    2    0    0  0.12291906493E+02  0.58198747595E-01  0.11247607905E+03  0.14399994159E+03  0.89073118656E+02 0.  0.
          5    1    3    3  502    0 -0.28897442845E+02  0.58117532434E+02  0.35542422114E+02  0.74117784296E+02  0.41800000000E+01 0.  1.
         -5    1    3    3    0  502  0.16605536353E+02 -0.58175731182E+02  0.34732493353E+02  0.69885463658E+02  0.41800000000E+01 0.  1.
        -11    1    4    4    0    0  0.45066156033E+02 -0.20177028371E+02  0.77951585097E+02  0.92274159506E+02  0.00000000000E+00 0.  1.
         11    1    4    4    0    0 -0.32774249540E+02  0.20235227119E+02  0.34524493954E+02  0.51725782084E+02  0.00000000000E+00 0. -1.
</event>
<event>
 8    1  0.7039283E-009  0.1489155E+03  0.7561462E-02  0.1201812E+00
          2   -1    0    0  501    0  0.00000000000E+00  0.00000000000E+00  0.33027218054E+03  0.33027218054E+03  0.00000000000E+00 0. -1.
         -2   -1    0    0    0  501 -0.00000000000E+00 -0.00000000000E+00 -0.12450712165E+03  0.12450712165E+03  0.00000000000E+00 0.  1.
         25    2    1    2    0    0 -0.75118429102E+02 -0.11330123922E+03  0.22150122557E+03  0.28842586513E+03  0.12508691997E+03 0.  0.
         23    2    1    2    0    0  0.75118429102E+02  0.11330123922E+03 -0.15736166675E+02  0.16635343707E+03  0.94582714507E+02 0.  0.
          5    1    3    3  502    0 -0.45942567222E+02 -0.58785048761E+02  0.21317863283E+03  0.22589600115E+03  0.41800000000E+01 0.  1.
         -5    1    3    3    0  502 -0.29175861879E+02 -0.54516190460E+02  0.83225927338E+01  0.62529863973E+02  0.41800000000E+01 0.  1.
        -11    1    4    4    0    0 -0.10252247206E+02  0.59158109099E+02 -0.24576977466E+02  0.64875405712E+02  0.00000000000E+00 0. -1.
         11    1    4    4    0    0  0.85370676308E+02  0.54143130121E+02  0.88408107907E+01  0.10147803136E+03  0.00000000000E+00 0.  1.
</event>
<event>
 8    1  0.7039283E-009  0.1008349E+03  0.7561462E-02  0.1278550E+00
          2   -1    0    0  501    0  0.00000000000E+00  0.00000000000E+00  0.68212010565E+02  0.68212010565E+02  0.00000000000E+00 0. -1.
         -2   -1    0    0    0  501 -0.00000000000E+00 -0.00000000000E+00 -0.25617092712E+03  0.25617092712E+03  0.00000000000E+00 0.  1.
         25    2    1    2    0    0 -0.27469451666E+02  0.34252712309E+02 -0.18111191996E+03  0.22444961301E+03  0.12509309396E+03 0.  0.
         23    2    1    2    0    0  0.27469451666E+02 -0.34252712309E+02 -0.68469966006E+01  0.99933324673E+02  0.89509602515E+02 0.  0.
          5    1    3    3  502    0 -0.62946641923E+02  0.18180900124E+02 -0.37535270720E+02  0.75625351613E+02  0.41800000000E+01 0.  1.
         -5    1    3    3    0  502  0.35477190257E+02  0.16071812185E+02 -0.14357664924E+03  0.14882426140E+03  0.41800000000E+01 0.  1.
        -11    1    4    4    0    0  0.57990167539E+02 -0.32020104680E+02 -0.15696198442E+02  0.68077289021E+02  0.00000000000E+00 0.  1.
         11    1    4    4    0    0 -0.30520715873E+02 -0.22326076295E+01  0.88492018411E+01  0.31856035652E+02  0.00000000000E+00 0. -1.
</event>
<event>
 8    1  0.7039283E-009  0.1137723E+03  0.7561462E-02  0.1253740E+00
          2   -1    0    0  501    0  0.00000000000E+00  0.00000000000E+00  0.87956925330E+03  0.87956925330E+03  0.00000000000E+00 0. -1.
         -2   -1    0    0    0  501 -0.00000000000E+00 -0.00000000000E+00 -0.33243300280E+02  0.33243300280E+02  0.00000000000E+00 0.  1.
         25    2    1    2    0    0  0.56190765969E+02  0.62613571058E+02  0.17940712329E+03  0.23433471548E+03  0.12509189235E+03 0.  0.
         23    2    1    2    0    0 -0.56190765969E+02 -0.62613571058E+02  0.66691882973E+03  0.67847783810E+03  0.92052104167E+02 0.  0.
          5    1    3    3  502    0  0.68486981930E+02  0.53102836850E+02  0.42732953585E+02  0.96715850291E+02  0.41800000000E+01 0. -1.
         -5    1    3    3    0  502 -0.12296215960E+02  0.95107342086E+01  0.13667416970E+03  0.13761886519E+03  0.41800000000E+01 0. -1.
        -11    1    4    4    0    0 -0.17842141373E+02  0.24032051670E+02  0.15478412028E+03  0.15765153158E+03  0.00000000000E+00 0. -1.
         11    1    4    4    0    0 -0.38348624597E+02 -0.86645622728E+02  0.51213470945E+03  0.52082630652E+03  0.00000000000E+00 0.  1.
</event>
<event>
 8    1  0.7039283E-009  0.1874504E+03  0.7561462E-02  0.1160781E+00
          2   -1    0    0  501    0  0.00000000000E+00  0.00000000000E+00  0.28924172643E+03  0.28924172643E+03  0.00000000000E+00 0. -1.
         -2   -1    0    0    0  501 -0.00000000000E+00 -0.00000000000E+00 -0.12706387970E+03  0.12706387970E+03  0.00000000000E+00 0.  1.
         25    2    1    2    0    0  0.50314058009E+02  0.14595414510E+03  0.11110877849E+03  0.22765854985E+03  0.12509651377E+03 0.  0.
         23    2    1    2    0    0 -0.50314058009E+02 -0.14595414510E+03  0.51069068244E+02  0.18864705628E+03  0.95632343931E+02 0.  0.
          5    1    3    3  502    0  0.51268534879E+02  0.43352942849E+01  0.54550695368E+02  0.75103316906E+02  0.41800000000E+01 0. -1.
         -5    1    3    3    0  502 -0.95447686976E+00  0.14161885082E+03  0.56558083123E+02  0.15255523295E+03  0.41800000000E+01 0. -1.
        -11    1    4    4    0    0  0.27715467022E+02 -0.23215090794E+02  0.95069735791E+01  0.37382751362E+02  0.00000000000E+00 0. -1.
         11    1    4    4    0    0 -0.78029525031E+02 -0.12273905431E+03  0.41562094665E+02  0.15126430492E+03  0.00000000000E+00 0.  1.
</event>
<event>
 8    1  0.7039283E-009  0.1133729E+03  0.7561462E-02  0.1254448E+00
         -2   -1    0    0    0  501 -0.00000000000E+00  0.00000000000E+00  0.19384633819E+02  0.19384633819E+02  0.00000000000E+00 0. -1.
          2   -1    0    0  501    0  0.00000000000E+00 -0.00000000000E+00 -0.86309811314E+03  0.86309811314E+03  0.00000000000E+00 0.  1.
         25    2    1    2    0    0  0.33905449429E+02  0.47062556774E+02 -0.60421074045E+03  0.61974416661E+03  0.12509096463E+03 0.  0.
         23    2    1    2    0    0 -0.33905449429E+02 -0.47062556774E+02 -0.23950273887E+03  0.26273858034E+03  0.91134713042E+02 0.  0.
          5    1    3    3  502    0  0.42855638640E+02 -0.22744971387E+02 -0.41459973698E+03  0.41744982189E+03  0.41800000000E+01 0.  1.
         -5    1    3    3    0  502 -0.89501892108E+01  0.69807528161E+02 -0.18961100346E+03  0.20229434473E+03  0.41800000000E+01 0.  1.
        -11    1    4    4    0    0 -0.43212735909E+02 -0.70296843283E+02 -0.19368877685E+03  0.21053343914E+03  0.00000000000E+00 0.  1.
         11    1    4    4    0    0  0.93072864803E+01  0.23234286509E+02 -0.45813962028E+02  0.52205141202E+02  0.00000000000E+00 0. -1.
</event>
<event>
 8    1  0.7039283E-009  0.1987754E+03  0.7561462E-02  0.1150776E+00
          1   -1    0    0  501    0  0.00000000000E+00  0.00000000000E+00  0.35203349990E+02  0.35203349990E+02  0.00000000000E+00 0. -1.
         -1   -1    0    0    0  501 -0.00000000000E+00 -0.00000000000E+00 -0.11605432939E+04  0.11605432939E+04  0.00000000000E+00 0.  1.
         25    2    1    2    0    0 -0.15029238698E+03  0.80028683572E+02 -0.59188432766E+03  0.62846479845E+03  0.12509417964E+03 0.  0.
         23    2    1    2    0    0  0.15029238698E+03 -0.80028683572E+02 -0.53345561622E+03  0.56728184541E+03  0.90782189218E+02 0.  0.
          5    1    3    3  502    0 -0.25581780769E+02  0.81662286823E+02 -0.21426653807E+03  0.23076130164E+03  0.41800000000E+01 0. -1.
         -5    1    3    3    0  502 -0.12471060621E+03 -0.16336032511E+01 -0.37761778959E+03  0.39770349681E+03  0.41800000000E+01 0. -1.
        -11    1    4    4    0    0  0.86159937571E+02 -0.87155814415E+02 -0.41075793075E+03  0.42865108013E+03  0.00000000000E+00 0.  1.
         11    1    4    4    0    0  0.64132449408E+02  0.71271308433E+01 -0.12269768548E+03  0.13863076528E+03  0.00000000000E+00 0. -1.
</event>
<event>
 8    1  0.7039283E-009  0.1524239E+03  0.7561462E-02  0.1197526E+00
          1   -1    0    0  501    0  0.00000000000E+00  0.00000000000E+00  0.93168114794E+03  0.93168114794E+03  0.00000000000E+00 0. -1.
         -1   -1    0    0    0  501 -0.00000000000E+00 -0.00000000000E+00 -0.32627906003E+02  0.32627906003E+02  0.00000000000E+00 0.  1.
         25    2    1    2    0    0 -0.10693887627E+03  0.67552176803E+02  0.33888027015E+03  0.38273363637E+03  0.12508388809E+03 0.  0.
         23    2    1    2    0    0  0.10693887627E+03 -0.67552176803E+02  0.56017297178E+03  0.58157541757E+03  0.91853079215E+02 0.  0.
          5    1    3    3  502    0 -0.54209826847E+02 -0.33300241480E+02  0.13152122312E+03  0.14616058272E+03  0.41800000000E+01 0. -1.
         -5    1    3    3    0  502 -0.52729049425E+02  0.10085241828E+03  0.20735904703E+03  0.23657305365E+03  0.41800000000E+01 0. -1.
        -11    1    4    4    0    0  0.90048230642E+02 -0.62376740629E+02  0.55078031696E+03  0.56156789364E+03  0.00000000000E+00 0. -1.
         11    1    4    4    0    0  0.16890645630E+02 -0.51754361743E+01  0.93926548183E+01  0.20007523933E+02  0.00000000000E+00 0.  1.
</event>
<event>
 8    1  0.7039283E-009  0.1004959E+03  0.7561462E-02  0.1279257E+00
         -2   -1    0    0    0  501 -0.00000000000E+00  0.00000000000E+00  0.20915723472E+02  0.20915723472E+02  0.00000000000E+00 0. -1.
          2   -1    0    0  501    0  0.00000000000E+00 -0.00000000000E+00 -0.10587701795E+04  0.10587701795E+04  0.00000000000E+00 0.  1.
         25    2    1    2    0    0 -0.63314421824E+02 -0.70164807388E+02 -0.70850478797E+03  0.72564384258E+03  0.12509250772E+03 0.  0.
         23    2    1    2    0    0  0.63314421824E+02  0.70164807388E+02 -0.32934966805E+03  0.35404206039E+03  0.89122165994E+02 0.  0.
          5    1    3    3  502    0 -0.25671470287E+01 -0.15830284170E+01 -0.47127595010E+03  0.47130413722E+03  0.41800000000E+01 0.  1.
         -5    1    3    3    0  502 -0.60747274796E+02 -0.68581778971E+02 -0.23722883787E+03  0.25433970535E+03  0.41800000000E+01 0.  1.
        -11    1    4    4    0    0  0.14775599586E+02  0.48987590694E+02 -0.57023374685E+02  0.76614408864E+02  0.00000000000E+00 0.  1.
         11    1    4    4    0    0  0.48538822238E+02  0.21177216694E+02 -0.27232629337E+03  0.27742765153E+03  0.00000000000E+00 0. -1.
</event>
<event>
 8    1  0.7039283E-009  0.1214048E+03  0.7561462E-02  0.1240797E+00
         -3   -1    0    0    0  501 -0.00000000000E+00  0.00000000000E+00  0.36577897289E+03  0.36577897289E+03  0.00000000000E+00 0.  1.
          3   -1    0    0  501    0  0.00000000000E+00 -0.00000000000E+00 -0.42753995637E+02  0.42753995637E+02  0.00000000000E+00 0. -1.
         25    2    1    2    0    0  0.27641486951E+02  0.47941058310E+02  0.18139112862E+03  0.22718365888E+03  0.12508907405E+03 0.  0.
         23    2    1    2    0    0 -0.27641486951E+02 -0.47941058310E+02  0.14163384864E+03  0.18134930965E+03  0.98818157029E+02 0.  0.
          5    1    3    3  502    0  0.45579971302E+02 -0.28308160014E+02  0.10340432737E+03  0.11657106427E+03  0.41800000000E+01 0.  1.
         -5    1    3    3    0  502 -0.17938484351E+02  0.76249218324E+02  0.77986801249E+02  0.11061259460E+03  0.41800000000E+01 0.  1.
        -11    1    4    4    0    0 -0.52611177113E+02 -0.62460224325E+02  0.85588806274E+02  0.11829902510E+03  0.00000000000E+00 0. -1.
         11    1    4    4    0    0  0.24969690163E+02  0.14519166016E+02  0.56045042364E+02  0.63050284553E+02  0.00000000000E+00 0.  1.
</event>
<event>
 8    1  0.7039283E-009  0.1127820E+03  0.7561462E-02  0.1255503E+00
         -2   -1    0    0    0  501 -0.00000000000E+00  0.00000000000E+00  0.12865781356E+03  0.12865781356E+03  0.00000000000E+00 0.  1.
          2   -1    0    0  501    0  0.00000000000E+00 -0.00000000000E+00 -0.18362422065E+03  0.18362422065E+03  0.00000000000E+00 0. -1.
         25    2    1    2    0    0 -0.61692401207E+02 -0.60650904476E+02 -0.95168377927E+02  0.17941626748E+03  0.12509473330E+03 0.  0.
         23    2    1    2    0    0  0.61692401207E+02  0.60650904476E+02  0.40201970829E+02  0.13286576673E+03  0.92480424574E+02 0.  0.
          5    1    3    3  502    0  0.22042286960E+02 -0.34304734279E+02  0.10170502730E+02  0.42232555383E+02  0.41800000000E+01 0.  1.
         -5    1    3    3    0  502 -0.83734688167E+02 -0.26346170196E+02 -0.10533888066E+03  0.13718371210E+03  0.41800000000E+01 0.  1.
        -11    1    4    4    0    0  0.62977542555E+02  0.37070716551E+02  0.65587558332E+02  0.98194382221E+02  0.00000000000E+00 0.  1.
         11    1    4    4    0    0 -0.12851413476E+01  0.23580187925E+02 -0.25385587502E+02  0.34671384508E+02  0.00000000000E+00 0. -1.
</event>
<event>
 8    1  0.7039283E-009  0.2007602E+03  0.7561462E-02  0.1149099E+00
         -2   -1    0    0    0  501 -0.00000000000E+00  0.00000000000E+00  0.15266558777E+03  0.15266558777E+03  0.00000000000E+00 0.  1.
          2   -1    0    0  501    0  0.00000000000E+00 -0.00000000000E+00 -0.36231885190E+03  0.36231885190E+03  0.00000000000E+00 0. -1.
         25    2    1    2    0    0  0.52423784126E+02 -0.17097945685E+03  0.87588613909E+01  0.21841746374E+03  0.12508894038E+03 0.  0.
         23    2    1    2    0    0 -0.52423784126E+02  0.17097945685E+03 -0.21841212552E+03  0.29656697593E+03  0.90916922692E+02 0.  0.
          5    1    3    3  502    0  0.85373892989E+02 -0.14658144940E+03 -0.15842485594E+02  0.17042088974E+03  0.41800000000E+01 0. -1.
         -5    1    3    3    0  502 -0.32950108863E+02 -0.24398007456E+02  0.24601346985E+02  0.47996573996E+02  0.41800000000E+01 0. -1.
        -11    1    4    4    0    0 -0.63958439526E+02  0.99926857759E+02 -0.17829064233E+03  0.21415791377E+03  0.00000000000E+00 0. -1.
         11    1    4    4    0    0  0.11534655400E+02  0.71052599092E+02 -0.40121483191E+02  0.82409062162E+02  0.00000000000E+00 0.  1.
</event>
<event>
 8    1  0.7039283E-009  0.2125192E+03  0.7561462E-02  0.1139586E+00
          2   -1    0    0  501    0  0.00000000000E+00  0.00000000000E+00  0.51625784888E+03  0.51625784888E+03  0.00000000000E+00 0.  1.
         -2   -1    0    0    0  501 -0.00000000000E+00 -0.00000000000E+00 -0.15322721684E+03  0.15322721684E+03  0.00000000000E+00 0. -1.
         25    2    1    2    0    0 -0.16452313115E+03 -0.99722068663E+02 -0.21564522772E+02  0.23049294083E+03  0.12509842313E+03 0.  0.
         23    2    1    2    0    0  0.16452313115E+03  0.99722068663E+02  0.38459515480E+03  0.43899212489E+03  0.88251351014E+02 0.  0.
          5    1    3    3  502    0 -0.80655098926E+02  0.16430341800E+02 -0.27937681826E+02  0.87024063225E+02  0.41800000000E+01 0.  1.
         -5    1    3    3    0  502 -0.83868032221E+02 -0.11615241046E+03  0.63731590537E+01  0.14346887761E+03  0.41800000000E+01 0.  1.
        -11    1    4    4    0    0  0.14751061533E+03  0.66164469120E+02  0.35831506094E+03  0.39309897164E+03  0.00000000000E+00 0.  1.
         11    1    4    4    0    0  0.17012515816E+02  0.33557599543E+02  0.26280093861E+02  0.45893153245E+02  0.00000000000E+00 0. -1.
</event>
<event>
 8    1  0.7039283E-009  0.1357012E+03  0.7561462E-02  0.1219233E+00
         -1   -1    0    0    0  501 -0.00000000000E+00  0.00000000000E+00  0.19667422994E+03  0.19667422994E+03  0.00000000000E+00 0.  1.
          1   -1    0    0  501    0  0.00000000000E+00 -0.00000000000E+00 -0.11376235587E+03  0.11376235587E+03  0.00000000000E+00 0. -1.
         25    2    1    2    0    0  0.93970436324E+01 -0.95998789649E+02  0.81755598973E+02  0.17786401377E+03  0.12509019701E+03 0.  0.
         23    2    1    2    0    0 -0.93970436324E+01  0.95998789649E+02  0.11562750984E+01  0.13257257205E+03  0.90939968353E+02 0.  0.
          5    1    3    3  502    0  0.54589751010E+02 -0.87997897170E+02  0.28602294325E+02  0.10751388032E+03  0.41800000000E+01 0. -1.
         -5    1    3    3    0  502 -0.45192707378E+02 -0.80008924791E+01  0.53153304648E+02  0.70350133444E+02  0.41800000000E+01 0. -1.
        -11    1    4    4    0    0  0.10231250705E+02  0.10092344532E+03  0.21699891932E+02  0.10373574898E+03  0.00000000000E+00 0.  1.
         11    1    4    4    0    0 -0.19628294337E+02 -0.49246556722E+01 -0.20543616833E+02  0.28836823068E+02  0.00000000000E+00 0. -1.
</event>
<event>
 8    1  0.7039283E-009  0.1698152E+03  0.7561462E-02  0.1178041E+00
         -2   -1    0    0    0  501 -0.00000000000E+00  0.00000000000E+00  0.62655307958E+02  0.62655307958E+02  0.00000000000E+00 0.  1.
          2   -1    0    0  501    0  0.00000000000E+00 -0.00000000000E+00 -0.47280371498E+03  0.47280371498E+03  0.00000000000E+00 0. -1.
         25    2    1    2    0    0 -0.27264572496E+02 -0.12383787544E+03 -0.25431856760E+03  0.31049175299E+03  0.12509204027E+03 0.  0.
         23    2    1    2    0    0  0.27264572496E+02  0.12383787544E+03 -0.15582983942E+03  0.22496726995E+03  0.10123318323E+03 0.  0.
          5    1    3    3  502    0 -0.77432437017E+02 -0.75916741189E+02 -0.16001715816E+03  0.19334450393E+03  0.41800000000E+01 0.  1.
         -5    1    3    3    0  502  0.50167864521E+02 -0.47921134254E+02 -0.94301409445E+02  0.11714724906E+03  0.41800000000E+01 0.  1.
        -11    1    4    4    0    0 -0.34981062989E+02  0.74058280236E+02 -0.89025352616E+02  0.12097031474E+03  0.00000000000E+00 0. -1.
         11    1    4    4    0    0  0.62245635485E+02  0.49779595207E+02 -0.66804486802E+02  0.10399695521E+03  0.00000000000E+00 0.  1.
</event>
<event>
 8    1  0.7039283E-009  0.1337593E+03  0.7561462E-02  0.1221982E+00
         -2   -1    0    0    0  501 -0.00000000000E+00  0.00000000000E+00  0.10469596621E+03  0.10469596621E+03  0.00000000000E+00 0.  1.
          2   -1    0    0  501    0  0.00000000000E+00 -0.00000000000E+00 -0.23424124709E+03  0.23424124709E+03  0.00000000000E+00 0. -1.
         25    2    1    2    0    0  0.40979002995E+01  0.10702276556E+03 -0.32757459230E+02  0.16790157621E+03  0.12508886051E+03 0.  0.
         23    2    1    2    0    0 -0.40979002995E+01 -0.10702276556E+03 -0.96787821648E+02  0.17103563709E+03  0.91731355604E+02 0.  0.
          5    1    3    3  502    0 -0.18957829002E+02  0.12711268858E+03 -0.42673949623E+02  0.13548274153E+03  0.41800000000E+01 0. -1.
         -5    1    3    3    0  502  0.23055729301E+02 -0.20089923013E+02  0.99164903925E+01  0.32418834680E+02  0.41800000000E+01 0. -1.
        -11    1    4    4    0    0  0.53960006043E+01 -0.33054566226E+02  0.14966199976E+02  0.36683897184E+02  0.00000000000E+00 0.  1.
         11    1    4    4    0    0 -0.94939009037E+01 -0.73968199336E+02 -0.11175402162E+03  0.13435173991E+03  0.00000000000E+00 0. -1.
</event>
<event>
 8    1  0.7039283E-009  0.9997829E+02  0.7561462E-02  0.1280342E+00
         -1   -1    0    0    0  501 -0.00000000000E+00  0.00000000000E+00  0.21993650686E+03  0.21993650686E+03  0.00000000000E+00 0.  1.
          1   -1    0    0  501    0  0.00000000000E+00 -0.00000000000E+00 -0.83903764852E+02  0.83903764852E+02  0.00000000000E+00 0. -1.
         25    2    1    2    0    0  0.20534719827E+02 -0.54563806640E+02  0.11699207882E+02  0.13850402304E+03  0.12509040419E+03 0.  0.
         23    2    1    2    0    0 -0.20534719827E+02  0.54563806640E+02  0.12433353413E+03  0.16533624867E+03  0.92078030507E+02 0.  0.
          5    1    3    3  502    0  0.12953878850E+02 -0.72784609187E+02 -0.39178896770E+02  0.83772672536E+02  0.41800000000E+01 0. -1.
         -5    1    3    3    0  502  0.75808409770E+01  0.18220802547E+02  0.50878104652E+02  0.54731350508E+02  0.41800000000E+01 0. -1.
        -11    1    4    4    0    0 -0.44580411866E+02  0.65572374538E+02  0.10892602957E+03  0.13472946724E+03  0.00000000000E+00 0. -1.
         11    1    4    4    0    0  0.24045692039E+02 -0.11008567898E+02  0.15407504557E+02  0.30606781430E+02  0.00000000000E+00 0.  1.
</event>
<event>
 8    1  0.7039283E-009  0.5802062E+02  0.7561462E-02  0.1406331E+00
         -1   -1    0    0    0  501 -0.00000000000E+00  0.00000000000E+00  0.15455545509E+03  0.15455545509E+03  0.00000000000E+00 0.  1.
          1   -1    0    0  501    0  0.00000000000E+00 -0.00000000000E+00 -0.90335253910E+02  0.90335253910E+02  0.00000000000E+00 0. -1.
         25    2    1    2    0    0  0.23975274921E+02  0.27202718367E+02  0.51395924318E+01  0.13033798413E+03  0.12508706170E+03 0.  0.
         23    2    1    2    0    0 -0.23975274921E+02 -0.27202718367E+02  0.59080608743E+02  0.11455272486E+03  0.91197624693E+02 0.  0.
          5    1    3    3  502    0  0.18148510305E+02  0.14940843397E+02 -0.59523221766E+02  0.64133326415E+02  0.41800000000E+01 0.  1.
         -5    1    3    3    0  502  0.58267646160E+01  0.12261874970E+02  0.64662814198E+02  0.66204657719E+02  0.41800000000E+01 0.  1.
        -11    1    4    4    0    0  0.45909393180E+01  0.21235472274E+02  0.53859806031E+02  0.58076679590E+02  0.00000000000E+00 0.  1.
         11    1    4    4    0    0 -0.28566214239E+02 -0.48438190641E+02  0.52208027120E+01  0.56476045271E+02  0.00000000000E+00 0. -1.
</event>
<event>
 8    1  0.7039283E-009  0.9627360E+02  0.7561462E-02  0.1288333E+00
          2   -1    0    0  501    0  0.00000000000E+00  0.00000000000E+00  0.20088594709E+03  0.20088594709E+03  0.00000000000E+00 0.  1.
         -2   -1    0    0    0  501 -0.00000000000E+00 -0.00000000000E+00 -0.98950036125E+02  0.98950036125E+02  0.00000000000E+00 0. -1.
         25    2    1    2    0    0 -0.65416794026E+02 -0.23449421172E+02  0.11749708155E+03  0.18515455037E+03  0.12508961210E+03 0.  0.
         23    2    1    2    0    0  0.65416794026E+02  0.23449421172E+02 -0.15561170592E+02  0.11468143284E+03  0.89891316121E+02 0.  0.
          5    1    3    3  502    0 -0.61257753294E+02 -0.65740829958E+00 -0.38696683121E+01  0.61525533375E+02  0.41800000000E+01 0.  1.
         -5    1    3    3    0  502 -0.41590407329E+01 -0.22792012872E+02  0.12136674986E+03  0.12362901700E+03  0.41800000000E+01 0.  1.
        -11    1    4    4    0    0  0.26210240478E+02 -0.30942602441E+02 -0.23970871275E+02  0.47106517823E+02  0.00000000000E+00 0. -1.
         11    1    4    4    0    0  0.39206553549E+02  0.54392023613E+02  0.84097006831E+01  0.67574915016E+02  0.00000000000E+00 0.  1.
</event>
<event>
 8    1  0.7039283E-009  0.1840587E+03  0.7561462E-02  0.1163932E+00
          1   -1    0    0  501    0  0.00000000000E+00  0.00000000000E+00  0.25800445749E+03  0.25800445749E+03  0.00000000000E+00 0. -1.
         -1   -1    0    0    0  501 -0.00000000000E+00 -0.00000000000E+00 -0.52769083875E+03  0.52769083875E+03  0.00000000000E+00 0.  1.
         25    2    1    2    0    0 -0.48825649309E+02 -0.15059666913E+03  0.19808174758E+03  0.28274850181E+03  0.12508811201E+03 0.  0.
         23    2    1    2    0    0  0.48825649309E+02  0.15059666913E+03 -0.46776812884E+03  0.50294679443E+03  0.95316078833E+02 0.  0.
          5    1    3    3  502    0 -0.76676561722E+02 -0.38028807708E+02  0.86917022125E+02  0.12205542376E+03  0.41800000000E+01 0. -1.
         -5    1    3    3    0  502  0.27850912413E+02 -0.11256786142E+03  0.11116472546E+03  0.16069307805E+03  0.41800000000E+01 0. -1.
        -11    1    4    4    0    0  0.29129974933E+02  0.22554748814E+02 -0.22287434407E+03  0.22589875028E+03  0.00000000000E+00 0.  1.
         11    1    4    4    0    0  0.19695674377E+02  0.12804192032E+03 -0.24489378477E+03  0.27704804415E+03  0.00000000000E+00 0. -1.
</event>
<event>
 8    1  0.7039283E-009  0.1021040E+03  0.7561462E-02  0.1275933E+00
         -1   -1    0    0    0  501 -0.00000000000E+00  0.00000000000E+00  0.82848055797E+02  0.82848055797E+02  0.00000000000E+00 0.  1.
          1   -1    0    0  501    0  0.00000000000E+00 -0.00000000000E+00 -0.14604662670E+03  0.14604662670E+03  0.00000000000E+00 0. -1.
         25    2    1    2    0    0  0.19035535928E+02  0.29178193636E+01 -0.43491779823E+02  0.13382344975E+03  0.12508523291E+03 0.  0.
         23    2    1    2    0    0 -0.19035535928E+02 -0.29178193636E+01 -0.19706791081E+02  0.95071232746E+02  0.90990748888E+02 0.  0.
          5    1    3    3  502    0  0.62949047525E+02  0.34625900182E+02 -0.20460108618E+02  0.74817270682E+02  0.41800000000E+01 0.  1.
         -5    1    3    3    0  502 -0.43913511596E+02 -0.31708080818E+02 -0.23031671205E+02  0.59006179070E+02  0.41800000000E+01 0.  1.
        -11    1    4    4    0    0  0.28256632777E+02 -0.10253137224E+02 -0.33750274685E+02  0.45195632091E+02  0.00000000000E+00 0.  1.
         11    1    4    4    0    0 -0.47292168705E+02  0.73353178607E+01  0.14043483604E+02  0.49875600655E+02  0.00000000000E+00 0. -1.
</event>
<event>
 8    1  0.7039283E-009  0.9030741E+02  0.7561462E-02  0.1302109E+00
          1   -1    0    0  501    0  0.00000000000E+00  0.00000000000E+00  0.21945994787E+03  0.21945994787E+03  0.00000000000E+00 0. -1.
         -1   -1    0    0    0  501 -0.00000000000E+00 -0.00000000000E+00 -0.89513371892E+02  0.89513371892E+02  0.00000000000E+00 0.  1.
         25    2    1    2    0    0  0.54246304086E+02  0.21890267839E+02 -0.23793005114E+01  0.13811261026E+03  0.12509031421E+03 0.  0.
         23    2    1    2    0    0 -0.54246304086E+02 -0.21890267839E+02  0.13232587649E+03  0.17086070949E+03  0.90892239096E+02 0.  0.
          5    1    3    3  502    0  0.41334319739E+02  0.35400410769E+02 -0.57786904736E+02  0.79489079941E+02  0.41800000000E+01 0. -1.
         -5    1    3    3    0  502  0.12911984347E+02 -0.13510142930E+02  0.55407604225E+02  0.58623530324E+02  0.41800000000E+01 0. -1.
        -11    1    4    4    0    0 -0.54289207543E+02 -0.52942826502E+02  0.10484903164E+03  0.12939698749E+03  0.00000000000E+00 0. -1.
         11    1    4    4    0    0  0.42903457786E-01  0.31052558664E+02  0.27476844844E+02  0.41463722009E+02  0.00000000000E+00 0.  1.
</event>
<event>
 8    1  0.7039283E-009  0.9308278E+02  0.7561462E-02  0.1295553E+00
          2   -1    0    0  501    0  0.00000000000E+00  0.00000000000E+00  0.21727147564E+03  0.21727147564E+03  0.00000000000E+00 0. -1.
         -2   -1    0    0    0  501 -0.00000000000E+00 -0.00000000000E+00 -0.10933848147E+03  0.10933848147E+03  0.00000000000E+00 0.  1.
         25    2    1    2    0    0  0.65518941908E+01  0.53869416701E+02 -0.46485952616E+02  0.14406115868E+03  0.12509129576E+03 0.  0.
         23    2    1    2    0    0 -0.65518941908E+01 -0.53869416701E+02  0.15441894679E+03  0.18254879843E+03  0.80833231449E+02 0.  0.
          5    1    3    3  502    0  0.37941050848E+02  0.40811810195E+02  0.27685532274E+02  0.62362555177E+02  0.41800000000E+01 0. -1.
         -5    1    3    3    0  502 -0.31389156657E+02  0.13057606506E+02 -0.74171484891E+02  0.81698603502E+02  0.41800000000E+01 0. -1.
        -11    1    4    4    0    0  0.31812645574E+02 -0.24897134788E+01  0.37840002097E+02  0.49498574225E+02  0.00000000000E+00 0.  1.
         11    1    4    4    0    0 -0.38364539765E+02 -0.51379703222E+02  0.11657894469E+03  0.13305022420E+03  0.00000000000E+00 0. -1.
</event>
<event>
 8    1  0.7039283E-009  0.1020845E+03  0.7561462E-02  0.1275973E+00
         -2   -1    0    0    0  501 -0.00000000000E+00  0.00000000000E+00  0.43095362286E+02  0.43095362286E+02  0.00000000000E+00 0.  1.
          2   -1    0    0  501    0  0.00000000000E+00 -0.00000000000E+00 -0.48888561930E+03  0.48888561930E+03  0.00000000000E+00 0. -1.
         25    2    1    2    0    0 -0.53440184970E+02 -0.29238790479E+02 -0.38053821407E+03  0.40517549011E+03  0.12508830954E+03 0.  0.
         23    2    1    2    0    0  0.53440184970E+02  0.29238790479E+02 -0.65252042948E+02  0.12680549148E+03  0.90061330888E+02 0.  0.
          5    1    3    3  502    0 -0.90792474508E+02 -0.47474588830E+01 -0.29302881579E+03  0.30683736910E+03  0.41800000000E+01 0.  1.
         -5    1    3    3    0  502  0.37352289538E+02 -0.24491331596E+02 -0.87509398283E+02  0.98338121016E+02  0.41800000000E+01 0.  1.
        -11    1    4    4    0    0  0.39297790421E+02  0.35379676079E+02 -0.86000235920E+02  0.10095582395E+03  0.00000000000E+00 0. -1.
         11    1    4    4    0    0  0.14142394548E+02 -0.61408855999E+01  0.20748192972E+02  0.25849667524E+02  0.00000000000E+00 0.  1.
</event>
<event>
 8    1  0.7039283E-009  0.8187797E+02  0.7561462E-02  0.1323805E+00
          2   -1    0    0  501    0  0.00000000000E+00  0.00000000000E+00  0.24560155897E+03  0.24560155897E+03  0.00000000000E+00 0. -1.
         -2   -1    0    0    0  501 -0.00000000000E+00 -0.00000000000E+00 -0.73631031017E+02  0.73631031017E+02  0.00000000000E+00 0.  1.
         25    2    1    2    0    0  0.71805398384E+01  0.11706364391E+02  0.11091961790E+01  0.12584479311E+03  0.12508829888E+03 0.  0.
         23    2    1    2    0    0 -0.71805398384E+01 -0.11706364391E+02  0.17086133177E+03  0.19338779687E+03  0.89535725639E+02 0.  0.
          5    1    3    3  502    0 -0.23586447023E+02 -0.23965566835E+02  0.48322823716E+02  0.59018950929E+02  0.41800000000E+01 0. -1.
         -5    1    3    3    0  502  0.30766986861E+02  0.35671931226E+02 -0.47213627537E+02  0.66825842180E+02  0.41800000000E+01 0. -1.
        -11    1    4    4    0    0 -0.81830705049E+01 -0.46780541457E+02  0.56729235677E+02  0.73983700113E+02  0.00000000000E+00 0.  1.
         11    1    4    4    0    0  0.10025306665E+01  0.35074177066E+02  0.11413209609E+03  0.11940409676E+03  0.00000000000E+00 0. -1.
</event>
<event>
 8    1  0.7039283E-009  0.1566865E+03  0.7561462E-02  0.1192489E+00
         -2   -1    0    0    0  501 -0.00000000000E+00  0.00000000000E+00  0.30123650240E+02  0.30123650240E+02  0.00000000000E+00 0.  1.
          2   -1    0    0  501    0  0.00000000000E+00 -0.00000000000E+00 -0.88631493771E+03  0.88631493771E+03  0.00000000000E+00 0. -1.
         25    2    1    2    0    0 -0.11302458918E+03  0.30200275063E-01 -0.58376969146E+03  0.60762557190E+03  0.12508886556E+03 0.  0.
         23    2    1    2    0    0  0.11302458918E+03 -0.30200275063E-01 -0.27242159600E+03  0.30881301605E+03  0.91528106274E+02 0.  0.
          5    1    3    3  502    0 -0.42080936722E+02  0.61484936017E+02 -0.26188374952E+03  0.27230823208E+03  0.41800000000E+01 0. -1.
         -5    1    3    3    0  502 -0.70943652459E+02 -0.61454735742E+02 -0.32188594194E+03  0.33531733983E+03  0.41800000000E+01 0. -1.
        -11    1    4    4    0    0  0.63561476800E+02 -0.45054624961E+02 -0.16092396460E+03  0.17879178658E+03  0.00000000000E+00 0.  1.
         11    1    4    4    0    0  0.49463112381E+02  0.45024424686E+02 -0.11149763140E+03  0.13002122947E+03  0.00000000000E+00 0. -1.
</event>
<event>
 8    1  0.7039283E-009  0.8065445E+02  0.7561462E-02  0.1327204E+00
         -2   -1    0    0    0  501 -0.00000000000E+00  0.00000000000E+00  0.23394926275E+02  0.23394926275E+02  0.00000000000E+00 0.  1.
          2   -1    0    0  501    0  0.00000000000E+00 -0.00000000000E+00 -0.56718001819E+03  0.56718001819E+03  0.00000000000E+00 0. -1.
         25    2    1    2    0    0  0.24408509800E+02  0.20842829508E+02 -0.41660921400E+03  0.43616652838E+03  0.12509118434E+03 0.  0.
         23    2    1    2    0    0 -0.24408509800E+02 -0.20842829508E+02 -0.12717587792E+03  0.15440841609E+03  0.81474266743E+02 0.  0.
          5    1    3    3  502    0 -0.47965012547E+01 -0.45061375791E+02 -0.25680999887E+03  0.26081100808E+03  0.41800000000E+01 0.  1.
         -5    1    3    3    0  502  0.29205011055E+02  0.65904205299E+02 -0.15979921512E+03  0.17535552030E+03  0.41800000000E+01 0.  1.
        -11    1    4    4    0    0 -0.29608054271E+02 -0.94642954074E+01 -0.13573611779E+03  0.13924978793E+03  0.00000000000E+00 0. -1.
         11    1    4    4    0    0  0.51995444708E+01 -0.11378534100E+02  0.85602398712E+01  0.15158628158E+02  0.00000000000E+00 0.  1.
</event>
<event>
 8    1  0.7039283E-009  0.1206958E+03  0.7561462E-02  0.1241954E+00
          3   -1    0    0  501    0  0.00000000000E+00  0.00000000000E+00  0.23635678441E+03  0.23635678441E+03  0.00000000000E+00 0. -1.
         -3   -1    0    0    0  501 -0.00000000000E+00 -0.00000000000E+00 -0.88605942309E+02  0.88605942309E+02  0.00000000000E+00 0.  1.
         25    2    1    2    0    0  0.15257402391E+02  0.82918168788E+02  0.12662162416E+03  0.19694682324E+03  0.12508718734E+03 0.  0.
         23    2    1    2    0    0 -0.15257402391E+02 -0.82918168788E+02  0.21129217940E+02  0.12801590348E+03  0.93986257768E+02 0.  0.
          5    1    3    3  502    0 -0.33884305370E+02  0.22762095092E+01  0.88744930817E+02  0.95112893058E+02  0.41800000000E+01 0.  1.
         -5    1    3    3    0  502  0.49141707761E+02  0.80641959279E+02  0.37876693342E+02  0.10183393018E+03  0.41800000000E+01 0.  1.
        -11    1    4    4    0    0  0.23091602834E+02 -0.20941796714E+01 -0.18990958917E+02  0.29971056546E+02  0.00000000000E+00 0.  1.
         11    1    4    4    0    0 -0.38349005225E+02 -0.80823989116E+02  0.40120176857E+02  0.98044846930E+02  0.00000000000E+00 0. -1.
</event>
<event>
 8    1  0.7039283E-009  0.1309727E+03  0.7561462E-02  0.1226020E+00
          2   -1    0    0  501    0  0.00000000000E+00  0.00000000000E+00  0.12111525309E+04  0.12111525309E+04  0.00000000000E+00 0. -1.
         -2   -1    0    0    0  501 -0.00000000000E+00 -0.00000000000E+00 -0.20464813518E+02  0.20464813518E+02  0.00000000000E+00 0.  1.
         25    2    1    2    0    0  0.96350833004E+02 -0.42864697462E+02  0.80842452738E+03  0.82481413236E+03  0.12508905292E+03 0.  0.
         23    2    1    2    0    0 -0.96350833004E+02  0.42864697462E+02  0.38226318997E+03  0.40680321203E+03  0.90790096384E+02 0.  0.
          5    1    3    3  502    0 -0.13335442016E+02  0.13832188570E+02  0.33364762821E+03  0.33422653345E+03  0.41800000000E+01 0. -1.
         -5    1    3    3    0  502  0.10968627502E+03 -0.56696886032E+02  0.47477689917E+03  0.49058759891E+03  0.41800000000E+01 0. -1.
        -11    1    4    4    0    0 -0.64409543556E+02 -0.10717640107E+01  0.97186090513E+02  0.11659705900E+03  0.00000000000E+00 0.  1.
         11    1    4    4    0    0 -0.31941289448E+02  0.43936461472E+02  0.28507709946E+03  0.29020615302E+03  0.00000000000E+00 0. -1.
</event>
<event>
 8    1  0.7039283E-009  0.1403286E+03  0.7561462E-02  0.1212887E+00
         -1   -1    0    0    0  501 -0.00000000000E+00  0.00000000000E+00  0.35327589557E+03  0.35327589557E+03  0.00000000000E+00 0.  1.
          1   -1    0    0  501    0  0.00000000000E+00 -0.00000000000E+00 -0.59041449971E+02  0.59041449971E+02  0.00000000000E+00 0. -1.
         25    2    1    2    0    0 -0.37761990373E+02  0.84263242715E+02  0.12532224893E+03  0.19969854353E+03  0.12509028828E+03 0.  0.
         23    2    1    2    0    0  0.37761990373E+02 -0.84263242715E+02  0.16891219667E+03  0.21261880201E+03  0.90272713450E+02 0.  0.
          5    1    3    3  502    0 -0.51875288566E+02  0.11135063242E+03  0.11135567098E+03  0.16585405260E+03  0.41800000000E+01 0.  1.
         -5    1    3    3    0  502  0.14113298193E+02 -0.27087389704E+02  0.13966577945E+02  0.33844490931E+02  0.41800000000E+01 0.  1.
        -11    1    4    4    0    0  0.13745620879E+02 -0.98194512728E+02  0.11399887011E+03  0.15108556122E+03  0.00000000000E+00 0.  1.
         11    1    4    4    0    0  0.24016369494E+02  0.13931270013E+02  0.54913326560E+02  0.61533240786E+02  0.00000000000E+00 0. -1.
</event>
<event>
 8    1  0.7039283E-009  0.1098405E+03  0.7561462E-02  0.1260866E+00
         -2   -1    0    0    0  501 -0.00000000000E+00  0.00000000000E+00  0.11337180931E+02  0.11337180931E+02  0.00000000000E+00 0.  1.
          2   -1    0    0  501    0  0.00000000000E+00 -0.00000000000E+00 -0.14643471367E+04  0.14643471367E+04  0.00000000000E+00 0. -1.
         25    2    1    2    0    0  0.11873680779E+02 -0.38538930630E+02 -0.11146838003E+04  0.11224047153E+04  0.12508451892E+03 0.  0.
         23    2    1    2    0    0 -0.11873680779E+02  0.38538930630E+02 -0.33832615553E+03  0.35327960237E+03  0.93357680246E+02 0.  0.
          5    1    3    3  502    0  0.60494713719E+02 -0.87899325027E+01 -0.81631436112E+03  0.81861070227E+03  0.41800000000E+01 0.  1.
         -5    1    3    3    0  502 -0.48621032940E+02 -0.29748998127E+02 -0.29836943916E+03  0.30379401304E+03  0.41800000000E+01 0.  1.
        -11    1    4    4    0    0 -0.48937618615E+02  0.16545756897E+01 -0.18006309935E+03  0.18660211114E+03  0.00000000000E+00 0. -1.
         11    1    4    4    0    0  0.37063937836E+02  0.36884354940E+02 -0.15826305619E+03  0.16667749122E+03  0.00000000000E+00 0.  1.
</event>
<event>
 8    1  0.7039283E-009  0.4557578E+02  0.7561462E-02  0.1470779E+00
         -2   -1    0    0    0  501 -0.00000000000E+00  0.00000000000E+00  0.36525205891E+03  0.36525205891E+03  0.00000000000E+00 0.  1.
          2   -1    0    0  501    0  0.00000000000E+00 -0.00000000000E+00 -0.39507450252E+02  0.39507450252E+02  0.00000000000E+00 0. -1.
         25    2    1    2    0    0  0.72822520082E+01  0.19899003610E+02  0.10180614347E+03  0.16266917839E+03  0.12509104369E+03 0.  0.
         23    2    1    2    0    0 -0.72822520082E+01 -0.19899003610E+02  0.22393846520E+03  0.24209033077E+03  0.89500226376E+02 0.  0.
          5    1    3    3  502    0 -0.72658668499E+01  0.68794948866E+01  0.12871014415E+03  0.12916614834E+03  0.41800000000E+01 0. -1.
         -5    1    3    3    0  502  0.14548118858E+02  0.13019508723E+02 -0.26904000683E+02  0.33503030049E+02  0.41800000000E+01 0. -1.
        -11    1    4    4    0    0 -0.30648400961E+02 -0.20662955210E+02  0.21316985042E+03  0.21635079692E+03  0.00000000000E+00 0.  1.
         11    1    4    4    0    0  0.23366148952E+02  0.76395160041E+00  0.10768614776E+02  0.25739533856E+02  0.00000000000E+00 0. -1.
</event>
<event>
 8    1  0.7039283E-009  0.8916822E+02  0.7561462E-02  0.1304879E+00
          3   -1    0    0  501    0  0.00000000000E+00  0.00000000000E+00  0.12481720710E+03  0.12481720710E+03  0.00000000000E+00 0. -1.
         -3   -1    0    0    0  501 -0.00000000000E+00 -0.00000000000E+00 -0.10087624217E+03  0.10087624217E+03  0.00000000000E+00 0.  1.
         25    2    1    2    0    0  0.50386644317E+01  0.25190525660E+01  0.42771150534E+02  0.13232015300E+03  0.12509003880E+03 0.  0.
         23    2    1    2    0    0 -0.50386644317E+01 -0.25190525660E+01 -0.18830185607E+02  0.93373296270E+02  0.91281229184E+02 0.  0.
          5    1    3    3  502    0 -0.34343178824E+02 -0.27611996768E+02  0.64330655301E+02  0.78088295593E+02  0.41800000000E+01 0.  1.
         -5    1    3    3    0  502  0.39381843255E+02  0.30131049334E+02 -0.21559504767E+02  0.54231857408E+02  0.41800000000E+01 0.  1.
        -11    1    4    4    0    0 -0.41832129979E+02  0.13813846895E+02 -0.27850830527E+02  0.52119269236E+02  0.00000000000E+00 0.  1.
         11    1    4    4    0    0  0.36793465548E+02 -0.16332899461E+02  0.90206449196E+01  0.41254027035E+02  0.00000000000E+00 0. -1.
</event>
<event>
 8    1  0.7039283E-009  0.8042287E+02  0.7561462E-02  0.1327856E+00
          2   -1    0    0  501    0  0.00000000000E+00  0.00000000000E+00  0.15047008777E+03  0.15047008777E+03  0.00000000000E+00 0. -1.
         -2   -1    0    0    0  501 -0.00000000000E+00 -0.00000000000E+00 -0.97265893337E+02  0.97265893337E+02  0.00000000000E+00 0.  1.
         25    2    1    2    0    0  0.61816960125E+01  0.51804164812E+02  0.42986709461E+02  0.14220069506E+03  0.12510513830E+03 0.  0.
         23    2    1    2    0    0 -0.61816960125E+01 -0.51804164812E+02  0.10217484971E+02  0.10553528604E+03  0.91166960812E+02 0.  0.
          5    1    3    3  502    0  0.18805388518E+02  0.77222278289E+02 -0.11702400722E+02  0.80444648574E+02  0.41800000000E+01 0.  1.
         -5    1    3    3    0  502 -0.12623692506E+02 -0.25418113478E+02  0.54689110184E+02  0.61756046489E+02  0.41800000000E+01 0.  1.
        -11    1    4    4    0    0 -0.11972192549E+01 -0.35526666620E+02 -0.39407854477E+02  0.53071238628E+02  0.00000000000E+00 0.  1.
         11    1    4    4    0    0 -0.49844767577E+01 -0.16277498192E+02  0.49625339447E+02  0.52464047415E+02  0.00000000000E+00 0. -1.
</event>
<event>
 8    1  0.7039283E-009  0.1655529E+03  0.7561462E-02  0.1182566E+00
         -1   -1    0    0    0  501 -0.00000000000E+00  0.00000000000E+00  0.35015978935E+02  0.35015978935E+02  0.00000000000E+00 0.  1.
          1   -1    0    0  501    0  0.00000000000E+00 -0.00000000000E+00 -0.99855953054E+03  0.99855953054E+03  0.00000000000E+00 0. -1.
         25    2    1    2    0    0  0.32023301865E+02 -0.13987860310E+03 -0.36290493685E+03  0.40980312960E+03  0.12508835424E+03 0.  0.
         23    2    1    2    0    0 -0.32023301865E+02  0.13987860310E+03 -0.60063861475E+03  0.62377237988E+03  0.87941576646E+02 0.  0.
          5    1    3    3  502    0 -0.32232732132E+02 -0.77431494408E+02 -0.92617103079E+02  0.12501994053E+03  0.41800000000E+01 0.  1.
         -5    1    3    3    0  502  0.64256033997E+02 -0.62447108691E+02 -0.27028783377E+03  0.28478318907E+03  0.41800000000E+01 0.  1.
        -11    1    4    4    0    0  0.18577610189E+02  0.60560612213E+02 -0.35743240106E+03  0.36300225438E+03  0.00000000000E+00 0. -1.
         11    1    4    4    0    0 -0.50600912054E+02  0.79317990887E+02 -0.24320621369E+03  0.26077012551E+03  0.00000000000E+00 0.  1.
</event>
<event>
 8    1  0.7039283E-009  0.2068264E+03  0.7561462E-02  0.1144104E+00
         -1   -1    0    0    0  501 -0.00000000000E+00  0.00000000000E+00  0.12359546074E+03  0.12359546074E+03  0.00000000000E+00 0.  1.
          1   -1    0    0  501    0  0.00000000000E+00 -0.00000000000E+00 -0.41967958427E+03  0.41967958427E+03  0.00000000000E+00 0. -1.
         25    2    1    2    0    0 -0.22240068032E+02  0.18622405411E+03 -0.23633959988E+03  0.32661740406E+03  0.12509397752E+03 0.  0.
         23    2    1    2    0    0  0.22240068032E+02 -0.18622405411E+03 -0.59744523660E+02  0.21665764095E+03  0.90537872285E+02 0.  0.
          5    1    3    3  502    0  0.45785440404E+02  0.12588994575E+03 -0.13120677214E+03  0.18755605682E+03  0.41800000000E+01 0. -1.
         -5    1    3    3    0  502 -0.68025508435E+02  0.60334108361E+02 -0.10513282774E+03  0.13906134725E+03  0.41800000000E+01 0. -1.
        -11    1    4    4    0    0  0.17295025883E+01 -0.98589467316E+02  0.14906284641E+02  0.99724979652E+02  0.00000000000E+00 0.  1.
         11    1    4    4    0    0  0.20510565443E+02 -0.87634586797E+02 -0.74650808301E+02  0.11693266130E+03  0.00000000000E+00 0. -1.
</event>
