<event>
 7    1  0.1620881E-005  0.8563817E+02  0.7561462E-02  0.1313772E+00
         -2   -1    0    0    0  501 -0.00000000000E+00  0.00000000000E+00  0.54688119795E+02  0.54688119795E+02  0.00000000000E+00 0.  1.
          2   -1    0    0  501    0  0.00000000000E+00 -0.00000000000E+00 -0.26357624982E+03  0.26357624982E+03  0.00000000000E+00 0. -1.
         23    2    1    2    0    0  0.40653440779E+02 -0.28874601285E+02 -0.10645856745E+03  0.17166127306E+03  0.12509085194E+03 0.  0.
          5    1    3    3  502    0  0.58898763212E+02  0.17753057495E+00 -0.12063187237E+03  0.13430791807E+03  0.41800000000E+01 0. -1.
         -5    1    3    3    0  502 -0.18245322433E+02 -0.29052131860E+02  0.14173304924E+02  0.37353354987E+02  0.41800000000E+01 0. -1.
        -11    1    1    2    0    0  0.63225718456E+01 -0.13180580493E+02  0.99924772295E+01  0.17707405740E+02  0.00000000000E+00 0.  1.
         11    1    1    2    0    0 -0.46976012625E+02  0.42055181777E+02 -0.11242203980E+03  0.12889569081E+03  0.00000000000E+00 0. -1.
</event>
<event>
 7    1  0.1620881E-005  0.1047496E+03  0.7561462E-02  0.1270614E+00
          4   -1    0    0  501    0  0.00000000000E+00  0.00000000000E+00  0.16164195929E+03  0.16164195929E+03  0.00000000000E+00 0.  1.
         -4   -1    0    0    0  501 -0.00000000000E+00 -0.00000000000E+00 -0.10483979077E+03  0.10483979077E+03  0.00000000000E+00 0. -1.
         23    2    1    2    0    0 -0.61326759273E+02 -0.23934487866E+02  0.16504588922E+01  0.14135970616E+03  0.12508401736E+03 0.  0.
          5    1    3    3  502    0 -0.10464883994E+02 -0.42846033353E+02  0.51235845887E+02  0.67733896056E+02  0.41800000000E+01 0. -1.
         -5    1    3    3    0  502 -0.50861875279E+02  0.18911545487E+02 -0.49585386995E+02  0.73625810101E+02  0.41800000000E+01 0. -1.
        -11    1    1    2    0    0  0.86680790921E+01  0.50884125131E+02  0.36051630629E+02  0.62960700890E+02  0.00000000000E+00 0. -1.
         11    1    1    2    0    0  0.52658680181E+02 -0.26949637265E+02  0.19100078997E+02  0.62161343010E+02  0.00000000000E+00 0.  1.
</event>
<event>
 7    1  0.1620881E-005  0.1165657E+03  0.7561462E-02  0.1248873E+00
          2   -1    0    0  501    0  0.00000000000E+00  0.00000000000E+00  0.37793198268E+03  0.37793198268E+03  0.00000000000E+00 0. -1.
         -2   -1    0    0    0  501 -0.00000000000E+00 -0.00000000000E+00 -0.39241051275E+02  0.39241051275E+02  0.00000000000E+00 0.  1.
         23    2    1    2    0    0 -0.34220587192E+02  0.39634353933E+02  0.17144530352E+03  0.21858887441E+03  0.12508266593E+03 0.  0.
          5    1    3    3  502    0 -0.38773721894E+01 -0.41016145694E+02  0.24288123969E+02  0.48007745090E+02  0.41800000000E+01 0.  1.
         -5    1    3    3    0  502 -0.30343215003E+02  0.80650499626E+02  0.14715717955E+03  0.17058112932E+03  0.41800000000E+01 0.  1.
        -11    1    1    2    0    0 -0.30209305602E+02 -0.79693149537E+00  0.64629434225E+02  0.71345644667E+02  0.00000000000E+00 0. -1.
         11    1    1    2    0    0  0.64429892794E+02 -0.38837422437E+02  0.10261619366E+03  0.12723851488E+03  0.00000000000E+00 0.  1.
</event>
<event>
 7    1  0.1620881E-005  0.9981161E+02  0.7561462E-02  0.1280693E+00
          4   -1    0    0  501    0  0.00000000000E+00  0.00000000000E+00  0.18369606114E+02  0.18369606114E+02  0.00000000000E+00 0. -1.
         -4   -1    0    0    0  501 -0.00000000000E+00 -0.00000000000E+00 -0.73921671375E+03  0.73921671375E+03  0.00000000000E+00 0.  1.
         23    2    1    2    0    0 -0.38007816257E+02 -0.37490724129E+01 -0.46891527538E+03  0.48681316404E+03  0.12508745563E+03 0.  0.
          5    1    3    3  502    0 -0.20222840174E+02  0.51451968157E+02 -0.35088290260E+03  0.35523591039E+03  0.41800000000E+01 0. -1.
         -5    1    3    3    0  502 -0.17784976083E+02 -0.55201040570E+02 -0.11803237278E+03  0.13157725365E+03  0.41800000000E+01 0. -1.
        -11    1    1    2    0    0  0.60170587987E+02 -0.84125166462E+01 -0.22802078395E+03  0.23597615983E+03  0.00000000000E+00 0.  1.
         11    1    1    2    0    0 -0.22162771730E+02  0.12161589059E+02 -0.23911048306E+02  0.34796995995E+02  0.00000000000E+00 0. -1.
</event>
<event>
 7    1  0.1620881E-005  0.1058979E+03  0.7561462E-02  0.1268360E+00
          2   -1    0    0  501    0  0.00000000000E+00  0.00000000000E+00  0.52525460672E+03  0.52525460672E+03  0.00000000000E+00 0.  1.
         -2   -1    0    0    0  501 -0.00000000000E+00 -0.00000000000E+00 -0.35401510995E+02  0.35401510995E+02  0.00000000000E+00 0. -1.
         23    2    1    2    0    0  0.58258342735E+02 -0.56088481564E+02  0.24278625903E+03  0.28483997251E+03  0.12509472452E+03 0.  0.
          5    1    3    3  502    0 -0.11311407410E+02 -0.19048557967E+02 -0.64141425112E+01  0.23439477860E+02  0.41800000000E+01 0. -1.
         -5    1    3    3    0  502  0.69569750145E+02 -0.37039923597E+02  0.24920040154E+03  0.26140049465E+03  0.41800000000E+01 0. -1.
        -11    1    1    2    0    0  0.14745941624E+02  0.28858083808E+02  0.13813822732E+03  0.14188869455E+03  0.00000000000E+00 0.  1.
         11    1    1    2    0    0 -0.73004284359E+02  0.27230397756E+02  0.10892860937E+03  0.13392745065E+03  0.00000000000E+00 0. -1.
</event>
<event>
 7    1  0.1620881E-005  0.6893811E+02  0.7561462E-02  0.1363742E+00
          2   -1    0    0  501    0  0.00000000000E+00  0.00000000000E+00  0.78619438837E+03  0.78619438837E+03  0.00000000000E+00 0. -1.
         -2   -1    0    0    0  501 -0.00000000000E+00 -0.00000000000E+00 -0.16762092722E+02  0.16762092722E+02  0.00000000000E+00 0.  1.
         23    2    1    2    0    0  0.13299613656E+02 -0.38134690816E+02  0.43695928388E+03  0.45630296280E+03  0.12509134151E+03 0.  0.
          5    1    3    3  502    0  0.80811593869E+01 -0.26607039843E+02  0.44137062603E+03  0.44226546511E+03  0.41800000000E+01 0. -1.
         -5    1    3    3    0  502  0.52184542687E+01 -0.11527650973E+02 -0.44113421461E+01  0.14037497692E+02  0.41800000000E+01 0. -1.
        -11    1    1    2    0    0 -0.50639628595E+02  0.16419489733E+02  0.15095639979E+03  0.16006813008E+03  0.00000000000E+00 0.  1.
         11    1    1    2    0    0  0.37340014940E+02  0.21715201083E+02  0.18151661197E+03  0.18658538821E+03  0.00000000000E+00 0. -1.
</event>
<event>
 7    1  0.1620881E-005  0.6015954E+02  0.7561462E-02  0.1397163E+00
          1   -1    0    0  501    0  0.00000000000E+00  0.00000000000E+00  0.39602486093E+02  0.39602486093E+02  0.00000000000E+00 0. -1.
         -1   -1    0    0    0  501 -0.00000000000E+00 -0.00000000000E+00 -0.25615886506E+03  0.25615886506E+03  0.00000000000E+00 0.  1.
         23    2    1    2    0    0  0.94857349064E+00  0.69938863817E+01 -0.13682494163E+03  0.17670516473E+03  0.11159675781E+03 0.  0.
          5    1    3    3  502    0 -0.33621168357E+00  0.19886611716E+02 -0.15369161785E+03  0.15502959770E+03  0.41800000000E+01 0. -1.
         -5    1    3    3    0  502  0.12847851742E+01 -0.12892725334E+02  0.16866676225E+02  0.21675567037E+02  0.41800000000E+01 0.  1.
        -11    1    1    2    0    0 -0.42942881941E+02 -0.10601035534E+02 -0.28090644509E+02  0.52398066498E+02  0.00000000000E+00 0.  1.
         11    1    1    2    0    0  0.41994308450E+02  0.36071491521E+01 -0.51640792829E+02  0.66658119920E+02  0.00000000000E+00 0. -1.
</event>
<event>
 7    1  0.1620881E-005  0.1747141E+03  0.7561462E-02  0.1173019E+00
          1   -1    0    0  501    0  0.00000000000E+00  0.00000000000E+00  0.98341412598E+02  0.98341412598E+02  0.00000000000E+00 0. -1.
         -1   -1    0    0    0  501 -0.00000000000E+00 -0.00000000000E+00 -0.53663485675E+03  0.53663485675E+03  0.00000000000E+00 0.  1.
         23    2    1    2    0    0  0.86800357222E+01 -0.13873317104E+03 -0.42942675186E+03  0.46837668362E+03  0.12508855576E+03 0.  0.
          5    1    3    3  502    0 -0.32422188956E+02  0.87204494104E+01 -0.81264063063E+02  0.88025933225E+02  0.41800000000E+01 0. -1.
         -5    1    3    3    0  502  0.41102224678E+02 -0.14745362045E+03 -0.34816268880E+03  0.38035075040E+03  0.41800000000E+01 0. -1.
        -11    1    1    2    0    0  0.36980651571E+02  0.79436857212E+02 -0.22646179565E+02  0.90502112258E+02  0.00000000000E+00 0.  1.
         11    1    1    2    0    0 -0.45660687293E+02  0.59296313830E+02  0.13779487276E+02  0.76097473463E+02  0.00000000000E+00 0. -1.
</event>
<event>
 6    1  0.1620881E-005  0.1396298E+03  0.7561462E-02  0.1213828E+00
          1   -1    0    0  501    0  0.00000000000E+00  0.00000000000E+00  0.26697118949E+03  0.26697118949E+03  0.00000000000E+00 0. -1.
         -1   -1    0    0    0  501 -0.00000000000E+00 -0.00000000000E+00 -0.14386456150E+03  0.14386456150E+03  0.00000000000E+00 0.  1.
          5    1    1    2  502    0 -0.53528263558E+02 -0.67239549219E+02  0.30315689609E+02  0.91230178204E+02  0.41800000000E+01 0. -1.
         -5    1    1    2    0  502  0.62653905013E+02  0.98975336090E+02 -0.65195190361E+02  0.13412499474E+03  0.41800000000E+01 0.  1.
        -11    1    1    2    0    0 -0.10268405263E+02  0.20934374405E+02  0.52319650902E+01  0.23896895972E+02  0.00000000000E+00 0.  1.
         11    1    1    2    0    0  0.11427638075E+01 -0.52670161276E+02  0.15275416365E+03  0.16158368207E+03  0.00000000000E+00 0. -1.
</event>
<event>
 7    1  0.1620881E-005  0.1474921E+03  0.7561462E-02  0.1203589E+00
         -2   -1    0    0    0  501 -0.00000000000E+00  0.00000000000E+00  0.40397798544E+03  0.40397798544E+03  0.00000000000E+00 0.  1.
          2   -1    0    0  501    0  0.00000000000E+00 -0.00000000000E+00 -0.63480580581E+02  0.63480580581E+02  0.00000000000E+00 0. -1.
         23    2    1    2    0    0 -0.94022138309E+02  0.62355210815E+02  0.22977580982E+03  0.28490861400E+03  0.12509061015E+03 0.  0.
          5    1    3    3  502    0 -0.59022764489E+02 -0.19119123763E+02  0.36209937515E+02  0.71957345672E+02  0.41800000000E+01 0. -1.
         -5    1    3    3    0  502 -0.34999373820E+02  0.81474334578E+02  0.19356587230E+03  0.21295126833E+03  0.41800000000E+01 0. -1.
        -11    1    1    2    0    0  0.10958999185E+03 -0.66147989556E+02  0.10491407892E+03  0.16550675754E+03  0.00000000000E+00 0.  1.
         11    1    1    2    0    0 -0.15567853542E+02  0.37927787411E+01  0.58075161153E+01  0.17043194475E+02  0.00000000000E+00 0. -1.
</event>
<event>
 7    1  0.1620881E-005  0.2651056E+03  0.7561462E-02  0.1104114E+00
         -2   -1    0    0    0  501 -0.00000000000E+00  0.00000000000E+00  0.64787851627E+02  0.64787851627E+02  0.00000000000E+00 0.  1.
          2   -1    0    0  501    0  0.00000000000E+00 -0.00000000000E+00 -0.11372455012E+04  0.11372455012E+04  0.00000000000E+00 0. -1.
         23    2    1    2    0    0  0.86488076926E+02  0.23150728860E+03 -0.44635012773E+03  0.52531342487E+03  0.12509974302E+03 0.  0.
          5    1    3    3  502    0  0.54302141034E+02  0.23727836681E+03 -0.38136110886E+03  0.45244172401E+03  0.41800000000E+01 0. -1.
         -5    1    3    3    0  502  0.32185935892E+02 -0.57710782082E+01 -0.64989018867E+02  0.72871700860E+02  0.41800000000E+01 0. -1.
        -11    1    1    2    0    0 -0.94350345174E+02 -0.19731325841E+03 -0.49832507720E+03  0.54420804123E+03  0.00000000000E+00 0.  1.
         11    1    1    2    0    0  0.78622682477E+01 -0.34194030187E+02 -0.12778244460E+03  0.13251188668E+03  0.00000000000E+00 0. -1.
</event>
<event>
 7    1  0.1620881E-005  0.3301732E+03  0.7561462E-02  0.1071060E+00
          1   -1    0    0  501    0  0.00000000000E+00  0.00000000000E+00  0.44869237398E+03  0.44869237398E+03  0.00000000000E+00 0. -1.
         -1   -1    0    0    0  501 -0.00000000000E+00 -0.00000000000E+00 -0.27040153706E+03  0.27040153706E+03  0.00000000000E+00 0.  1.
         23    2    1    2    0    0  0.27143088730E+03 -0.17857606954E+03  0.28316098798E+02  0.34930406808E+03  0.12508953326E+03 0.  0.
          5    1    3    3  502    0  0.17183802848E+03 -0.15450710043E+03  0.65499125189E+02  0.24022564375E+03  0.41800000000E+01 0. -1.
         -5    1    3    3    0  502  0.99592858822E+02 -0.24068969113E+02 -0.37183026391E+02  0.10907842433E+03  0.41800000000E+01 0. -1.
        -11    1    1    2    0    0 -0.17311889637E+03  0.94005765262E+02  0.13594844034E+03  0.23935165471E+03  0.00000000000E+00 0. -1.
         11    1    1    2    0    0 -0.98311990935E+02  0.84570304277E+02  0.14026297784E+02  0.13043818826E+03  0.00000000000E+00 0.  1.
</event>
<event>
 7    1  0.1620881E-005  0.1675617E+03  0.7561462E-02  0.1180415E+00
         -2   -1    0    0    0  501 -0.00000000000E+00  0.00000000000E+00  0.29366524089E+03  0.29366524089E+03  0.00000000000E+00 0.  1.
          2   -1    0    0  501    0  0.00000000000E+00 -0.00000000000E+00 -0.12110474934E+03  0.12110474934E+03  0.00000000000E+00 0. -1.
         23    2    1    2    0    0 -0.11461052324E+02  0.14589029680E+03  0.14142595582E+03  0.23887941918E+03  0.12508693580E+03 0.  0.
          5    1    3    3  502    0  0.21255628284E+02 -0.38413870572E+01 -0.92927716449E+01  0.23882755140E+02  0.41800000000E+01 0. -1.
         -5    1    3    3    0  502 -0.32716680607E+02  0.14973168386E+03  0.15071872747E+03  0.21499666404E+03  0.41800000000E+01 0. -1.
        -11    1    1    2    0    0 -0.26736369038E+02 -0.67425967348E+02  0.48040834900E+02  0.87000093793E+02  0.00000000000E+00 0.  1.
         11    1    1    2    0    0  0.38197421362E+02 -0.78464329451E+02 -0.16906299167E+02  0.88890477254E+02  0.00000000000E+00 0. -1.
</event>
<event>
 7    1  0.1620881E-005  0.1592113E+03  0.7561462E-02  0.1189590E+00
         -1   -1    0    0    0  501 -0.00000000000E+00  0.00000000000E+00  0.71849021844E+02  0.71849021844E+02  0.00000000000E+00 0.  1.
          1   -1    0    0  501    0  0.00000000000E+00 -0.00000000000E+00 -0.44245358452E+03  0.44245358452E+03  0.00000000000E+00 0. -1.
         23    2    1    2    0    0  0.83642049778E+01 -0.12742013280E+03 -0.10918454806E+03  0.20945969272E+03  0.12508495982E+03 0.  0.
          5    1    3    3  502    0 -0.42181701484E+02 -0.10477536703E+03 -0.38155368248E+02  0.11929156719E+03  0.41800000000E+01 0.  1.
         -5    1    3    3    0  502  0.50545906462E+02 -0.22644765767E+02 -0.71029179812E+02  0.90168125529E+02  0.41800000000E+01 0.  1.
        -11    1    1    2    0    0 -0.38617674985E+02  0.33305371295E+02 -0.13533020950E+03  0.14461963277E+03  0.00000000000E+00 0. -1.
         11    1    1    2    0    0  0.30253470007E+02  0.94114761504E+02 -0.12608980511E+03  0.16022328087E+03  0.00000000000E+00 0.  1.
</event>
<event>
 7    1  0.1620881E-005  0.3150788E+03  0.7561462E-02  0.1077937E+00
         -1   -1    0    0    0  501 -0.00000000000E+00  0.00000000000E+00  0.16729389618E+03  0.16729389618E+03  0.00000000000E+00 0.  1.
          1   -1    0    0  501    0  0.00000000000E+00 -0.00000000000E+00 -0.63640614465E+03  0.63640614465E+03  0.00000000000E+00 0. -1.
         23    2    1    2    0    0  0.29931649814E+03  0.37112280112E+02 -0.16424447356E+03  0.36550384794E+03  0.12509647624E+03 0.  0.
          5    1    3    3  502    0  0.56885009800E+02 -0.41375892315E+02 -0.22985989771E+02  0.74119477403E+02  0.41800000000E+01 0.  1.
         -5    1    3    3    0  502  0.24243148834E+03  0.78488172426E+02 -0.14125848379E+03  0.29138437054E+03  0.41800000000E+01 0.  1.
        -11    1    1    2    0    0 -0.20866256373E+03 -0.51882229405E+01 -0.25621044654E+03  0.33047053738E+03  0.00000000000E+00 0. -1.
         11    1    1    2    0    0 -0.90653934415E+02 -0.31924057171E+02 -0.48657328372E+02  0.10772565551E+03  0.00000000000E+00 0.  1.
</event>
<event>
 7    1  0.1620881E-005  0.2257173E+03  0.7561462E-02  0.1129691E+00
         -4   -1    0    0    0  501 -0.00000000000E+00  0.00000000000E+00  0.78084629625E+02  0.78084629625E+02  0.00000000000E+00 0. -1.
          4   -1    0    0  501    0  0.00000000000E+00 -0.00000000000E+00 -0.78469197400E+03  0.78469197400E+03  0.00000000000E+00 0.  1.
         23    2    1    2    0    0 -0.19852443740E+03 -0.69266614169E+02 -0.23689985273E+03  0.34055687589E+03  0.12509048489E+03 0.  0.
          5    1    3    3  502    0  0.10928119406E+02  0.11705420747E+02 -0.34290893399E+02  0.38075956176E+02  0.41800000000E+01 0. -1.
         -5    1    3    3    0  502 -0.20945255681E+03 -0.80972034916E+02 -0.20260895933E+03  0.30248091971E+03  0.41800000000E+01 0. -1.
        -11    1    1    2    0    0  0.11271700340E+03  0.37628365366E+02 -0.36155973427E+03  0.38058699161E+03  0.00000000000E+00 0.  1.
         11    1    1    2    0    0  0.85807434002E+02  0.31638248803E+02 -0.10814775737E+03  0.14163273612E+03  0.00000000000E+00 0. -1.
</event>
<event>
 7    1  0.1620881E-005  0.1144852E+03  0.7561462E-02  0.1252482E+00
          3   -1    0    0  501    0  0.00000000000E+00  0.00000000000E+00  0.36631567809E+03  0.36631567809E+03  0.00000000000E+00 0. -1.
         -3   -1    0    0    0  501 -0.00000000000E+00 -0.00000000000E+00 -0.35892764522E+02  0.35892764522E+02  0.00000000000E+00 0.  1.
         23    2    1    2    0    0 -0.32670353997E+02  0.20813758795E+02  0.18770825071E+03  0.22887098004E+03  0.12508786327E+03 0.  0.
          5    1    3    3  502    0 -0.15117521276E+02 -0.52708658067E+02  0.72037329142E+02  0.90628865570E+02  0.41800000000E+01 0.  1.
         -5    1    3    3    0  502 -0.17552832721E+02  0.73522416862E+02  0.11567092157E+03  0.13824211447E+03  0.41800000000E+01 0.  1.
        -11    1    1    2    0    0 -0.28865154234E+02  0.85306548006E+01  0.40071770475E+02  0.50117022950E+02  0.00000000000E+00 0. -1.
         11    1    1    2    0    0  0.61535508232E+02 -0.29344413596E+02  0.10264289238E+03  0.12322043962E+03  0.00000000000E+00 0.  1.
</event>
<event>
 6    1  0.1620881E-005  0.1177601E+03  0.7561462E-02  0.1246839E+00
          1   -1    0    0  501    0  0.00000000000E+00  0.00000000000E+00  0.44076032611E+03  0.44076032611E+03  0.00000000000E+00 0. -1.
         -1   -1    0    0    0  501 -0.00000000000E+00 -0.00000000000E+00 -0.43376653409E+02  0.43376653409E+02  0.00000000000E+00 0.  1.
          5    1    1    2  502    0 -0.27493692243E+02  0.14038841439E+02  0.10481891469E+03  0.10935021472E+03  0.41800000000E+01 0. -1.
         -5    1    1    2    0  502  0.97449206249E+02 -0.22747189620E+02  0.63942622394E+02  0.11882724348E+03  0.41800000000E+01 0.  1.
        -11    1    1    2    0    0 -0.19358951695E+02 -0.33254059780E+02  0.14258399634E+03  0.14768479107E+03  0.00000000000E+00 0. -1.
         11    1    1    2    0    0 -0.50596562311E+02  0.41962407961E+02  0.86038139270E+02  0.10827473024E+03  0.00000000000E+00 0.  1.
</event>
<event>
 7    1  0.1620881E-005  0.8770468E+02  0.7561462E-02  0.1308507E+00
          1   -1    0    0  501    0  0.00000000000E+00  0.00000000000E+00  0.60130228397E+03  0.60130228397E+03  0.00000000000E+00 0. -1.
         -1   -1    0    0    0  501 -0.00000000000E+00 -0.00000000000E+00 -0.20399702847E+02  0.20399702847E+02  0.00000000000E+00 0.  1.
         23    2    1    2    0    0 -0.21928538646E+02  0.47447826618E+01  0.34036834680E+03  0.36332263834E+03  0.12509737911E+03 0.  0.
          5    1    3    3  502    0 -0.50071285157E+02 -0.13332146101E+02  0.31944769100E+03  0.32364977894E+03  0.41800000000E+01 0. -1.
         -5    1    3    3    0  502  0.28142746511E+02  0.18076928763E+02  0.20920655798E+02  0.39672859409E+02  0.41800000000E+01 0. -1.
        -11    1    1    2    0    0  0.60393050517E+01 -0.45538795209E+02  0.16288567324E+03  0.16923946827E+03  0.00000000000E+00 0. -1.
         11    1    1    2    0    0  0.15889233594E+02  0.40794012547E+02  0.77648561084E+02  0.89139880201E+02  0.00000000000E+00 0.  1.
</event>
<event>
 7    1  0.1620881E-005  0.1149333E+03  0.7561462E-02  0.1251697E+00
         -1   -1    0    0    0  501 -0.00000000000E+00  0.00000000000E+00  0.32994188940E+02  0.32994188940E+02  0.00000000000E+00 0.  1.
          1   -1    0    0  501    0  0.00000000000E+00 -0.00000000000E+00 -0.46587690736E+03  0.46587690736E+03  0.00000000000E+00 0. -1.
         23    2    1    2    0    0 -0.29591681514E+02 -0.30190106211E+02 -0.15784196493E+03  0.20578955837E+03  0.12509255099E+03 0.  0.
          5    1    3    3  502    0 -0.11793925409E+02  0.48510681607E+02 -0.47565725283E+02  0.69082222954E+02  0.41800000000E+01 0. -1.
         -5    1    3    3    0  502 -0.17797756105E+02 -0.78700787818E+02 -0.11027623965E+03  0.13670733541E+03  0.41800000000E+01 0. -1.
        -11    1    1    2    0    0 -0.16844949596E+02  0.46733296236E+02 -0.10718719625E+03  0.11813910590E+03  0.00000000000E+00 0.  1.
         11    1    1    2    0    0  0.46436631110E+02 -0.16543190025E+02 -0.16785355724E+03  0.17494243203E+03  0.00000000000E+00 0. -1.
</event>
<event>
 7    1  0.1620881E-005  0.1947243E+03  0.7561462E-02  0.1154268E+00
          2   -1    0    0  501    0  0.00000000000E+00  0.00000000000E+00  0.66980270105E+03  0.66980270105E+03  0.00000000000E+00 0.  1.
         -2   -1    0    0    0  501 -0.00000000000E+00 -0.00000000000E+00 -0.62371010791E+02  0.62371010791E+02  0.00000000000E+00 0. -1.
         23    2    1    2    0    0 -0.13254341574E+03 -0.10823724511E+03  0.27695079688E+03  0.34875887779E+03  0.12509177696E+03 0.  0.
          5    1    3    3  502    0 -0.91281473248E+02 -0.12873897214E+03  0.16876131996E+03  0.23109280780E+03  0.41800000000E+01 0. -1.
         -5    1    3    3    0  502 -0.41261942489E+02  0.20501727030E+02  0.10818947693E+03  0.11766606999E+03  0.41800000000E+01 0. -1.
        -11    1    1    2    0    0  0.67431280047E+02  0.11050485081E+02  0.18188565369E+03  0.19429740546E+03  0.00000000000E+00 0. -1.
         11    1    1    2    0    0  0.65112135690E+02  0.97186760026E+02  0.14859523968E+03  0.18911742859E+03  0.00000000000E+00 0.  1.
</event>
<event>
 7    1  0.1620881E-005  0.9644208E+02  0.7561462E-02  0.1287961E+00
          2   -1    0    0  501    0  0.00000000000E+00  0.00000000000E+00  0.10278636363E+03  0.10278636363E+03  0.00000000000E+00 0. -1.
         -2   -1    0    0    0  501 -0.00000000000E+00 -0.00000000000E+00 -0.12572168829E+03  0.12572168829E+03  0.00000000000E+00 0.  1.
         23    2    1    2    0    0 -0.72525145099E+01 -0.23432801011E+02 -0.29884586757E+02  0.13416625354E+03  0.12847490002E+03 0.  0.
          5    1    3    3  502    0  0.23070229849E+02 -0.52854248431E+02  0.26483559924E+02  0.63597629113E+02  0.41800000000E+01 0. -1.
         -5    1    3    3    0  502 -0.30322744359E+02  0.29421447420E+02 -0.56368146682E+02  0.70568624431E+02  0.41800000000E+01 0.  1.
        -11    1    1    2    0    0  0.19014535677E+02 -0.31300616359E+02 -0.53819450730E+01  0.37016840549E+02  0.00000000000E+00 0.  1.
         11    1    1    2    0    0 -0.11762021167E+02  0.54733417370E+02  0.12331207171E+02  0.57324957822E+02  0.00000000000E+00 0. -1.
</event>
<event>
 7    1  0.1620881E-005  0.6891054E+02  0.7561462E-02  0.1363837E+00
          2   -1    0    0  501    0  0.00000000000E+00  0.00000000000E+00  0.51105092798E+03  0.51105092798E+03  0.00000000000E+00 0.  1.
         -2   -1    0    0    0  501 -0.00000000000E+00 -0.00000000000E+00 -0.29283007171E+02  0.29283007171E+02  0.00000000000E+00 0. -1.
         23    2    1    2    0    0  0.18852395062E+02 -0.19038410261E+02  0.15964334147E+03  0.20457537069E+03  0.12508881625E+03 0.  0.
          5    1    3    3  502    0  0.19958031511E+02 -0.30235766520E+02 -0.73071272674E+01  0.37193966013E+02  0.41800000000E+01 0.  1.
         -5    1    3    3    0  502 -0.11056364493E+01  0.11197356259E+02  0.16695046874E+03  0.16738140468E+03  0.41800000000E+01 0.  1.
        -11    1    1    2    0    0  0.15318420421E+02  0.44287322148E+02  0.11246934476E+03  0.12184159560E+03  0.00000000000E+00 0.  1.
         11    1    1    2    0    0 -0.34170815483E+02 -0.25248911887E+02  0.20965523458E+03  0.21391696887E+03  0.00000000000E+00 0. -1.
</event>
<event>
 7    1  0.1620881E-005  0.1500516E+03  0.7561462E-02  0.1200410E+00
          2   -1    0    0  501    0  0.00000000000E+00  0.00000000000E+00  0.22984825892E+03  0.22984825892E+03  0.00000000000E+00 0. -1.
         -2   -1    0    0    0  501 -0.00000000000E+00 -0.00000000000E+00 -0.10133849218E+03  0.10133849218E+03  0.00000000000E+00 0.  1.
         23    2    1    2    0    0  0.14693977425E+02 -0.10559128604E+03  0.66682237360E+02  0.17736672525E+03  0.12508797618E+03 0.  0.
          5    1    3    3  502    0  0.67616972526E+02 -0.37176566161E+02  0.24678772737E+02  0.81121305888E+02  0.41800000000E+01 0. -1.
         -5    1    3    3    0  502 -0.52922995101E+02 -0.68414719883E+02  0.42003464623E+02  0.96245419358E+02  0.41800000000E+01 0. -1.
        -11    1    1    2    0    0 -0.18755868900E+01  0.11822089565E+03  0.38474620453E+02  0.12433822587E+03  0.00000000000E+00 0.  1.
         11    1    1    2    0    0 -0.12818390535E+02 -0.12629609602E+02  0.23352908925E+02  0.29481799977E+02  0.00000000000E+00 0. -1.
</event>
<event>
 7    1  0.1620881E-005  0.1112743E+03  0.7561462E-02  0.1258228E+00
          1   -1    0    0  501    0  0.00000000000E+00  0.00000000000E+00  0.12126561459E+02  0.12126561459E+02  0.00000000000E+00 0.  1.
         -1   -1    0    0    0  501 -0.00000000000E+00 -0.00000000000E+00 -0.11597216629E+04  0.11597216629E+04  0.00000000000E+00 0. -1.
         23    2    1    2    0    0 -0.16466491889E+02  0.34763292261E+02 -0.79384326150E+03  0.80455852268E+03  0.12509061012E+03 0.  0.
          5    1    3    3  502    0  0.38803310260E+02 -0.27154390985E+02 -0.31189290335E+03  0.31549598000E+03  0.41800000000E+01 0.  1.
         -5    1    3    3    0  502 -0.55269802149E+02  0.61917683246E+02 -0.48195035815E+03  0.48906254268E+03  0.41800000000E+01 0.  1.
        -11    1    1    2    0    0 -0.33675490724E+02 -0.63518217295E+01 -0.72465409111E+02  0.80159964025E+02  0.00000000000E+00 0. -1.
         11    1    1    2    0    0  0.50141982612E+02 -0.28411470531E+02 -0.28128643081E+03  0.28712973764E+03  0.00000000000E+00 0.  1.
</event>
<event>
 7    1  0.2403435E-005  0.2067413E+03  0.7561462E-02  0.1144173E+00
         -1   -1    0    0    0  501 -0.00000000000E+00  0.00000000000E+00  0.72123011974E+03  0.72123011974E+03  0.00000000000E+00 0.  1.
          1   -1    0    0  501    0  0.00000000000E+00 -0.00000000000E+00 -0.68846264638E+02  0.68846264638E+02  0.00000000000E+00 0. -1.
         23    2    1    2    0    0  0.15192779745E+03  0.12119883975E+03  0.35239681939E+03  0.42142884339E+03  0.12509011683E+03 0.  0.
          5    1    3    3  502    0 -0.14782917739E+01  0.45129178585E+02  0.14780309768E+03  0.15460289839E+03  0.41800000000E+01 0. -1.
         -5    1    3    3    0  502  0.15340608923E+03  0.76069661164E+02  0.20459372171E+03  0.26682594500E+03  0.41800000000E+01 0. -1.
        -11    1    1    2    0    0 -0.60015461704E+02 -0.28952477254E+02  0.17859762302E+03  0.19062322139E+03  0.00000000000E+00 0.  1.
         11    1    1    2    0    0 -0.91912335749E+02 -0.92246362496E+02  0.12138941269E+03  0.17802431960E+03  0.00000000000E+00 0. -1.
</event>
<event>
 7    1  0.1620881E-005  0.2194040E+03  0.7561462E-02  0.1134328E+00
         -1   -1    0    0    0  501 -0.00000000000E+00  0.00000000000E+00  0.33001455035E+03  0.33001455035E+03  0.00000000000E+00 0.  1.
          1   -1    0    0  501    0  0.00000000000E+00 -0.00000000000E+00 -0.17580361285E+03  0.17580361285E+03  0.00000000000E+00 0. -1.
         23    2    1    2    0    0  0.47191267023E+02  0.19811879568E+03  0.14391014954E+03  0.27899014572E+03  0.12508915773E+03 0.  0.
          5    1    3    3  502    0 -0.11604350900E+02  0.11076360562E+03  0.13227734450E+03  0.17296822124E+03  0.41800000000E+01 0.  1.
         -5    1    3    3    0  502  0.58795617923E+02  0.87355190061E+02  0.11632805038E+02  0.10602192448E+03  0.41800000000E+01 0.  1.
        -11    1    1    2    0    0 -0.69470888731E+02 -0.10268141108E+03  0.28354194784E+02  0.12717561450E+03  0.00000000000E+00 0. -1.
         11    1    1    2    0    0  0.22279621708E+02 -0.95437384605E+02 -0.18053406824E+02  0.99652402990E+02  0.00000000000E+00 0.  1.
</event>
<event>
 6    1  0.1620881E-005  0.2847079E+03  0.7561462E-02  0.1093145E+00
         -2   -1    0    0    0  501 -0.00000000000E+00  0.00000000000E+00  0.22055292240E+03  0.22055292240E+03  0.00000000000E+00 0.  1.
          2   -1    0    0  501    0  0.00000000000E+00 -0.00000000000E+00 -0.42322826435E+03  0.42322826435E+03  0.00000000000E+00 0. -1.
          5    1    1    2  502    0 -0.21651992586E+03  0.11733497723E+03  0.13875810575E+02  0.24669492434E+03  0.41800000000E+01 0. -1.
         -5    1    1    2    0  502  0.17668700840E+03 -0.13609592237E+03 -0.10539942697E+03  0.24671220202E+03  0.41800000000E+01 0.  1.
        -11    1    1    2    0    0  0.70615979111E+01  0.52522853090E+02 -0.47120160259E+02  0.70914214123E+02  0.00000000000E+00 0.  1.
         11    1    1    2    0    0  0.32771319545E+02 -0.33761907954E+02 -0.64031565296E+02  0.79459846261E+02  0.00000000000E+00 0. -1.
</event>
<event>
 7    1  0.1620881E-005  0.1601539E+03  0.7561462E-02  0.1188523E+00
         -1   -1    0    0    0  501 -0.00000000000E+00  0.00000000000E+00  0.10241894405E+03  0.10241894405E+03  0.00000000000E+00 0.  1.
          1   -1    0    0  501    0  0.00000000000E+00 -0.00000000000E+00 -0.30763363842E+03  0.30763363842E+03  0.00000000000E+00 0. -1.
         23    2    1    2    0    0  0.21963879708E+02 -0.13595734695E+03 -0.81938284053E+02  0.20329032122E+03  0.12508501152E+03 0.  0.
          5    1    3    3  502    0 -0.15766276620E+02 -0.14192066587E+03 -0.44460568303E+02  0.14961372067E+03  0.41800000000E+01 0.  1.
         -5    1    3    3    0  502  0.37730156328E+02  0.59633189185E+01 -0.37477715750E+02  0.53676600553E+02  0.41800000000E+01 0.  1.
        -11    1    1    2    0    0  0.13679006839E+01  0.48231160934E+02  0.61864861765E+01  0.48645540890E+02  0.00000000000E+00 0.  1.
         11    1    1    2    0    0 -0.23331780392E+02  0.87726186016E+02 -0.12946289649E+03  0.15811672036E+03  0.00000000000E+00 0. -1.
</event>
<event>
 7    1  0.1620881E-005  0.6941094E+02  0.7561462E-02  0.1362108E+00
          2   -1    0    0  501    0  0.00000000000E+00  0.00000000000E+00  0.19955986801E+02  0.19955986801E+02  0.00000000000E+00 0.  1.
         -2   -1    0    0    0  501 -0.00000000000E+00 -0.00000000000E+00 -0.60260396470E+03  0.60260396470E+03  0.00000000000E+00 0. -1.
         23    2    1    2    0    0  0.50204043461E+01  0.69260940246E+01 -0.38197066952E+03  0.40202567966E+03  0.12509947840E+03 0.  0.
          5    1    3    3  502    0 -0.11933932878E+02  0.21472734538E+02 -0.37816126333E+03  0.37898141190E+03  0.41800000000E+01 0. -1.
         -5    1    3    3    0  502  0.16954337224E+02 -0.14546640513E+02 -0.38094061845E+01  0.23044267756E+02  0.41800000000E+01 0. -1.
        -11    1    1    2    0    0 -0.24504494245E+02  0.36279421589E+02 -0.10499000164E+03  0.11375221806E+03  0.00000000000E+00 0. -1.
         11    1    1    2    0    0  0.19484089899E+02 -0.43205515614E+02 -0.95687306737E+02  0.10678205378E+03  0.00000000000E+00 0.  1.
</event>
<event>
 7    1  0.1620881E-005  0.1498483E+03  0.7561462E-02  0.1200660E+00
         -1   -1    0    0    0  501 -0.00000000000E+00  0.00000000000E+00  0.27448527977E+02  0.27448527977E+02  0.00000000000E+00 0.  1.
          1   -1    0    0  501    0  0.00000000000E+00 -0.00000000000E+00 -0.99092589173E+03  0.99092589173E+03  0.00000000000E+00 0. -1.
         23    2    1    2    0    0 -0.91798775228E+02  0.82391697736E+02 -0.47859100461E+03  0.50981531098E+03  0.12508754787E+03 0.  0.
          5    1    3    3  502    0 -0.42911369850E+02  0.87752327803E+02 -0.42842233996E+03  0.43943717466E+03  0.41800000000E+01 0. -1.
         -5    1    3    3    0  502 -0.48887405379E+02 -0.53606300667E+01 -0.50168664645E+02  0.70378136318E+02  0.41800000000E+01 0. -1.
        -11    1    1    2    0    0  0.58189411911E+02  0.55190684627E+01 -0.16131672245E+03  0.17157958130E+03  0.00000000000E+00 0. -1.
         11    1    1    2    0    0  0.33609363318E+02 -0.87910766199E+02 -0.32356963670E+03  0.33697952743E+03  0.00000000000E+00 0.  1.
</event>
<event>
 7    1  0.1620881E-005  0.1101616E+03  0.7561462E-02  0.1260271E+00
          2   -1    0    0  501    0  0.00000000000E+00  0.00000000000E+00  0.46257665649E+03  0.46257665649E+03  0.00000000000E+00 0. -1.
         -2   -1    0    0    0  501 -0.00000000000E+00 -0.00000000000E+00 -0.45684440684E+02  0.45684440684E+02  0.00000000000E+00 0.  1.
         23    2    1    2    0    0 -0.79436653632E+02  0.32795437760E+02  0.14839587382E+03  0.21225914929E+03  0.12508752302E+03 0.  0.
          5    1    3    3  502    0 -0.13145958731E+01  0.48267861189E+02  0.11684075083E+03  0.12649406326E+03  0.41800000000E+01 0. -1.
         -5    1    3    3    0  502 -0.78122057759E+02 -0.15472423429E+02  0.31555122990E+02  0.85765086032E+02  0.41800000000E+01 0. -1.
        -11    1    1    2    0    0  0.18817250237E+02  0.64516233794E+01  0.21140486126E+01  0.20004538291E+02  0.00000000000E+00 0.  1.
         11    1    1    2    0    0  0.60619403395E+02 -0.39247061140E+02  0.26638229338E+03  0.27599740959E+03  0.00000000000E+00 0. -1.
</event>
<event>
 7    1  0.1620881E-005  0.6642555E+02  0.7561462E-02  0.1372688E+00
         -2   -1    0    0    0  501 -0.00000000000E+00  0.00000000000E+00  0.24241553413E+02  0.24241553413E+02  0.00000000000E+00 0.  1.
          2   -1    0    0  501    0  0.00000000000E+00 -0.00000000000E+00 -0.53599278598E+03  0.53599278598E+03  0.00000000000E+00 0. -1.
         23    2    1    2    0    0  0.34730898668E+02 -0.55870927011E+01 -0.26965012410E+03  0.29930516822E+03  0.12503976717E+03 0.  0.
          5    1    3    3  502    0  0.38914660754E+02 -0.84042117494E+01 -0.12308560682E+02  0.41880241914E+02  0.41800000000E+01 0.  1.
         -5    1    3    3    0  502 -0.41837620861E+01  0.28171190483E+01 -0.25734156341E+03  0.25742492631E+03  0.41800000000E+01 0.  1.
        -11    1    1    2    0    0 -0.37811533621E+02  0.38060831382E+02 -0.85285893501E+02  0.10075724585E+03  0.00000000000E+00 0.  1.
         11    1    1    2    0    0  0.30806349531E+01 -0.32473738681E+02 -0.15681521497E+03  0.16017192533E+03  0.00000000000E+00 0. -1.
</event>
<event>
 7    1  0.1620881E-005  0.1229997E+03  0.7561462E-02  0.1238229E+00
          1   -1    0    0  501    0  0.00000000000E+00  0.00000000000E+00  0.11211405998E+04  0.11211405998E+04  0.00000000000E+00 0. -1.
         -1   -1    0    0    0  501 -0.00000000000E+00 -0.00000000000E+00 -0.14530837186E+02  0.14530837186E+02  0.00000000000E+00 0.  1.
         23    2    1    2    0    0 -0.67157565822E+02  0.13947829191E+02  0.58663316843E+03  0.60373130761E+03  0.12509331278E+03 0.  0.
          5    1    3    3  502    0 -0.10945869067E+02 -0.48402620661E+02  0.12585751567E+03  0.13535217910E+03  0.41800000000E+01 0. -1.
         -5    1    3    3    0  502 -0.56211696756E+02  0.62350449852E+02  0.46077565275E+03  0.46837912850E+03  0.41800000000E+01 0. -1.
        -11    1    1    2    0    0  0.24451004566E+02  0.37820485553E+02  0.20234301976E+03  0.20729432794E+03  0.00000000000E+00 0.  1.
         11    1    1    2    0    0  0.42706561256E+02 -0.51768314743E+02  0.31763357439E+03  0.32464580139E+03  0.00000000000E+00 0. -1.
</event>
<event>
 7    1  0.1620881E-005  0.1122584E+03  0.7561462E-02  0.1256444E+00
         -2   -1    0    0    0  501 -0.00000000000E+00  0.00000000000E+00  0.13566533358E+04  0.13566533358E+04  0.00000000000E+00 0. -1.
          2   -1    0    0  501    0  0.00000000000E+00 -0.00000000000E+00 -0.10519106459E+02  0.10519106459E+02  0.00000000000E+00 0.  1.
         23    2    1    2    0    0  0.11192886369E+02  0.41827967804E+02  0.92507902199E+03  0.93450106087E+03  0.12508467630E+03 0.  0.
          5    1    3    3  502    0 -0.29659314561E+02  0.72791847199E+02  0.63971163013E+03  0.64453608905E+03  0.41800000000E+01 0. -1.
         -5    1    3    3    0  502  0.40852200930E+02 -0.30963879395E+02  0.28536739185E+03  0.28996497182E+03  0.41800000000E+01 0. -1.
        -11    1    1    2    0    0 -0.34289162900E+02 -0.57156097047E+02  0.35209879345E+03  0.35835195893E+03  0.00000000000E+00 0. -1.
         11    1    1    2    0    0  0.23096276531E+02  0.15328129243E+02  0.68956413867E+02  0.74319422422E+02  0.00000000000E+00 0.  1.
</event>
<event>
 7    1  0.1620881E-005  0.1165917E+03  0.7561462E-02  0.1248828E+00
         -1   -1    0    0    0  501 -0.00000000000E+00  0.00000000000E+00  0.20712090779E+02  0.20712090779E+02  0.00000000000E+00 0.  1.
          1   -1    0    0  501    0  0.00000000000E+00 -0.00000000000E+00 -0.96893585090E+03  0.96893585090E+03  0.00000000000E+00 0. -1.
         23    2    1    2    0    0 -0.20021338060E+02  0.84513568862E+02 -0.42146376917E+03  0.44813103642E+03  0.12508525004E+03 0.  0.
          5    1    3    3  502    0 -0.45988882127E+02  0.42680517635E+02 -0.37522255178E+03  0.38045504285E+03  0.41800000000E+01 0. -1.
         -5    1    3    3    0  502  0.25967544067E+02  0.41833051227E+02 -0.46241217394E+02  0.67675993572E+02  0.41800000000E+01 0. -1.
        -11    1    1    2    0    0  0.52811052393E+02 -0.60105751889E+02 -0.41192611495E+03  0.41962463326E+03  0.00000000000E+00 0. -1.
         11    1    1    2    0    0 -0.32789714333E+02 -0.24407816973E+02 -0.11483387600E+03  0.12189227200E+03  0.00000000000E+00 0.  1.
</event>
<event>
 7    1  0.1620881E-005  0.1241642E+03  0.7561462E-02  0.1236381E+00
          2   -1    0    0  501    0  0.00000000000E+00  0.00000000000E+00  0.27926879721E+03  0.27926879721E+03  0.00000000000E+00 0. -1.
         -2   -1    0    0    0  501 -0.00000000000E+00 -0.00000000000E+00 -0.35298189602E+03  0.35298189602E+03  0.00000000000E+00 0.  1.
         23    2    1    2    0    0  0.63127144730E+02 -0.53166981799E+02 -0.32157672812E+03  0.35546230766E+03  0.12700431388E+03 0.  0.
          5    1    3    3  502    0  0.57348247638E+02  0.22171834765E+02 -0.22198772385E+03  0.23038323225E+03  0.41800000000E+01 0. -1.
         -5    1    3    3    0  502  0.57788970920E+01 -0.75338816565E+02 -0.99589004271E+02  0.12507907541E+03  0.41800000000E+01 0.  1.
        -11    1    1    2    0    0 -0.13169962514E+02 -0.19082895708E+02  0.14270997871E+02  0.27226204316E+02  0.00000000000E+00 0.  1.
         11    1    1    2    0    0 -0.49957182216E+02  0.72249877508E+02  0.23359263143E+03  0.24956218126E+03  0.00000000000E+00 0. -1.
</event>
<event>
 7    1  0.1620881E-005  0.1230752E+03  0.7561462E-02  0.1238108E+00
         -2   -1    0    0    0  501 -0.00000000000E+00  0.00000000000E+00  0.27619904482E+03  0.27619904482E+03  0.00000000000E+00 0.  1.
          2   -1    0    0  501    0  0.00000000000E+00 -0.00000000000E+00 -0.65734542798E+02  0.65734542798E+02  0.00000000000E+00 0. -1.
         23    2    1    2    0    0  0.59048898699E+02 -0.69063156687E+01  0.18322866885E+03  0.22968390339E+03  0.12508989070E+03 0.  0.
          5    1    3    3  502    0  0.75748539538E+02  0.41727629377E+02  0.10708982087E+03  0.13771252096E+03  0.41800000000E+01 0. -1.
         -5    1    3    3    0  502 -0.16699640839E+02 -0.48633945046E+02  0.76138847971E+02  0.91971382425E+02  0.41800000000E+01 0. -1.
        -11    1    1    2    0    0 -0.36479625593E+02  0.48480338479E+02  0.80575578588E+01  0.61204824493E+02  0.00000000000E+00 0.  1.
         11    1    1    2    0    0 -0.22569273105E+02 -0.41574022811E+02  0.19178275316E+02  0.51044859734E+02  0.00000000000E+00 0. -1.
</event>
<event>
 7    1  0.1620881E-005  0.1108180E+03  0.7561462E-02  0.1259062E+00
         -3   -1    0    0    0  501 -0.00000000000E+00  0.00000000000E+00  0.32717265663E+03  0.32717265663E+03  0.00000000000E+00 0.  1.
          3   -1    0    0  501    0  0.00000000000E+00 -0.00000000000E+00 -0.40383045576E+02  0.40383045576E+02  0.00000000000E+00 0. -1.
         23    2    1    2    0    0  0.13099267164E+02  0.29772686462E+02  0.18501973332E+03  0.22569327595E+03  0.12508856634E+03 0.  0.
          5    1    3    3  502    0 -0.52582002641E+02 -0.49995777741E+01  0.96027495689E+02  0.10967504323E+03  0.41800000000E+01 0.  1.
         -5    1    3    3    0  502  0.65681269806E+02  0.34772264236E+02  0.88992237631E+02  0.11601823271E+03  0.41800000000E+01 0.  1.
        -11    1    1    2    0    0 -0.40334719247E+02  0.13972071998E+02  0.67882120757E+02  0.80187846280E+02  0.00000000000E+00 0. -1.
         11    1    1    2    0    0  0.27235452082E+02 -0.43744758460E+02  0.33887756976E+02  0.61674579980E+02  0.00000000000E+00 0.  1.
</event>
<event>
 7    1  0.1620881E-005  0.1927181E+03  0.7561462E-02  0.1156032E+00
          3   -1    0    0  501    0  0.00000000000E+00  0.00000000000E+00  0.16453117682E+03  0.16453117682E+03  0.00000000000E+00 0. -1.
         -3   -1    0    0    0  501 -0.00000000000E+00 -0.00000000000E+00 -0.25937200429E+03  0.25937200429E+03  0.00000000000E+00 0.  1.
         23    2    1    2    0    0 -0.55718088260E+01  0.17544455223E+03 -0.69567237191E+02  0.22649662951E+03  0.12509710919E+03 0.  0.
          5    1    3    3  502    0  0.49127167380E+02  0.76114219083E+02  0.48187066497E+01  0.90815996692E+02  0.41800000000E+01 0. -1.
         -5    1    3    3    0  502 -0.54698976206E+02  0.99330333149E+02 -0.74385943841E+02  0.13568063282E+03  0.41800000000E+01 0. -1.
        -11    1    1    2    0    0  0.25553330106E+02 -0.93309120974E+02 -0.50579517779E+02  0.10916891662E+03  0.00000000000E+00 0.  1.
         11    1    1    2    0    0 -0.19981521280E+02 -0.82135431257E+02  0.25305927500E+02  0.88237634982E+02  0.00000000000E+00 0. -1.
</event>
<event>
 7    1  0.1620881E-005  0.2091181E+03  0.7561462E-02  0.1142266E+00
         -2   -1    0    0    0  501 -0.00000000000E+00  0.00000000000E+00  0.77708133365E+03  0.77708133365E+03  0.00000000000E+00 0.  1.
          2   -1    0    0  501    0  0.00000000000E+00 -0.00000000000E+00 -0.60895520868E+02  0.60895520868E+02  0.00000000000E+00 0. -1.
         23    2    1    2    0    0 -0.11369475351E+03  0.13929414465E+03  0.26222078856E+03  0.34166697820E+03  0.12508887372E+03 0.  0.
          5    1    3    3  502    0 -0.61339025292E+02 -0.85559628978E+01  0.77960694952E+02  0.99654517621E+02  0.41800000000E+01 0. -1.
         -5    1    3    3    0  502 -0.52355728221E+02  0.14785010754E+03  0.18426009361E+03  0.24201246058E+03  0.41800000000E+01 0. -1.
        -11    1    1    2    0    0  0.12103700406E+03 -0.93669614276E+02  0.37127436911E+03  0.40158263178E+03  0.00000000000E+00 0. -1.
         11    1    1    2    0    0 -0.73422505509E+01 -0.45624530371E+02  0.82690655119E+02  0.94727244543E+02  0.00000000000E+00 0.  1.
</event>
<event>
 7    1  0.1620881E-005  0.1015612E+03  0.7561462E-02  0.1277047E+00
          1   -1    0    0  501    0  0.00000000000E+00  0.00000000000E+00  0.53903484327E+03  0.53903484327E+03  0.00000000000E+00 0. -1.
         -1   -1    0    0    0  501 -0.00000000000E+00 -0.00000000000E+00 -0.26055732146E+02  0.26055732146E+02  0.00000000000E+00 0.  1.
         23    2    1    2    0    0  0.32897919977E+02 -0.33366258768E+02  0.30239478043E+03  0.33059230441E+03  0.12511230212E+03 0.  0.
          5    1    3    3  502    0  0.61533780565E+02 -0.41684612412E+02  0.93384818382E+02  0.11942449400E+03  0.41800000000E+01 0. -1.
         -5    1    3    3    0  502 -0.28635860588E+02  0.83183536446E+01  0.20900996204E+03  0.21116781041E+03  0.41800000000E+01 0. -1.
        -11    1    1    2    0    0  0.23252323626E+02  0.35433805744E+02  0.57527551025E+02  0.71453791155E+02  0.00000000000E+00 0.  1.
         11    1    1    2    0    0 -0.56150243603E+02 -0.20675469768E+01  0.15305677967E+03  0.16304447985E+03  0.00000000000E+00 0. -1.
</event>
<event>
 7    1  0.1620881E-005  0.1600960E+03  0.7561462E-02  0.1188588E+00
          2   -1    0    0  501    0  0.00000000000E+00  0.00000000000E+00  0.16362896055E+03  0.16362896055E+03  0.00000000000E+00 0. -1.
         -2   -1    0    0    0  501 -0.00000000000E+00 -0.00000000000E+00 -0.21012342959E+03  0.21012342959E+03  0.00000000000E+00 0.  1.
         23    2    1    2    0    0 -0.28706349384E+02 -0.14638745977E+03 -0.33290624477E+02  0.19750719542E+03  0.12508990244E+03 0.  0.
          5    1    3    3  502    0 -0.51316208845E+01 -0.54797778169E+02  0.47677771223E+02  0.72936769149E+02  0.41800000000E+01 0.  1.
         -5    1    3    3    0  502 -0.23574728500E+02 -0.91589681605E+02 -0.80968395700E+02  0.12457042628E+03  0.41800000000E+01 0.  1.
        -11    1    1    2    0    0  0.44234990708E+02  0.31277209248E+02  0.15977746934E+02  0.56482622268E+02  0.00000000000E+00 0.  1.
         11    1    1    2    0    0 -0.15528641323E+02  0.11511025053E+03 -0.29181591495E+02  0.11976257245E+03  0.00000000000E+00 0. -1.
</event>
<event>
 7    1  0.1620881E-005  0.1092039E+03  0.7561462E-02  0.1262051E+00
         -3   -1    0    0    0  501 -0.00000000000E+00  0.00000000000E+00  0.12090273477E+04  0.12090273477E+04  0.00000000000E+00 0.  1.
          3   -1    0    0  501    0  0.00000000000E+00 -0.00000000000E+00 -0.13791595035E+02  0.13791595035E+02  0.00000000000E+00 0. -1.
         23    2    1    2    0    0 -0.11760131770E+02  0.35919098577E+02  0.79297536034E+03  0.80367034290E+03  0.12509042968E+03 0.  0.
          5    1    3    3  502    0  0.11785666623E+02 -0.34086765365E+02  0.50641949364E+03  0.50771939636E+03  0.41800000000E+01 0.  1.
         -5    1    3    3    0  502 -0.23545798394E+02  0.70005863943E+02  0.28655586671E+03  0.29595094653E+03  0.41800000000E+01 0.  1.
        -11    1    1    2    0    0  0.54033856287E+02 -0.37577259399E+02  0.31942561246E+03  0.32613560055E+03  0.00000000000E+00 0.  1.
         11    1    1    2    0    0 -0.42273724516E+02  0.16581608218E+01  0.82834779841E+02  0.93012999270E+02  0.00000000000E+00 0. -1.
</event>
<event>
 7    1  0.1620881E-005  0.1814713E+03  0.7561462E-02  0.1166387E+00
          2   -1    0    0  501    0  0.00000000000E+00  0.00000000000E+00  0.21438290192E+03  0.21438290192E+03  0.00000000000E+00 0. -1.
         -2   -1    0    0    0  501 -0.00000000000E+00 -0.00000000000E+00 -0.18285054416E+03  0.18285054416E+03  0.00000000000E+00 0.  1.
         23    2    1    2    0    0 -0.13368971665E+03  0.94105846762E+02  0.36544747021E+02  0.20907485312E+03  0.12509166616E+03 0.  0.
          5    1    3    3  502    0 -0.10616358345E+03  0.10201393901E+03  0.71469440246E+02  0.16371592315E+03  0.41800000000E+01 0. -1.
         -5    1    3    3    0  502 -0.27526133193E+02 -0.79080922460E+01 -0.34924693225E+02  0.45358929974E+02  0.41800000000E+01 0. -1.
        -11    1    1    2    0    0 -0.83961369611E+01 -0.29411182802E+02 -0.93309712936E+01  0.31977801909E+02  0.00000000000E+00 0.  1.
         11    1    1    2    0    0  0.14208585361E+03 -0.64694663960E+02  0.43185820297E+01  0.15618079104E+03  0.00000000000E+00 0. -1.
</event>
<event>
 7    1  0.1620881E-005  0.1257611E+03  0.7561462E-02  0.1233885E+00
          1   -1    0    0  501    0  0.00000000000E+00  0.00000000000E+00  0.34975347167E+02  0.34975347167E+02  0.00000000000E+00 0. -1.
         -1   -1    0    0    0  501 -0.00000000000E+00 -0.00000000000E+00 -0.76657680653E+03  0.76657680653E+03  0.00000000000E+00 0.  1.
         23    2    1    2    0    0  0.69166168621E+02  0.79544088907E+02 -0.54815166205E+03  0.57203934466E+03  0.12509015258E+03 0.  0.
          5    1    3    3  502    0 -0.88836441394E+01  0.69867493964E+00 -0.30026530801E+03  0.30042658816E+03  0.41800000000E+01 0. -1.
         -5    1    3    3    0  502  0.78049812760E+02  0.78845413967E+02 -0.24788635404E+03  0.27161275650E+03  0.41800000000E+01 0. -1.
        -11    1    1    2    0    0  0.56402932175E+01 -0.49858036624E+02 -0.10848409437E+03  0.11952587777E+03  0.00000000000E+00 0.  1.
         11    1    1    2    0    0 -0.74806461839E+02 -0.29686052282E+02 -0.74965702946E+02  0.10998693127E+03  0.00000000000E+00 0. -1.
</event>
<event>
 7    1  0.1620881E-005  0.3265285E+03  0.7561462E-02  0.1072683E+00
         -2   -1    0    0    0  501 -0.00000000000E+00  0.00000000000E+00  0.38103742565E+03  0.38103742565E+03  0.00000000000E+00 0.  1.
          2   -1    0    0  501    0  0.00000000000E+00 -0.00000000000E+00 -0.30555290650E+03  0.30555290650E+03  0.00000000000E+00 0. -1.
         23    2    1    2    0    0 -0.31281170914E+03 -0.52455065682E+02  0.10212760108E+03  0.35593362256E+03  0.12512392846E+03 0.  0.
          5    1    3    3  502    0 -0.81135208993E+02  0.13967614808E+02 -0.21274427921E+02  0.85135715685E+02  0.41800000000E+01 0.  1.
         -5    1    3    3    0  502 -0.23167650015E+03 -0.66422680491E+02  0.12340202900E+03  0.27079790687E+03  0.41800000000E+01 0.  1.
        -11    1    1    2    0    0  0.26041575358E+03  0.74780687721E+01 -0.20260471677E+02  0.26130972607E+03  0.00000000000E+00 0.  1.
         11    1    1    2    0    0  0.52395955558E+02  0.44976996910E+02 -0.63826102637E+01  0.69346983523E+02  0.00000000000E+00 0. -1.
</event>
<event>
 7    1  0.1620881E-005  0.8201656E+02  0.7561462E-02  0.1323424E+00
          1   -1    0    0  501    0  0.00000000000E+00  0.00000000000E+00  0.82657404042E+02  0.82657404042E+02  0.00000000000E+00 0. -1.
         -1   -1    0    0    0  501 -0.00000000000E+00 -0.00000000000E+00 -0.37053764311E+03  0.37053764311E+03  0.00000000000E+00 0.  1.
         23    2    1    2    0    0 -0.69390368296E+02  0.31290583124E+02 -0.30602386024E+03  0.33925784808E+03  0.12510459882E+03 0.  0.
          5    1    3    3  502    0 -0.71650584074E+02  0.35184575861E+02 -0.31686797127E+03  0.32679434541E+03  0.41800000000E+01 0.  1.
         -5    1    3    3    0  502  0.22602157782E+01 -0.38939927374E+01  0.10844111031E+02  0.12463502672E+02  0.41800000000E+01 0.  1.
        -11    1    1    2    0    0  0.58496616845E+02 -0.18935620246E+02 -0.26048383036E+02  0.66775221116E+02  0.00000000000E+00 0.  1.
         11    1    1    2    0    0  0.10893751451E+02 -0.12354962878E+02  0.44192004207E+02  0.47161977951E+02  0.00000000000E+00 0. -1.
</event>
<event>
 7    1  0.1620881E-005  0.2171542E+03  0.7561462E-02  0.1136023E+00
         -2   -1    0    0    0  501 -0.00000000000E+00  0.00000000000E+00  0.68374945395E+02  0.68374945395E+02  0.00000000000E+00 0.  1.
          2   -1    0    0  501    0  0.00000000000E+00 -0.00000000000E+00 -0.74460988430E+03  0.74460988430E+03  0.00000000000E+00 0. -1.
         23    2    1    2    0    0  0.61023951673E+02 -0.18781054593E+03 -0.35463015842E+03  0.42474276219E+03  0.12508853240E+03 0.  0.
          5    1    3    3  502    0 -0.15921320422E+02  0.70571600263E+01 -0.78244900795E+01  0.19544487627E+02  0.41800000000E+01 0. -1.
         -5    1    3    3    0  502  0.76945272095E+02 -0.19486770595E+03 -0.34680566834E+03  0.40519827457E+03  0.41800000000E+01 0. -1.
        -11    1    1    2    0    0 -0.71317855016E+02  0.13140622301E+03 -0.27994626695E+03  0.31737004312E+03  0.00000000000E+00 0. -1.
         11    1    1    2    0    0  0.10293903343E+02  0.56404322920E+02 -0.41658513539E+02  0.70872024384E+02  0.00000000000E+00 0.  1.
</event>
<event>
 7    1  0.1620881E-005  0.9895955E+02  0.7561462E-02  0.1282499E+00
         -2   -1    0    0    0  501 -0.00000000000E+00  0.00000000000E+00  0.40563408828E+02  0.40563408828E+02  0.00000000000E+00 0.  1.
          2   -1    0    0  501    0  0.00000000000E+00 -0.00000000000E+00 -0.41155679595E+03  0.41155679595E+03  0.00000000000E+00 0. -1.
         23    2    1    2    0    0 -0.94809712829E+01  0.68694439072E+02 -0.21994356571E+03  0.26235663583E+03  0.12508803898E+03 0.  0.
          5    1    3    3  502    0 -0.17597925044E+02  0.92181807493E+02 -0.90354677726E+02  0.13034037281E+03  0.41800000000E+01 0.  1.
         -5    1    3    3    0  502  0.81169537607E+01 -0.23487368421E+02 -0.12958888798E+03  0.13201626302E+03  0.41800000000E+01 0.  1.
        -11    1    1    2    0    0 -0.83701435429E+01 -0.56604821390E+02 -0.25967701885E+02  0.62836984720E+02  0.00000000000E+00 0.  1.
         11    1    1    2    0    0  0.17851114826E+02 -0.12089617682E+02 -0.12508211953E+03  0.12692658422E+03  0.00000000000E+00 0. -1.
</event>
<event>
 7    1  0.1620881E-005  0.1700846E+03  0.7561462E-02  0.1177760E+00
          1   -1    0    0  501    0  0.00000000000E+00  0.00000000000E+00  0.54517648576E+03  0.54517648576E+03  0.00000000000E+00 0. -1.
         -1   -1    0    0    0  501 -0.00000000000E+00 -0.00000000000E+00 -0.13699963115E+03  0.13699963115E+03  0.00000000000E+00 0.  1.
         23    2    1    2    0    0 -0.10344722735E+03  0.11703816184E+03 -0.35075555987E+02  0.20316843857E+03  0.12509140510E+03 0.  0.
          5    1    3    3  502    0 -0.78955665660E+02  0.12807836881E+03 -0.63922165642E+02  0.16352853377E+03  0.41800000000E+01 0.  1.
         -5    1    3    3    0  502 -0.24491561688E+02 -0.11040206968E+02  0.28846609654E+02  0.39639904798E+02  0.41800000000E+01 0.  1.
        -11    1    1    2    0    0  0.10403611262E+03 -0.96448900668E+02  0.43368058789E+03  0.45629459287E+03  0.00000000000E+00 0. -1.
         11    1    1    2    0    0 -0.58888526679E+00 -0.20589261174E+02  0.95718227129E+01  0.22713085471E+02  0.00000000000E+00 0.  1.
</event>
<event>
 7    1  0.1620881E-005  0.1019645E+03  0.7561462E-02  0.1276218E+00
          1   -1    0    0  501    0  0.00000000000E+00  0.00000000000E+00  0.61537668103E+02  0.61537668103E+02  0.00000000000E+00 0. -1.
         -1   -1    0    0    0  501 -0.00000000000E+00 -0.00000000000E+00 -0.24252456701E+03  0.24252456701E+03  0.00000000000E+00 0.  1.
         23    2    1    2    0    0  0.14366166081E+01 -0.25296727339E+02 -0.16219416813E+03  0.20638690917E+03  0.12508644938E+03 0.  0.
          5    1    3    3  502    0  0.51680245496E+02  0.23654197602E+02 -0.64920253478E+02  0.86385650142E+02  0.41800000000E+01 0. -1.
         -5    1    3    3    0  502 -0.50243628888E+02 -0.48950924941E+02 -0.97273914650E+02  0.12000125903E+03  0.41800000000E+01 0. -1.
        -11    1    1    2    0    0  0.29765016116E+02  0.33090162003E+02 -0.39431516289E+02  0.59462252586E+02  0.00000000000E+00 0.  1.
         11    1    1    2    0    0 -0.31201632724E+02 -0.77934346636E+01  0.20638785509E+02  0.38213073362E+02  0.00000000000E+00 0. -1.
</event>
<event>
 7    1  0.1620881E-005  0.9104012E+02  0.7561462E-02  0.1300352E+00
         -1   -1    0    0    0  501 -0.00000000000E+00  0.00000000000E+00  0.52227808286E+03  0.52227808286E+03  0.00000000000E+00 0.  1.
          1   -1    0    0  501    0  0.00000000000E+00 -0.00000000000E+00 -0.25601762155E+02  0.25601762155E+02  0.00000000000E+00 0. -1.
         23    2    1    2    0    0  0.28320406934E+02  0.51790227681E+01  0.32490410911E+03  0.34933957615E+03  0.12508633668E+03 0.  0.
          5    1    3    3  502    0  0.56547636174E+02  0.46185368081E+02  0.14186554034E+03  0.15960584988E+03  0.41800000000E+01 0. -1.
         -5    1    3    3    0  502 -0.28227229240E+02 -0.41006345313E+02  0.18303856877E+03  0.18973372627E+03  0.41800000000E+01 0. -1.
        -11    1    1    2    0    0 -0.21055448180E+02  0.22240054136E+02  0.16698947559E+03  0.16977466497E+03  0.00000000000E+00 0.  1.
         11    1    1    2    0    0 -0.72649587542E+01 -0.27419076905E+02  0.47827360078E+01  0.28765603900E+02  0.00000000000E+00 0. -1.
</event>
<event>
 7    1  0.1620881E-005  0.1017384E+03  0.7561462E-02  0.1276682E+00
          1   -1    0    0  501    0  0.00000000000E+00  0.00000000000E+00  0.52053972726E+02  0.52053972726E+02  0.00000000000E+00 0. -1.
         -1   -1    0    0    0  501 -0.00000000000E+00 -0.00000000000E+00 -0.24562976447E+03  0.24562976447E+03  0.00000000000E+00 0.  1.
         23    2    1    2    0    0  0.54859338127E+00 -0.47415829982E+01 -0.15548358118E+03  0.19961105763E+03  0.12508655702E+03 0.  0.
          5    1    3    3  502    0 -0.51820454937E+02  0.22335927149E+02 -0.38182634954E+02  0.68261549964E+02  0.41800000000E+01 0.  1.
         -5    1    3    3    0  502  0.52369048318E+02 -0.27077510147E+02 -0.11730094623E+03  0.13134950767E+03  0.41800000000E+01 0.  1.
        -11    1    1    2    0    0  0.36519481072E+02  0.26212032134E+02 -0.31115770354E+02  0.54671146788E+02  0.00000000000E+00 0.  1.
         11    1    1    2    0    0 -0.37068074453E+02 -0.21470449136E+02 -0.69764402092E+01  0.43401532782E+02  0.00000000000E+00 0. -1.
</event>
<event>
 7    1  0.1620881E-005  0.1104503E+03  0.7561462E-02  0.1259738E+00
         -1   -1    0    0    0  501 -0.00000000000E+00  0.00000000000E+00  0.30864306675E+02  0.30864306675E+02  0.00000000000E+00 0.  1.
          1   -1    0    0  501    0  0.00000000000E+00 -0.00000000000E+00 -0.72023501380E+03  0.72023501380E+03  0.00000000000E+00 0. -1.
         23    2    1    2    0    0 -0.62590118002E+02 -0.45061215981E+02 -0.21499406111E+03  0.26042014227E+03  0.12509263820E+03 0.  0.
          5    1    3    3  502    0 -0.24213887569E+02  0.18716850033E+02 -0.17118619246E+03  0.17395061861E+03  0.41800000000E+01 0. -1.
         -5    1    3    3    0  502 -0.38376230433E+02 -0.63778066014E+02 -0.43807868650E+02  0.86469523662E+02  0.41800000000E+01 0. -1.
        -11    1    1    2    0    0 -0.56624029420E+01  0.46844270203E+02 -0.10598617092E+03  0.11601515800E+03  0.00000000000E+00 0.  1.
         11    1    1    2    0    0  0.68252520944E+02 -0.17830542222E+01 -0.36839047510E+03  0.37466402021E+03  0.00000000000E+00 0. -1.
</event>
<event>
 7    1  0.1620881E-005  0.1065065E+03  0.7561462E-02  0.1267180E+00
         -1   -1    0    0    0  501 -0.00000000000E+00  0.00000000000E+00  0.46948589339E+03  0.46948589339E+03  0.00000000000E+00 0.  1.
          1   -1    0    0  501    0  0.00000000000E+00 -0.00000000000E+00 -0.32966003107E+02  0.32966003107E+02  0.00000000000E+00 0. -1.
         23    2    1    2    0    0 -0.36195429194E+02  0.42392628151E+02  0.29459803774E+03  0.32487485384E+03  0.12509365613E+03 0.  0.
          5    1    3    3  502    0 -0.23609811355E+02  0.84393704497E+02  0.23442516605E+03  0.25030451740E+03  0.41800000000E+01 0.  1.
         -5    1    3    3    0  502 -0.12585617839E+02 -0.42001076346E+02  0.60172871687E+02  0.74570336446E+02  0.41800000000E+01 0.  1.
        -11    1    1    2    0    0  0.18088551161E+02 -0.55829282379E+02  0.14343709390E+03  0.15497839966E+03  0.00000000000E+00 0.  1.
         11    1    1    2    0    0  0.18106878033E+02  0.13436654228E+02 -0.15152413538E+01  0.22598642997E+02  0.00000000000E+00 0. -1.
</event>
<event>
 7    1  0.1620881E-005  0.2565522E+03  0.7561462E-02  0.1109233E+00
          2   -1    0    0  501    0  0.00000000000E+00  0.00000000000E+00  0.12530632615E+04  0.12530632615E+04  0.00000000000E+00 0. -1.
         -2   -1    0    0    0  501 -0.00000000000E+00 -0.00000000000E+00 -0.70607525041E+02  0.70607525041E+02  0.00000000000E+00 0.  1.
         23    2    1    2    0    0 -0.76083579695E+02 -0.22164385708E+03  0.27586070275E+03  0.38296229092E+03  0.12508508491E+03 0.  0.
          5    1    3    3  502    0  0.17584129552E+02 -0.13997713494E+03  0.15314297430E+03  0.20826195739E+03  0.41800000000E+01 0. -1.
         -5    1    3    3    0  502 -0.93667709246E+02 -0.81666722137E+02  0.12271772845E+03  0.17470033353E+03  0.41800000000E+01 0. -1.
        -11    1    1    2    0    0  0.63127172906E+02  0.65588173988E+02  0.41109131827E+03  0.42104978385E+03  0.00000000000E+00 0.  1.
         11    1    1    2    0    0  0.12956406789E+02  0.15605568309E+03  0.49550371549E+03  0.51965871181E+03  0.00000000000E+00 0. -1.
</event>
<event>
 7    1  0.1620881E-005  0.1370453E+03  0.7561462E-02  0.1217361E+00
         -2   -1    0    0    0  501 -0.00000000000E+00  0.00000000000E+00  0.21738817315E+03  0.21738817315E+03  0.00000000000E+00 0.  1.
          2   -1    0    0  501    0  0.00000000000E+00 -0.00000000000E+00 -0.10402713451E+03  0.10402713451E+03  0.00000000000E+00 0. -1.
         23    2    1    2    0    0  0.91635944464E+02  0.30846411213E+02  0.10080784539E+03  0.18750452411E+03  0.12508827869E+03 0.  0.
          5    1    3    3  502    0  0.73747412755E+02  0.67431164980E+02  0.10658320387E+03  0.14616119405E+03  0.41800000000E+01 0. -1.
         -5    1    3    3    0  502  0.17888531709E+02 -0.36584753766E+02 -0.57753584780E+01  0.41343330059E+02  0.41800000000E+01 0. -1.
        -11    1    1    2    0    0 -0.46341558511E+02  0.31529535745E+02  0.87608472145E+01  0.56730980191E+02  0.00000000000E+00 0.  1.
         11    1    1    2    0    0 -0.45294385953E+02 -0.62375946958E+02  0.37923460291E+01  0.77179803357E+02  0.00000000000E+00 0. -1.
</event>
<event>
 7    1  0.1620881E-005  0.1091576E+03  0.7561462E-02  0.1262138E+00
          2   -1    0    0  501    0  0.00000000000E+00  0.00000000000E+00  0.76040672406E+03  0.76040672406E+03  0.00000000000E+00 0. -1.
         -2   -1    0    0    0  501 -0.00000000000E+00 -0.00000000000E+00 -0.23181079608E+02  0.23181079608E+02  0.00000000000E+00 0.  1.
         23    2    1    2    0    0  0.58124990604E+02 -0.48072520294E+02  0.38322345044E+03  0.41012620305E+03  0.12511517779E+03 0.  0.
          5    1    3    3  502    0 -0.69317296600E+01 -0.34201859824E+02  0.19195276601E+02  0.40046811799E+02  0.41800000000E+01 0.  1.
         -5    1    3    3    0  502  0.65056720264E+02 -0.13870660470E+02  0.36402817384E+03  0.37007939125E+03  0.41800000000E+01 0.  1.
        -11    1    1    2    0    0 -0.75013800799E+02  0.11046985026E+02  0.19208170139E+03  0.20650541445E+03  0.00000000000E+00 0.  1.
         11    1    1    2    0    0  0.16888810195E+02  0.37025535268E+02  0.16192049261E+03  0.16695618617E+03  0.00000000000E+00 0. -1.
</event>
<event>
 7    1  0.1620881E-005  0.1034010E+03  0.7561462E-02  0.1273303E+00
          2   -1    0    0  501    0  0.00000000000E+00  0.00000000000E+00  0.21199720455E+03  0.21199720455E+03  0.00000000000E+00 0. -1.
         -2   -1    0    0    0  501 -0.00000000000E+00 -0.00000000000E+00 -0.62092033849E+02  0.62092033849E+02  0.00000000000E+00 0.  1.
         23    2    1    2    0    0  0.30114867436E+01 -0.36455775131E+02  0.91525120375E+02  0.15925552876E+03  0.12508950071E+03 0.  0.
          5    1    3    3  502    0 -0.58806663104E+02 -0.33267725251E+02  0.40155723605E+02  0.78707812236E+02  0.41800000000E+01 0. -1.
         -5    1    3    3    0  502  0.61818149848E+02 -0.31880498798E+01  0.51369396771E+02  0.80547716524E+02  0.41800000000E+01 0. -1.
        -11    1    1    2    0    0  0.25720422626E+02  0.40575946828E+02  0.68870107823E+02  0.83970467145E+02  0.00000000000E+00 0. -1.
         11    1    1    2    0    0 -0.28731909369E+02 -0.41201716972E+01 -0.10490057497E+02  0.30863242492E+02  0.00000000000E+00 0.  1.
</event>
<event>
 7    1  0.1620881E-005  0.1059499E+03  0.7561462E-02  0.1268259E+00
         -2   -1    0    0    0  501 -0.00000000000E+00  0.00000000000E+00  0.92413636242E+03  0.92413636242E+03  0.00000000000E+00 0. -1.
          2   -1    0    0  501    0  0.00000000000E+00 -0.00000000000E+00 -0.17296348025E+02  0.17296348025E+02  0.00000000000E+00 0.  1.
         23    2    1    2    0    0  0.64762299900E+02  0.38636180071E+00  0.54774937730E+03  0.56556990570E+03  0.12508250529E+03 0.  0.
          5    1    3    3  502    0  0.94714525271E+02  0.25854714196E+01  0.50064813902E+03  0.50955231082E+03  0.41800000000E+01 0. -1.
         -5    1    3    3    0  502 -0.29952225372E+02 -0.21991096189E+01  0.47101238287E+02  0.56017594879E+02  0.41800000000E+01 0. -1.
        -11    1    1    2    0    0 -0.52959208628E+02 -0.25655098736E+02  0.33131928719E+03  0.33650457937E+03  0.00000000000E+00 0. -1.
         11    1    1    2    0    0 -0.11803091271E+02  0.25268736935E+02  0.27771349901E+02  0.39358225382E+02  0.00000000000E+00 0.  1.
</event>
<event>
 7    1  0.1620881E-005  0.2951260E+03  0.7561462E-02  0.1087703E+00
         -2   -1    0    0    0  501 -0.00000000000E+00  0.00000000000E+00  0.82984941931E+02  0.82984941931E+02  0.00000000000E+00 0.  1.
          2   -1    0    0  501    0  0.00000000000E+00 -0.00000000000E+00 -0.12333363354E+04  0.12333363354E+04  0.00000000000E+00 0. -1.
         23    2    1    2    0    0  0.13460165570E+03  0.25964480836E+03 -0.44132027196E+03  0.54400848416E+03  0.12509442904E+03 0.  0.
          5    1    3    3  502    0  0.36509960478E+02  0.31440321442E+02 -0.16724725110E+03  0.17409935791E+03  0.41800000000E+01 0. -1.
         -5    1    3    3    0  502  0.98091695219E+02  0.22820448691E+03 -0.27407302086E+03  0.36990912625E+03  0.41800000000E+01 0. -1.
        -11    1    1    2    0    0 -0.97083022360E+02 -0.20885413898E+03 -0.63229747333E+03  0.67293778270E+03  0.00000000000E+00 0. -1.
         11    1    1    2    0    0 -0.37518633337E+02 -0.50790669374E+02 -0.76733648175E+02  0.99375010466E+02  0.00000000000E+00 0.  1.
</event>
<event>
 7    1  0.1620881E-005  0.8324773E+02  0.7561462E-02  0.1320080E+00
         -1   -1    0    0    0  501 -0.00000000000E+00  0.00000000000E+00  0.35621259080E+02  0.35621259080E+02  0.00000000000E+00 0.  1.
          1   -1    0    0  501    0  0.00000000000E+00 -0.00000000000E+00 -0.26214668908E+03  0.26214668908E+03  0.00000000000E+00 0. -1.
         23    2    1    2    0    0  0.74277559063E+01  0.59359303250E+00 -0.80819581822E+02  0.14193951980E+03  0.11644525995E+03 0.  0.
          5    1    3    3  502    0  0.35438512603E+02  0.48956444263E+02 -0.44199178004E+02  0.74991075113E+02  0.41800000000E+01 0. -1.
         -5    1    3    3    0  502 -0.28010756696E+02 -0.48362851231E+02 -0.36620403818E+02  0.66948444684E+02  0.41800000000E+01 0.  1.
        -11    1    1    2    0    0  0.18087459078E+02  0.11705149446E+02 -0.98061954104E+02  0.10040076465E+03  0.00000000000E+00 0. -1.
         11    1    1    2    0    0 -0.25515214984E+02 -0.12298742478E+02 -0.47643894077E+02  0.55427663716E+02  0.00000000000E+00 0.  1.
</event>
<event>
 7    1  0.1620881E-005  0.1429990E+03  0.7561462E-02  0.1209350E+00
          1   -1    0    0  501    0  0.00000000000E+00  0.00000000000E+00  0.61174272139E+02  0.61174272139E+02  0.00000000000E+00 0. -1.
         -1   -1    0    0    0  501 -0.00000000000E+00 -0.00000000000E+00 -0.47882882730E+03  0.47882882730E+03  0.00000000000E+00 0.  1.
         23    2    1    2    0    0  0.19035713352E+02 -0.92896178687E+02 -0.36667567638E+03  0.39886193129E+03  0.12509088772E+03 0.  0.
          5    1    3    3  502    0 -0.51154056861E+02 -0.26697971784E+02 -0.17350752819E+03  0.18289847996E+03  0.41800000000E+01 0.  1.
         -5    1    3    3    0  502  0.70189770213E+02 -0.66198206903E+02 -0.19316814819E+03  0.21596345134E+03  0.41800000000E+01 0.  1.
        -11    1    1    2    0    0 -0.55992432330E+02  0.60394278321E+02 -0.30206239147E+02  0.87721366927E+02  0.00000000000E+00 0.  1.
         11    1    1    2    0    0  0.36956718978E+02  0.32501900366E+02 -0.20772639638E+02  0.53419801221E+02  0.00000000000E+00 0. -1.
</event>
<event>
 6    1  0.1620881E-005  0.1429069E+03  0.7561462E-02  0.1209470E+00
          1   -1    0    0  501    0  0.00000000000E+00  0.00000000000E+00  0.58449670843E+03  0.58449670843E+03  0.00000000000E+00 0. -1.
         -1   -1    0    0    0  501 -0.00000000000E+00 -0.00000000000E+00 -0.37625379105E+02  0.37625379105E+02  0.00000000000E+00 0.  1.
          5    1    1    2  502    0 -0.44004101515E+01  0.47689853939E+02  0.53920310518E+02  0.72239587932E+02  0.41800000000E+01 0. -1.
         -5    1    1    2    0  502  0.99487949536E+02 -0.50674746264E+02  0.23171863987E+03  0.25724848391E+03  0.41800000000E+01 0.  1.
        -11    1    1    2    0    0 -0.78551119050E+01  0.32874295018E+02  0.11403856066E+03  0.11894206730E+03  0.00000000000E+00 0. -1.
         11    1    1    2    0    0 -0.87232427479E+02 -0.29889402693E+02  0.14719381828E+03  0.17369194839E+03  0.00000000000E+00 0.  1.
</event>
<event>
 7    1  0.1620881E-005  0.5390569E+02  0.7561462E-02  0.1425346E+00
          2   -1    0    0  501    0  0.00000000000E+00  0.00000000000E+00  0.10111861584E+03  0.10111861584E+03  0.00000000000E+00 0. -1.
         -2   -1    0    0    0  501 -0.00000000000E+00 -0.00000000000E+00 -0.12786221526E+03  0.12786221526E+03  0.00000000000E+00 0.  1.
         23    2    1    2    0    0  0.16668705156E+02 -0.17386014956E+02 -0.34940600083E+02  0.13208941803E+03  0.12508656831E+03 0.  0.
          5    1    3    3  502    0  0.82404123258E+01  0.79223183111E+00 -0.81082633175E+02  0.81611260431E+02  0.41800000000E+01 0. -1.
         -5    1    3    3    0  502  0.84282928304E+01 -0.18178246788E+02  0.46142033092E+02  0.50478157595E+02  0.41800000000E+01 0. -1.
        -11    1    1    2    0    0  0.22181672595E+02  0.29921161763E+02 -0.24505709493E+02  0.44585113190E+02  0.00000000000E+00 0.  1.
         11    1    1    2    0    0 -0.38850377752E+02 -0.12535146807E+02  0.32702710153E+02  0.52306299891E+02  0.00000000000E+00 0. -1.
</event>
<event>
 7    1  0.1620881E-005  0.1673299E+03  0.7561462E-02  0.1180661E+00
         -1   -1    0    0    0  501 -0.00000000000E+00  0.00000000000E+00  0.40667170430E+02  0.40667170430E+02  0.00000000000E+00 0.  1.
          1   -1    0    0  501    0  0.00000000000E+00 -0.00000000000E+00 -0.84026304269E+03  0.84026304269E+03  0.00000000000E+00 0. -1.
         23    2    1    2    0    0 -0.76428135941E+02 -0.12078842855E+03 -0.50758513742E+03  0.54196071754E+03  0.12509053996E+03 0.  0.
          5    1    3    3  502    0 -0.10440461450E+03 -0.10304279610E+03 -0.32849541258E+03  0.35978444914E+03  0.41800000000E+01 0.  1.
         -5    1    3    3    0  502  0.27976478558E+02 -0.17745632448E+02 -0.17908972484E+03  0.18217626840E+03  0.41800000000E+01 0.  1.
        -11    1    1    2    0    0  0.23483703981E+02  0.90550873065E+02 -0.24414988666E+03  0.26145766793E+03  0.00000000000E+00 0. -1.
         11    1    1    2    0    0  0.52944431960E+02  0.30237555482E+02 -0.47860848177E+02  0.77511827648E+02  0.00000000000E+00 0.  1.
</event>
<event>
 7    1  0.1620881E-005  0.1298282E+03  0.7561462E-02  0.1227711E+00
          2   -1    0    0  501    0  0.00000000000E+00  0.00000000000E+00  0.43799834398E+03  0.43799834398E+03  0.00000000000E+00 0. -1.
         -2   -1    0    0    0  501 -0.00000000000E+00 -0.00000000000E+00 -0.62197236545E+02  0.62197236545E+02  0.00000000000E+00 0.  1.
         23    2    1    2    0    0  0.85103211499E+02 -0.12280294517E+02  0.64971880723E+02  0.16511430911E+03  0.12509207628E+03 0.  0.
          5    1    3    3  502    0  0.11088658213E+03 -0.15259908841E+02  0.77284165100E+02  0.13608458212E+03  0.41800000000E+01 0. -1.
         -5    1    3    3    0  502 -0.25783370632E+02  0.29796143244E+01 -0.12312284377E+02  0.29029726992E+02  0.41800000000E+01 0. -1.
        -11    1    1    2    0    0 -0.49527388210E+02 -0.36112388812E+02  0.11592341594E+03  0.13113087040E+03  0.00000000000E+00 0.  1.
         11    1    1    2    0    0 -0.35575823289E+02  0.48392683329E+02  0.19490581078E+03  0.20395040102E+03  0.00000000000E+00 0. -1.
</event>
<event>
 7    1  0.1620881E-005  0.1537358E+03  0.7561462E-02  0.1195956E+00
          1   -1    0    0  501    0  0.00000000000E+00  0.00000000000E+00  0.54062568559E+03  0.54062568559E+03  0.00000000000E+00 0.  1.
         -1   -1    0    0    0  501 -0.00000000000E+00 -0.00000000000E+00 -0.15442053805E+03  0.15442053805E+03  0.00000000000E+00 0. -1.
         23    2    1    2    0    0 -0.10662850681E+03 -0.90955500613E+02 -0.76866421841E+02  0.20297429005E+03  0.12509026364E+03 0.  0.
          5    1    3    3  502    0 -0.38717908668E+02 -0.89140122463E+02 -0.91285971080E+02  0.13340029535E+03  0.41800000000E+01 0.  1.
         -5    1    3    3    0  502 -0.67910598142E+02 -0.18153781497E+01  0.14419549239E+02  0.69573994697E+02  0.41800000000E+01 0.  1.
        -11    1    1    2    0    0  0.50210034825E+02  0.27592050968E+02  0.32504560721E+03  0.33005607954E+03  0.00000000000E+00 0.  1.
         11    1    1    2    0    0  0.56418471985E+02  0.63363449644E+02  0.13802596217E+03  0.16201585405E+03  0.00000000000E+00 0. -1.
</event>
<event>
 7    1  0.1620881E-005  0.8495528E+02  0.7561462E-02  0.1315550E+00
          2   -1    0    0  501    0  0.00000000000E+00  0.00000000000E+00  0.31170024173E+03  0.31170024173E+03  0.00000000000E+00 0. -1.
         -2   -1    0    0    0  501 -0.00000000000E+00 -0.00000000000E+00 -0.40667014385E+02  0.40667014385E+02  0.00000000000E+00 0.  1.
         23    2    1    2    0    0 -0.55191572340E+00  0.16375192359E+02  0.11864489395E+03  0.17318349313E+03  0.12508980732E+03 0.  0.
          5    1    3    3  502    0  0.12230132594E+02  0.47602742883E+02  0.12861687277E+03  0.13775111482E+03  0.41800000000E+01 0. -1.
         -5    1    3    3    0  502 -0.12782048318E+02 -0.31227550524E+02 -0.99719788206E+01  0.35432378308E+02  0.41800000000E+01 0. -1.
        -11    1    1    2    0    0  0.51652668193E+01  0.34810204552E+02  0.99045638742E+02  0.10511169714E+03  0.00000000000E+00 0. -1.
         11    1    1    2    0    0 -0.46133510959E+01 -0.51185396912E+02  0.53342694651E+02  0.74072065841E+02  0.00000000000E+00 0.  1.
</event>
<event>
 7    1  0.1620881E-005  0.1480871E+03  0.7561462E-02  0.1202843E+00
          1   -1    0    0  501    0  0.00000000000E+00  0.00000000000E+00  0.55195506418E+02  0.55195506418E+02  0.00000000000E+00 0. -1.
         -1   -1    0    0    0  501 -0.00000000000E+00 -0.00000000000E+00 -0.91841004082E+03  0.91841004082E+03  0.00000000000E+00 0.  1.
         23    2    1    2    0    0  0.98378854693E+02 -0.64604134932E+02 -0.79158437156E+03  0.81000477397E+03  0.12509925360E+03 0.  0.
          5    1    3    3  502    0  0.35968224078E+02  0.37024743216E+02 -0.27276963657E+03  0.27764238111E+03  0.41800000000E+01 0.  1.
         -5    1    3    3    0  502  0.62410630614E+02 -0.10162887815E+03 -0.51881473499E+03  0.53236239286E+03  0.41800000000E+01 0.  1.
        -11    1    1    2    0    0 -0.77728182294E+02  0.27246902594E+02 -0.25598495985E+01  0.82405199191E+02  0.00000000000E+00 0. -1.
         11    1    1    2    0    0 -0.20650672399E+02  0.37357232338E+02 -0.69070313241E+02  0.81195574077E+02  0.00000000000E+00 0.  1.
</event>
<event>
 7    1  0.1620881E-005  0.1114216E+03  0.7561462E-02  0.1257960E+00
         -1   -1    0    0    0  501 -0.00000000000E+00  0.00000000000E+00  0.13807692242E+03  0.13807692242E+03  0.00000000000E+00 0.  1.
          1   -1    0    0  501    0  0.00000000000E+00 -0.00000000000E+00 -0.10294311925E+03  0.10294311925E+03  0.00000000000E+00 0. -1.
         23    2    1    2    0    0 -0.19862955737E+01 -0.48368015047E+02  0.34435270355E+02  0.13847930862E+03  0.12508925142E+03 0.  0.
          5    1    3    3  502    0 -0.56114063147E+02 -0.16241358844E+02  0.45841347684E+02  0.74373862192E+02  0.41800000000E+01 0.  1.
         -5    1    3    3    0  502  0.54127767573E+02 -0.32126656203E+02 -0.11406077329E+02  0.64105446424E+02  0.41800000000E+01 0.  1.
        -11    1    1    2    0    0 -0.44136113413E+01  0.74326967539E+02  0.78335203119E+01  0.74868832694E+02  0.00000000000E+00 0.  1.
         11    1    1    2    0    0  0.63999069150E+01 -0.25958952491E+02 -0.71349874954E+01  0.27671900360E+02  0.00000000000E+00 0. -1.
</event>
<event>
 7    1  0.1620881E-005  0.1681989E+03  0.7561462E-02  0.1179739E+00
         -2   -1    0    0    0  501 -0.00000000000E+00  0.00000000000E+00  0.31719876805E+02  0.31719876805E+02  0.00000000000E+00 0. -1.
          2   -1    0    0  501    0  0.00000000000E+00 -0.00000000000E+00 -0.10816652375E+04  0.10816652375E+04  0.00000000000E+00 0.  1.
         23    2    1    2    0    0 -0.49502654666E+02  0.13696829520E+03 -0.55762351805E+03  0.58974234963E+03  0.12506488059E+03 0.  0.
          5    1    3    3  502    0  0.36792624630E+02  0.15994874156E+02 -0.16662484126E+03  0.17143757859E+03  0.41800000000E+01 0.  1.
         -5    1    3    3    0  502 -0.86295279296E+02  0.12097342105E+03 -0.39099867678E+03  0.41830477104E+03  0.41800000000E+01 0.  1.
        -11    1    1    2    0    0  0.21757131268E+02 -0.92226595346E+02 -0.43746677216E+03  0.44761176749E+03  0.00000000000E+00 0.  1.
         11    1    1    2    0    0  0.27745523398E+02 -0.44741699856E+02 -0.54855070477E+02  0.76030997177E+02  0.00000000000E+00 0. -1.
</event>
<event>
 7    1  0.1620881E-005  0.1406216E+03  0.7561462E-02  0.1212495E+00
          2   -1    0    0  501    0  0.00000000000E+00  0.00000000000E+00  0.11885605226E+03  0.11885605226E+03  0.00000000000E+00 0. -1.
         -2   -1    0    0    0  501 -0.00000000000E+00 -0.00000000000E+00 -0.17457586029E+03  0.17457586029E+03  0.00000000000E+00 0.  1.
         23    2    1    2    0    0  0.70146204368E+02  0.56785716661E+02 -0.48792016017E+02  0.16178118835E+03  0.12508950584E+03 0.  0.
          5    1    3    3  502    0  0.14192322913E+02  0.87417191792E+02 -0.39952655076E+02  0.97246462651E+02  0.41800000000E+01 0. -1.
         -5    1    3    3    0  502  0.55953881456E+02 -0.30631475131E+02 -0.88393609415E+01  0.64534725695E+02  0.41800000000E+01 0. -1.
        -11    1    1    2    0    0 -0.80158515634E+02 -0.99631733257E+01 -0.17422773023E+02  0.82632956326E+02  0.00000000000E+00 0. -1.
         11    1    1    2    0    0  0.10012311266E+02 -0.46822543335E+02  0.10494981013E+02  0.49017767877E+02  0.00000000000E+00 0.  1.
</event>
<event>
 7    1  0.1620881E-005  0.1563731E+03  0.7561462E-02  0.1192853E+00
         -2   -1    0    0    0  501 -0.00000000000E+00  0.00000000000E+00  0.10882435964E+03  0.10882435964E+03  0.00000000000E+00 0. -1.
          2   -1    0    0  501    0  0.00000000000E+00 -0.00000000000E+00 -0.46237194130E+03  0.46237194130E+03  0.00000000000E+00 0.  1.
         23    2    1    2    0    0 -0.13080912834E+03 -0.28466056767E+02 -0.96119228255E+00  0.18321533409E+03  0.12508233412E+03 0.  0.
          5    1    3    3  502    0 -0.65279601821E+02  0.38448608632E+02 -0.34890833272E+02  0.83513858526E+02  0.41800000000E+01 0.  1.
         -5    1    3    3    0  502 -0.65529526518E+02 -0.66914665398E+02  0.33929640989E+02  0.99701475560E+02  0.41800000000E+01 0.  1.
        -11    1    1    2    0    0  0.62638556278E+02  0.39512512915E+02 -0.27175398677E+03  0.28166479498E+03  0.00000000000E+00 0.  1.
         11    1    1    2    0    0  0.68170572061E+02 -0.11046456148E+02 -0.80832402616E+02  0.10631617187E+03  0.00000000000E+00 0. -1.
</event>
<event>
 6    1  0.1620881E-005  0.8679000E+02  0.7561462E-02  0.1310817E+00
          1   -1    0    0  501    0  0.00000000000E+00  0.00000000000E+00  0.44412949416E+03  0.44412949416E+03  0.00000000000E+00 0. -1.
         -1   -1    0    0    0  501 -0.00000000000E+00 -0.00000000000E+00 -0.19192527089E+03  0.19192527089E+03  0.00000000000E+00 0.  1.
          5    1    1    2  502    0 -0.20740816699E+02  0.20909753368E+02  0.15536991682E+02  0.33559942994E+02  0.41800000000E+01 0. -1.
         -5    1    1    2    0  502  0.34220223076E+02  0.13760225952E+02 -0.17395444409E+03  0.17787070726E+03  0.41800000000E+01 0.  1.
        -11    1    1    2    0    0  0.17032328407E+02  0.30399599808E+02  0.16830804944E+03  0.17187738474E+03  0.00000000000E+00 0.  1.
         11    1    1    2    0    0 -0.30511734784E+02 -0.65069579128E+02  0.24231362623E+03  0.25274673004E+03  0.00000000000E+00 0. -1.
</event>
<event>
 7    1  0.1620881E-005  0.1144526E+03  0.7561462E-02  0.1252540E+00
          2   -1    0    0  501    0  0.00000000000E+00  0.00000000000E+00  0.15461667146E+04  0.15461667146E+04  0.00000000000E+00 0. -1.
         -2   -1    0    0    0  501 -0.00000000000E+00 -0.00000000000E+00 -0.96549403798E+01  0.96549403798E+01  0.00000000000E+00 0.  1.
         23    2    1    2    0    0 -0.11655472306E+02 -0.54183345123E+02  0.95043085300E+03  0.96022774687E+03  0.12508730792E+03 0.  0.
          5    1    3    3  502    0 -0.59607683987E+02 -0.16866573180E+02  0.68919296515E+03  0.69198408428E+03  0.41800000000E+01 0. -1.
         -5    1    3    3    0  502  0.47952211682E+02 -0.37316771942E+02  0.26123788785E+03  0.26824366259E+03  0.41800000000E+01 0. -1.
        -11    1    1    2    0    0  0.31636896081E+02 -0.14193388912E+02  0.20502536501E+03  0.20793687931E+03  0.00000000000E+00 0.  1.
         11    1    1    2    0    0 -0.19981423775E+02  0.68376734034E+02  0.38105555623E+03  0.38765702881E+03  0.00000000000E+00 0. -1.
</event>
<event>
 7    1  0.1620881E-005  0.7612147E+02  0.7561462E-02  0.1340433E+00
         -2   -1    0    0    0  501 -0.00000000000E+00  0.00000000000E+00  0.31371204232E+03  0.31371204232E+03  0.00000000000E+00 0.  1.
          2   -1    0    0  501    0  0.00000000000E+00 -0.00000000000E+00 -0.55916694449E+02  0.55916694449E+02  0.00000000000E+00 0. -1.
         23    2    1    2    0    0  0.67180850604E+02  0.85760617870E+01  0.18772085789E+03  0.23552799808E+03  0.12508997509E+03 0.  0.
          5    1    3    3  502    0  0.55977080217E+02  0.32953020884E+01  0.20572929822E+03  0.21327519563E+03  0.41800000000E+01 0. -1.
         -5    1    3    3    0  502  0.11203770387E+02  0.52807596986E+01 -0.18008440328E+02  0.22252802451E+02  0.41800000000E+01 0. -1.
        -11    1    1    2    0    0 -0.35564518829E+02 -0.28496164884E+02  0.82893287159E+02  0.94594732774E+02  0.00000000000E+00 0.  1.
         11    1    1    2    0    0 -0.31616331775E+02  0.19920103097E+02 -0.12818797176E+02  0.39506005915E+02  0.00000000000E+00 0. -1.
</event>
<event>
 7    1  0.1620881E-005  0.6576048E+02  0.7561462E-02  0.1375134E+00
          1   -1    0    0  501    0  0.00000000000E+00  0.00000000000E+00  0.26335928096E+03  0.26335928096E+03  0.00000000000E+00 0. -1.
         -1   -1    0    0    0  501 -0.00000000000E+00 -0.00000000000E+00 -0.54883306247E+02  0.54883306247E+02  0.00000000000E+00 0.  1.
         23    2    1    2    0    0  0.37689679829E+02 -0.11478176808E+00  0.70060357610E+02  0.14824385316E+03  0.12508901291E+03 0.  0.
          5    1    3    3  502    0  0.10023497306E+02  0.58022296385E+01 -0.36181936862E+02  0.38219645761E+02  0.41800000000E+01 0. -1.
         -5    1    3    3    0  502  0.27666182523E+02 -0.59170114065E+01  0.10624229447E+03  0.11002420740E+03  0.41800000000E+01 0. -1.
        -11    1    1    2    0    0 -0.26239438990E+02  0.40707953756E+02  0.39607266278E+02  0.62565015780E+02  0.00000000000E+00 0. -1.
         11    1    1    2    0    0 -0.11450240839E+02 -0.40593171988E+02  0.98808350826E+02  0.10743371827E+03  0.00000000000E+00 0.  1.
</event>
<event>
 6    1  0.1620881E-005  0.1546513E+03  0.7561462E-02  0.1194871E+00
         -2   -1    0    0    0  501 -0.00000000000E+00  0.00000000000E+00  0.42370834309E+02  0.42370834309E+02  0.00000000000E+00 0.  1.
          2   -1    0    0  501    0  0.00000000000E+00 -0.00000000000E+00 -0.74463354583E+03  0.74463354583E+03  0.00000000000E+00 0. -1.
          5    1    1    2  502    0  0.12785961310E+03 -0.35975336146E+02 -0.41154727806E+03  0.43247073884E+03  0.41800000000E+01 0. -1.
         -5    1    1    2    0  502 -0.56494293927E+02  0.36035971461E+02 -0.36193100046E+02  0.76273254659E+02  0.41800000000E+01 0.  1.
        -11    1    1    2    0    0 -0.74676215555E+02  0.28937370556E+02 -0.15390461107E+03  0.17349506590E+03  0.00000000000E+00 0. -1.
         11    1    1    2    0    0  0.33108963862E+01 -0.28998005871E+02 -0.10061772235E+03  0.10476532075E+03  0.00000000000E+00 0.  1.
</event>
<event>
 7    1  0.1620881E-005  0.1249364E+03  0.7561462E-02  0.1235169E+00
          3   -1    0    0  501    0  0.00000000000E+00  0.00000000000E+00  0.83888385641E+02  0.83888385641E+02  0.00000000000E+00 0. -1.
         -3   -1    0    0    0  501 -0.00000000000E+00 -0.00000000000E+00 -0.42659208781E+03  0.42659208781E+03  0.00000000000E+00 0.  1.
         23    2    1    2    0    0 -0.77834961759E+02 -0.44564451393E+02 -0.34910472551E+03  0.38153027650E+03  0.12508785279E+03 0.  0.
          5    1    3    3  502    0 -0.87634443930E+02 -0.73395091380E+02 -0.21062987970E+03  0.23968532251E+03  0.41800000000E+01 0. -1.
         -5    1    3    3    0  502  0.97994821704E+01  0.28830639988E+02 -0.13847484581E+03  0.14184495400E+03  0.41800000000E+01 0. -1.
        -11    1    1    2    0    0  0.63840004010E+02  0.64699297551E+01  0.40553931534E+02  0.75908019773E+02  0.00000000000E+00 0. -1.
         11    1    1    2    0    0  0.13994957749E+02  0.38094521638E+02 -0.34152908190E+02  0.53042177171E+02  0.00000000000E+00 0.  1.
</event>
<event>
 7    1  0.1620881E-005  0.8262067E+02  0.7561462E-02  0.1321775E+00
         -1   -1    0    0    0  501 -0.00000000000E+00  0.00000000000E+00  0.50904148123E+03  0.50904148123E+03  0.00000000000E+00 0.  1.
          1   -1    0    0  501    0  0.00000000000E+00 -0.00000000000E+00 -0.30448495677E+02  0.30448495677E+02  0.00000000000E+00 0. -1.
         23    2    1    2    0    0  0.34374745861E+02 -0.23666183925E+02  0.32386868832E+03  0.34968565463E+03  0.12508964134E+03 0.  0.
          5    1    3    3  502    0  0.19514685873E+02  0.19927142053E+02  0.29238077965E+03  0.29373781960E+03  0.41800000000E+01 0.  1.
         -5    1    3    3    0  502  0.14860059988E+02 -0.43593325978E+02  0.31487908666E+02  0.55947835033E+02  0.41800000000E+01 0.  1.
        -11    1    1    2    0    0 -0.16880640311E+02  0.53559624653E+02  0.37392277175E+02  0.67466820013E+02  0.00000000000E+00 0. -1.
         11    1    1    2    0    0 -0.17494105549E+02 -0.29893440729E+02  0.11733202006E+03  0.12233750226E+03  0.00000000000E+00 0.  1.
</event>
<event>
 7    1  0.1620881E-005  0.1299480E+03  0.7561462E-02  0.1227533E+00
         -1   -1    0    0    0  501 -0.00000000000E+00  0.00000000000E+00  0.83684661111E+02  0.83684661111E+02  0.00000000000E+00 0.  1.
          1   -1    0    0  501    0  0.00000000000E+00 -0.00000000000E+00 -0.31626161368E+03  0.31626161368E+03  0.00000000000E+00 0. -1.
         23    2    1    2    0    0  0.92898904039E+02 -0.65581478699E+02 -0.76074925389E+02  0.18538350150E+03  0.12509401119E+03 0.  0.
          5    1    3    3  502    0  0.10858360238E+02 -0.15843834890E+02  0.34020506836E+02  0.39291199733E+02  0.41800000000E+01 0.  1.
         -5    1    3    3    0  502  0.82040543801E+02 -0.49737643809E+02 -0.11009543223E+03  0.14609230177E+03  0.41800000000E+01 0.  1.
        -11    1    1    2    0    0 -0.92997619478E+02  0.15684803998E+02 -0.82456256884E+02  0.12527411786E+03  0.00000000000E+00 0. -1.
         11    1    1    2    0    0  0.98715439734E-01  0.49896674701E+02 -0.74045770296E+02  0.89288655436E+02  0.00000000000E+00 0.  1.
</event>
<event>
 7    1  0.1620881E-005  0.1157276E+03  0.7561462E-02  0.1250316E+00
         -2   -1    0    0    0  501 -0.00000000000E+00  0.00000000000E+00  0.10072492402E+03  0.10072492402E+03  0.00000000000E+00 0.  1.
          2   -1    0    0  501    0  0.00000000000E+00 -0.00000000000E+00 -0.18502263087E+03  0.18502263087E+03  0.00000000000E+00 0. -1.
         23    2    1    2    0    0 -0.21356042062E+02 -0.59560177414E+02  0.10906486644E+02  0.14061143890E+03  0.12509648290E+03 0.  0.
          5    1    3    3  502    0 -0.45415250653E+02  0.20823564809E+02  0.24002749143E+02  0.55585701486E+02  0.41800000000E+01 0. -1.
         -5    1    3    3    0  502  0.24059208591E+02 -0.80383742223E+02 -0.13096262499E+02  0.85025737417E+02  0.41800000000E+01 0. -1.
        -11    1    1    2    0    0  0.47595171031E+02  0.50878062691E+02 -0.33044900812E+02  0.77109292814E+02  0.00000000000E+00 0.  1.
         11    1    1    2    0    0 -0.26239128969E+02  0.86821147239E+01 -0.62159292673E+02  0.68026823171E+02  0.00000000000E+00 0. -1.
</event>
<event>
 6    1  0.1620881E-005  0.3628568E+03  0.7561462E-02  0.1057458E+00
          1   -1    0    0  501    0  0.00000000000E+00  0.00000000000E+00  0.19462517066E+04  0.19462517066E+04  0.00000000000E+00 0. -1.
         -1   -1    0    0    0  501 -0.00000000000E+00 -0.00000000000E+00 -0.83305188351E+02  0.83305188351E+02  0.00000000000E+00 0.  1.
          5    1    1    2  502    0 -0.17808607876E+03 -0.20105199359E+03  0.90327880823E+03  0.94237287385E+03  0.41800000000E+01 0. -1.
         -5    1    1    2    0  502  0.20751352879E+03  0.11454053745E+03  0.26337223797E+03  0.35434983771E+03  0.41800000000E+01 0.  1.
        -11    1    1    2    0    0  0.86319371038E+02  0.42370356242E+02  0.40563413121E+03  0.41687567608E+03  0.00000000000E+00 0.  1.
         11    1    1    2    0    0 -0.11574682107E+03  0.44141099897E+02  0.29066134088E+03  0.31595850736E+03  0.00000000000E+00 0. -1.
</event>
<event>
 7    1  0.1620881E-005  0.1049022E+03  0.7561462E-02  0.1270312E+00
          1   -1    0    0  501    0  0.00000000000E+00  0.00000000000E+00  0.66539128930E+02  0.66539128930E+02  0.00000000000E+00 0. -1.
         -1   -1    0    0    0  501 -0.00000000000E+00 -0.00000000000E+00 -0.33350746908E+03  0.33350746908E+03  0.00000000000E+00 0.  1.
         23    2    1    2    0    0 -0.71042630435E+02 -0.55812537510E+02 -0.20717064041E+03  0.25832552678E+03  0.12510119446E+03 0.  0.
          5    1    3    3  502    0 -0.45122207184E+02 -0.92098922367E+01 -0.19872106567E+01  0.46284523357E+02  0.41800000000E+01 0.  1.
         -5    1    3    3    0  502 -0.25920423251E+02 -0.46602645273E+02 -0.20518342975E+03  0.21204100342E+03  0.41800000000E+01 0.  1.
        -11    1    1    2    0    0  0.19959424014E+01  0.38944542417E+02 -0.58898952672E+02  0.70638146890E+02  0.00000000000E+00 0.  1.
         11    1    1    2    0    0  0.69046688034E+02  0.16867995093E+02 -0.89874707167E+00  0.71082924343E+02  0.00000000000E+00 0. -1.
</event>
<event>
 7    1  0.1620881E-005  0.9566568E+02  0.7561462E-02  0.1289684E+00
          1   -1    0    0  501    0  0.00000000000E+00  0.00000000000E+00  0.16088973987E+03  0.16088973987E+03  0.00000000000E+00 0. -1.
         -1   -1    0    0    0  501 -0.00000000000E+00 -0.00000000000E+00 -0.18982145309E+03  0.18982145309E+03  0.00000000000E+00 0.  1.
         23    2    1    2    0    0 -0.37648018170E+02  0.58128798207E+02 -0.13393285628E+03  0.19591279000E+03  0.12508989105E+03 0.  0.
          5    1    3    3  502    0  0.55488051054E+01 -0.24431240419E+02  0.75087013289E+01  0.26486368987E+02  0.41800000000E+01 0.  1.
         -5    1    3    3    0  502 -0.43196823275E+02  0.82560038625E+02 -0.14144155761E+03  0.16942642101E+03  0.41800000000E+01 0.  1.
        -11    1    1    2    0    0  0.29831497967E+02 -0.25929168097E+02 -0.50691515232E+01  0.39848918760E+02  0.00000000000E+00 0.  1.
         11    1    1    2    0    0  0.78165202030E+01 -0.32199630110E+02  0.11007029459E+03  0.11494948420E+03  0.00000000000E+00 0. -1.
</event>
<event>
 7    1  0.1620881E-005  0.1040788E+03  0.7561462E-02  0.1271945E+00
          3   -1    0    0  501    0  0.00000000000E+00  0.00000000000E+00  0.15435848160E+03  0.15435848160E+03  0.00000000000E+00 0. -1.
         -3   -1    0    0    0  501 -0.00000000000E+00 -0.00000000000E+00 -0.86540504928E+02  0.86540504928E+02  0.00000000000E+00 0.  1.
         23    2    1    2    0    0  0.38417432339E+02 -0.28812839044E+01  0.25935527523E+02  0.13343847477E+03  0.12509585947E+03 0.  0.
          5    1    3    3  502    0  0.75894166155E+02  0.24147476932E+02 -0.10620357365E+01  0.79759798260E+02  0.41800000000E+01 0. -1.
         -5    1    3    3    0  502 -0.37476733816E+02 -0.27028760837E+02  0.26997563260E+02  0.53678676510E+02  0.41800000000E+01 0. -1.
        -11    1    1    2    0    0 -0.14778860878E+02  0.37376393474E+02 -0.94128596654E+01  0.41279673510E+02  0.00000000000E+00 0.  1.
         11    1    1    2    0    0 -0.23638571461E+02 -0.34495109570E+02  0.51295308812E+02  0.66180838247E+02  0.00000000000E+00 0. -1.
</event>
<event>
 7    1  0.1620881E-005  0.1160633E+03  0.7561462E-02  0.1249736E+00
         -3   -1    0    0    0  501 -0.00000000000E+00  0.00000000000E+00  0.36507786821E+03  0.36507786821E+03  0.00000000000E+00 0.  1.
          3   -1    0    0  501    0  0.00000000000E+00 -0.00000000000E+00 -0.11488325469E+03  0.11488325469E+03  0.00000000000E+00 0. -1.
         23    2    1    2    0    0  0.21645953680E+02  0.53446581439E+02  0.31897423235E+03  0.34719440105E+03  0.12439576696E+03 0.  0.
          5    1    3    3  502    0 -0.22165312942E+02  0.72665232014E+02  0.11680904704E+03  0.13940359720E+03  0.41800000000E+01 0. -1.
         -5    1    3    3    0  502  0.43811266622E+02 -0.19218650575E+02  0.20216518531E+03  0.20779080385E+03  0.41800000000E+01 0.  1.
        -11    1    1    2    0    0  0.31627279926E+02 -0.43566298335E+02 -0.54779229306E+02  0.76805410939E+02  0.00000000000E+00 0.  1.
         11    1    1    2    0    0 -0.53273233607E+02 -0.98802831034E+01 -0.14000389523E+02  0.55961310920E+02  0.00000000000E+00 0. -1.
</event>
<event>
 7    1  0.1620881E-005  0.1984191E+03  0.7561462E-02  0.1151080E+00
          2   -1    0    0  501    0  0.00000000000E+00  0.00000000000E+00  0.23897234227E+03  0.23897234227E+03  0.00000000000E+00 0. -1.
         -2   -1    0    0    0  501 -0.00000000000E+00 -0.00000000000E+00 -0.19382323758E+03  0.19382323758E+03  0.00000000000E+00 0.  1.
         23    2    1    2    0    0 -0.16758020133E+03  0.62401804139E+02 -0.27336715802E+02  0.21993612736E+03  0.12508994784E+03 0.  0.
          5    1    3    3  502    0 -0.16097344048E+03  0.80945209489E+01 -0.68743159819E+01  0.16137750286E+03  0.41800000000E+01 0.  1.
         -5    1    3    3    0  502 -0.66067608453E+01  0.54307283191E+02 -0.20462399821E+02  0.58558624496E+02  0.41800000000E+01 0.  1.
        -11    1    1    2    0    0  0.12704733472E+03 -0.58958773143E+02  0.12821005125E+02  0.14064686403E+03  0.00000000000E+00 0.  1.
         11    1    1    2    0    0  0.40532866605E+02 -0.34430309961E+01  0.59664815372E+02  0.72212588453E+02  0.00000000000E+00 0. -1.
</event>
<event>
 7    1  0.1620881E-005  0.1611470E+03  0.7561462E-02  0.1187408E+00
         -2   -1    0    0    0  501 -0.00000000000E+00  0.00000000000E+00  0.78728678378E+02  0.78728678378E+02  0.00000000000E+00 0.  1.
          2   -1    0    0  501    0  0.00000000000E+00 -0.00000000000E+00 -0.62154099492E+03  0.62154099492E+03  0.00000000000E+00 0. -1.
         23    2    1    2    0    0  0.10196871053E+03 -0.87235573466E+02 -0.64343681647E+02  0.19441067412E+03  0.12509091749E+03 0.  0.
          5    1    3    3  502    0  0.13088393378E+03 -0.63650224549E+02 -0.55625394367E+02  0.15586408215E+03  0.41800000000E+01 0.  1.
         -5    1    3    3    0  502 -0.28915223252E+02 -0.23585348917E+02 -0.87182872805E+01  0.38546591968E+02  0.41800000000E+01 0.  1.
        -11    1    1    2    0    0 -0.61350134352E+02  0.28284621458E+02 -0.36849734650E+03  0.37463869684E+03  0.00000000000E+00 0. -1.
         11    1    1    2    0    0 -0.40618576175E+02  0.58950952008E+02 -0.10997128840E+03  0.13122030234E+03  0.00000000000E+00 0.  1.
</event>
<event>
 7    1  0.1620881E-005  0.1214705E+03  0.7561462E-02  0.1240691E+00
          1   -1    0    0  501    0  0.00000000000E+00  0.00000000000E+00  0.41600036731E+03  0.41600036731E+03  0.00000000000E+00 0. -1.
         -1   -1    0    0    0  501 -0.00000000000E+00 -0.00000000000E+00 -0.41293421567E+02  0.41293421567E+02  0.00000000000E+00 0.  1.
         23    2    1    2    0    0  0.37051970249E+02 -0.59670299528E+02  0.17256937782E+03  0.22441235102E+03  0.12508924808E+03 0.  0.
          5    1    3    3  502    0 -0.39354051904E+02 -0.27089107357E+02  0.11105256850E+03  0.12096572453E+03  0.41800000000E+01 0. -1.
         -5    1    3    3    0  502  0.76406022153E+02 -0.32581192171E+02  0.61516809315E+02  0.10344662649E+03  0.41800000000E+01 0. -1.
        -11    1    1    2    0    0 -0.18776985605E+02  0.81333267201E+02  0.12152140339E+03  0.14742837930E+03  0.00000000000E+00 0.  1.
         11    1    1    2    0    0 -0.18274984644E+02 -0.21662967673E+02  0.80616164540E+02  0.85453058560E+02  0.00000000000E+00 0. -1.
</event>
<event>
 7    1  0.1620881E-005  0.2154539E+03  0.7561462E-02  0.1137318E+00
          2   -1    0    0  501    0  0.00000000000E+00  0.00000000000E+00  0.73894892153E+03  0.73894892153E+03  0.00000000000E+00 0. -1.
         -2   -1    0    0    0  501 -0.00000000000E+00 -0.00000000000E+00 -0.70564133036E+02  0.70564133036E+02  0.00000000000E+00 0.  1.
         23    2    1    2    0    0  0.10866970773E+03  0.16449860317E+03  0.28130030519E+03  0.36557602773E+03  0.12508826694E+03 0.  0.
          5    1    3    3  502    0  0.11739635857E+03  0.67296339312E+02  0.15247431991E+03  0.20390339115E+03  0.41800000000E+01 0. -1.
         -5    1    3    3    0  502 -0.87266508477E+01  0.97202263856E+02  0.12882598528E+03  0.16167263658E+03  0.41800000000E+01 0. -1.
        -11    1    1    2    0    0 -0.47290415193E+02 -0.86578206186E+02  0.28503277384E+03  0.30162203387E+03  0.00000000000E+00 0. -1.
         11    1    1    2    0    0 -0.61379292534E+02 -0.77920396982E+02  0.10205170946E+03  0.14231499296E+03  0.00000000000E+00 0.  1.
</event>
<event>
 7    1  0.1620881E-005  0.9780301E+02  0.7561462E-02  0.1284985E+00
          1   -1    0    0  501    0  0.00000000000E+00  0.00000000000E+00  0.13842462116E+03  0.13842462116E+03  0.00000000000E+00 0. -1.
         -1   -1    0    0    0  501 -0.00000000000E+00 -0.00000000000E+00 -0.85569690447E+02  0.85569690447E+02  0.00000000000E+00 0.  1.
         23    2    1    2    0    0 -0.10683184213E+01 -0.11043294862E+02  0.20905130597E+02  0.12730881178E+03  0.12508962150E+03 0.  0.
          5    1    3    3  502    0 -0.46087480904E+02 -0.30937556320E+02  0.45715702271E+02  0.72031841024E+02  0.41800000000E+01 0.  1.
         -5    1    3    3    0  502  0.45019162483E+02  0.19894261458E+02 -0.24810571674E+02  0.55276970760E+02  0.41800000000E+01 0.  1.
        -11    1    1    2    0    0  0.32146908339E+02 -0.26603014584E+02  0.20742827389E+02  0.46598379680E+02  0.00000000000E+00 0. -1.
         11    1    1    2    0    0 -0.31078589918E+02  0.37646309446E+02  0.11206972723E+02  0.50087120139E+02  0.00000000000E+00 0.  1.
</event>
<event>
 6    1  0.1620881E-005  0.2823357E+03  0.7561462E-02  0.1094420E+00
          4   -1    0    0  501    0  0.00000000000E+00  0.00000000000E+00  0.94692327736E+03  0.94692327736E+03  0.00000000000E+00 0. -1.
         -4   -1    0    0    0  501 -0.00000000000E+00 -0.00000000000E+00 -0.13009004637E+03  0.13009004637E+03  0.00000000000E+00 0.  1.
          5    1    1    2  502    0  0.15173728785E+03 -0.10648288720E+03  0.13735075154E+03  0.23074988870E+03  0.41800000000E+01 0. -1.
         -5    1    1    2    0  502 -0.17553706266E+02 -0.11192762913E+03 -0.22464247434E+01  0.11339508627E+03  0.41800000000E+01 0.  1.
        -11    1    1    2    0    0 -0.18483078248E+02  0.94734356310E+02  0.30288431801E+03  0.31789169939E+03  0.00000000000E+00 0. -1.
         11    1    1    2    0    0 -0.11570050333E+03  0.12367616002E+03  0.37884458619E+03  0.41497664936E+03  0.00000000000E+00 0.  1.
</event>
<event>
 7    1  0.1620881E-005  0.1608381E+03  0.7561462E-02  0.1187754E+00
          3   -1    0    0  501    0  0.00000000000E+00  0.00000000000E+00  0.23849120078E+03  0.23849120078E+03  0.00000000000E+00 0. -1.
         -3   -1    0    0    0  501 -0.00000000000E+00 -0.00000000000E+00 -0.17174914915E+03  0.17174914915E+03  0.00000000000E+00 0.  1.
         23    2    1    2    0    0  0.77082020618E+02 -0.12661273865E+03 -0.50058684084E+02  0.20031280866E+03  0.12508767313E+03 0.  0.
          5    1    3    3  502    0  0.89280802922E+02 -0.12906348039E+03 -0.90456615148E+01  0.15725056481E+03  0.41800000000E+01 0. -1.
         -5    1    3    3    0  502 -0.12198782304E+02  0.24507417397E+01 -0.41013022569E+02  0.43062243845E+02  0.41800000000E+01 0. -1.
        -11    1    1    2    0    0 -0.16421131597E+02  0.56549724014E+02 -0.24059394978E+01  0.58934823270E+02  0.00000000000E+00 0.  1.
         11    1    1    2    0    0 -0.60660889021E+02  0.70063014636E+02  0.11920667521E+03  0.15099271801E+03  0.00000000000E+00 0. -1.
</event>
<event>
 7    1  0.1620881E-005  0.1018204E+03  0.7561462E-02  0.1276514E+00
          1   -1    0    0  501    0  0.00000000000E+00  0.00000000000E+00  0.14480432087E+03  0.14480432087E+03  0.00000000000E+00 0. -1.
         -1   -1    0    0    0  501 -0.00000000000E+00 -0.00000000000E+00 -0.11232300846E+03  0.11232300846E+03  0.00000000000E+00 0.  1.
         23    2    1    2    0    0  0.58550838304E+02  0.22867531552E+02 -0.55325224823E+01  0.14010285814E+03  0.12508827839E+03 0.  0.
          5    1    3    3  502    0 -0.25396788491E+02  0.36418809932E+02 -0.27220206827E+02  0.52246900791E+02  0.41800000000E+01 0.  1.
         -5    1    3    3    0  502  0.83947626795E+02 -0.13551278380E+02  0.21687684344E+02  0.87855957353E+02  0.41800000000E+01 0.  1.
        -11    1    1    2    0    0 -0.35645888203E+02  0.69411815448E+01  0.62412039074E+02  0.72208531133E+02  0.00000000000E+00 0. -1.
         11    1    1    2    0    0 -0.22904950100E+02 -0.29808713097E+02 -0.24398204187E+02  0.44815940056E+02  0.00000000000E+00 0.  1.
</event>
<event>
 7    1  0.1620881E-005  0.7000059E+02  0.7561462E-02  0.1360091E+00
          2   -1    0    0  501    0  0.00000000000E+00  0.00000000000E+00  0.11189732192E+03  0.11189732192E+03  0.00000000000E+00 0.  1.
         -2   -1    0    0    0  501 -0.00000000000E+00 -0.00000000000E+00 -0.11764663946E+03  0.11764663946E+03  0.00000000000E+00 0. -1.
         23    2    1    2    0    0  0.39372270405E+02  0.16195810802E+02 -0.88006937097E+01  0.13242630512E+03  0.12508714607E+03 0.  0.
          5    1    3    3  502    0  0.18648297186E+02 -0.57599374153E+01 -0.65271347455E+02  0.68255088203E+02  0.41800000000E+01 0.  1.
         -5    1    3    3    0  502  0.20723973218E+02  0.21955748217E+02  0.56470653746E+02  0.64171216914E+02  0.41800000000E+01 0.  1.
        -11    1    1    2    0    0  0.10645383235E+01 -0.41725965341E+02 -0.17251898812E+02  0.45164338123E+02  0.00000000000E+00 0. -1.
         11    1    1    2    0    0 -0.40436808728E+02  0.25530154539E+02  0.20303274978E+02  0.51953318140E+02  0.00000000000E+00 0.  1.
</event>
<event>
 7    1  0.1620881E-005  0.1864937E+03  0.7561462E-02  0.1161662E+00
          1   -1    0    0  501    0  0.00000000000E+00  0.00000000000E+00  0.56562559918E+03  0.56562559918E+03  0.00000000000E+00 0.  1.
         -1   -1    0    0    0  501 -0.00000000000E+00 -0.00000000000E+00 -0.76907687557E+02  0.76907687557E+02  0.00000000000E+00 0. -1.
         23    2    1    2    0    0 -0.15355679186E+03  0.88531748526E+02  0.23888521105E+03  0.32269388733E+03  0.12509053538E+03 0.  0.
          5    1    3    3  502    0 -0.16280713077E+03  0.88779583735E+02  0.24755908462E+03  0.30933953691E+03  0.41800000000E+01 0. -1.
         -5    1    3    3    0  502  0.92503389126E+01 -0.24783520859E+00 -0.86738735775E+01  0.13354350419E+02  0.41800000000E+01 0. -1.
        -11    1    1    2    0    0  0.32650956822E+02 -0.21624857307E+02  0.13375727426E+03  0.13937262232E+03  0.00000000000E+00 0.  1.
         11    1    1    2    0    0  0.12090583503E+03 -0.66906891219E+02  0.11607542632E+03  0.18046677709E+03  0.00000000000E+00 0. -1.
</event>
<event>
 7    1  0.1620881E-005  0.1335517E+03  0.7561462E-02  0.1222279E+00
         -1   -1    0    0    0  501 -0.00000000000E+00  0.00000000000E+00  0.80313540952E+02  0.80313540952E+02  0.00000000000E+00 0.  1.
          1   -1    0    0  501    0  0.00000000000E+00 -0.00000000000E+00 -0.30264713348E+03  0.30264713348E+03  0.00000000000E+00 0. -1.
         23    2    1    2    0    0 -0.11130642275E+03  0.31090648903E+01 -0.10859422292E+03  0.19959642245E+03  0.12508893066E+03 0.  0.
          5    1    3    3  502    0 -0.10901641155E+03  0.41518906750E+02 -0.44905774147E+02  0.12506957487E+03  0.41800000000E+01 0. -1.
         -5    1    3    3    0  502 -0.22900111940E+01 -0.38409841860E+02 -0.63688448777E+02  0.74526847583E+02  0.41800000000E+01 0. -1.
        -11    1    1    2    0    0  0.56260593917E+02  0.26494882986E+01 -0.11494766448E+03  0.12800484282E+03  0.00000000000E+00 0. -1.
         11    1    1    2    0    0  0.55045828829E+02 -0.57585531889E+01  0.12082948762E+01  0.55359409163E+02  0.00000000000E+00 0.  1.
</event>
<event>
 7    1  0.1620881E-005  0.1261590E+03  0.7561462E-02  0.1233269E+00
          2   -1    0    0  501    0  0.00000000000E+00  0.00000000000E+00  0.61894619222E+03  0.61894619222E+03  0.00000000000E+00 0. -1.
         -2   -1    0    0    0  501 -0.00000000000E+00 -0.00000000000E+00 -0.28184702481E+02  0.28184702481E+02  0.00000000000E+00 0.  1.
         23    2    1    2    0    0  0.39054509211E+02 -0.54629720943E+02  0.24314469190E+03  0.28156188960E+03  0.12509234739E+03 0.  0.
          5    1    3    3  502    0 -0.19087205312E+02 -0.76766712695E+02  0.12535311289E+03  0.14828460775E+03  0.41800000000E+01 0. -1.
         -5    1    3    3    0  502  0.58141714523E+02  0.22136991752E+02  0.11779157900E+03  0.13327728184E+03  0.41800000000E+01 0. -1.
        -11    1    1    2    0    0  0.99163439235E+01 -0.19516713712E+02  0.42931971264E+02  0.48191183297E+02  0.00000000000E+00 0.  1.
         11    1    1    2    0    0 -0.48970853134E+02  0.74146434654E+02  0.30468482658E+03  0.31737782181E+03  0.00000000000E+00 0. -1.
</event>
<event>
 7    1  0.1620881E-005  0.2129428E+03  0.7561462E-02  0.1139257E+00
          2   -1    0    0  501    0  0.00000000000E+00  0.00000000000E+00  0.61711335643E+03  0.61711335643E+03  0.00000000000E+00 0. -1.
         -2   -1    0    0    0  501 -0.00000000000E+00 -0.00000000000E+00 -0.10007301832E+03  0.10007301832E+03  0.00000000000E+00 0.  1.
         23    2    1    2    0    0 -0.17833144964E+03 -0.11171339481E+03  0.15793370444E+03  0.29132804718E+03  0.12508791936E+03 0.  0.
          5    1    3    3  502    0 -0.15277094989E+03 -0.11200536944E+03  0.73875544478E+02  0.20336969879E+03  0.41800000000E+01 0. -1.
         -5    1    3    3    0  502 -0.25560499743E+02  0.29197462891E+00  0.84058159958E+02  0.87958348392E+02  0.41800000000E+01 0. -1.
        -11    1    1    2    0    0  0.10413540150E+03  0.68466824355E+02  0.12507142319E+03  0.17656372442E+03  0.00000000000E+00 0.  1.
         11    1    1    2    0    0  0.74196048136E+02  0.43246570454E+02  0.23403521048E+03  0.24929460315E+03  0.00000000000E+00 0. -1.
</event>
<event>
 7    1  0.1620881E-005  0.1160587E+03  0.7561462E-02  0.1249744E+00
         -2   -1    0    0    0  501 -0.00000000000E+00  0.00000000000E+00  0.30213272381E+02  0.30213272381E+02  0.00000000000E+00 0.  1.
          2   -1    0    0  501    0  0.00000000000E+00 -0.00000000000E+00 -0.49543314340E+03  0.49543314340E+03  0.00000000000E+00 0. -1.
         23    2    1    2    0    0 -0.20522658277E+02 -0.54599326342E+02 -0.25290147491E+03  0.28811450413E+03  0.12509414669E+03 0.  0.
          5    1    3    3  502    0 -0.64780537575E+02 -0.63997920735E+02 -0.14839147699E+03  0.17415439917E+03  0.41800000000E+01 0.  1.
         -5    1    3    3    0  502  0.44257879297E+02  0.93985943927E+01 -0.10450999792E+03  0.11396010495E+03  0.41800000000E+01 0.  1.
        -11    1    1    2    0    0  0.44422503352E+02  0.10940622116E+02 -0.15504287541E+03  0.16165193854E+03  0.00000000000E+00 0.  1.
         11    1    1    2    0    0 -0.23899845075E+02  0.43658704226E+02 -0.57275520693E+02  0.75879973115E+02  0.00000000000E+00 0. -1.
</event>
<event>
 7    1  0.1620881E-005  0.8049488E+02  0.7561462E-02  0.1327653E+00
         -3   -1    0    0    0  501 -0.00000000000E+00  0.00000000000E+00  0.68213702004E+03  0.68213702004E+03  0.00000000000E+00 0.  1.
          3   -1    0    0  501    0  0.00000000000E+00 -0.00000000000E+00 -0.55463113713E+02  0.55463113713E+02  0.00000000000E+00 0. -1.
         23    2    1    2    0    0  0.43714682711E+02  0.81634092643E+01  0.62184713261E+03  0.63553785067E+03  0.12343779229E+03 0.  0.
          5    1    3    3  502    0  0.50094965887E+02  0.10609282767E+02  0.90010093064E+02  0.10364049277E+03  0.41800000000E+01 0. -1.
         -5    1    3    3    0  502 -0.63802831765E+01 -0.24458735024E+01  0.53183703954E+03  0.53189735790E+03  0.41800000000E+01 0.  1.
        -11    1    1    2    0    0 -0.35166466137E+00 -0.44820624052E+02  0.62963768133E+01  0.45262085342E+02  0.00000000000E+00 0.  1.
         11    1    1    2    0    0 -0.43363018049E+02  0.36657214788E+02 -0.14696030938E+01  0.56800197743E+02  0.00000000000E+00 0. -1.
</event>
<event>
 7    1  0.1620881E-005  0.9863291E+02  0.7561462E-02  0.1283197E+00
          1   -1    0    0  501    0  0.00000000000E+00  0.00000000000E+00  0.83137073362E+02  0.83137073362E+02  0.00000000000E+00 0. -1.
         -1   -1    0    0    0  501 -0.00000000000E+00 -0.00000000000E+00 -0.19455635135E+03  0.19455635135E+03  0.00000000000E+00 0.  1.
         23    2    1    2    0    0 -0.43665106449E+02 -0.32638309247E+02 -0.11532147963E+03  0.17861460186E+03  0.12502892299E+03 0.  0.
          5    1    3    3  502    0  0.31082840084E+02  0.88695864814E+01  0.28268937788E+01  0.32715076654E+02  0.41800000000E+01 0. -1.
         -5    1    3    3    0  502 -0.74747946532E+02 -0.41507895729E+02 -0.11814837340E+03  0.14589952521E+03  0.41800000000E+01 0. -1.
        -11    1    1    2    0    0  0.76091917620E+01  0.41295620680E+02  0.31801920890E+02  0.52674379531E+02  0.00000000000E+00 0. -1.
         11    1    1    2    0    0  0.36055914687E+02 -0.86573114330E+01 -0.27899719254E+02  0.46404443317E+02  0.00000000000E+00 0.  1.
</event>
<event>
 7    1  0.1620881E-005  0.9134984E+02  0.7561462E-02  0.1299615E+00
          1   -1    0    0  501    0  0.00000000000E+00  0.00000000000E+00  0.29192808806E+02  0.29192808806E+02  0.00000000000E+00 0. -1.
         -1   -1    0    0    0  501 -0.00000000000E+00 -0.00000000000E+00 -0.59047876642E+03  0.59047876642E+03  0.00000000000E+00 0.  1.
         23    2    1    2    0    0  0.53997738716E+02 -0.10812628359E+02 -0.43279990521E+03  0.45385827242E+03  0.12505560673E+03 0.  0.
          5    1    3    3  502    0 -0.11139603536E+02  0.19809817951E+02 -0.10384728302E+02  0.25334455513E+02  0.41800000000E+01 0. -1.
         -5    1    3    3    0  502  0.65137342252E+02 -0.30622446310E+02 -0.42241517691E+03  0.42852381691E+03  0.41800000000E+01 0. -1.
        -11    1    1    2    0    0 -0.50232551391E+02  0.36143663999E+02 -0.12563039932E+03  0.14004524591E+03  0.00000000000E+00 0.  1.
         11    1    1    2    0    0 -0.37651873254E+01 -0.25331035641E+02 -0.28556530854E+01  0.25768056907E+02  0.00000000000E+00 0. -1.
</event>
<event>
 7    1  0.1620881E-005  0.1090692E+03  0.7561462E-02  0.1262303E+00
          1   -1    0    0  501    0  0.00000000000E+00  0.00000000000E+00  0.78652878166E+02  0.78652878166E+02  0.00000000000E+00 0. -1.
         -1   -1    0    0    0  501 -0.00000000000E+00 -0.00000000000E+00 -0.24046616789E+03  0.24046616789E+03  0.00000000000E+00 0.  1.
         23    2    1    2    0    0  0.60299945659E+02 -0.27830436056E+02 -0.15246019132E+03  0.20809282777E+03  0.12509156012E+03 0.  0.
          5    1    3    3  502    0  0.73636757111E+02 -0.45398814484E+02 -0.43640197922E+02  0.96981254008E+02  0.41800000000E+01 0.  1.
         -5    1    3    3    0  502 -0.13336811453E+02  0.17568378428E+02 -0.10881999340E+03  0.11111157376E+03  0.41800000000E+01 0.  1.
        -11    1    1    2    0    0 -0.62162762986E+02 -0.16814848962E+02  0.36154592293E+01  0.64498215426E+02  0.00000000000E+00 0.  1.
         11    1    1    2    0    0  0.18628173277E+01  0.44645285018E+02 -0.12968557627E+02  0.46528002855E+02  0.00000000000E+00 0. -1.
</event>
<event>
 7    1  0.1620881E-005  0.2638631E+03  0.7561462E-02  0.1104844E+00
         -2   -1    0    0    0  501 -0.00000000000E+00  0.00000000000E+00  0.10858659862E+03  0.10858659862E+03  0.00000000000E+00 0.  1.
          2   -1    0    0  501    0  0.00000000000E+00 -0.00000000000E+00 -0.70189183927E+03  0.70189183927E+03  0.00000000000E+00 0. -1.
         23    2    1    2    0    0 -0.61622247048E+02 -0.23581416417E+03 -0.20866896220E+03  0.34437752323E+03  0.12509005302E+03 0.  0.
          5    1    3    3  502    0 -0.89528725924E+02 -0.12712738622E+03 -0.15618706494E+03  0.22042830297E+03  0.41800000000E+01 0.  1.
         -5    1    3    3    0  502  0.27906478876E+02 -0.10868677795E+03 -0.52481897256E+02  0.12394922026E+03  0.41800000000E+01 0.  1.
        -11    1    1    2    0    0  0.77362397557E+02  0.11844646944E+03 -0.17193165562E+03  0.22265444277E+03  0.00000000000E+00 0.  1.
         11    1    1    2    0    0 -0.15740150509E+02  0.11736769473E+03 -0.21270462283E+03  0.24344647190E+03  0.00000000000E+00 0. -1.
</event>
<event>
 7    1  0.1620881E-005  0.1302236E+03  0.7561462E-02  0.1227124E+00
          1   -1    0    0  501    0  0.00000000000E+00  0.00000000000E+00  0.34457844280E+03  0.34457844280E+03  0.00000000000E+00 0. -1.
         -1   -1    0    0    0  501 -0.00000000000E+00 -0.00000000000E+00 -0.63070058043E+02  0.63070058043E+02  0.00000000000E+00 0.  1.
         23    2    1    2    0    0  0.44677997065E+02  0.64289196348E+02  0.67491049765E+02  0.16226986526E+03  0.12508894110E+03 0.  0.
          5    1    3    3  502    0 -0.33957684133E+02  0.59227935672E+02  0.26549704931E+02  0.73371874091E+02  0.41800000000E+01 0.  1.
         -5    1    3    3    0  502  0.78635681199E+02  0.50612606762E+01  0.40941344834E+02  0.88897991170E+02  0.41800000000E+01 0.  1.
        -11    1    1    2    0    0  0.17937981130E+02 -0.43676482830E+02  0.50815258930E+02  0.69365674937E+02  0.00000000000E+00 0.  1.
         11    1    1    2    0    0 -0.62615978195E+02 -0.20612713518E+02  0.16320207606E+03  0.17601296065E+03  0.00000000000E+00 0. -1.
</event>
<event>
 7    1  0.1620881E-005  0.1258688E+03  0.7561462E-02  0.1233718E+00
          1   -1    0    0  501    0  0.00000000000E+00  0.00000000000E+00  0.44499715803E+02  0.44499715803E+02  0.00000000000E+00 0. -1.
         -1   -1    0    0    0  501 -0.00000000000E+00 -0.00000000000E+00 -0.47906280854E+03  0.47906280854E+03  0.00000000000E+00 0.  1.
         23    2    1    2    0    0 -0.95150094353E+02  0.21622744075E+01 -0.24912449262E+03  0.29456639208E+03  0.12509248831E+03 0.  0.
          5    1    3    3  502    0 -0.76305329663E+02 -0.33733844954E+02 -0.23812410761E+03  0.25235102270E+03  0.41800000000E+01 0. -1.
         -5    1    3    3    0  502 -0.18844764690E+02  0.35896119361E+02 -0.11000385009E+02  0.42215369379E+02  0.41800000000E+01 0. -1.
        -11    1    1    2    0    0  0.57184397571E+02  0.40698841868E+02 -0.13726255908E+03  0.15416699122E+03  0.00000000000E+00 0. -1.
         11    1    1    2    0    0  0.37965696783E+02 -0.42861116275E+02 -0.48176041031E+02  0.74829141048E+02  0.00000000000E+00 0.  1.
</event>
<event>
 7    1  0.1620881E-005  0.1344154E+03  0.7561462E-02  0.1221047E+00
          2   -1    0    0  501    0  0.00000000000E+00  0.00000000000E+00  0.78337460537E+03  0.78337460537E+03  0.00000000000E+00 0. -1.
         -2   -1    0    0    0  501 -0.00000000000E+00 -0.00000000000E+00 -0.35625899286E+02  0.35625899286E+02  0.00000000000E+00 0.  1.
         23    2    1    2    0    0  0.81501618855E+02  0.63998811480E+01  0.32055334195E+03  0.35371710673E+03  0.12521131818E+03 0.  0.
          5    1    3    3  502    0 -0.81881879045E+01  0.46250345969E+02  0.14593033653E+03  0.15335995710E+03  0.41800000000E+01 0.  1.
         -5    1    3    3    0  502  0.89689806760E+02 -0.39850464821E+02  0.17462300542E+03  0.20035714962E+03  0.41800000000E+01 0.  1.
        -11    1    1    2    0    0  0.16134810188E+02 -0.19077999359E+02 -0.18803241574E+01  0.25056691288E+02  0.00000000000E+00 0.  1.
         11    1    1    2    0    0 -0.97636429043E+02  0.12678118211E+02  0.42907568829E+03  0.44022670664E+03  0.00000000000E+00 0. -1.
</event>
<event>
 7    1  0.1620881E-005  0.7938038E+02  0.7561462E-02  0.1330819E+00
         -1   -1    0    0    0  501 -0.00000000000E+00  0.00000000000E+00  0.55465581555E+02  0.55465581555E+02  0.00000000000E+00 0.  1.
          1   -1    0    0  501    0  0.00000000000E+00 -0.00000000000E+00 -0.25283050780E+03  0.25283050780E+03  0.00000000000E+00 0. -1.
         23    2    1    2    0    0 -0.37352397499E+02  0.23372114402E+02 -0.87628551229E+02  0.15895849468E+03  0.12509029823E+03 0.  0.
          5    1    3    3  502    0  0.16382932879E+02  0.29119402222E+02  0.19490720916E+02  0.38906306395E+02  0.41800000000E+01 0.  1.
         -5    1    3    3    0  502 -0.53735330377E+02 -0.57472878201E+01 -0.10711927215E+03  0.12005218829E+03  0.41800000000E+01 0.  1.
        -11    1    1    2    0    0 -0.13227969289E+02 -0.14332108385E+02 -0.93409815500E+02  0.95424221946E+02  0.00000000000E+00 0. -1.
         11    1    1    2    0    0  0.50580366788E+02 -0.90400060169E+01 -0.16326559521E+02  0.53913372729E+02  0.00000000000E+00 0.  1.
</event>
<event>
 7    1  0.1620881E-005  0.9559617E+02  0.7561462E-02  0.1289839E+00
          2   -1    0    0  501    0  0.00000000000E+00  0.00000000000E+00  0.50878587631E+02  0.50878587631E+02  0.00000000000E+00 0. -1.
         -2   -1    0    0    0  501 -0.00000000000E+00 -0.00000000000E+00 -0.26442057540E+03  0.26442057540E+03  0.00000000000E+00 0.  1.
         23    2    1    2    0    0  0.47951717267E+01 -0.29872564974E+02 -0.16636156523E+03  0.21033780953E+03  0.12510179825E+03 0.  0.
          5    1    3    3  502    0  0.24720358601E+02  0.44681425346E+02 -0.71961554151E+02  0.88337215126E+02  0.41800000000E+01 0. -1.
         -5    1    3    3    0  502 -0.19925186875E+02 -0.74553990319E+02 -0.94400011078E+02  0.12200059441E+03  0.41800000000E+01 0. -1.
        -11    1    1    2    0    0  0.32226406028E+01  0.45232510159E+02  0.89461551226E+01  0.46221197293E+02  0.00000000000E+00 0. -1.
         11    1    1    2    0    0 -0.80178123295E+01 -0.15359945185E+02 -0.56126577659E+02  0.58740156200E+02  0.00000000000E+00 0.  1.
</event>
<event>
 7    1  0.1620881E-005  0.1140703E+03  0.7561462E-02  0.1253213E+00
          2   -1    0    0  501    0  0.00000000000E+00  0.00000000000E+00  0.49677717015E+02  0.49677717015E+02  0.00000000000E+00 0. -1.
         -2   -1    0    0    0  501 -0.00000000000E+00 -0.00000000000E+00 -0.68438718778E+03  0.68438718778E+03  0.00000000000E+00 0.  1.
         23    2    1    2    0    0 -0.30788128612E+01 -0.95669710408E+02 -0.56184652413E+03  0.58350671748E+03  0.12508557104E+03 0.  0.
          5    1    3    3  502    0  0.17835294112E+02 -0.11446031761E+01 -0.35077179020E+03  0.35125166054E+03  0.41800000000E+01 0. -1.
         -5    1    3    3    0  502 -0.20914106973E+02 -0.94525107232E+02 -0.21107473393E+03  0.23225505694E+03  0.41800000000E+01 0. -1.
        -11    1    1    2    0    0 -0.19734838417E+02  0.64007300673E+01 -0.52143433967E+02  0.56119256041E+02  0.00000000000E+00 0.  1.
         11    1    1    2    0    0  0.22813651278E+02  0.89268980341E+02 -0.20719512666E+02  0.94438931278E+02  0.00000000000E+00 0. -1.
</event>
<event>
 7    1  0.1620881E-005  0.1858744E+03  0.7561462E-02  0.1162236E+00
         -1   -1    0    0    0  501 -0.00000000000E+00  0.00000000000E+00  0.72139382660E+02  0.72139382660E+02  0.00000000000E+00 0.  1.
          1   -1    0    0  501    0  0.00000000000E+00 -0.00000000000E+00 -0.81164514040E+03  0.81164514040E+03  0.00000000000E+00 0. -1.
         23    2    1    2    0    0  0.16118330479E+03  0.60959812392E+02 -0.14270379845E+03  0.25633544518E+03  0.12508928767E+03 0.  0.
          5    1    3    3  502    0 -0.10649521845E+01 -0.17765220105E+02 -0.50586831448E+02  0.53788819326E+02  0.41800000000E+01 0.  1.
         -5    1    3    3    0  502  0.16224825698E+03  0.78725032497E+02 -0.92116967003E+02  0.20254662585E+03  0.41800000000E+01 0.  1.
        -11    1    1    2    0    0 -0.50403558082E+02 -0.11174256727E+02 -0.70900630153E+02  0.87705655672E+02  0.00000000000E+00 0.  1.
         11    1    1    2    0    0 -0.11077974671E+03 -0.49785555665E+02 -0.52590132913E+03  0.53974342221E+03  0.00000000000E+00 0. -1.
</event>
<event>
 7    1  0.1620881E-005  0.1287598E+03  0.7561462E-02  0.1229308E+00
          1   -1    0    0  501    0  0.00000000000E+00  0.00000000000E+00  0.43366484110E+03  0.43366484110E+03  0.00000000000E+00 0. -1.
         -1   -1    0    0    0  501 -0.00000000000E+00 -0.00000000000E+00 -0.44234470825E+02  0.44234470825E+02  0.00000000000E+00 0.  1.
         23    2    1    2    0    0 -0.52384172746E+01  0.76737958023E+02  0.14518699444E+03  0.20649876989E+03  0.12508526451E+03 0.  0.
          5    1    3    3  502    0 -0.53006822397E+02  0.82590596184E+02  0.90928204908E+02  0.13385193553E+03  0.41800000000E+01 0.  1.
         -5    1    3    3    0  502  0.47768405123E+02 -0.58526381605E+01  0.54258789528E+02  0.72646834359E+02  0.41800000000E+01 0.  1.
        -11    1    1    2    0    0  0.40749911578E+02 -0.57858742475E+02  0.10620966711E+03  0.12762712393E+03  0.00000000000E+00 0.  1.
         11    1    1    2    0    0 -0.35511494304E+02 -0.18879215549E+02  0.13803370873E+03  0.14377341811E+03  0.00000000000E+00 0. -1.
</event>
<event>
 7    1  0.1620881E-005  0.8423705E+02  0.7561462E-02  0.1317440E+00
         -2   -1    0    0    0  501 -0.00000000000E+00  0.00000000000E+00  0.14597205532E+03  0.14597205532E+03  0.00000000000E+00 0.  1.
          2   -1    0    0  501    0  0.00000000000E+00 -0.00000000000E+00 -0.10558187448E+03  0.10558187448E+03  0.00000000000E+00 0. -1.
         23    2    1    2    0    0 -0.31781640692E+02  0.18970565448E+02  0.69503945208E+02  0.14782421122E+03  0.12510493190E+03 0.  0.
          5    1    3    3  502    0 -0.37423078890E+02  0.40949132195E+02 -0.17099826759E+02  0.58199611135E+02  0.41800000000E+01 0.  1.
         -5    1    3    3    0  502  0.56414381977E+01 -0.21978566747E+02  0.86603771968E+02  0.89624600084E+02  0.41800000000E+01 0.  1.
        -11    1    1    2    0    0  0.54854352374E+02 -0.31764900334E+02  0.13855265028E+01  0.63402906490E+02  0.00000000000E+00 0.  1.
         11    1    1    2    0    0 -0.23072711682E+02  0.12794334886E+02 -0.30499290877E+02  0.40326812092E+02  0.00000000000E+00 0. -1.
</event>
<event>
 7    1  0.1620881E-005  0.6235942E+02  0.7561462E-02  0.1388189E+00
         -1   -1    0    0    0  501 -0.00000000000E+00  0.00000000000E+00  0.24762835766E+03  0.24762835766E+03  0.00000000000E+00 0.  1.
          1   -1    0    0  501    0  0.00000000000E+00 -0.00000000000E+00 -0.54106039831E+02  0.54106039831E+02  0.00000000000E+00 0. -1.
         23    2    1    2    0    0 -0.32528515345E+02 -0.23063275909E+02  0.11846662658E+03  0.17683377044E+03  0.12508325927E+03 0.  0.
          5    1    3    3  502    0 -0.29622353644E+02 -0.34199549132E+02 -0.11031964696E+02  0.46757562397E+02  0.41800000000E+01 0.  1.
         -5    1    3    3    0  502 -0.29061617016E+01  0.11136273223E+02  0.12949859128E+03  0.13007620805E+03  0.41800000000E+01 0.  1.
        -11    1    1    2    0    0  0.32220267836E+02  0.39287190203E+02  0.28451537246E+01  0.50889329660E+02  0.00000000000E+00 0. -1.
         11    1    1    2    0    0  0.30824750902E+00 -0.16223914294E+02  0.72210537526E+02  0.74011297390E+02  0.00000000000E+00 0.  1.
</event>
<event>
 7    1  0.1620881E-005  0.1120943E+03  0.7561462E-02  0.1256740E+00
         -1   -1    0    0    0  501 -0.00000000000E+00  0.00000000000E+00  0.10916459259E+04  0.10916459259E+04  0.00000000000E+00 0.  1.
          1   -1    0    0  501    0  0.00000000000E+00 -0.00000000000E+00 -0.12293685764E+02  0.12293685764E+02  0.00000000000E+00 0. -1.
         23    2    1    2    0    0 -0.35902234077E+02  0.21967657398E+02  0.59400536542E+03  0.60849216841E+03  0.12509514974E+03 0.  0.
          5    1    3    3  502    0  0.37037931824E+02  0.34493551930E+02  0.34402434026E+03  0.34775254508E+03  0.41800000000E+01 0. -1.
         -5    1    3    3    0  502 -0.72940165901E+02 -0.12525894532E+02  0.24998102516E+03  0.26073962333E+03  0.41800000000E+01 0. -1.
        -11    1    1    2    0    0 -0.24228546498E+02  0.15186462012E+02  0.12429436992E+03  0.12754113645E+03  0.00000000000E+00 0. -1.
         11    1    1    2    0    0  0.60130780575E+02 -0.37154119410E+02  0.36105250478E+03  0.36790630678E+03  0.00000000000E+00 0.  1.
</event>
<event>
 7    1  0.1620881E-005  0.1249145E+03  0.7561462E-02  0.1235203E+00
          1   -1    0    0  501    0  0.00000000000E+00  0.00000000000E+00  0.79570695761E+02  0.79570695761E+02  0.00000000000E+00 0. -1.
         -1   -1    0    0    0  501 -0.00000000000E+00 -0.00000000000E+00 -0.30620731011E+03  0.30620731011E+03  0.00000000000E+00 0.  1.
         23    2    1    2    0    0 -0.70590728478E+02  0.79452524199E+02 -0.16317581298E+03  0.23145177654E+03  0.12509126417E+03 0.  0.
          5    1    3    3  502    0 -0.54220686369E+02  0.28571074949E+02 -0.16676408237E+03  0.17771865609E+03  0.41800000000E+01 0.  1.
         -5    1    3    3    0  502 -0.16370042109E+02  0.50881449250E+02  0.35882693828E+01  0.53733120453E+02  0.41800000000E+01 0.  1.
        -11    1    1    2    0    0  0.87860764367E+01  0.17630832744E+02 -0.27352961155E+02  0.33707949898E+02  0.00000000000E+00 0.  1.
         11    1    1    2    0    0  0.61804652042E+02 -0.97083356942E+02 -0.36107840214E+02  0.12061827944E+03  0.00000000000E+00 0. -1.
</event>
<event>
 7    1  0.1620881E-005  0.1801177E+03  0.7561462E-02  0.1167689E+00
          4   -1    0    0  501    0  0.00000000000E+00  0.00000000000E+00  0.26233136222E+03  0.26233136222E+03  0.00000000000E+00 0. -1.
         -4   -1    0    0    0  501 -0.00000000000E+00 -0.00000000000E+00 -0.14103693796E+03  0.14103693796E+03  0.00000000000E+00 0.  1.
         23    2    1    2    0    0 -0.13317956574E+03  0.79301139134E+02  0.37567479667E+02  0.20269245361E+03  0.12508975906E+03 0.  0.
          5    1    3    3  502    0 -0.12366289885E+03  0.10356326521E+03  0.58935657597E+01  0.16146228343E+03  0.41800000000E+01 0. -1.
         -5    1    3    3    0  502 -0.95166668858E+01 -0.24262126076E+02  0.31673913908E+02  0.41230170174E+02  0.41800000000E+01 0. -1.
        -11    1    1    2    0    0  0.11304941791E+03 -0.94433790525E+02  0.44168813895E+02  0.15378164976E+03  0.00000000000E+00 0.  1.
         11    1    1    2    0    0  0.20130147830E+02  0.15132651392E+02  0.39558130698E+02  0.46894196806E+02  0.00000000000E+00 0. -1.
</event>
<event>
 7    1  0.1620881E-005  0.9581694E+02  0.7561462E-02  0.1289347E+00
          1   -1    0    0  501    0  0.00000000000E+00  0.00000000000E+00  0.35577567764E+02  0.35577567764E+02  0.00000000000E+00 0. -1.
         -1   -1    0    0    0  501 -0.00000000000E+00 -0.00000000000E+00 -0.45683588056E+03  0.45683588056E+03  0.00000000000E+00 0.  1.
         23    2    1    2    0    0 -0.61349027778E+02  0.23261402284E+02 -0.24264041135E+03  0.28076105630E+03  0.12509038920E+03 0.  0.
          5    1    3    3  502    0 -0.22309486048E+01  0.56341551008E+02 -0.46488633173E+02  0.73198448863E+02  0.41800000000E+01 0.  1.
         -5    1    3    3    0  502 -0.59118079173E+02 -0.33080148724E+02 -0.19615177817E+03  0.20756260743E+03  0.41800000000E+01 0.  1.
        -11    1    1    2    0    0  0.20512626277E+02 -0.60774685612E+00  0.58709522028E+01  0.21344912105E+02  0.00000000000E+00 0. -1.
         11    1    1    2    0    0  0.40836401501E+02 -0.22653655428E+02 -0.18448885365E+03  0.19030747992E+03  0.00000000000E+00 0.  1.
</event>
<event>
 7    1  0.1620881E-005  0.1458145E+03  0.7561462E-02  0.1205712E+00
         -1   -1    0    0    0  501 -0.00000000000E+00  0.00000000000E+00  0.22694945964E+02  0.22694945964E+02  0.00000000000E+00 0.  1.
          1   -1    0    0  501    0  0.00000000000E+00 -0.00000000000E+00 -0.10000659150E+04  0.10000659150E+04  0.00000000000E+00 0. -1.
         23    2    1    2    0    0  0.10129746281E+02  0.10282080468E+03 -0.47602820479E+03  0.50291677705E+03  0.12509078004E+03 0.  0.
          5    1    3    3  502    0  0.48911228326E+02  0.35334621105E+01 -0.22217222572E+03  0.22755826483E+03  0.41800000000E+01 0.  1.
         -5    1    3    3    0  502 -0.38781482045E+02  0.99287342570E+02 -0.25385597907E+03  0.27535851222E+03  0.41800000000E+01 0.  1.
        -11    1    1    2    0    0  0.36458771369E+02 -0.22379711377E+02 -0.12219693289E+03  0.12946885300E+03  0.00000000000E+00 0. -1.
         11    1    1    2    0    0 -0.46588517650E+02 -0.80441093304E+02 -0.37914583134E+03  0.39037523089E+03  0.00000000000E+00 0.  1.
</event>
<event>
 7    1  0.2529193E-005  0.1187661E+03  0.7561462E-02  0.1245147E+00
          1   -1    0    0  501    0  0.00000000000E+00  0.00000000000E+00  0.93067341510E+03  0.93067341510E+03  0.00000000000E+00 0. -1.
         -1   -1    0    0    0  501 -0.00000000000E+00 -0.00000000000E+00 -0.16003617407E+02  0.16003617407E+02  0.00000000000E+00 0.  1.
         23    2    1    2    0    0  0.15126434658E+02 -0.53301195543E+02  0.47276081298E+03  0.49215884452E+03  0.12509082892E+03 0.  0.
          5    1    3    3  502    0 -0.21220264355E+02  0.32159318998E+02  0.20728831867E+03  0.21088015762E+03  0.41800000000E+01 0.  1.
         -5    1    3    3    0  502  0.36346699013E+02 -0.85460514541E+02  0.26547249431E+03  0.28127868691E+03  0.41800000000E+01 0.  1.
        -11    1    1    2    0    0  0.37487835368E+02  0.31094827287E+02  0.22557642473E+03  0.23077467252E+03  0.00000000000E+00 0.  1.
         11    1    1    2    0    0 -0.52614270025E+02  0.22206368256E+02  0.21633255998E+03  0.22374351546E+03  0.00000000000E+00 0. -1.
</event>
<event>
 7    1  0.1620881E-005  0.2078965E+03  0.7561462E-02  0.1143243E+00
          3   -1    0    0  501    0  0.00000000000E+00  0.00000000000E+00  0.17511413595E+03  0.17511413595E+03  0.00000000000E+00 0. -1.
         -3   -1    0    0    0  501 -0.00000000000E+00 -0.00000000000E+00 -0.30245231473E+03  0.30245231473E+03  0.00000000000E+00 0.  1.
         23    2    1    2    0    0 -0.17610041883E+03  0.87872103571E+02 -0.11567698307E+03  0.26031282752E+03  0.12509492259E+03 0.  0.
          5    1    3    3  502    0 -0.12653784019E+03  0.49093764128E+02 -0.13781183793E+03  0.19347247285E+03  0.41800000000E+01 0.  1.
         -5    1    3    3    0  502 -0.49562578645E+02  0.38778339443E+02  0.22134854865E+02  0.66840354666E+02  0.41800000000E+01 0.  1.
        -11    1    1    2    0    0  0.10375706007E+03 -0.84204682702E+00 -0.46202185592E+01  0.10386328984E+03  0.00000000000E+00 0.  1.
         11    1    1    2    0    0  0.72343358767E+02 -0.87030056744E+02 -0.70409771521E+01  0.11339033333E+03  0.00000000000E+00 0. -1.
</event>
<event>
 7    1  0.1620881E-005  0.9722715E+02  0.7561462E-02  0.1286237E+00
         -1   -1    0    0    0  501 -0.00000000000E+00  0.00000000000E+00  0.38799850308E+02  0.38799850308E+02  0.00000000000E+00 0.  1.
          1   -1    0    0  501    0  0.00000000000E+00 -0.00000000000E+00 -0.36648714617E+03  0.36648714617E+03  0.00000000000E+00 0. -1.
         23    2    1    2    0    0  0.18578109688E+02 -0.30827135573E+02 -0.12442730172E+03  0.18006836046E+03  0.12508797935E+03 0.  0.
          5    1    3    3  502    0 -0.24170042577E+02  0.29615592564E+02 -0.90883575370E+02  0.98684198093E+02  0.41800000000E+01 0.  1.
         -5    1    3    3    0  502  0.42748152266E+02 -0.60442728138E+02 -0.33543726353E+02  0.81384162369E+02  0.41800000000E+01 0.  1.
        -11    1    1    2    0    0 -0.29836004260E+01 -0.24339438609E+02 -0.15757813555E+02  0.29148221753E+02  0.00000000000E+00 0.  1.
         11    1    1    2    0    0 -0.15594509262E+02  0.55166574183E+02 -0.18750218058E+03  0.19607041426E+03  0.00000000000E+00 0. -1.
</event>
<event>
 7    1  0.1620881E-005  0.1103028E+03  0.7561462E-02  0.1260010E+00
          4   -1    0    0  501    0  0.00000000000E+00  0.00000000000E+00  0.25076377456E+02  0.25076377456E+02  0.00000000000E+00 0. -1.
         -4   -1    0    0    0  501 -0.00000000000E+00 -0.00000000000E+00 -0.82721543278E+03  0.82721543278E+03  0.00000000000E+00 0.  1.
         23    2    1    2    0    0 -0.33666635285E+02 -0.51924829552E+02 -0.65504037512E+03  0.66974227622E+03  0.12508874159E+03 0.  0.
          5    1    3    3  502    0 -0.39206061711E+02  0.17223871887E+02 -0.47193256246E+03  0.47388985318E+03  0.41800000000E+01 0.  1.
         -5    1    3    3    0  502  0.55394264259E+01 -0.69148701440E+02 -0.18310781265E+03  0.19585242304E+03  0.41800000000E+01 0.  1.
        -11    1    1    2    0    0 -0.12751121412E+02  0.59675838286E+02 -0.81311955227E+02  0.10166332099E+03  0.00000000000E+00 0.  1.
         11    1    1    2    0    0  0.46417756697E+02 -0.77510087338E+01 -0.65786724984E+02  0.80886213023E+02  0.00000000000E+00 0. -1.
</event>
<event>
 7    1  0.1620881E-005  0.1410845E+03  0.7561462E-02  0.1211877E+00
          2   -1    0    0  501    0  0.00000000000E+00  0.00000000000E+00  0.32546350634E+03  0.32546350634E+03  0.00000000000E+00 0. -1.
         -2   -1    0    0    0  501 -0.00000000000E+00 -0.00000000000E+00 -0.69902493356E+02  0.69902493356E+02  0.00000000000E+00 0.  1.
         23    2    1    2    0    0  0.47756814180E+02  0.97871084894E+02  0.10218890723E+03  0.18646927569E+03  0.11166358160E+03 0.  0.
          5    1    3    3  502    0 -0.26391982663E+02  0.32637523865E+02  0.71414995017E+02  0.82941657966E+02  0.41800000000E+01 0. -1.
         -5    1    3    3    0  502  0.74148796843E+02  0.65233561030E+02  0.30773912214E+02  0.10352761772E+03  0.41800000000E+01 0.  1.
        -11    1    1    2    0    0 -0.63709591538E+02 -0.10566470826E+03  0.12667384829E+03  0.17683383858E+03  0.00000000000E+00 0. -1.
         11    1    1    2    0    0  0.15952777358E+02  0.77936233664E+01  0.26698257466E+02  0.32062885434E+02  0.00000000000E+00 0.  1.
</event>
<event>
 7    1  0.1620881E-005  0.1178273E+03  0.7561462E-02  0.1246725E+00
         -1   -1    0    0    0  501 -0.00000000000E+00  0.00000000000E+00  0.66534263015E+02  0.66534263015E+02  0.00000000000E+00 0.  1.
          1   -1    0    0  501    0  0.00000000000E+00 -0.00000000000E+00 -0.23448423840E+03  0.23448423840E+03  0.00000000000E+00 0. -1.
         23    2    1    2    0    0 -0.19533415162E+02  0.53826591213E+02 -0.12273592179E+03  0.18436490983E+03  0.12508979674E+03 0.  0.
          5    1    3    3  502    0  0.46552900818E+02  0.39254188954E+02 -0.90822485740E+02  0.10942696304E+03  0.41800000000E+01 0.  1.
         -5    1    3    3    0  502 -0.66086315980E+02  0.14572402260E+02 -0.31913436050E+02  0.74937946782E+02  0.41800000000E+01 0.  1.
        -11    1    1    2    0    0  0.23449537388E+02  0.21244205453E+02 -0.73540149343E+01  0.32485052020E+02  0.00000000000E+00 0.  1.
         11    1    1    2    0    0 -0.39161222261E+01 -0.75070796667E+02 -0.37860038658E+02  0.84168539565E+02  0.00000000000E+00 0. -1.
</event>
<event>
 7    1  0.1620881E-005  0.1609726E+03  0.7561462E-02  0.1187603E+00
         -1   -1    0    0    0  501 -0.00000000000E+00  0.00000000000E+00  0.33511911501E+03  0.33511911501E+03  0.00000000000E+00 0.  1.
          1   -1    0    0  501    0  0.00000000000E+00 -0.00000000000E+00 -0.11556308468E+03  0.11556308468E+03  0.00000000000E+00 0. -1.
         23    2    1    2    0    0  0.12937602047E+03 -0.61532736237E+02  0.20726320029E+03  0.28129919664E+03  0.12508705582E+03 0.  0.
          5    1    3    3  502    0  0.11732252928E+03 -0.71129494366E+02  0.22105317897E+03  0.26020369171E+03  0.41800000000E+01 0. -1.
         -5    1    3    3    0  502  0.12053491184E+02  0.95967581290E+01 -0.13789978679E+02  0.21095504930E+02  0.41800000000E+01 0. -1.
        -11    1    1    2    0    0 -0.49930671132E+02  0.73005880436E+02  0.10754254166E+02  0.89098734450E+02  0.00000000000E+00 0. -1.
         11    1    1    2    0    0 -0.79445349336E+02 -0.11473144200E+02  0.15385758652E+01  0.80284268600E+02  0.00000000000E+00 0.  1.
</event>
<event>
 7    1  0.1620881E-005  0.2376164E+03  0.7561462E-02  0.1121391E+00
          2   -1    0    0  501    0  0.00000000000E+00  0.00000000000E+00  0.34388730132E+03  0.34388730132E+03  0.00000000000E+00 0. -1.
         -2   -1    0    0    0  501 -0.00000000000E+00 -0.00000000000E+00 -0.20175266152E+03  0.20175266152E+03  0.00000000000E+00 0.  1.
         23    2    1    2    0    0  0.15902896350E+03  0.17113414411E+03  0.16734102872E+02  0.26552579965E+03  0.12508722385E+03 0.  0.
          5    1    3    3  502    0  0.11797787124E+03  0.14853332261E+03  0.62627727081E+02  0.19980147804E+03  0.41800000000E+01 0.  1.
         -5    1    3    3    0  502  0.41051092261E+02  0.22600821494E+02 -0.45893624208E+02  0.65724321609E+02  0.41800000000E+01 0.  1.
        -11    1    1    2    0    0 -0.71551908574E+02 -0.43561202726E+02  0.86919661644E+02  0.12071570562E+03  0.00000000000E+00 0.  1.
         11    1    1    2    0    0 -0.87477054927E+02 -0.12757294138E+03  0.38480875292E+02  0.15939845757E+03  0.00000000000E+00 0. -1.
</event>
<event>
 7    1  0.1620881E-005  0.1589272E+03  0.7561462E-02  0.1189913E+00
         -1   -1    0    0    0  501 -0.00000000000E+00  0.00000000000E+00  0.71215387041E+02  0.71215387041E+02  0.00000000000E+00 0.  1.
          1   -1    0    0  501    0  0.00000000000E+00 -0.00000000000E+00 -0.38214464897E+03  0.38214464897E+03  0.00000000000E+00 0. -1.
         23    2    1    2    0    0  0.41881507613E+02  0.10990255428E+03 -0.11346342246E+03  0.20580429566E+03  0.12509527472E+03 0.  0.
          5    1    3    3  502    0  0.84982407356E+02  0.53822802583E+02 -0.62076225332E+02  0.11827862778E+03  0.41800000000E+01 0.  1.
         -5    1    3    3    0  502 -0.43100899743E+02  0.56079751699E+02 -0.51387197131E+02  0.87525667883E+02  0.41800000000E+01 0.  1.
        -11    1    1    2    0    0 -0.35149924114E+02  0.10499415411E+01 -0.28302678045E+02  0.45140459978E+02  0.00000000000E+00 0.  1.
         11    1    1    2    0    0 -0.67315834984E+01 -0.11095249582E+03 -0.16916316142E+03  0.20241528037E+03  0.00000000000E+00 0. -1.
</event>
<event>
 7    1  0.1620881E-005  0.2103284E+03  0.7561462E-02  0.1141306E+00
          1   -1    0    0  501    0  0.00000000000E+00  0.00000000000E+00  0.46072696679E+03  0.46072696679E+03  0.00000000000E+00 0. -1.
         -1   -1    0    0    0  501 -0.00000000000E+00 -0.00000000000E+00 -0.11749326269E+03  0.11749326269E+03  0.00000000000E+00 0.  1.
         23    2    1    2    0    0 -0.19073267936E+03 -0.43565272360E+01  0.82668803624E+02  0.24265295956E+03  0.12509353854E+03 0.  0.
          5    1    3    3  502    0  0.16086129675E+02 -0.12797358096E+02  0.99860490133E+01  0.23232079482E+02  0.41800000000E+01 0. -1.
         -5    1    3    3    0  502 -0.20681880903E+03  0.84408308596E+01  0.72682754610E+02  0.21942088008E+03  0.41800000000E+01 0. -1.
        -11    1    1    2    0    0  0.17168638668E+03 -0.42675230282E+01  0.16647601903E+03  0.23918338579E+03  0.00000000000E+00 0.  1.
         11    1    1    2    0    0  0.19046292679E+02  0.86240502642E+01  0.94088881450E+02  0.96383884131E+02  0.00000000000E+00 0. -1.
</event>
<event>
 7    1  0.1620881E-005  0.1405883E+03  0.7561462E-02  0.1212540E+00
          2   -1    0    0  501    0  0.00000000000E+00  0.00000000000E+00  0.25464036209E+03  0.25464036209E+03  0.00000000000E+00 0. -1.
         -2   -1    0    0    0  501 -0.00000000000E+00 -0.00000000000E+00 -0.14118125565E+03  0.14118125565E+03  0.00000000000E+00 0.  1.
         23    2    1    2    0    0  0.12600504203E+02  0.11006952885E+03 -0.53368469695E+02  0.17541196217E+03  0.12508832491E+03 0.  0.
          5    1    3    3  502    0  0.64462128012E+02  0.65221697828E+02 -0.60414622307E+01  0.91995692732E+02  0.41800000000E+01 0. -1.
         -5    1    3    3    0  502 -0.51861623810E+02  0.44847831019E+02 -0.47327007465E+02  0.83416269437E+02  0.41800000000E+01 0. -1.
        -11    1    1    2    0    0 -0.30661915326E+02 -0.58513066703E+02  0.14893069168E+03  0.16292416319E+03  0.00000000000E+00 0. -1.
         11    1    1    2    0    0  0.18061411124E+02 -0.51556462144E+02  0.17896884454E+02  0.57485492376E+02  0.00000000000E+00 0.  1.
</event>
<event>
 7    1  0.1620881E-005  0.8842668E+02  0.7561462E-02  0.1306707E+00
          2   -1    0    0  501    0  0.00000000000E+00  0.00000000000E+00  0.19872780728E+03  0.19872780728E+03  0.00000000000E+00 0.  1.
         -2   -1    0    0    0  501 -0.00000000000E+00 -0.00000000000E+00 -0.70510105731E+02  0.70510105731E+02  0.00000000000E+00 0. -1.
         23    2    1    2    0    0 -0.13476617518E+02 -0.27485948982E+02  0.29266950556E+02  0.13206521005E+03  0.12509024222E+03 0.  0.
          5    1    3    3  502    0 -0.43822920776E+02 -0.44396319540E+02  0.59137220910E+02  0.86059077796E+02  0.41800000000E+01 0.  1.
         -5    1    3    3    0  502  0.30346303258E+02  0.16910370558E+02 -0.29870270354E+02  0.46006132253E+02  0.41800000000E+01 0.  1.
        -11    1    1    2    0    0  0.61696142567E+01  0.52715296190E+02  0.24946740498E+02  0.58645600465E+02  0.00000000000E+00 0. -1.
         11    1    1    2    0    0  0.73070032614E+01 -0.25229347208E+02  0.74004010494E+02  0.78527102496E+02  0.00000000000E+00 0.  1.
</event>
<event>
 7    1  0.1620881E-005  0.2006255E+02  0.7561462E-02  0.1744087E+00
         -3   -1    0    0    0  501 -0.00000000000E+00  0.00000000000E+00  0.26867372201E+03  0.26867372201E+03  0.00000000000E+00 0.  1.
          3   -1    0    0  501    0  0.00000000000E+00 -0.00000000000E+00 -0.50051614842E+02  0.50051614842E+02  0.00000000000E+00 0. -1.
         23    2    1    2    0    0 -0.11459241162E+02  0.49454138554E+01  0.17593941506E+03  0.21623632329E+03  0.12509076071E+03 0.  0.
          5    1    3    3  502    0 -0.69355836592E+01 -0.18708139794E+00 -0.19248742587E+02  0.20883577551E+02  0.41800000000E+01 0.  1.
         -5    1    3    3    0  502 -0.45236575029E+01  0.51324952533E+01  0.19518815764E+03  0.19535274574E+03  0.41800000000E+01 0.  1.
        -11    1    1    2    0    0  0.81335640601E+01  0.75376652955E+01 -0.28271413634E+02  0.30368471995E+02  0.00000000000E+00 0. -1.
         11    1    1    2    0    0  0.33256771019E+01 -0.12483079151E+02  0.70954105750E+02  0.72120541568E+02  0.00000000000E+00 0.  1.
</event>
<event>
 7    1  0.1620881E-005  0.1226705E+03  0.7561462E-02  0.1238755E+00
         -2   -1    0    0    0  501 -0.00000000000E+00  0.00000000000E+00  0.55611590504E+03  0.55611590504E+03  0.00000000000E+00 0.  1.
          2   -1    0    0  501    0  0.00000000000E+00 -0.00000000000E+00 -0.35856528559E+02  0.35856528559E+02  0.00000000000E+00 0. -1.
         23    2    1    2    0    0 -0.28547717170E+02 -0.63629718100E+02  0.40283269800E+03  0.42753402449E+03  0.12508975310E+03 0.  0.
          5    1    3    3  502    0 -0.73889836491E+02 -0.14882598814E+02  0.18823919003E+03  0.20281189498E+03  0.41800000000E+01 0. -1.
         -5    1    3    3    0  502  0.45342119321E+02 -0.48747119286E+02  0.21459350798E+03  0.22472212951E+03  0.41800000000E+01 0. -1.
        -11    1    1    2    0    0 -0.32017805294E+00  0.72842662486E+02  0.11207459973E+03  0.13366701873E+03  0.00000000000E+00 0. -1.
         11    1    1    2    0    0  0.28867895223E+02 -0.92129443866E+01  0.53520787447E+01  0.30771390378E+02  0.00000000000E+00 0.  1.
</event>
<event>
 7    1  0.1620881E-005  0.1225034E+03  0.7561462E-02  0.1239023E+00
         -1   -1    0    0    0  501 -0.00000000000E+00  0.00000000000E+00  0.52734276634E+02  0.52734276634E+02  0.00000000000E+00 0.  1.
          1   -1    0    0  501    0  0.00000000000E+00 -0.00000000000E+00 -0.35669347493E+03  0.35669347493E+03  0.00000000000E+00 0. -1.
         23    2    1    2    0    0  0.80275534912E+02 -0.17509148171E+02 -0.15784746618E+03  0.21751758226E+03  0.12508934503E+03 0.  0.
          5    1    3    3  502    0  0.15063497190E+02 -0.56606415590E+02 -0.23828547452E+02  0.63375604985E+02  0.41800000000E+01 0.  1.
         -5    1    3    3    0  502  0.65212037723E+02  0.39097267419E+02 -0.13401891872E+03  0.15414197728E+03  0.41800000000E+01 0.  1.
        -11    1    1    2    0    0 -0.53532829802E+01 -0.23924750937E+02 -0.24066859642E+01  0.24634193378E+02  0.00000000000E+00 0.  1.
         11    1    1    2    0    0 -0.74922251932E+02  0.41433899108E+02 -0.14370504616E+03  0.16727597593E+03  0.00000000000E+00 0. -1.
</event>
<event>
 7    1  0.1620881E-005  0.9090505E+02  0.7561462E-02  0.1300675E+00
         -1   -1    0    0    0  501 -0.00000000000E+00  0.00000000000E+00  0.21332711208E+03  0.21332711208E+03  0.00000000000E+00 0.  1.
          1   -1    0    0  501    0  0.00000000000E+00 -0.00000000000E+00 -0.57765820628E+02  0.57765820628E+02  0.00000000000E+00 0. -1.
         23    2    1    2    0    0  0.76683719939E+01 -0.33951755705E+02  0.13761951122E+03  0.18920313577E+03  0.12508865285E+03 0.  0.
          5    1    3    3  502    0 -0.44050219620E+02 -0.17062279337E+02  0.73800668901E+01  0.47994593571E+02  0.41800000000E+01 0. -1.
         -5    1    3    3    0  502  0.51718591614E+02 -0.16889476368E+02  0.13023944433E+03  0.14120854220E+03  0.41800000000E+01 0. -1.
        -11    1    1    2    0    0  0.31338242939E+02  0.24248289422E+02  0.70676346110E+01  0.40249428187E+02  0.00000000000E+00 0. -1.
         11    1    1    2    0    0 -0.39006614933E+02  0.97034662829E+01  0.10874145619E+02  0.41640368747E+02  0.00000000000E+00 0.  1.
</event>
<event>
 7    1  0.1620881E-005  0.9009241E+02  0.7561462E-02  0.1302628E+00
          1   -1    0    0  501    0  0.00000000000E+00  0.00000000000E+00  0.58941192248E+03  0.58941192248E+03  0.00000000000E+00 0. -1.
         -1   -1    0    0    0  501 -0.00000000000E+00 -0.00000000000E+00 -0.29833362319E+02  0.29833362319E+02  0.00000000000E+00 0.  1.
         23    2    1    2    0    0 -0.53252585758E+01  0.65767120314E+02  0.22040415878E+03  0.26187647276E+03  0.12509045240E+03 0.  0.
          5    1    3    3  502    0 -0.74129206978E+01  0.15832697701E+01 -0.15281504575E+02  0.17562884687E+02  0.41800000000E+01 0.  1.
         -5    1    3    3    0  502  0.20876621220E+01  0.64183850544E+02  0.23568566336E+03  0.24431358807E+03  0.41800000000E+01 0.  1.
        -11    1    1    2    0    0 -0.24128990787E+02  0.98207705975E+01  0.42914269044E+02  0.50202492160E+02  0.00000000000E+00 0.  1.
         11    1    1    2    0    0  0.29454249363E+02 -0.75587890912E+02  0.29626013233E+03  0.30716631988E+03  0.00000000000E+00 0. -1.
</event>
<event>
 7    1  0.1620881E-005  0.8265998E+02  0.7561462E-02  0.1321668E+00
         -2   -1    0    0    0  501 -0.00000000000E+00  0.00000000000E+00  0.89863626964E+02  0.89863626964E+02  0.00000000000E+00 0.  1.
          2   -1    0    0  501    0  0.00000000000E+00 -0.00000000000E+00 -0.21886637184E+03  0.21886637184E+03  0.00000000000E+00 0. -1.
         23    2    1    2    0    0 -0.26341636462E+02  0.22344432762E+01  0.15730449371E+02  0.12881616098E+03  0.12508909522E+03 0.  0.
          5    1    3    3  502    0  0.87592148634E+01 -0.17217636569E+02  0.63373411749E+02  0.66383978269E+02  0.41800000000E+01 0.  1.
         -5    1    3    3    0  502 -0.35100851325E+02  0.19452079845E+02 -0.47642962378E+02  0.62432182712E+02  0.41800000000E+01 0.  1.
        -11    1    1    2    0    0  0.64769207681E+02 -0.11244359894E+02 -0.74555641775E+02  0.99398338082E+02  0.00000000000E+00 0.  1.
         11    1    1    2    0    0 -0.38427571220E+02  0.90099166178E+01 -0.70177552468E+02  0.80515499736E+02  0.00000000000E+00 0. -1.
</event>
<event>
 7    1  0.1620881E-005  0.5692861E+02  0.7561462E-02  0.1411192E+00
         -2   -1    0    0    0  501 -0.00000000000E+00  0.00000000000E+00  0.26462762094E+03  0.26462762094E+03  0.00000000000E+00 0.  1.
          2   -1    0    0  501    0  0.00000000000E+00 -0.00000000000E+00 -0.66519122067E+02  0.66519122067E+02  0.00000000000E+00 0. -1.
         23    2    1    2    0    0  0.17540886878E+02 -0.84899123466E+01  0.20240995745E+03  0.23875201252E+03  0.12511183512E+03 0.  0.
          5    1    3    3  502    0  0.23718805437E+02 -0.17137847588E+02 -0.58888939069E+01  0.30140322207E+02  0.41800000000E+01 0.  1.
         -5    1    3    3    0  502 -0.61779185587E+01  0.86479352413E+01  0.20829885135E+03  0.20861169032E+03  0.41800000000E+01 0.  1.
        -11    1    1    2    0    0  0.21064851165E+02 -0.16613217180E+02  0.25928058956E+02  0.37309398024E+02  0.00000000000E+00 0.  1.
         11    1    1    2    0    0 -0.38605738044E+02  0.25103129526E+02 -0.30229517531E+02  0.55085332458E+02  0.00000000000E+00 0. -1.
</event>
<event>
 7    1  0.1620881E-005  0.1139790E+03  0.7561462E-02  0.1253374E+00
         -1   -1    0    0    0  501 -0.00000000000E+00  0.00000000000E+00  0.66590676794E+02  0.66590676794E+02  0.00000000000E+00 0.  1.
          1   -1    0    0  501    0  0.00000000000E+00 -0.00000000000E+00 -0.20187568810E+03  0.20187568810E+03  0.00000000000E+00 0. -1.
         23    2    1    2    0    0 -0.37199253153E+02  0.15607467342E+02 -0.63977325831E+02  0.14617697318E+03  0.12508889557E+03 0.  0.
          5    1    3    3  502    0 -0.63177986588E+02  0.54266044094E+02 -0.31043146358E+02  0.88979834045E+02  0.41800000000E+01 0. -1.
         -5    1    3    3    0  502  0.25978733434E+02 -0.38658576753E+02 -0.32934179472E+02  0.57197139132E+02  0.41800000000E+01 0. -1.
        -11    1    1    2    0    0  0.28517602600E+02  0.35743280674E+02 -0.22698789475E+02  0.51049689666E+02  0.00000000000E+00 0. -1.
         11    1    1    2    0    0  0.86816505531E+01 -0.51350748015E+02 -0.48608896003E+02  0.71239702054E+02  0.00000000000E+00 0.  1.
</event>
<event>
 7    1  0.1620881E-005  0.2182436E+03  0.7561462E-02  0.1135199E+00
          1   -1    0    0  501    0  0.00000000000E+00  0.00000000000E+00  0.17412789295E+04  0.17412789295E+04  0.00000000000E+00 0. -1.
         -1   -1    0    0    0  501 -0.00000000000E+00 -0.00000000000E+00 -0.31026041150E+02  0.31026041150E+02  0.00000000000E+00 0.  1.
         23    2    1    2    0    0  0.19854579770E+03 -0.17292955612E+02  0.10816686442E+04  0.11069660218E+04  0.12508891774E+03 0.  0.
          5    1    3    3  502    0  0.49475987076E+02 -0.61403602970E+02  0.32186671200E+03  0.33141202219E+03  0.41800000000E+01 0.  1.
         -5    1    3    3    0  502  0.14906981062E+03  0.44110647358E+02  0.75980193225E+03  0.77555399960E+03  0.41800000000E+01 0.  1.
        -11    1    1    2    0    0 -0.68741574006E+02 -0.97040254681E+01  0.34995008613E+03  0.35676972249E+03  0.00000000000E+00 0. -1.
         11    1    1    2    0    0 -0.12980422369E+03  0.26996981080E+02  0.27863415802E+03  0.30856922642E+03  0.00000000000E+00 0.  1.
</event>
<event>
 7    1  0.1620881E-005  0.1140871E+03  0.7561462E-02  0.1253183E+00
          2   -1    0    0  501    0  0.00000000000E+00  0.00000000000E+00  0.47389604088E+03  0.47389604088E+03  0.00000000000E+00 0. -1.
         -2   -1    0    0    0  501 -0.00000000000E+00 -0.00000000000E+00 -0.27955330346E+02  0.27955330346E+02  0.00000000000E+00 0.  1.
         23    2    1    2    0    0 -0.39118675454E+02  0.85809548123E+01  0.23579397415E+03  0.26990666884E+03  0.12508760163E+03 0.  0.
          5    1    3    3  502    0 -0.77279679931E+02  0.34707619485E+02  0.14762799961E+03  0.17025940929E+03  0.41800000000E+01 0. -1.
         -5    1    3    3    0  502  0.38161004477E+02 -0.26126664673E+02  0.88165974538E+02  0.99647259550E+02  0.41800000000E+01 0. -1.
        -11    1    1    2    0    0 -0.22861834063E+02  0.18374490212E+02  0.47670165448E+02  0.55970796145E+02  0.00000000000E+00 0.  1.
         11    1    1    2    0    0  0.61980509516E+02 -0.26955445025E+02  0.16247657093E+03  0.17597390624E+03  0.00000000000E+00 0. -1.
</event>
<event>
 7    1  0.1620881E-005  0.9330258E+02  0.7561462E-02  0.1295046E+00
          1   -1    0    0  501    0  0.00000000000E+00  0.00000000000E+00  0.96682782262E+02  0.96682782262E+02  0.00000000000E+00 0. -1.
         -1   -1    0    0    0  501 -0.00000000000E+00 -0.00000000000E+00 -0.12633412443E+03  0.12633412443E+03  0.00000000000E+00 0.  1.
         23    2    1    2    0    0  0.18008865858E+02 -0.42893946828E+01 -0.29471645369E+02  0.12983841519E+03  0.12508684193E+03 0.  0.
          5    1    3    3  502    0 -0.46791778727E+02  0.59480935704E+01  0.15913854245E+02  0.49955715693E+02  0.41800000000E+01 0. -1.
         -5    1    3    3    0  502  0.64800644584E+02 -0.10237488253E+02 -0.45385499614E+02  0.79882699500E+02  0.41800000000E+01 0. -1.
        -11    1    1    2    0    0 -0.16653125075E+02  0.37105151789E+02 -0.28620722748E+02  0.49731927720E+02  0.00000000000E+00 0.  1.
         11    1    1    2    0    0 -0.13557407823E+01 -0.32815757107E+02  0.28441025946E+02  0.43446563781E+02  0.00000000000E+00 0. -1.
</event>
<event>
 7    1  0.1620881E-005  0.8100541E+02  0.7561462E-02  0.1326222E+00
          3   -1    0    0  501    0  0.00000000000E+00  0.00000000000E+00  0.23467510068E+03  0.23467510068E+03  0.00000000000E+00 0. -1.
         -3   -1    0    0    0  501 -0.00000000000E+00 -0.00000000000E+00 -0.50579637060E+02  0.50579637060E+02  0.00000000000E+00 0.  1.
         23    2    1    2    0    0  0.51387237628E+01  0.19552235295E+00  0.94623484708E+02  0.15693483253E+03  0.12509393707E+03 0.  0.
          5    1    3    3  502    0  0.25833555384E+02  0.41500478490E+02  0.98848606436E+02  0.11035479914E+03  0.41800000000E+01 0. -1.
         -5    1    3    3    0  502 -0.20694831621E+02 -0.41304956137E+02 -0.42251217282E+01  0.46580033393E+02  0.41800000000E+01 0. -1.
        -11    1    1    2    0    0  0.16383979670E+01 -0.33011321392E+02  0.29278101060E+00  0.33053251106E+02  0.00000000000E+00 0.  1.
         11    1    1    2    0    0 -0.67771217297E+01  0.32815799039E+02  0.89179197902E+02  0.95266654103E+02  0.00000000000E+00 0. -1.
</event>
<event>
 7    1  0.1620881E-005  0.9906105E+02  0.7561462E-02  0.1282283E+00
          1   -1    0    0  501    0  0.00000000000E+00  0.00000000000E+00  0.69147036557E+03  0.69147036557E+03  0.00000000000E+00 0. -1.
         -1   -1    0    0    0  501 -0.00000000000E+00 -0.00000000000E+00 -0.30310100743E+02  0.30310100743E+02  0.00000000000E+00 0.  1.
         23    2    1    2    0    0  0.68393254724E+02 -0.11031862090E+02  0.20029193338E+03  0.24609695596E+03  0.12509002311E+03 0.  0.
          5    1    3    3  502    0  0.27750204039E+02  0.16464605626E+02 -0.67916389340E+01  0.33237867291E+02  0.41800000000E+01 0. -1.
         -5    1    3    3    0  502  0.40643050685E+02 -0.27496467717E+02  0.20708357231E+03  0.21285908867E+03  0.41800000000E+01 0. -1.
        -11    1    1    2    0    0 -0.92059825610E+02  0.10586633723E+02  0.39395231456E+03  0.40470423083E+03  0.00000000000E+00 0. -1.
         11    1    1    2    0    0  0.23666570887E+02  0.44522836755E+00  0.66916016886E+02  0.70979279524E+02  0.00000000000E+00 0.  1.
</event>
<event>
 7    1  0.1620881E-005  0.1307779E+03  0.7561462E-02  0.1226306E+00
         -3   -1    0    0    0  501 -0.00000000000E+00  0.00000000000E+00  0.78651462658E+03  0.78651462658E+03  0.00000000000E+00 0.  1.
          3   -1    0    0  501    0  0.00000000000E+00 -0.00000000000E+00 -0.25072967952E+02  0.25072967952E+02  0.00000000000E+00 0. -1.
         23    2    1    2    0    0  0.42391365349E+02 -0.71867839577E+02  0.50589236578E+03  0.52776607527E+03  0.12509168730E+03 0.  0.
          5    1    3    3  502    0  0.61561324184E+02  0.32738147886E+01  0.32633946323E+03  0.33213767049E+03  0.41800000000E+01 0.  1.
         -5    1    3    3    0  502 -0.19169958835E+02 -0.75141654366E+02  0.17955290255E+03  0.19562840478E+03  0.41800000000E+01 0.  1.
        -11    1    1    2    0    0  0.51281278951E+01  0.74344392479E+02  0.13466796792E+03  0.15391181882E+03  0.00000000000E+00 0.  1.
         11    1    1    2    0    0 -0.47519493244E+02 -0.24765529012E+01  0.12088132493E+03  0.12990970044E+03  0.00000000000E+00 0. -1.
</event>
<event>
 7    1  0.1620881E-005  0.8194965E+02  0.7561462E-02  0.1323608E+00
         -3   -1    0    0    0  501 -0.00000000000E+00  0.00000000000E+00  0.13766814787E+04  0.13766814787E+04  0.00000000000E+00 0.  1.
          3   -1    0    0  501    0  0.00000000000E+00 -0.00000000000E+00 -0.12552241849E+02  0.12552241849E+02  0.00000000000E+00 0. -1.
         23    2    1    2    0    0  0.10008658139E+02  0.63334771730E+02  0.95554516161E+03  0.96582844161E+03  0.12508619509E+03 0.  0.
          5    1    3    3  502    0  0.23488700294E+02  0.32525926116E+02  0.79686146602E+02  0.89314104550E+02  0.41800000000E+01 0.  1.
         -5    1    3    3    0  502 -0.13480042155E+02  0.30808845614E+02  0.87585901500E+03  0.87651433706E+03  0.41800000000E+01 0.  1.
        -11    1    1    2    0    0 -0.17609009381E+01 -0.75201757132E+02  0.39908246873E+03  0.40610986432E+03  0.00000000000E+00 0.  1.
         11    1    1    2    0    0 -0.82477572012E+01  0.11866985402E+02  0.95016065598E+01  0.17295414670E+02  0.00000000000E+00 0. -1.
</event>
<event>
 7    1  0.1620881E-005  0.1060634E+03  0.7561462E-02  0.1268038E+00
          2   -1    0    0  501    0  0.00000000000E+00  0.00000000000E+00  0.13517883330E+03  0.13517883330E+03  0.00000000000E+00 0. -1.
         -2   -1    0    0    0  501 -0.00000000000E+00 -0.00000000000E+00 -0.16007401552E+03  0.16007401552E+03  0.00000000000E+00 0.  1.
         23    2    1    2    0    0 -0.11874100835E+02  0.31854578378E+02 -0.10995106943E+03  0.16997726211E+03  0.12508926226E+03 0.  0.
          5    1    3    3  502    0  0.42164324553E+02  0.48167769657E+02 -0.27107377863E+02  0.69643712087E+02  0.41800000000E+01 0. -1.
         -5    1    3    3    0  502 -0.54038425387E+02 -0.16313191278E+02 -0.82843691569E+02  0.10033355003E+03  0.41800000000E+01 0. -1.
        -11    1    1    2    0    0  0.96018168278E+01 -0.61195807530E+02  0.50772548403E+02  0.80093529183E+02  0.00000000000E+00 0.  1.
         11    1    1    2    0    0  0.22722840068E+01  0.29341229151E+02  0.34283338811E+02  0.45182057531E+02  0.00000000000E+00 0. -1.
</event>
<event>
 7    1  0.1620881E-005  0.9628374E+02  0.7561462E-02  0.1288311E+00
         -2   -1    0    0    0  501 -0.00000000000E+00  0.00000000000E+00  0.29946523016E+02  0.29946523016E+02  0.00000000000E+00 0.  1.
          2   -1    0    0  501    0  0.00000000000E+00 -0.00000000000E+00 -0.41525187759E+03  0.41525187759E+03  0.00000000000E+00 0. -1.
         23    2    1    2    0    0 -0.36572824661E+02  0.28497458873E+02 -0.19941121311E+03  0.23327370001E+03  0.11181283708E+03 0.  0.
          5    1    3    3  502    0  0.24520226578E+02  0.11046331664E+02 -0.15061017795E+03  0.15304953792E+03  0.41800000000E+01 0. -1.
         -5    1    3    3    0  502 -0.61093051239E+02  0.17451127209E+02 -0.48801035158E+02  0.80224162091E+02  0.41800000000E+01 0.  1.
        -11    1    1    2    0    0 -0.28389017901E+02 -0.22901070083E+02 -0.62583519257E+02  0.72436815439E+02  0.00000000000E+00 0.  1.
         11    1    1    2    0    0  0.64961842562E+02 -0.55963887898E+01 -0.12331062221E+03  0.13948788516E+03  0.00000000000E+00 0. -1.
</event>
<event>
 7    1  0.1620881E-005  0.1390009E+03  0.7561462E-02  0.1214680E+00
          1   -1    0    0  501    0  0.00000000000E+00  0.00000000000E+00  0.14068065521E+03  0.14068065521E+03  0.00000000000E+00 0. -1.
         -1   -1    0    0    0  501 -0.00000000000E+00 -0.00000000000E+00 -0.19913781580E+03  0.19913781580E+03  0.00000000000E+00 0.  1.
         23    2    1    2    0    0  0.91779457062E+02 -0.72280533660E+02 -0.81494113111E+02  0.18956962873E+03  0.12508960540E+03 0.  0.
          5    1    3    3  502    0 -0.17332555352E+01  0.14560925580E+02 -0.57707037244E+02  0.59687513568E+02  0.41800000000E+01 0.  1.
         -5    1    3    3    0  502  0.93512712597E+02 -0.86841459240E+02 -0.23787075868E+02  0.12988211516E+03  0.41800000000E+01 0.  1.
        -11    1    1    2    0    0  0.86676673258E+01  0.20072568478E+02  0.29663374461E+02  0.36850403615E+02  0.00000000000E+00 0.  1.
         11    1    1    2    0    0 -0.10044712439E+03  0.52207965183E+02 -0.66264219369E+01  0.11339843867E+03  0.00000000000E+00 0. -1.
</event>
<event>
 7    1  0.1620881E-005  0.1765461E+03  0.7561462E-02  0.1171188E+00
          1   -1    0    0  501    0  0.00000000000E+00  0.00000000000E+00  0.14766984129E+03  0.14766984129E+03  0.00000000000E+00 0. -1.
         -1   -1    0    0    0  501 -0.00000000000E+00 -0.00000000000E+00 -0.23203279824E+03  0.23203279824E+03  0.00000000000E+00 0.  1.
         23    2    1    2    0    0 -0.12743010782E+03 -0.85766031304E+02 -0.43817267216E+02  0.20286707892E+03  0.12506340112E+03 0.  0.
          5    1    3    3  502    0 -0.10818351525E+03 -0.11785606604E+03 -0.30406005574E+02  0.16289789087E+03  0.41800000000E+01 0. -1.
         -5    1    3    3    0  502 -0.19246592564E+02  0.32090034737E+02 -0.13411261642E+02  0.39969188053E+02  0.41800000000E+01 0. -1.
        -11    1    1    2    0    0  0.44950364925E+02  0.44210630101E+02  0.20301634869E+02  0.66236481633E+02  0.00000000000E+00 0. -1.
         11    1    1    2    0    0  0.82479742894E+02  0.41555401203E+02 -0.60847324601E+02  0.11059907897E+03  0.00000000000E+00 0.  1.
</event>
<event>
 7    1  0.1620881E-005  0.1013542E+03  0.7561462E-02  0.1277474E+00
          1   -1    0    0  501    0  0.00000000000E+00  0.00000000000E+00  0.19919031245E+03  0.19919031245E+03  0.00000000000E+00 0. -1.
         -1   -1    0    0    0  501 -0.00000000000E+00 -0.00000000000E+00 -0.80279803158E+02  0.80279803158E+02  0.00000000000E+00 0.  1.
         23    2    1    2    0    0  0.84684706803E+01 -0.20446349802E+02 -0.17979372860E+01  0.12704504041E+03  0.12508973378E+03 0.  0.
          5    1    3    3  502    0 -0.37599404249E+02 -0.54079935214E+02  0.14506719287E+02  0.67574195497E+02  0.41800000000E+01 0.  1.
         -5    1    3    3    0  502  0.46067874929E+02  0.33633585412E+02 -0.16304656573E+02  0.59470844908E+02  0.41800000000E+01 0.  1.
        -11    1    1    2    0    0  0.21245565396E+02 -0.20101361100E+02  0.10123230241E+02  0.30950259410E+02  0.00000000000E+00 0.  1.
         11    1    1    2    0    0 -0.29714036076E+02  0.40547710902E+02  0.11058521633E+03  0.12147481579E+03  0.00000000000E+00 0. -1.
</event>
<event>
 7    1  0.1620881E-005  0.1410580E+03  0.7561462E-02  0.1211912E+00
         -2   -1    0    0    0  501 -0.00000000000E+00  0.00000000000E+00  0.32684200218E+02  0.32684200218E+02  0.00000000000E+00 0.  1.
          2   -1    0    0  501    0  0.00000000000E+00 -0.00000000000E+00 -0.62755373553E+03  0.62755373553E+03  0.00000000000E+00 0. -1.
         23    2    1    2    0    0  0.71640017181E+02 -0.55231016998E+02 -0.26841331326E+03  0.30964011147E+03  0.12509410294E+03 0.  0.
          5    1    3    3  502    0  0.60695157458E+01 -0.82782747795E+02 -0.14221148081E+03  0.16471611951E+03  0.41800000000E+01 0. -1.
         -5    1    3    3    0  502  0.65570501435E+02  0.27551730797E+02 -0.12620183246E+03  0.14492399195E+03  0.41800000000E+01 0. -1.
        -11    1    1    2    0    0  0.21763006858E+02  0.11735301851E+02 -0.68483100016E+02  0.72809894691E+02  0.00000000000E+00 0.  1.
         11    1    1    2    0    0 -0.93403024039E+02  0.43495715147E+02 -0.25797312203E+03  0.27778792959E+03  0.00000000000E+00 0. -1.
</event>
<event>
 7    1  0.1620881E-005  0.1317910E+03  0.7561462E-02  0.1224822E+00
          1   -1    0    0  501    0  0.00000000000E+00  0.00000000000E+00  0.41896883862E+02  0.41896883862E+02  0.00000000000E+00 0. -1.
         -1   -1    0    0    0  501 -0.00000000000E+00 -0.00000000000E+00 -0.54957988227E+03  0.54957988227E+03  0.00000000000E+00 0.  1.
         23    2    1    2    0    0  0.41721911867E+02 -0.86808695749E+02 -0.36071795046E+03  0.39375291570E+03  0.12508977278E+03 0.  0.
          5    1    3    3  502    0 -0.13013005936E+02  0.19778573960E+02 -0.14479450670E+03  0.14677687789E+03  0.41800000000E+01 0.  1.
         -5    1    3    3    0  502  0.54734917802E+02 -0.10658726971E+03 -0.21592344376E+03  0.24697603782E+03  0.41800000000E+01 0.  1.
        -11    1    1    2    0    0  0.20215853427E+02  0.17996182744E+02 -0.77176127554E+02  0.81784460550E+02  0.00000000000E+00 0.  1.
         11    1    1    2    0    0 -0.61937765294E+02  0.68812513005E+02 -0.69788920393E+02  0.11593938988E+03  0.00000000000E+00 0. -1.
</event>
<event>
 7    1  0.1620881E-005  0.1258282E+03  0.7561462E-02  0.1233781E+00
         -1   -1    0    0    0  501 -0.00000000000E+00  0.00000000000E+00  0.55764294398E+02  0.55764294398E+02  0.00000000000E+00 0. -1.
          1   -1    0    0  501    0  0.00000000000E+00 -0.00000000000E+00 -0.34092601849E+03  0.34092601849E+03  0.00000000000E+00 0.  1.
         23    2    1    2    0    0  0.74021261602E+02 -0.38973680709E+02 -0.13474140690E+03  0.20199126326E+03  0.12508848365E+03 0.  0.
          5    1    3    3  502    0 -0.15303462442E+02  0.22854616550E+02  0.12943267899E+01  0.27850980992E+02  0.41800000000E+01 0. -1.
         -5    1    3    3    0  502  0.89324724044E+02 -0.61828297259E+02 -0.13603573369E+03  0.17414028227E+03  0.41800000000E+01 0. -1.
        -11    1    1    2    0    0 -0.78942082970E+02  0.31976691364E+01 -0.66245126003E+02  0.10310428832E+03  0.00000000000E+00 0. -1.
         11    1    1    2    0    0  0.49208213682E+01  0.35776011573E+02 -0.84175191186E+02  0.91594761303E+02  0.00000000000E+00 0.  1.
</event>
<event>
 7    1  0.1620881E-005  0.1561278E+03  0.7561462E-02  0.1193139E+00
          2   -1    0    0  501    0  0.00000000000E+00  0.00000000000E+00  0.10258320765E+04  0.10258320765E+04  0.00000000000E+00 0. -1.
         -2   -1    0    0    0  501 -0.00000000000E+00 -0.00000000000E+00 -0.24254697895E+02  0.24254697895E+02  0.00000000000E+00 0.  1.
         23    2    1    2    0    0 -0.80423014947E+02 -0.79038516855E+02  0.58925085554E+03  0.61284602764E+03  0.12509490142E+03 0.  0.
          5    1    3    3  502    0 -0.54530411387E+02 -0.11210613405E+03  0.40247576601E+03  0.42136156170E+03  0.41800000000E+01 0. -1.
         -5    1    3    3    0  502 -0.25892603560E+02  0.33067617193E+02  0.18677508954E+03  0.19148446594E+03  0.41800000000E+01 0. -1.
        -11    1    1    2    0    0 -0.89896615456E+00  0.62276345486E+02  0.18731753956E+03  0.19740063824E+03  0.00000000000E+00 0.  1.
         11    1    1    2    0    0  0.81321981101E+02  0.16762171369E+02  0.22500898354E+03  0.23984010855E+03  0.00000000000E+00 0. -1.
</event>
<event>
 7    1  0.1620881E-005  0.1058629E+03  0.7561462E-02  0.1268429E+00
          1   -1    0    0  501    0  0.00000000000E+00  0.00000000000E+00  0.13459969564E+03  0.13459969564E+03  0.00000000000E+00 0. -1.
         -1   -1    0    0    0  501 -0.00000000000E+00 -0.00000000000E+00 -0.89440813624E+02  0.89440813624E+02  0.00000000000E+00 0.  1.
         23    2    1    2    0    0 -0.25426530265E+01 -0.16935035310E+02  0.24009821337E+02  0.12851851586E+03  0.12508907583E+03 0.  0.
          5    1    3    3  502    0 -0.34524387587E+02 -0.57231531436E+02 -0.85184980361E+01  0.67508656760E+02  0.41800000000E+01 0.  1.
         -5    1    3    3    0  502  0.31981734561E+02  0.40296496126E+02  0.32528319373E+02  0.61009859095E+02  0.41800000000E+01 0.  1.
        -11    1    1    2    0    0  0.22259776329E+02 -0.32800402246E+02  0.83202493113E+01  0.40504204452E+02  0.00000000000E+00 0.  1.
         11    1    1    2    0    0 -0.19717123302E+02  0.49735437556E+02  0.12828811363E+02  0.55017788952E+02  0.00000000000E+00 0. -1.
</event>
<event>
 7    1  0.1620881E-005  0.1087662E+03  0.7561462E-02  0.1262872E+00
         -1   -1    0    0    0  501 -0.00000000000E+00  0.00000000000E+00  0.57627974842E+02  0.57627974842E+02  0.00000000000E+00 0.  1.
          1   -1    0    0  501    0  0.00000000000E+00 -0.00000000000E+00 -0.32879792525E+03  0.32879792525E+03  0.00000000000E+00 0. -1.
         23    2    1    2    0    0  0.65937607061E+02 -0.52938592456E+02 -0.17616889531E+03  0.23046584177E+03  0.12218331290E+03 0.  0.
          5    1    3    3  502    0  0.61934731104E+02 -0.63613393462E+02 -0.19137392711E+03  0.21100717315E+03  0.41800000000E+01 0. -1.
         -5    1    3    3    0  502  0.40028759575E+01  0.10674801006E+02  0.15205031798E+02  0.19458668619E+02  0.41800000000E+01 0.  1.
        -11    1    1    2    0    0 -0.21352251921E+02  0.66549326611E+02 -0.30207355304E+02  0.76139450017E+02  0.00000000000E+00 0.  1.
         11    1    1    2    0    0 -0.44585355140E+02 -0.13610734155E+02 -0.64793699798E+02  0.79820608308E+02  0.00000000000E+00 0. -1.
</event>
<event>
 7    1  0.1620881E-005  0.1129246E+03  0.7561462E-02  0.1255248E+00
          2   -1    0    0  501    0  0.00000000000E+00  0.00000000000E+00  0.34660045940E+03  0.34660045940E+03  0.00000000000E+00 0. -1.
         -2   -1    0    0    0  501 -0.00000000000E+00 -0.00000000000E+00 -0.56698290651E+02  0.56698290651E+02  0.00000000000E+00 0.  1.
         23    2    1    2    0    0  0.40999735424E+02  0.77533101643E+02  0.11956953097E+03  0.19025160039E+03  0.11919076540E+03 0.  0.
          5    1    3    3  502    0  0.20364411508E+02  0.22520030230E+01  0.10944977782E+03  0.11142938140E+03  0.41800000000E+01 0. -1.
         -5    1    3    3    0  502  0.20635323916E+02  0.75281098620E+02  0.10119753155E+02  0.78822218989E+02  0.41800000000E+01 0.  1.
        -11    1    1    2    0    0 -0.60477061329E+02 -0.86322892667E+02  0.12959201878E+03  0.16704253373E+03  0.00000000000E+00 0. -1.
         11    1    1    2    0    0  0.19477325905E+02  0.87897910245E+01  0.40740618996E+02  0.46004615930E+02  0.00000000000E+00 0.  1.
</event>
<event>
 7    1  0.1620881E-005  0.7647694E+02  0.7561462E-02  0.1339357E+00
         -2   -1    0    0    0  501 -0.00000000000E+00  0.00000000000E+00  0.32376085331E+02  0.32376085331E+02  0.00000000000E+00 0.  1.
          2   -1    0    0  501    0  0.00000000000E+00 -0.00000000000E+00 -0.38645584554E+03  0.38645584554E+03  0.00000000000E+00 0. -1.
         23    2    1    2    0    0  0.25896829026E+02  0.57793047207E+01 -0.16870197799E+03  0.21168756878E+03  0.12508886154E+03 0.  0.
          5    1    3    3  502    0  0.40821483215E+02  0.31925051568E+02 -0.17331493714E+03  0.18094513601E+03  0.41800000000E+01 0.  1.
         -5    1    3    3    0  502 -0.14924654188E+02 -0.26145746848E+02  0.46129591469E+01  0.30742432775E+02  0.41800000000E+01 0.  1.
        -11    1    1    2    0    0  0.78366541563E+01  0.24200791716E+02 -0.12255419821E+02  0.28236267158E+02  0.00000000000E+00 0.  1.
         11    1    1    2    0    0 -0.33733483183E+02 -0.29980096437E+02 -0.17312236240E+03  0.17890809494E+03  0.00000000000E+00 0. -1.
</event>
<event>
 7    1  0.1620881E-005  0.9990832E+02  0.7561462E-02  0.1280489E+00
          1   -1    0    0  501    0  0.00000000000E+00  0.00000000000E+00  0.10086504362E+03  0.10086504362E+03  0.00000000000E+00 0. -1.
         -1   -1    0    0    0  501 -0.00000000000E+00 -0.00000000000E+00 -0.17290021905E+03  0.17290021905E+03  0.00000000000E+00 0.  1.
         23    2    1    2    0    0 -0.34260108294E+02  0.70946704926E+02 -0.45960919700E+02  0.15480692377E+03  0.12508232308E+03 0.  0.
          5    1    3    3  502    0 -0.40818318921E+02  0.49957494651E+02 -0.86803884957E+02  0.10823249639E+03  0.41800000000E+01 0. -1.
         -5    1    3    3    0  502  0.65582106275E+01  0.20989210275E+02  0.40842965257E+02  0.46574427378E+02  0.41800000000E+01 0. -1.
        -11    1    1    2    0    0  0.17329195448E+02  0.16372028742E+02  0.56935333802E+01  0.24510419465E+02  0.00000000000E+00 0. -1.
         11    1    1    2    0    0  0.16930912846E+02 -0.87318733668E+02 -0.31767789110E+02  0.94447919427E+02  0.00000000000E+00 0.  1.
</event>
<event>
 7    1  0.1620881E-005  0.3087109E+03  0.7561462E-02  0.1080965E+00
         -2   -1    0    0    0  501 -0.00000000000E+00  0.00000000000E+00  0.33449590786E+03  0.33449590786E+03  0.00000000000E+00 0.  1.
          2   -1    0    0  501    0  0.00000000000E+00 -0.00000000000E+00 -0.31267362456E+03  0.31267362456E+03  0.00000000000E+00 0. -1.
         23    2    1    2    0    0  0.21316973057E+03 -0.20629267038E+03  0.79378069603E+02  0.33158044112E+03  0.12508681432E+03 0.  0.
          5    1    3    3  502    0  0.53359959534E+02 -0.62272219371E+01 -0.19154239074E+02  0.57187593488E+02  0.41800000000E+01 0. -1.
         -5    1    3    3    0  502  0.15980977104E+03 -0.20006544845E+03  0.98532308678E+02  0.27439284764E+03  0.41800000000E+01 0. -1.
        -11    1    1    2    0    0 -0.18102723677E+03  0.20739032855E+03 -0.37859321530E+02  0.27787575830E+03  0.00000000000E+00 0.  1.
         11    1    1    2    0    0 -0.32142493805E+02 -0.10976581634E+01 -0.19696464774E+02  0.37713333001E+02  0.00000000000E+00 0. -1.
</event>
<event>
 7    1  0.1620881E-005  0.8734993E+02  0.7561462E-02  0.1309399E+00
         -1   -1    0    0    0  501 -0.00000000000E+00  0.00000000000E+00  0.51151907721E+02  0.51151907721E+02  0.00000000000E+00 0.  1.
          1   -1    0    0  501    0  0.00000000000E+00 -0.00000000000E+00 -0.23631568711E+03  0.23631568711E+03  0.00000000000E+00 0. -1.
         23    2    1    2    0    0 -0.22755188052E+01  0.12631707800E+02 -0.11255518842E+03  0.16872380998E+03  0.12503725679E+03 0.  0.
          5    1    3    3  502    0 -0.18681608081E+01 -0.34670053289E+02  0.10753480735E+02  0.36587051915E+02  0.41800000000E+01 0.  1.
         -5    1    3    3    0  502 -0.40735799710E+00  0.47301761090E+02 -0.12330866916E+03  0.13213675807E+03  0.41800000000E+01 0.  1.
        -11    1    1    2    0    0 -0.42108636333E+02  0.86980031690E+01 -0.22661903538E+02  0.48604057289E+02  0.00000000000E+00 0. -1.
         11    1    1    2    0    0  0.44384155138E+02 -0.21329710969E+02 -0.49946687429E+02  0.70139727562E+02  0.00000000000E+00 0.  1.
</event>
<event>
 7    1  0.1620881E-005  0.2445411E+03  0.7561462E-02  0.1116804E+00
          2   -1    0    0  501    0  0.00000000000E+00  0.00000000000E+00  0.86356886788E+03  0.86356886788E+03  0.00000000000E+00 0. -1.
         -2   -1    0    0    0  501 -0.00000000000E+00 -0.00000000000E+00 -0.12072893992E+03  0.12072893992E+03  0.00000000000E+00 0.  1.
         23    2    1    2    0    0 -0.23411495620E+03  0.37337150783E+02  0.88382228409E+02  0.28224513919E+03  0.12508806797E+03 0.  0.
          5    1    3    3  502    0 -0.58785516910E+02 -0.25033685565E+02  0.70517206646E+02  0.95250045903E+02  0.41800000000E+01 0. -1.
         -5    1    3    3    0  502 -0.17532943929E+03  0.62370836347E+02  0.17865021763E+02  0.18699509328E+03  0.41800000000E+01 0. -1.
        -11    1    1    2    0    0  0.69204032446E+02 -0.24844717776E+02  0.10457143113E+03  0.12783443322E+03  0.00000000000E+00 0.  1.
         11    1    1    2    0    0  0.16491092376E+03 -0.12492433006E+02  0.54988626843E+03  0.57421823540E+03  0.00000000000E+00 0. -1.
</event>
<event>
 7    1  0.1620881E-005  0.8008589E+02  0.7561462E-02  0.1328808E+00
         -1   -1    0    0    0  501 -0.00000000000E+00  0.00000000000E+00  0.33452684955E+02  0.33452684955E+02  0.00000000000E+00 0.  1.
          1   -1    0    0  501    0  0.00000000000E+00 -0.00000000000E+00 -0.42375345335E+03  0.42375345335E+03  0.00000000000E+00 0. -1.
         23    2    1    2    0    0 -0.16378811391E+02 -0.49053010486E+02 -0.21682348769E+03  0.25436052382E+03  0.12252505034E+03 0.  0.
          5    1    3    3  502    0 -0.25590992616E+01 -0.36343996178E+02 -0.22878779697E+03  0.23170835870E+03  0.41800000000E+01 0. -1.
         -5    1    3    3    0  502 -0.13819712129E+02 -0.12709014308E+02  0.11964309280E+02  0.22652165118E+02  0.41800000000E+01 0.  1.
        -11    1    1    2    0    0  0.24396575339E+02  0.74074880125E+02 -0.14035569633E+03  0.16056774970E+03  0.00000000000E+00 0.  1.
         11    1    1    2    0    0 -0.80177639489E+01 -0.25021869639E+02 -0.33121584370E+02  0.42277864778E+02  0.00000000000E+00 0. -1.
</event>
<event>
 7    1  0.1620881E-005  0.1177921E+03  0.7561462E-02  0.1246785E+00
         -4   -1    0    0    0  501 -0.00000000000E+00  0.00000000000E+00  0.15617100618E+03  0.15617100618E+03  0.00000000000E+00 0.  1.
          4   -1    0    0  501    0  0.00000000000E+00 -0.00000000000E+00 -0.11605782426E+03  0.11605782426E+03  0.00000000000E+00 0. -1.
         23    2    1    2    0    0 -0.49214723150E+02  0.32893112066E+02  0.78130601575E+02  0.15892121250E+03  0.12509002792E+03 0.  0.
          5    1    3    3  502    0  0.29302575617E+02 -0.18565556894E+02 -0.25976071450E+01  0.35036278391E+02  0.41800000000E+01 0.  1.
         -5    1    3    3    0  502 -0.78517298767E+02  0.51458668960E+02  0.80728208720E+02  0.12388493411E+03  0.41800000000E+01 0.  1.
        -11    1    1    2    0    0  0.64424568055E+02 -0.51616127601E+02 -0.27747508790E+02  0.87090032964E+02  0.00000000000E+00 0.  1.
         11    1    1    2    0    0 -0.15209844905E+02  0.18723015535E+02 -0.10269910864E+02  0.26217584975E+02  0.00000000000E+00 0. -1.
</event>
<event>
 7    1  0.1620881E-005  0.6868158E+02  0.7561462E-02  0.1364635E+00
          1   -1    0    0  501    0  0.00000000000E+00  0.00000000000E+00  0.67248172004E+02  0.67248172004E+02  0.00000000000E+00 0. -1.
         -1   -1    0    0    0  501 -0.00000000000E+00 -0.00000000000E+00 -0.18597303019E+03  0.18597303019E+03  0.00000000000E+00 0.  1.
         23    2    1    2    0    0 -0.28144745524E+02  0.89642165247E+01 -0.71172532255E+02  0.14692034636E+03  0.12509026720E+03 0.  0.
          5    1    3    3  502    0 -0.12094186949E+02  0.39828416364E+02 -0.95502584206E+02  0.10426307159E+03  0.41800000000E+01 0. -1.
         -5    1    3    3    0  502 -0.16050558575E+02 -0.30864199840E+02  0.24330051951E+02  0.42657274764E+02  0.41800000000E+01 0. -1.
        -11    1    1    2    0    0 -0.13091792896E+02  0.86063995937E+01 -0.58164701869E+02  0.60237842746E+02  0.00000000000E+00 0.  1.
         11    1    1    2    0    0  0.41236538420E+02 -0.17570616118E+02  0.10612375942E+02  0.46063013088E+02  0.00000000000E+00 0. -1.
</event>
<event>
 7    1  0.1620881E-005  0.8498508E+02  0.7561462E-02  0.1315472E+00
          2   -1    0    0  501    0  0.00000000000E+00  0.00000000000E+00  0.46992317899E+02  0.46992317899E+02  0.00000000000E+00 0. -1.
         -2   -1    0    0    0  501 -0.00000000000E+00 -0.00000000000E+00 -0.20977556249E+03  0.20977556249E+03  0.00000000000E+00 0.  1.
         23    2    1    2    0    0 -0.14419661275E+02 -0.25634500705E+02 -0.10776588818E+03  0.16769812832E+03  0.12507646193E+03 0.  0.
          5    1    3    3  502    0  0.14622878873E+02  0.37068531034E+02 -0.54600279368E+00  0.40070875940E+02  0.41800000000E+01 0. -1.
         -5    1    3    3    0  502 -0.29042540147E+02 -0.62703031739E+02 -0.10721988539E+03  0.12762725238E+03  0.41800000000E+01 0. -1.
        -11    1    1    2    0    0  0.12466022529E+01 -0.16490553122E+02  0.23335330135E+01  0.16701429154E+02  0.00000000000E+00 0. -1.
         11    1    1    2    0    0  0.13173059022E+02  0.42125053827E+02 -0.57350889423E+02  0.72368322915E+02  0.00000000000E+00 0.  1.
</event>
<event>
 7    1  0.1620881E-005  0.1202029E+03  0.7561462E-02  0.1242763E+00
         -2   -1    0    0    0  501 -0.00000000000E+00  0.00000000000E+00  0.73414354421E+02  0.73414354421E+02  0.00000000000E+00 0.  1.
          2   -1    0    0  501    0  0.00000000000E+00 -0.00000000000E+00 -0.33365080736E+03  0.33365080736E+03  0.00000000000E+00 0. -1.
         23    2    1    2    0    0  0.77213983038E+02  0.79099326533E+02 -0.17049624232E+03  0.23861056151E+03  0.12508928325E+03 0.  0.
          5    1    3    3  502    0  0.70511106034E+02  0.80461470601E+02 -0.50556257664E+02  0.11840300636E+03  0.41800000000E+01 0.  1.
         -5    1    3    3    0  502  0.67028770038E+01 -0.13621440684E+01 -0.11993998465E+03  0.12020755515E+03  0.41800000000E+01 0.  1.
        -11    1    1    2    0    0  0.78294965750E+01 -0.20773560223E+02 -0.55533748202E+02  0.59806680315E+02  0.00000000000E+00 0. -1.
         11    1    1    2    0    0 -0.85043479613E+02 -0.58325766309E+02 -0.34206462422E+02  0.10864791996E+03  0.00000000000E+00 0.  1.
</event>
<event>
 7    1  0.1620881E-005  0.7243825E+02  0.7561462E-02  0.1351993E+00
          2   -1    0    0  501    0  0.00000000000E+00  0.00000000000E+00  0.12665454033E+03  0.12665454033E+03  0.00000000000E+00 0. -1.
         -2   -1    0    0    0  501 -0.00000000000E+00 -0.00000000000E+00 -0.10731067015E+03  0.10731067015E+03  0.00000000000E+00 0.  1.
         23    2    1    2    0    0 -0.95264351060E+01  0.37326157610E+02 -0.77810873159E+01  0.13111211583E+03  0.12508335857E+03 0.  0.
          5    1    3    3  502    0 -0.41996234737E+02  0.22738524884E+02  0.46028369001E+02  0.66459065588E+02  0.41800000000E+01 0. -1.
         -5    1    3    3    0  502  0.32469799631E+02  0.14587632726E+02 -0.53809456317E+02  0.64653050244E+02  0.41800000000E+01 0. -1.
        -11    1    1    2    0    0  0.26815543461E+02 -0.97195640635E+01 -0.27263216441E+02  0.39456637812E+02  0.00000000000E+00 0.  1.
         11    1    1    2    0    0 -0.17289108355E+02 -0.27606593546E+02  0.54388173937E+02  0.63396456834E+02  0.00000000000E+00 0. -1.
</event>
<event>
 7    1  0.1620881E-005  0.1399852E+03  0.7561462E-02  0.1213349E+00
         -2   -1    0    0    0  501 -0.00000000000E+00  0.00000000000E+00  0.37211772251E+02  0.37211772251E+02  0.00000000000E+00 0. -1.
          2   -1    0    0  501    0  0.00000000000E+00 -0.00000000000E+00 -0.67203272016E+03  0.67203272016E+03  0.00000000000E+00 0.  1.
         23    2    1    2    0    0 -0.63769323049E+02  0.92084851085E+02 -0.28681485760E+03  0.33235016449E+03  0.12509085872E+03 0.  0.
          5    1    3    3  502    0 -0.65581564964E+02  0.73571735322E+00 -0.65068388885E+02  0.92481622905E+02  0.41800000000E+01 0.  1.
         -5    1    3    3    0  502  0.18122419148E+01  0.91349133732E+02 -0.22174646871E+03  0.23986854158E+03  0.41800000000E+01 0.  1.
        -11    1    1    2    0    0  0.20598728564E+02 -0.72525598897E+02 -0.10473345226E+03  0.12904792186E+03  0.00000000000E+00 0. -1.
         11    1    1    2    0    0  0.43170594485E+02 -0.19559252188E+02 -0.24327263806E+03  0.24784640607E+03  0.00000000000E+00 0.  1.
</event>
<event>
 7    1  0.1620881E-005  0.1069484E+03  0.7561462E-02  0.1266328E+00
         -2   -1    0    0    0  501 -0.00000000000E+00  0.00000000000E+00  0.74779961643E+02  0.74779961643E+02  0.00000000000E+00 0.  1.
          2   -1    0    0  501    0  0.00000000000E+00 -0.00000000000E+00 -0.18698599641E+03  0.18698599641E+03  0.00000000000E+00 0. -1.
         23    2    1    2    0    0 -0.16099573651E+02 -0.38184457583E+02 -0.34978894916E+02  0.13634033994E+03  0.12509163095E+03 0.  0.
          5    1    3    3  502    0  0.19204849300E+02  0.31906318164E+02 -0.43352724716E+02  0.57304192828E+02  0.41800000000E+01 0. -1.
         -5    1    3    3    0  502 -0.35304422950E+02 -0.70090775747E+02  0.83738297997E+01  0.79036147111E+02  0.41800000000E+01 0. -1.
        -11    1    1    2    0    0 -0.36984073457E+02  0.15226163079E+02 -0.22963181783E+02  0.46119035649E+02  0.00000000000E+00 0. -1.
         11    1    1    2    0    0  0.53083647108E+02  0.22958294504E+02 -0.54263958066E+02  0.79306582462E+02  0.00000000000E+00 0.  1.
</event>
<event>
 7    1  0.1620881E-005  0.1827616E+03  0.7561462E-02  0.1165157E+00
          2   -1    0    0  501    0  0.00000000000E+00  0.00000000000E+00  0.98404458043E+03  0.98404458043E+03  0.00000000000E+00 0. -1.
         -2   -1    0    0    0  501 -0.00000000000E+00 -0.00000000000E+00 -0.38297055000E+02  0.38297055000E+02  0.00000000000E+00 0.  1.
         23    2    1    2    0    0  0.54213571641E+02  0.14909590254E+03  0.56902788618E+03  0.60382792805E+03  0.12508689752E+03 0.  0.
          5    1    3    3  502    0  0.65310232093E+02  0.39469554983E+02  0.12671417709E+03  0.14797711736E+03  0.41800000000E+01 0. -1.
         -5    1    3    3    0  502 -0.11096660453E+02  0.10962634756E+03  0.44231370909E+03  0.45585081069E+03  0.41800000000E+01 0. -1.
        -11    1    1    2    0    0 -0.39636821632E+02 -0.15722365106E+03  0.31126408196E+03  0.35096393376E+03  0.00000000000E+00 0.  1.
         11    1    1    2    0    0 -0.14576750009E+02  0.81277485193E+01  0.65455557282E+02  0.67549773618E+02  0.00000000000E+00 0. -1.
</event>
<event>
 7    1  0.1620881E-005  0.8941785E+02  0.7561462E-02  0.1304268E+00
          2   -1    0    0  501    0  0.00000000000E+00  0.00000000000E+00  0.48408180424E+02  0.48408180424E+02  0.00000000000E+00 0. -1.
         -2   -1    0    0    0  501 -0.00000000000E+00 -0.00000000000E+00 -0.20277645965E+03  0.20277645965E+03  0.00000000000E+00 0.  1.
         23    2    1    2    0    0 -0.56507834626E+01  0.19672648210E+02 -0.11521799195E+03  0.17129474604E+03  0.12509100651E+03 0.  0.
          5    1    3    3  502    0  0.52278216039E+02  0.36552773666E+02 -0.42752178465E+02  0.76904735214E+02  0.41800000000E+01 0.  1.
         -5    1    3    3    0  502 -0.57928999502E+02 -0.16880125456E+02 -0.72465813487E+02  0.94390010822E+02  0.41800000000E+01 0.  1.
        -11    1    1    2    0    0  0.25136669241E+02 -0.23678555873E+02 -0.47154015116E+02  0.58446790248E+02  0.00000000000E+00 0.  1.
         11    1    1    2    0    0 -0.19485885778E+02  0.40059076628E+01  0.80037278409E+01  0.21443103789E+02  0.00000000000E+00 0. -1.
</event>
<event>
 7    1  0.1620881E-005  0.1785840E+03  0.7561462E-02  0.1169181E+00
         -1   -1    0    0    0  501 -0.00000000000E+00  0.00000000000E+00  0.51084997495E+02  0.51084997495E+02  0.00000000000E+00 0.  1.
          1   -1    0    0  501    0  0.00000000000E+00 -0.00000000000E+00 -0.78475698362E+03  0.78475698362E+03  0.00000000000E+00 0. -1.
         23    2    1    2    0    0 -0.12862301412E+03  0.98013800586E+02 -0.48068165611E+03  0.52235339615E+03  0.12509049156E+03 0.  0.
          5    1    3    3  502    0 -0.43710101685E+02  0.93412853621E+02 -0.36107543628E+03  0.37553891582E+03  0.41800000000E+01 0.  1.
         -5    1    3    3    0  502 -0.84912912438E+02  0.46009469648E+01 -0.11960621983E+03  0.14681448033E+03  0.41800000000E+01 0.  1.
        -11    1    1    2    0    0  0.59957677787E+02 -0.75787074183E+02 -0.20551326102E+03  0.22709976705E+03  0.00000000000E+00 0.  1.
         11    1    1    2    0    0  0.68665336337E+02 -0.22226726403E+02 -0.47477068992E+02  0.86388817916E+02  0.00000000000E+00 0. -1.
</event>
<event>
 7    1  0.1620881E-005  0.1093434E+03  0.7561462E-02  0.1261791E+00
          2   -1    0    0  501    0  0.00000000000E+00  0.00000000000E+00  0.34429613544E+03  0.34429613544E+03  0.00000000000E+00 0. -1.
         -2   -1    0    0    0  501 -0.00000000000E+00 -0.00000000000E+00 -0.80799264374E+02  0.80799264374E+02  0.00000000000E+00 0.  1.
         23    2    1    2    0    0  0.56152752066E+02  0.98383410253E+01 -0.37572342418E+01  0.13752125909E+03  0.12509218750E+03 0.  0.
          5    1    3    3  502    0 -0.19678758271E+02  0.46682785118E+02 -0.13374238731E+02  0.52563091758E+02  0.41800000000E+01 0. -1.
         -5    1    3    3    0  502  0.75831510337E+02 -0.36844444093E+02  0.96170044893E+01  0.84958167329E+02  0.41800000000E+01 0. -1.
        -11    1    1    2    0    0 -0.56844469535E+02 -0.29311146862E+02  0.25835401230E+03  0.26615264928E+03  0.00000000000E+00 0. -1.
         11    1    1    2    0    0  0.69171746826E+00  0.19472805837E+02  0.89000930025E+01  0.21421491443E+02  0.00000000000E+00 0.  1.
</event>
<event>
 7    1  0.1620881E-005  0.4178857E+03  0.7561462E-02  0.1037757E+00
         -2   -1    0    0    0  501 -0.00000000000E+00  0.00000000000E+00  0.85449601087E+02  0.85449601087E+02  0.00000000000E+00 0. -1.
          2   -1    0    0  501    0  0.00000000000E+00 -0.00000000000E+00 -0.22588077577E+04  0.22588077577E+04  0.00000000000E+00 0.  1.
         23    2    1    2    0    0 -0.40713860056E+03 -0.10268714173E+02 -0.76183602475E+03  0.87287393165E+03  0.12508990919E+03 0.  0.
          5    1    3    3  502    0 -0.88653233359E+02  0.44691518250E+02 -0.13519452779E+03  0.16778486324E+03  0.41800000000E+01 0.  1.
         -5    1    3    3    0  502 -0.31848536720E+03 -0.54960232424E+02 -0.62664149696E+03  0.70508906841E+03  0.41800000000E+01 0.  1.
        -11    1    1    2    0    0  0.61548214086E+02  0.26949756185E+02 -0.29119263854E+03  0.29884381331E+03  0.00000000000E+00 0.  1.
         11    1    1    2    0    0  0.34559038648E+03 -0.16681042011E+02 -0.11203294934E+04  0.11725396139E+04  0.00000000000E+00 0. -1.
</event>
<event>
 7    1  0.1620881E-005  0.1072826E+03  0.7561462E-02  0.1265686E+00
         -1   -1    0    0    0  501 -0.00000000000E+00  0.00000000000E+00  0.33727346930E+02  0.33727346930E+02  0.00000000000E+00 0.  1.
          1   -1    0    0  501    0  0.00000000000E+00 -0.00000000000E+00 -0.51151506641E+03  0.51151506641E+03  0.00000000000E+00 0. -1.
         23    2    1    2    0    0  0.68866015945E+02  0.28235722576E+02 -0.25947722535E+03  0.29751600269E+03  0.12509019626E+03 0.  0.
          5    1    3    3  502    0  0.77141449763E+02 -0.28524971712E+01 -0.25285088903E+03  0.26440496307E+03  0.41800000000E+01 0. -1.
         -5    1    3    3    0  502 -0.82754338179E+01  0.31088219747E+02 -0.66263363198E+01  0.33111039623E+02  0.41800000000E+01 0. -1.
        -11    1    1    2    0    0  0.76044657302E+01 -0.27301308138E+02 -0.18665511282E+02  0.33935094467E+02  0.00000000000E+00 0.  1.
         11    1    1    2    0    0 -0.76470481675E+02 -0.93441443789E+00 -0.19964498284E+03  0.21379131618E+03  0.00000000000E+00 0. -1.
</event>
<event>
 7    1  0.1620881E-005  0.1014138E+03  0.7561462E-02  0.1277351E+00
          1   -1    0    0  501    0  0.00000000000E+00  0.00000000000E+00  0.16752572494E+03  0.16752572494E+03  0.00000000000E+00 0. -1.
         -1   -1    0    0    0  501 -0.00000000000E+00 -0.00000000000E+00 -0.12885843903E+03  0.12885843903E+03  0.00000000000E+00 0.  1.
         23    2    1    2    0    0 -0.36839347671E+02  0.10129745542E+02 -0.71674326153E+02  0.14914218612E+03  0.12508570409E+03 0.  0.
          5    1    3    3  502    0  0.89830123716E+01  0.53661603726E+02 -0.14730770981E+01  0.54588502287E+02  0.41800000000E+01 0. -1.
         -5    1    3    3    0  502 -0.45822360043E+02 -0.43531858185E+02 -0.70201249054E+02  0.94553683829E+02  0.41800000000E+01 0. -1.
        -11    1    1    2    0    0  0.15855898553E+02 -0.43050587391E+02  0.22462507806E+02  0.51081570557E+02  0.00000000000E+00 0.  1.
         11    1    1    2    0    0  0.20983449118E+02  0.32920841850E+02  0.87879104265E+02  0.96160407297E+02  0.00000000000E+00 0. -1.
</event>
<event>
 7    1  0.1620881E-005  0.9671161E+02  0.7561462E-02  0.1287367E+00
         -2   -1    0    0    0  501 -0.00000000000E+00  0.00000000000E+00  0.25889183644E+03  0.25889183644E+03  0.00000000000E+00 0.  1.
          2   -1    0    0  501    0  0.00000000000E+00 -0.00000000000E+00 -0.47284714856E+02  0.47284714856E+02  0.00000000000E+00 0. -1.
         23    2    1    2    0    0 -0.12819008054E+02  0.27653873995E+02  0.14494720835E+03  0.19387353833E+03  0.12509273337E+03 0.  0.
          5    1    3    3  502    0 -0.67352587900E+02  0.86696730727E-01  0.74178596322E+02  0.10028118051E+03  0.41800000000E+01 0.  1.
         -5    1    3    3    0  502  0.54533579846E+02  0.27567177264E+02  0.70768612028E+02  0.93592357816E+02  0.41800000000E+01 0.  1.
        -11    1    1    2    0    0  0.34884287056E+02 -0.23960976776E+02  0.35150204929E+00  0.42322162577E+02  0.00000000000E+00 0. -1.
         11    1    1    2    0    0 -0.22065279002E+02 -0.36928972185E+01  0.66308411184E+02  0.69980850388E+02  0.00000000000E+00 0.  1.
</event>
<event>
 7    1  0.1620881E-005  0.9775833E+02  0.7561462E-02  0.1285082E+00
          2   -1    0    0  501    0  0.00000000000E+00  0.00000000000E+00  0.47208139911E+03  0.47208139911E+03  0.00000000000E+00 0. -1.
         -2   -1    0    0    0  501 -0.00000000000E+00 -0.00000000000E+00 -0.33181325063E+02  0.33181325063E+02  0.00000000000E+00 0.  1.
         23    2    1    2    0    0  0.57374190553E+02 -0.24930478937E+02  0.24962873469E+03  0.28613703819E+03  0.12508626193E+03 0.  0.
          5    1    3    3  502    0 -0.93981205233E+01 -0.27176940194E+02  0.20176043799E+03  0.20384223676E+03  0.41800000000E+01 0. -1.
         -5    1    3    3    0  502  0.66772311076E+02  0.22464612574E+01  0.47868296693E+02  0.82294801433E+02  0.41800000000E+01 0. -1.
        -11    1    1    2    0    0  0.17817749549E+02  0.15724799836E+02  0.96355333247E+02  0.99242590524E+02  0.00000000000E+00 0. -1.
         11    1    1    2    0    0 -0.75191940102E+02  0.92056791011E+01  0.92916006109E+02  0.11988309545E+03  0.00000000000E+00 0.  1.
</event>
<event>
 6    1  0.1620881E-005  0.1459202E+03  0.7561462E-02  0.1205578E+00
          2   -1    0    0  501    0  0.00000000000E+00  0.00000000000E+00  0.91691555965E+03  0.91691555965E+03  0.00000000000E+00 0. -1.
         -2   -1    0    0    0  501 -0.00000000000E+00 -0.00000000000E+00 -0.43935245526E+02  0.43935245526E+02  0.00000000000E+00 0.  1.
          5    1    1    2  502    0 -0.11975112799E+03 -0.27224001023E+02  0.27599954409E+03  0.30211702968E+03  0.41800000000E+01 0. -1.
         -5    1    1    2    0  502  0.49495741070E+01  0.23615374525E+02 -0.15454975592E+02  0.28957086669E+02  0.41800000000E+01 0.  1.
        -11    1    1    2    0    0  0.43351054945E+01 -0.28979377135E+02  0.84882174348E+02  0.89797444066E+02  0.00000000000E+00 0.  1.
         11    1    1    2    0    0  0.11046644839E+03  0.32588003633E+02  0.52755357128E+03  0.53997924476E+03  0.00000000000E+00 0. -1.
</event>
<event>
 7    1  0.1620881E-005  0.4371009E+02  0.7561462E-02  0.1482559E+00
          1   -1    0    0  501    0  0.00000000000E+00  0.00000000000E+00  0.42748137857E+03  0.42748137857E+03  0.00000000000E+00 0. -1.
         -1   -1    0    0    0  501 -0.00000000000E+00 -0.00000000000E+00 -0.21238353629E+02  0.21238353629E+02  0.00000000000E+00 0.  1.
         23    2    1    2    0    0 -0.37306629755E+02  0.63164814188E+00  0.21598087417E+03  0.25236207379E+03  0.12508674860E+03 0.  0.
          5    1    3    3  502    0 -0.24433642421E+02  0.82119291082E+01  0.22998526937E+03  0.23146303201E+03  0.41800000000E+01 0.  1.
         -5    1    3    3    0  502 -0.12872987335E+02 -0.75802809663E+01 -0.14004395194E+02  0.20899041777E+02  0.41800000000E+01 0.  1.
        -11    1    1    2    0    0  0.31021533997E+02 -0.11627135034E+02  0.16250635330E+03  0.16584884897E+03  0.00000000000E+00 0. -1.
         11    1    1    2    0    0  0.62850957583E+01  0.10995486892E+02  0.27755797465E+02  0.30508809442E+02  0.00000000000E+00 0.  1.
</event>
<event>
 7    1  0.1620881E-005  0.1382144E+03  0.7561462E-02  0.1215752E+00
         -3   -1    0    0    0  501 -0.00000000000E+00  0.00000000000E+00  0.65995564946E+02  0.65995564946E+02  0.00000000000E+00 0.  1.
          3   -1    0    0  501    0  0.00000000000E+00 -0.00000000000E+00 -0.43270917935E+03  0.43270917935E+03  0.00000000000E+00 0. -1.
         23    2    1    2    0    0  0.62272664370E+02 -0.61262448428E+02 -0.53839910367E+02  0.16179359453E+03  0.12508980361E+03 0.  0.
          5    1    3    3  502    0 -0.20824598186E+02 -0.65299929753E+02 -0.31512477091E+02  0.75552983579E+02  0.41800000000E+01 0. -1.
         -5    1    3    3    0  502  0.83097262556E+02  0.40374813253E+01 -0.22327433277E+02  0.86240610946E+02  0.41800000000E+01 0. -1.
        -11    1    1    2    0    0  0.80166056001E+01 -0.17286331543E+02 -0.59844557512E+02  0.62804890633E+02  0.00000000000E+00 0. -1.
         11    1    1    2    0    0 -0.70289269970E+02  0.78548779971E+02 -0.25302914653E+03  0.27410625914E+03  0.00000000000E+00 0.  1.
</event>
<event>
 7    1  0.1620881E-005  0.1263948E+03  0.7561462E-02  0.1232905E+00
          1   -1    0    0  501    0  0.00000000000E+00  0.00000000000E+00  0.22037267773E+02  0.22037267773E+02  0.00000000000E+00 0. -1.
         -1   -1    0    0    0  501 -0.00000000000E+00 -0.00000000000E+00 -0.75290169192E+03  0.75290169192E+03  0.00000000000E+00 0.  1.
         23    2    1    2    0    0 -0.28173993443E+02 -0.73197608119E+02 -0.46687911303E+03  0.48966833339E+03  0.12508919535E+03 0.  0.
          5    1    3    3  502    0 -0.71910390375E+02 -0.16968026825E+02 -0.28043231285E+03  0.29003236486E+03  0.41800000000E+01 0.  1.
         -5    1    3    3    0  502  0.43736396932E+02 -0.56229581294E+02 -0.18644680018E+03  0.19963596852E+03  0.41800000000E+01 0.  1.
        -11    1    1    2    0    0 -0.53424262483E+01 -0.13477430132E+02 -0.25727526122E+02  0.29531140201E+02  0.00000000000E+00 0. -1.
         11    1    1    2    0    0  0.33516419692E+02  0.86675038251E+02 -0.23825778499E+03  0.25573948610E+03  0.00000000000E+00 0.  1.
</event>
<event>
 7    1  0.1620881E-005  0.1106233E+03  0.7561462E-02  0.1259420E+00
          1   -1    0    0  501    0  0.00000000000E+00  0.00000000000E+00  0.60382525165E+02  0.60382525165E+02  0.00000000000E+00 0. -1.
         -1   -1    0    0    0  501 -0.00000000000E+00 -0.00000000000E+00 -0.30052371129E+03  0.30052371129E+03  0.00000000000E+00 0.  1.
         23    2    1    2    0    0 -0.64523709667E+02 -0.47551070127E+02 -0.12002186850E+03  0.19098886231E+03  0.12508830173E+03 0.  0.
          5    1    3    3  502    0  0.11445660149E+02  0.27231000642E+02  0.75472947550E+00  0.29842462177E+02  0.41800000000E+01 0.  1.
         -5    1    3    3    0  502 -0.75969369816E+02 -0.74782070769E+02 -0.12077659798E+03  0.16114640014E+03  0.41800000000E+01 0.  1.
        -11    1    1    2    0    0  0.24601761347E+02  0.35194206373E+02 -0.12071252322E+03  0.12812256665E+03  0.00000000000E+00 0.  1.
         11    1    1    2    0    0  0.39921948320E+02  0.12356863755E+02  0.59320560230E+00  0.41794807481E+02  0.00000000000E+00 0. -1.
</event>
<event>
 7    1  0.1620881E-005  0.9652888E+02  0.7561462E-02  0.1287769E+00
          2   -1    0    0  501    0  0.00000000000E+00  0.00000000000E+00  0.66153312865E+03  0.66153312865E+03  0.00000000000E+00 0. -1.
         -2   -1    0    0    0  501 -0.00000000000E+00 -0.00000000000E+00 -0.26327458683E+02  0.26327458683E+02  0.00000000000E+00 0.  1.
         23    2    1    2    0    0  0.59114127662E+02 -0.35796039992E+02  0.27471129836E+03  0.30966050043E+03  0.12508993371E+03 0.  0.
          5    1    3    3  502    0  0.76493839297E+02 -0.36933228245E+02  0.89049598506E+02  0.12313681088E+03  0.41800000000E+01 0.  1.
         -5    1    3    3    0  502 -0.17379711636E+02  0.11371882531E+01  0.18566169985E+03  0.18652368956E+03  0.41800000000E+01 0.  1.
        -11    1    1    2    0    0 -0.56421245406E+02  0.22707465479E+01  0.32271833753E+03  0.32762118155E+03  0.00000000000E+00 0. -1.
         11    1    1    2    0    0 -0.26928822551E+01  0.33525293444E+02  0.37776034076E+02  0.50578905345E+02  0.00000000000E+00 0.  1.
</event>
<event>
 7    1  0.1620881E-005  0.1351624E+03  0.7561462E-02  0.1219991E+00
          4   -1    0    0  501    0  0.00000000000E+00  0.00000000000E+00  0.78193432329E+03  0.78193432329E+03  0.00000000000E+00 0. -1.
         -4   -1    0    0    0  501 -0.00000000000E+00 -0.00000000000E+00 -0.25312494898E+02  0.25312494898E+02  0.00000000000E+00 0.  1.
         23    2    1    2    0    0 -0.86907065681E+02 -0.12246530963E+02  0.40009716254E+03  0.42828569493E+03  0.12509229164E+03 0.  0.
          5    1    3    3  502    0  0.18984028527E+01  0.42830333278E+02  0.71768239107E+02  0.83703010260E+02  0.41800000000E+01 0. -1.
         -5    1    3    3    0  502 -0.88805468534E+02 -0.55076864241E+02  0.32832892343E+03  0.34458268467E+03  0.41800000000E+01 0. -1.
        -11    1    1    2    0    0  0.72276851592E+02 -0.29776712013E+02  0.27716922558E+03  0.28798155403E+03  0.00000000000E+00 0. -1.
         11    1    1    2    0    0  0.14630214089E+02  0.42023242976E+02  0.79355440274E+02  0.90979569221E+02  0.00000000000E+00 0.  1.
</event>
<event>
 7    1  0.1620881E-005  0.2735633E+03  0.7561462E-02  0.1099257E+00
          2   -1    0    0  501    0  0.00000000000E+00  0.00000000000E+00  0.27606003213E+04  0.27606003213E+04  0.00000000000E+00 0. -1.
         -2   -1    0    0    0  501 -0.00000000000E+00 -0.00000000000E+00 -0.28390547755E+02  0.28390547755E+02  0.00000000000E+00 0.  1.
         23    2    1    2    0    0 -0.14851861384E+03 -0.20938975337E+03  0.13943683549E+04  0.14233093850E+04  0.12507857080E+03 0.  0.
          5    1    3    3  502    0 -0.16128905524E+03 -0.18967746373E+03  0.13515051152E+04  0.13742544337E+04  0.41800000000E+01 0.  1.
         -5    1    3    3    0  502  0.12770441399E+02 -0.19712289639E+02  0.42863239656E+02  0.49054951332E+02  0.41800000000E+01 0.  1.
        -11    1    1    2    0    0  0.28365425240E+02  0.12309968904E+03  0.59852167051E+03  0.61170770868E+03  0.00000000000E+00 0.  1.
         11    1    1    2    0    0  0.12015318860E+03  0.86290064336E+02  0.73931974816E+03  0.75397377538E+03  0.00000000000E+00 0. -1.
</event>
<event>
 7    1  0.1620881E-005  0.9998248E+02  0.7561462E-02  0.1280333E+00
         -2   -1    0    0    0  501 -0.00000000000E+00  0.00000000000E+00  0.20693161006E+03  0.20693161006E+03  0.00000000000E+00 0.  1.
          2   -1    0    0  501    0  0.00000000000E+00 -0.00000000000E+00 -0.96305784463E+02  0.96305784463E+02  0.00000000000E+00 0. -1.
         23    2    1    2    0    0 -0.82074712148E+02  0.33518956396E+02  0.73219157134E+02  0.16990319097E+03  0.12508505314E+03 0.  0.
          5    1    3    3  502    0 -0.70216954515E+02 -0.52650446713E+01 -0.15538533260E+02  0.72229217167E+02  0.41800000000E+01 0.  1.
         -5    1    3    3    0  502 -0.11857757633E+02  0.38784001067E+02  0.88757690394E+02  0.97673973806E+02  0.41800000000E+01 0.  1.
        -11    1    1    2    0    0  0.43798077329E+02 -0.17725395658E+02 -0.28734899027E+02  0.55300593587E+02  0.00000000000E+00 0. -1.
         11    1    1    2    0    0  0.38276634819E+02 -0.15793560738E+02  0.66141567488E+02  0.78033609962E+02  0.00000000000E+00 0.  1.
</event>
<event>
 7    1  0.1620881E-005  0.1041839E+03  0.7561462E-02  0.1271736E+00
          1   -1    0    0  501    0  0.00000000000E+00  0.00000000000E+00  0.12336936911E+03  0.12336936911E+03  0.00000000000E+00 0. -1.
         -1   -1    0    0    0  501 -0.00000000000E+00 -0.00000000000E+00 -0.10983341805E+03  0.10983341805E+03  0.00000000000E+00 0.  1.
         23    2    1    2    0    0  0.41581726429E+02  0.94451008351E+01  0.28898539281E+01  0.13219065191E+03  0.12509103603E+03 0.  0.
          5    1    3    3  502    0  0.66570552604E+02 -0.28476704794E+02  0.30719214892E+02  0.78763594088E+02  0.41800000000E+01 0.  1.
         -5    1    3    3    0  502 -0.24988826175E+02  0.37921805630E+02 -0.27829360964E+02  0.53427057822E+02  0.41800000000E+01 0.  1.
        -11    1    1    2    0    0 -0.52838286324E+02 -0.34268998864E+02  0.27763266126E+02  0.68826213979E+02  0.00000000000E+00 0.  1.
         11    1    1    2    0    0  0.11256559894E+02  0.24823898029E+02 -0.17117168989E+02  0.32185921273E+02  0.00000000000E+00 0. -1.
</event>
<event>
 7    1  0.1620881E-005  0.1314474E+03  0.7561462E-02  0.1225324E+00
          1   -1    0    0  501    0  0.00000000000E+00  0.00000000000E+00  0.42541927840E+03  0.42541927840E+03  0.00000000000E+00 0. -1.
         -1   -1    0    0    0  501 -0.00000000000E+00 -0.00000000000E+00 -0.56766732215E+02  0.56766732215E+02  0.00000000000E+00 0.  1.
         23    2    1    2    0    0 -0.29557922203E+01 -0.10854802637E+03  0.16467515765E+03  0.23357500694E+03  0.12509182861E+03 0.  0.
          5    1    3    3  502    0 -0.48195411390E+02 -0.32725327977E+02  0.12234230469E+03  0.13556864198E+03  0.41800000000E+01 0. -1.
         -5    1    3    3    0  502  0.45239619170E+02 -0.75822698390E+02  0.42332852956E+02  0.98006364963E+02  0.41800000000E+01 0. -1.
        -11    1    1    2    0    0  0.20066156539E+02  0.32887619334E+02  0.10154308868E+02  0.39841638173E+02  0.00000000000E+00 0.  1.
         11    1    1    2    0    0 -0.17110364319E+02  0.75660407032E+02  0.19382307967E+03  0.20876936550E+03  0.00000000000E+00 0. -1.
</event>
<event>
 7    1  0.1620881E-005  0.1697322E+03  0.7561462E-02  0.1178127E+00
          1   -1    0    0  501    0  0.00000000000E+00  0.00000000000E+00  0.13944360365E+03  0.13944360365E+03  0.00000000000E+00 0. -1.
         -1   -1    0    0    0  501 -0.00000000000E+00 -0.00000000000E+00 -0.26948785820E+03  0.26948785820E+03  0.00000000000E+00 0.  1.
         23    2    1    2    0    0 -0.57188809853E+02  0.12819096346E+03 -0.15043595365E+03  0.24079649253E+03  0.12509393103E+03 0.  0.
          5    1    3    3  502    0  0.27269693924E+02  0.11300505181E+02 -0.68913682346E+02  0.75085988297E+02  0.41800000000E+01 0. -1.
         -5    1    3    3    0  502 -0.84458503777E+02  0.11689045827E+03 -0.81522271306E+02  0.16571050424E+03  0.41800000000E+01 0. -1.
        -11    1    1    2    0    0  0.67118088617E+02 -0.43216423209E+02  0.21137607973E+02  0.82579025942E+02  0.00000000000E+00 0. -1.
         11    1    1    2    0    0 -0.99292787647E+01 -0.84974540247E+02 -0.74590887382E+00  0.85555943376E+02  0.00000000000E+00 0.  1.
</event>
<event>
 7    1  0.1620881E-005  0.1477526E+03  0.7561462E-02  0.1203262E+00
         -1   -1    0    0    0  501 -0.00000000000E+00  0.00000000000E+00  0.23642750129E+03  0.23642750129E+03  0.00000000000E+00 0.  1.
          1   -1    0    0  501    0  0.00000000000E+00 -0.00000000000E+00 -0.10613996149E+03  0.10613996149E+03  0.00000000000E+00 0. -1.
         23    2    1    2    0    0 -0.61336932954E+02 -0.85354440149E+02  0.12124078710E+03  0.20345328608E+03  0.12508521640E+03 0.  0.
          5    1    3    3  502    0  0.27628940043E+02  0.10256737688E+02  0.38992321747E+02  0.49055402874E+02  0.41800000000E+01 0. -1.
         -5    1    3    3    0  502 -0.88965872997E+02 -0.95611177837E+02  0.82248465357E+02  0.15439788321E+03  0.41800000000E+01 0. -1.
        -11    1    1    2    0    0  0.82979645420E+02  0.65771469646E+02  0.20336153506E+02  0.10781960356E+03  0.00000000000E+00 0. -1.
         11    1    1    2    0    0 -0.21642712466E+02  0.19582970504E+02 -0.11289400816E+02  0.31294573130E+02  0.00000000000E+00 0.  1.
</event>
<event>
 7    1  0.1620881E-005  0.1345855E+03  0.7561462E-02  0.1220806E+00
          1   -1    0    0  501    0  0.00000000000E+00  0.00000000000E+00  0.27942576367E+03  0.27942576367E+03  0.00000000000E+00 0. -1.
         -1   -1    0    0    0  501 -0.00000000000E+00 -0.00000000000E+00 -0.67229425869E+02  0.67229425869E+02  0.00000000000E+00 0.  1.
         23    2    1    2    0    0  0.74160158305E+02  0.26320910600E+02  0.83497712310E+02  0.16974007594E+03  0.12508919219E+03 0.  0.
          5    1    3    3  502    0 -0.34199636336E+02  0.18383745052E+02  0.22291199593E+02  0.44966067061E+02  0.41800000000E+01 0.  1.
         -5    1    3    3    0  502  0.10835979464E+03  0.79371655480E+01  0.61206512718E+02  0.12477400887E+03  0.41800000000E+01 0.  1.
        -11    1    1    2    0    0  0.18767158177E+02 -0.21210071101E+02  0.30424928567E+02  0.41566207674E+02  0.00000000000E+00 0. -1.
         11    1    1    2    0    0 -0.92927316482E+02 -0.51108394993E+01  0.98273696927E+02  0.13534890593E+03  0.00000000000E+00 0.  1.
</event>
<event>
 7    1  0.1620881E-005  0.1013595E+03  0.7561462E-02  0.1277463E+00
         -1   -1    0    0    0  501 -0.00000000000E+00  0.00000000000E+00  0.88202526804E+02  0.88202526804E+02  0.00000000000E+00 0.  1.
          1   -1    0    0  501    0  0.00000000000E+00 -0.00000000000E+00 -0.17637828202E+03  0.17637828202E+03  0.00000000000E+00 0. -1.
         23    2    1    2    0    0  0.32759555744E+02 -0.24399834304E+02 -0.81965472009E+01  0.13184589307E+03  0.12509043020E+03 0.  0.
          5    1    3    3  502    0 -0.23355493036E+02 -0.32885512568E+02  0.40231150162E+02  0.57122270921E+02  0.41800000000E+01 0.  1.
         -5    1    3    3    0  502  0.56115048781E+02  0.84856782636E+01 -0.48427697363E+02  0.74723622150E+02  0.41800000000E+01 0.  1.
        -11    1    1    2    0    0  0.33880189166E+02 -0.11283079576E+01 -0.18953899770E+02  0.38838004754E+02  0.00000000000E+00 0.  1.
         11    1    1    2    0    0 -0.66639744910E+02  0.25528142262E+02 -0.61025308249E+02  0.93896911003E+02  0.00000000000E+00 0. -1.
</event>
<event>
 7    1  0.1620881E-005  0.1294701E+03  0.7561462E-02  0.1228244E+00
         -1   -1    0    0    0  501 -0.00000000000E+00  0.00000000000E+00  0.91140301941E+03  0.91140301941E+03  0.00000000000E+00 0.  1.
          1   -1    0    0  501    0  0.00000000000E+00 -0.00000000000E+00 -0.26248937501E+02  0.26248937501E+02  0.00000000000E+00 0. -1.
         23    2    1    2    0    0  0.56803886912E+02  0.42721448340E+02  0.72812604617E+03  0.74220431096E+03  0.12509155203E+03 0.  0.
          5    1    3    3  502    0 -0.27367011696E+02  0.52054976466E+02  0.31397999147E+03  0.31946765306E+03  0.41800000000E+01 0. -1.
         -5    1    3    3    0  502  0.84170898608E+02 -0.93335281260E+01  0.41414605469E+03  0.42273665791E+03  0.41800000000E+01 0. -1.
        -11    1    1    2    0    0 -0.59460182793E+02  0.11787963058E+02  0.96404020361E+02  0.11387802489E+03  0.00000000000E+00 0.  1.
         11    1    1    2    0    0  0.26562958812E+01 -0.54509411398E+02  0.60624015382E+02  0.81569621059E+02  0.00000000000E+00 0. -1.
</event>
<event>
 7    1  0.1620881E-005  0.1089546E+03  0.7561462E-02  0.1262518E+00
          2   -1    0    0  501    0  0.00000000000E+00  0.00000000000E+00  0.15921678633E+04  0.15921678633E+04  0.00000000000E+00 0. -1.
         -2   -1    0    0    0  501 -0.00000000000E+00 -0.00000000000E+00 -0.91359160403E+01  0.91359160403E+01  0.00000000000E+00 0.  1.
         23    2    1    2    0    0 -0.38915870813E+02  0.29587938187E+02  0.95392489085E+03  0.96333455054E+03  0.12510342842E+03 0.  0.
          5    1    3    3  502    0  0.32558663183E+02  0.22919848700E+02  0.12405676092E+03  0.13035696507E+03  0.41800000000E+01 0.  1.
         -5    1    3    3    0  502 -0.71474533996E+02  0.66680894868E+01  0.82986812993E+03  0.83297758548E+03  0.41800000000E+01 0.  1.
        -11    1    1    2    0    0 -0.54643389311E+01  0.30656984827E+02  0.18428594374E+03  0.18689841834E+03  0.00000000000E+00 0. -1.
         11    1    1    2    0    0  0.44380209745E+02 -0.60244923014E+02  0.44482111264E+03  0.45107081042E+03  0.00000000000E+00 0.  1.
</event>
<event>
 7    1  0.1620881E-005  0.8050657E+02  0.7561462E-02  0.1327620E+00
          1   -1    0    0  501    0  0.00000000000E+00  0.00000000000E+00  0.39586455047E+03  0.39586455047E+03  0.00000000000E+00 0. -1.
         -1   -1    0    0    0  501 -0.00000000000E+00 -0.00000000000E+00 -0.31730134190E+02  0.31730134190E+02  0.00000000000E+00 0.  1.
         23    2    1    2    0    0 -0.16567352588E+02  0.21333174179E+02  0.20419344932E+03  0.24098139195E+03  0.12508990779E+03 0.  0.
          5    1    3    3  502    0 -0.49455448149E+02 -0.11315231854E+02  0.18282475891E+03  0.18977945277E+03  0.41800000000E+01 0. -1.
         -5    1    3    3    0  502  0.32888095561E+02  0.32648406034E+02  0.21368690406E+02  0.51201939180E+02  0.41800000000E+01 0. -1.
        -11    1    1    2    0    0  0.25168052831E+02 -0.37560118051E+02  0.16194590187E+03  0.16813883693E+03  0.00000000000E+00 0. -1.
         11    1    1    2    0    0 -0.86007002435E+01  0.16226943871E+02 -0.20049349134E+01  0.18474455773E+02  0.00000000000E+00 0.  1.
</event>
<event>
 7    1  0.1620881E-005  0.1622536E+03  0.7561462E-02  0.1186176E+00
          2   -1    0    0  501    0  0.00000000000E+00  0.00000000000E+00  0.25394033388E+03  0.25394033388E+03  0.00000000000E+00 0.  1.
         -2   -1    0    0    0  501 -0.00000000000E+00 -0.00000000000E+00 -0.13453883894E+03  0.13453883894E+03  0.00000000000E+00 0. -1.
         23    2    1    2    0    0 -0.13796044023E+03 -0.22240145705E+02  0.98906841706E+01  0.18781010367E+03  0.12508837779E+03 0.  0.
          5    1    3    3  502    0  0.18023297448E+02  0.14730402715E+02 -0.11023435047E+02  0.26092384623E+02  0.41800000000E+01 0. -1.
         -5    1    3    3    0  502 -0.15598373768E+03 -0.36970548420E+02  0.20914119218E+02  0.16171771904E+03  0.41800000000E+01 0. -1.
        -11    1    1    2    0    0  0.35692819518E+02  0.12281792578E+02 -0.13772094366E+02  0.40180721463E+02  0.00000000000E+00 0. -1.
         11    1    1    2    0    0  0.10226762071E+03  0.99583531269E+01  0.12328290514E+03  0.16048834768E+03  0.00000000000E+00 0.  1.
</event>
<event>
 7    1  0.1620881E-005  0.6987772E+02  0.7561462E-02  0.1360509E+00
          1   -1    0    0  501    0  0.00000000000E+00  0.00000000000E+00  0.26405936095E+03  0.26405936095E+03  0.00000000000E+00 0. -1.
         -1   -1    0    0    0  501 -0.00000000000E+00 -0.00000000000E+00 -0.47051453968E+02  0.47051453968E+02  0.00000000000E+00 0.  1.
         23    2    1    2    0    0 -0.19615597317E+02  0.11183195410E+02  0.11708515257E+03  0.17456091204E+03  0.12748624844E+03 0.  0.
          5    1    3    3  502    0 -0.45555811654E+02  0.97120626362E+01  0.13490362177E+03  0.14277995554E+03  0.41800000000E+01 0. -1.
         -5    1    3    3    0  502  0.25940214337E+02  0.14711327735E+01 -0.17818469203E+02  0.31780956502E+02  0.41800000000E+01 0.  1.
        -11    1    1    2    0    0  0.42622989330E+02 -0.89922487565E+01  0.11355654031E+02  0.45017003850E+02  0.00000000000E+00 0.  1.
         11    1    1    2    0    0 -0.23007392013E+02 -0.21909466532E+01  0.88567100383E+02  0.91532899029E+02  0.00000000000E+00 0. -1.
</event>
<event>
 7    1  0.1620881E-005  0.1343311E+03  0.7561462E-02  0.1221167E+00
         -1   -1    0    0    0  501 -0.00000000000E+00  0.00000000000E+00  0.17980970146E+03  0.17980970146E+03  0.00000000000E+00 0.  1.
          1   -1    0    0  501    0  0.00000000000E+00 -0.00000000000E+00 -0.12267421334E+03  0.12267421334E+03  0.00000000000E+00 0. -1.
         23    2    1    2    0    0 -0.80634286645E+02 -0.60883823084E+01  0.81435566206E+02  0.16975856574E+03  0.12508901877E+03 0.  0.
          5    1    3    3  502    0 -0.48643014761E+02  0.52581218563E+02  0.11023323783E+02  0.72594169861E+02  0.41800000000E+01 0.  1.
         -5    1    3    3    0  502 -0.31991271884E+02 -0.58669600872E+02  0.70412242424E+02  0.97164395878E+02  0.41800000000E+01 0.  1.
        -11    1    1    2    0    0  0.30003616853E+02 -0.47530704640E+02 -0.46164848228E+01  0.56397666973E+02  0.00000000000E+00 0. -1.
         11    1    1    2    0    0  0.50630669791E+02  0.53619086949E+02 -0.19683593272E+02  0.76327682087E+02  0.00000000000E+00 0.  1.
</event>
<event>
 7    1  0.1620881E-005  0.1555763E+03  0.7561462E-02  0.1193784E+00
          2   -1    0    0  501    0  0.00000000000E+00  0.00000000000E+00  0.35830921550E+03  0.35830921550E+03  0.00000000000E+00 0. -1.
         -2   -1    0    0    0  501 -0.00000000000E+00 -0.00000000000E+00 -0.89617064725E+02  0.89617064725E+02  0.00000000000E+00 0.  1.
         23    2    1    2    0    0  0.11481480756E+03 -0.51442462544E+02  0.59202913914E+02  0.18703239205E+03  0.12508942271E+03 0.  0.
          5    1    3    3  502    0  0.12340126295E+02 -0.51957800364E+02  0.65095852447E+02  0.84302041146E+02  0.41800000000E+01 0. -1.
         -5    1    3    3    0  502  0.10247468126E+03  0.51533781921E+00 -0.58929385331E+01  0.10273035091E+03  0.41800000000E+01 0. -1.
        -11    1    1    2    0    0 -0.40258744004E+02 -0.25683972304E+02  0.55375040254E+02  0.73122007530E+02  0.00000000000E+00 0.  1.
         11    1    1    2    0    0 -0.74556063552E+02  0.77126434848E+02  0.15411419661E+03  0.18777188064E+03  0.00000000000E+00 0. -1.
</event>
<event>
 7    1  0.1620881E-005  0.1273156E+03  0.7561462E-02  0.1231494E+00
         -2   -1    0    0    0  501 -0.00000000000E+00  0.00000000000E+00  0.45976627615E+03  0.45976627615E+03  0.00000000000E+00 0.  1.
          2   -1    0    0  501    0  0.00000000000E+00 -0.00000000000E+00 -0.48397915780E+02  0.48397915780E+02  0.00000000000E+00 0. -1.
         23    2    1    2    0    0 -0.78511337211E+02  0.60558741403E+02  0.26713373588E+03  0.31119036143E+03  0.12509043516E+03 0.  0.
          5    1    3    3  502    0  0.15852661346E+02  0.58470819613E+02  0.14162834795E+03  0.15409803685E+03  0.41800000000E+01 0.  1.
         -5    1    3    3    0  502 -0.94363998557E+02  0.20879217892E+01  0.12550538794E+03  0.15709232458E+03  0.41800000000E+01 0.  1.
        -11    1    1    2    0    0  0.45991916868E+02 -0.39999431583E+02  0.14625457078E+03  0.15844750051E+03  0.00000000000E+00 0.  1.
         11    1    1    2    0    0  0.32519420342E+02 -0.20559309820E+02 -0.20199462906E+01  0.38526329993E+02  0.00000000000E+00 0. -1.
</event>
<event>
 7    1  0.1620881E-005  0.1225531E+03  0.7561462E-02  0.1238944E+00
          1   -1    0    0  501    0  0.00000000000E+00  0.00000000000E+00  0.50343141479E+03  0.50343141479E+03  0.00000000000E+00 0. -1.
         -1   -1    0    0    0  501 -0.00000000000E+00 -0.00000000000E+00 -0.43869018284E+02  0.43869018284E+02  0.00000000000E+00 0.  1.
         23    2    1    2    0    0  0.33901223515E+01 -0.87956485974E+02  0.16082695057E+03  0.22194626716E+03  0.12508797353E+03 0.  0.
          5    1    3    3  502    0 -0.35123109130E+02 -0.24477633051E+02 -0.18740579038E+01  0.43055450384E+02  0.41800000000E+01 0. -1.
         -5    1    3    3    0  502  0.38513231481E+02 -0.63478852922E+02  0.16270100848E+03  0.17889081678E+03  0.41800000000E+01 0. -1.
        -11    1    1    2    0    0  0.27167960357E+01  0.10735453322E+03  0.23325506435E+03  0.25678843787E+03  0.00000000000E+00 0. -1.
         11    1    1    2    0    0 -0.61069183872E+01 -0.19398047242E+02  0.65480381589E+02  0.68565728042E+02  0.00000000000E+00 0.  1.
</event>
<event>
 7    1  0.1620881E-005  0.1420193E+03  0.7561462E-02  0.1210637E+00
          1   -1    0    0  501    0  0.00000000000E+00  0.00000000000E+00  0.58501200354E+03  0.58501200354E+03  0.00000000000E+00 0. -1.
         -1   -1    0    0    0  501 -0.00000000000E+00 -0.00000000000E+00 -0.38262090483E+02  0.38262090483E+02  0.00000000000E+00 0.  1.
         23    2    1    2    0    0 -0.11187403021E+03  0.85698875916E+01  0.26094799280E+03  0.31037273233E+03  0.12509251145E+03 0.  0.
          5    1    3    3  502    0 -0.11186902649E+03 -0.40036345834E+02  0.17552142116E+03  0.21199723998E+03  0.41800000000E+01 0.  1.
         -5    1    3    3    0  502 -0.50037288740E-02  0.48606233426E+02  0.85426571640E+02  0.98375492350E+02  0.41800000000E+01 0.  1.
        -11    1    1    2    0    0  0.17440441732E+02  0.10023071690E+02  0.11589567476E+03  0.11762839114E+03  0.00000000000E+00 0.  1.
         11    1    1    2    0    0  0.94433588483E+02 -0.18592959281E+02  0.16990624549E+03  0.19527297055E+03  0.00000000000E+00 0. -1.
</event>
<event>
 7    1  0.1620881E-005  0.1344549E+03  0.7561462E-02  0.1220991E+00
          2   -1    0    0  501    0  0.00000000000E+00  0.00000000000E+00  0.15549956393E+02  0.15549956393E+02  0.00000000000E+00 0. -1.
         -2   -1    0    0    0  501 -0.00000000000E+00 -0.00000000000E+00 -0.13048500709E+04  0.13048500709E+04  0.00000000000E+00 0.  1.
         23    2    1    2    0    0  0.22329249202E+02  0.84869068950E+02 -0.85747130094E+03  0.87097921090E+03  0.12508556934E+03 0.  0.
          5    1    3    3  502    0  0.73886612724E+02  0.38980554326E+02 -0.46472509730E+03  0.47219233752E+03  0.41800000000E+01 0. -1.
         -5    1    3    3    0  502 -0.51557363522E+02  0.45888514624E+02 -0.39274620364E+03  0.39878687338E+03  0.41800000000E+01 0. -1.
        -11    1    1    2    0    0 -0.47633764505E+02 -0.31649379651E+02 -0.13200894627E+03  0.14386459136E+03  0.00000000000E+00 0.  1.
         11    1    1    2    0    0  0.25304515302E+02 -0.53219689299E+02 -0.29981986727E+03  0.30555622500E+03  0.00000000000E+00 0. -1.
</event>
<event>
 7    1  0.1620881E-005  0.1182432E+03  0.7561462E-02  0.1246024E+00
         -2   -1    0    0    0  501 -0.00000000000E+00  0.00000000000E+00  0.45731820687E+02  0.45731820687E+02  0.00000000000E+00 0.  1.
          2   -1    0    0  501    0  0.00000000000E+00 -0.00000000000E+00 -0.42094348923E+03  0.42094348923E+03  0.00000000000E+00 0. -1.
         23    2    1    2    0    0 -0.49714028998E+02  0.68830111149E+02 -0.20281287105E+03  0.25296308209E+03  0.12509273103E+03 0.  0.
          5    1    3    3  502    0 -0.44118954587E+02  0.25821657804E+01 -0.17539628954E+03  0.18092672693E+03  0.41800000000E+01 0. -1.
         -5    1    3    3    0  502 -0.55950744107E+01  0.66247945369E+02 -0.27416581516E+02  0.72036355164E+02  0.41800000000E+01 0. -1.
        -11    1    1    2    0    0  0.33585375021E+02  0.17350848074E+02 -0.41213411487E+02  0.55924722892E+02  0.00000000000E+00 0. -1.
         11    1    1    2    0    0  0.16128653977E+02 -0.86180959223E+02 -0.13118538601E+03  0.15778750493E+03  0.00000000000E+00 0.  1.
</event>
<event>
 7    1  0.1620881E-005  0.1040155E+03  0.7561462E-02  0.1272071E+00
         -2   -1    0    0    0  501 -0.00000000000E+00  0.00000000000E+00  0.35808865617E+02  0.35808865617E+02  0.00000000000E+00 0.  1.
          2   -1    0    0  501    0  0.00000000000E+00 -0.00000000000E+00 -0.45655375534E+03  0.45655375534E+03  0.00000000000E+00 0. -1.
         23    2    1    2    0    0 -0.35821270403E+02 -0.36891460163E+02 -0.15598620851E+03  0.20645315504E+03  0.12508822780E+03 0.  0.
          5    1    3    3  502    0  0.38728089292E+01 -0.55860250692E+02 -0.14169184343E+02  0.57910313773E+02  0.41800000000E+01 0. -1.
         -5    1    3    3    0  502 -0.39694079332E+02  0.18968790528E+02 -0.14181702417E+03  0.14854284127E+03  0.41800000000E+01 0. -1.
        -11    1    1    2    0    0  0.54492359496E+02 -0.11612322639E+02 -0.12759089526E+03  0.13922535629E+03  0.00000000000E+00 0. -1.
         11    1    1    2    0    0 -0.18671089093E+02  0.48503782802E+02 -0.13716778595E+03  0.14668410962E+03  0.00000000000E+00 0.  1.
</event>
<event>
 7    1  0.1620881E-005  0.3034593E+03  0.7561462E-02  0.1083524E+00
          2   -1    0    0  501    0  0.00000000000E+00  0.00000000000E+00  0.94439007087E+03  0.94439007087E+03  0.00000000000E+00 0. -1.
         -2   -1    0    0    0  501 -0.00000000000E+00 -0.00000000000E+00 -0.15851653071E+03  0.15851653071E+03  0.00000000000E+00 0.  1.
         23    2    1    2    0    0 -0.28341123470E+03 -0.68932137192E+02  0.70477641107E+02  0.32509558194E+03  0.12508585855E+03 0.  0.
          5    1    3    3  502    0 -0.11682696836E+03 -0.89158051824E+02  0.53194780862E+02  0.15634850767E+03  0.41800000000E+01 0. -1.
         -5    1    3    3    0  502 -0.16658426634E+03  0.20225914631E+02  0.17282860245E+02  0.16874707427E+03  0.41800000000E+01 0. -1.
        -11    1    1    2    0    0  0.13399378860E+03  0.40086023209E+02  0.45712016114E+03  0.47803772483E+03  0.00000000000E+00 0. -1.
         11    1    1    2    0    0  0.14941744610E+03  0.28846113983E+02  0.25827573791E+03  0.29977329481E+03  0.00000000000E+00 0.  1.
</event>
<event>
 7    1  0.1620881E-005  0.1625579E+03  0.7561462E-02  0.1185839E+00
         -1   -1    0    0    0  501 -0.00000000000E+00  0.00000000000E+00  0.16430158604E+03  0.16430158604E+03  0.00000000000E+00 0.  1.
          1   -1    0    0  501    0  0.00000000000E+00 -0.00000000000E+00 -0.16242372209E+03  0.16242372209E+03  0.00000000000E+00 0. -1.
         23    2    1    2    0    0  0.39400949830E+02  0.11906658072E+03  0.16949012889E+02  0.17794479055E+03  0.12509114258E+03 0.  0.
          5    1    3    3  502    0 -0.29789539494E+02  0.10114202440E+03  0.88362648580E+01  0.10588993219E+03  0.41800000000E+01 0.  1.
         -5    1    3    3    0  502  0.69190489324E+02  0.17924556323E+02  0.81127480312E+01  0.72054858357E+02  0.41800000000E+01 0.  1.
        -11    1    1    2    0    0  0.30699784885E+01 -0.10228700044E+03 -0.11452335896E+02  0.10297189532E+03  0.00000000000E+00 0. -1.
         11    1    1    2    0    0 -0.42470928319E+02 -0.16779580275E+02 -0.36188130456E+01  0.45808622271E+02  0.00000000000E+00 0.  1.
</event>
<event>
 7    1  0.1620881E-005  0.1329728E+03  0.7561462E-02  0.1223110E+00
          1   -1    0    0  501    0  0.00000000000E+00  0.00000000000E+00  0.73315399042E+02  0.73315399042E+02  0.00000000000E+00 0. -1.
         -1   -1    0    0    0  501 -0.00000000000E+00 -0.00000000000E+00 -0.26938930602E+03  0.26938930602E+03  0.00000000000E+00 0.  1.
         23    2    1    2    0    0 -0.72778261323E+02 -0.75025808850E+01 -0.14217611618E+03  0.20301491173E+03  0.12509213537E+03 0.  0.
          5    1    3    3  502    0  0.25270925631E+02 -0.34192631207E+02 -0.34622591779E+02  0.54990471653E+02  0.41800000000E+01 0.  1.
         -5    1    3    3    0  502 -0.98049186954E+02  0.26690050322E+02 -0.10755352440E+03  0.14802444007E+03  0.41800000000E+01 0.  1.
        -11    1    1    2    0    0  0.90504621163E+02 -0.16178522201E+02 -0.59596186309E+02  0.10956521553E+03  0.00000000000E+00 0.  1.
         11    1    1    2    0    0 -0.17726359840E+02  0.23681103086E+02  0.56983955058E+01  0.30124577804E+02  0.00000000000E+00 0. -1.
</event>
<event>
 7    1  0.1620881E-005  0.1625850E+03  0.7561462E-02  0.1185809E+00
          3   -1    0    0  501    0  0.00000000000E+00  0.00000000000E+00  0.62747545053E+03  0.62747545053E+03  0.00000000000E+00 0. -1.
         -3   -1    0    0    0  501 -0.00000000000E+00 -0.00000000000E+00 -0.58100700707E+02  0.58100700707E+02  0.00000000000E+00 0.  1.
         23    2    1    2    0    0  0.75689369080E+02 -0.13622564184E+03  0.26424491881E+03  0.33129963977E+03  0.12509103927E+03 0.  0.
          5    1    3    3  502    0 -0.93551405699E+01 -0.21271174804E+02  0.13953313882E+03  0.14151660949E+03  0.41800000000E+01 0. -1.
         -5    1    3    3    0  502  0.85044509650E+02 -0.11495446703E+03  0.12471177999E+03  0.18978303028E+03  0.41800000000E+01 0. -1.
        -11    1    1    2    0    0 -0.61294869117E+02  0.81852762939E+02  0.10571095507E+03  0.14707733273E+03  0.00000000000E+00 0.  1.
         11    1    1    2    0    0 -0.14394499963E+02  0.54372878898E+02  0.19941887595E+03  0.20719917875E+03  0.00000000000E+00 0. -1.
</event>
<event>
 7    1  0.1620881E-005  0.1336487E+03  0.7561462E-02  0.1222140E+00
          2   -1    0    0  501    0  0.00000000000E+00  0.00000000000E+00  0.52453625236E+03  0.52453625236E+03  0.00000000000E+00 0. -1.
         -2   -1    0    0    0  501 -0.00000000000E+00 -0.00000000000E+00 -0.39976743200E+02  0.39976743200E+02  0.00000000000E+00 0.  1.
         23    2    1    2    0    0  0.45995342206E+02 -0.81538509583E+02  0.29369073342E+03  0.33266307261E+03  0.12508546251E+03 0.  0.
          5    1    3    3  502    0 -0.16296153026E+01 -0.90520865068E+02  0.25462425719E+03  0.27027331983E+03  0.41800000000E+01 0. -1.
         -5    1    3    3    0  502  0.47624957509E+02  0.89823554850E+01  0.39066476231E+02  0.62389752787E+02  0.41800000000E+01 0. -1.
        -11    1    1    2    0    0 -0.57897547111E+02  0.14166230208E+02  0.11607976758E+03  0.13048877531E+03  0.00000000000E+00 0.  1.
         11    1    1    2    0    0  0.11902204905E+02  0.67372279375E+02  0.74789008158E+02  0.10136114764E+03  0.00000000000E+00 0. -1.
</event>
<event>
 7    1  0.1620881E-005  0.9887968E+02  0.7561462E-02  0.1282670E+00
         -4   -1    0    0    0  501 -0.00000000000E+00  0.00000000000E+00  0.52496337031E+02  0.52496337031E+02  0.00000000000E+00 0.  1.
          4   -1    0    0  501    0  0.00000000000E+00 -0.00000000000E+00 -0.43079179560E+03  0.43079179560E+03  0.00000000000E+00 0. -1.
         23    2    1    2    0    0 -0.14295172406E+01  0.17272425950E+01 -0.37962804905E+02  0.13074152281E+03  0.12508854602E+03 0.  0.
          5    1    3    3  502    0  0.43226448456E+02  0.35053014359E+02  0.10484984592E+02  0.56785975061E+02  0.41800000000E+01 0.  1.
         -5    1    3    3    0  502 -0.44655965696E+02 -0.33325771764E+02 -0.48447789497E+02  0.73955547751E+02  0.41800000000E+01 0.  1.
        -11    1    1    2    0    0 -0.26393354799E+02  0.32562135377E+02 -0.22848421265E+03  0.23229708838E+03  0.00000000000E+00 0.  1.
         11    1    1    2    0    0  0.27822872039E+02 -0.34289377972E+02 -0.11184844101E+03  0.12024952144E+03  0.00000000000E+00 0. -1.
</event>
<event>
 7    1  0.1620881E-005  0.1564642E+03  0.7561462E-02  0.1192747E+00
          2   -1    0    0  501    0  0.00000000000E+00  0.00000000000E+00  0.30319085610E+03  0.30319085610E+03  0.00000000000E+00 0. -1.
         -2   -1    0    0    0  501 -0.00000000000E+00 -0.00000000000E+00 -0.88166757555E+03  0.88166757555E+03  0.00000000000E+00 0.  1.
         23    2    1    2    0    0  0.77522313693E+02  0.11385397726E+03 -0.84892698245E+03  0.86796559983E+03  0.11711030570E+03 0.  0.
          5    1    3    3  502    0  0.10045027138E+03  0.11018891209E+03 -0.61407114780E+03  0.63192776511E+03  0.41800000000E+01 0. -1.
         -5    1    3    3    0  502 -0.22927957687E+02  0.36650651703E+01 -0.23485583466E+03  0.23603783472E+03  0.41800000000E+01 0.  1.
        -11    1    1    2    0    0 -0.17453317118E+02 -0.47822864142E+02  0.19007319392E+03  0.19677261918E+03  0.00000000000E+00 0.  1.
         11    1    1    2    0    0 -0.60068996576E+02 -0.66031113118E+02  0.80377069081E+02  0.12012021263E+03  0.00000000000E+00 0. -1.
</event>
<event>
 7    1  0.1620881E-005  0.8650692E+02  0.7561462E-02  0.1311538E+00
          4   -1    0    0  501    0  0.00000000000E+00  0.00000000000E+00  0.10544596598E+03  0.10544596598E+03  0.00000000000E+00 0.  1.
         -4   -1    0    0    0  501 -0.00000000000E+00 -0.00000000000E+00 -0.12533991798E+03  0.12533991798E+03  0.00000000000E+00 0. -1.
         23    2    1    2    0    0  0.15529751971E+01  0.22503078780E+02 -0.38887252429E+02  0.13292230822E+03  0.12508925347E+03 0.  0.
          5    1    3    3  502    0  0.17010129118E+02 -0.35758132432E+02 -0.57282972780E+02  0.69762453355E+02  0.41800000000E+01 0.  1.
         -5    1    3    3    0  502 -0.15457153921E+02  0.58261211212E+02  0.18395720351E+02  0.63159854864E+02  0.41800000000E+01 0.  1.
        -11    1    1    2    0    0 -0.16094011485E+02 -0.43983253593E+02  0.42211842692E+02  0.63050642072E+02  0.00000000000E+00 0.  1.
         11    1    1    2    0    0  0.14541036288E+02  0.21480174812E+02 -0.23218542255E+02  0.34812933670E+02  0.00000000000E+00 0. -1.
</event>
<event>
 7    1  0.1620881E-005  0.9897995E+02  0.7561462E-02  0.1282456E+00
         -2   -1    0    0    0  501 -0.00000000000E+00  0.00000000000E+00  0.68942441774E+02  0.68942441774E+02  0.00000000000E+00 0.  1.
          2   -1    0    0  501    0  0.00000000000E+00 -0.00000000000E+00 -0.23643606297E+03  0.23643606297E+03  0.00000000000E+00 0. -1.
         23    2    1    2    0    0 -0.27759656717E+00  0.22015246615E+02 -0.18422688685E+02  0.12834255973E+03  0.12509064328E+03 0.  0.
          5    1    3    3  502    0  0.44147309472E+02 -0.16863217806E+02 -0.43217252017E+02  0.64175979309E+02  0.41800000000E+01 0.  1.
         -5    1    3    3    0  502 -0.44424906040E+02  0.38878464421E+02  0.24794563332E+02  0.64166580423E+02  0.41800000000E+01 0.  1.
        -11    1    1    2    0    0  0.44395190924E+02 -0.13501726560E+02 -0.10147854674E+03  0.11158460936E+03  0.00000000000E+00 0. -1.
         11    1    1    2    0    0 -0.44117594356E+02 -0.85135200552E+01 -0.47592385772E+02  0.65451335655E+02  0.00000000000E+00 0.  1.
</event>
<event>
 7    1  0.1620881E-005  0.1774859E+03  0.7561462E-02  0.1170259E+00
         -1   -1    0    0    0  501 -0.00000000000E+00  0.00000000000E+00  0.31991459708E+02  0.31991459708E+02  0.00000000000E+00 0.  1.
          1   -1    0    0  501    0  0.00000000000E+00 -0.00000000000E+00 -0.11068608877E+04  0.11068608877E+04  0.00000000000E+00 0. -1.
         23    2    1    2    0    0  0.14438559823E+03  0.38767354603E+02 -0.47360584462E+03  0.51215212142E+03  0.12508873114E+03 0.  0.
          5    1    3    3  502    0  0.11040984001E+03 -0.23657051546E+02 -0.20290069581E+03  0.23224158460E+03  0.41800000000E+01 0. -1.
         -5    1    3    3    0  502  0.33975758219E+02  0.62424406149E+02 -0.27070514881E+03  0.27991053681E+03  0.41800000000E+01 0. -1.
        -11    1    1    2    0    0 -0.64080692155E+02 -0.59929818713E+02 -0.22774425330E+03  0.24406016306E+03  0.00000000000E+00 0.  1.
         11    1    1    2    0    0 -0.80304906071E+02  0.21162464110E+02 -0.37351933011E+03  0.38264006297E+03  0.00000000000E+00 0. -1.
</event>
<event>
 7    1  0.1620881E-005  0.2128705E+03  0.7561462E-02  0.1139313E+00
         -1   -1    0    0    0  501 -0.00000000000E+00  0.00000000000E+00  0.91850169250E+02  0.91850169250E+02  0.00000000000E+00 0.  1.
          1   -1    0    0  501    0  0.00000000000E+00 -0.00000000000E+00 -0.62476923984E+03  0.62476923984E+03  0.00000000000E+00 0. -1.
         23    2    1    2    0    0 -0.12900436726E+03  0.13006561570E+03 -0.11175031710E+03  0.24838363034E+03  0.12508838191E+03 0.  0.
          5    1    3    3  502    0  0.16837909644E+02  0.54454122669E+02 -0.34966793557E+02  0.66999371105E+02  0.41800000000E+01 0.  1.
         -5    1    3    3    0  502 -0.14584227690E+03  0.75611493032E+02 -0.76783523541E+02  0.18138425923E+03  0.41800000000E+01 0.  1.
        -11    1    1    2    0    0  0.11391791637E+03 -0.52843687830E+02 -0.27193544766E+03  0.29953069076E+03  0.00000000000E+00 0.  1.
         11    1    1    2    0    0  0.15086450888E+02 -0.77221927871E+02 -0.14923330584E+03  0.16870508799E+03  0.00000000000E+00 0. -1.
</event>
<event>
 7    1  0.1620881E-005  0.8818324E+02  0.7561462E-02  0.1307312E+00
         -3   -1    0    0    0  501 -0.00000000000E+00  0.00000000000E+00  0.43839688283E+02  0.43839688283E+02  0.00000000000E+00 0.  1.
          3   -1    0    0  501    0  0.00000000000E+00 -0.00000000000E+00 -0.26513176027E+03  0.26513176027E+03  0.00000000000E+00 0. -1.
         23    2    1    2    0    0 -0.21841362339E+01  0.14742124322E+02 -0.13893809890E+03  0.18754442104E+03  0.12508802444E+03 0.  0.
          5    1    3    3  502    0  0.55914757051E+02 -0.24652855602E+01 -0.10209787975E+03  0.11650745529E+03  0.41800000000E+01 0. -1.
         -5    1    3    3    0  502 -0.58098893285E+02  0.17207409882E+02 -0.36840219148E+02  0.71036965748E+02  0.41800000000E+01 0. -1.
        -11    1    1    2    0    0 -0.90510402722E+01 -0.35101863339E+02 -0.89937172528E+02  0.96967814981E+02  0.00000000000E+00 0. -1.
         11    1    1    2    0    0  0.11235176506E+02  0.20359739017E+02  0.75831994391E+01  0.24459212532E+02  0.00000000000E+00 0.  1.
</event>
<event>
 7    1  0.1620881E-005  0.1589221E+03  0.7561462E-02  0.1189919E+00
          3   -1    0    0  501    0  0.00000000000E+00  0.00000000000E+00  0.14542954105E+03  0.14542954105E+03  0.00000000000E+00 0. -1.
         -3   -1    0    0    0  501 -0.00000000000E+00 -0.00000000000E+00 -0.19714037166E+03  0.19714037166E+03  0.00000000000E+00 0.  1.
         23    2    1    2    0    0  0.36084021140E+01 -0.12176830635E+03 -0.62880397757E+02  0.18558445179E+03  0.12508838207E+03 0.  0.
          5    1    3    3  502    0 -0.22750985297E+02  0.16405900705E+02  0.58707658932E+01  0.28960303902E+02  0.41800000000E+01 0.  1.
         -5    1    3    3    0  502  0.26359387411E+02 -0.13817420705E+03 -0.68751163650E+02  0.15662414789E+03  0.41800000000E+01 0.  1.
        -11    1    1    2    0    0 -0.30071680927E+02  0.68642869857E+01  0.23007420546E+02  0.38480720235E+02  0.00000000000E+00 0.  1.
         11    1    1    2    0    0  0.26463278813E+02  0.11490401936E+03 -0.11837853405E+02  0.11850474068E+03  0.00000000000E+00 0. -1.
</event>
<event>
 7    1  0.1620881E-005  0.1146425E+03  0.7561462E-02  0.1252206E+00
          1   -1    0    0  501    0  0.00000000000E+00  0.00000000000E+00  0.91968946200E+02  0.91968946200E+02  0.00000000000E+00 0. -1.
         -1   -1    0    0    0  501 -0.00000000000E+00 -0.00000000000E+00 -0.23885100307E+03  0.23885100307E+03  0.00000000000E+00 0.  1.
         23    2    1    2    0    0  0.13253657134E+02  0.99885533179E+02 -0.88813283197E+02  0.18354295405E+03  0.12508971798E+03 0.  0.
          5    1    3    3  502    0  0.28824780373E+02  0.10496770457E+03 -0.17594551851E+02  0.11034549208E+03  0.41800000000E+01 0.  1.
         -5    1    3    3    0  502 -0.15571123239E+02 -0.50821713947E+01 -0.71218731346E+02  0.73197461974E+02  0.41800000000E+01 0.  1.
        -11    1    1    2    0    0 -0.10047251096E+02 -0.12660312535E+02 -0.57774154215E+02  0.59992363375E+02  0.00000000000E+00 0.  1.
         11    1    1    2    0    0 -0.32064060382E+01 -0.87225220644E+02 -0.29461946146E+00  0.87284631847E+02  0.00000000000E+00 0. -1.
</event>
<event>
 7    1  0.1620881E-005  0.1066802E+03  0.7561462E-02  0.1266844E+00
          2   -1    0    0  501    0  0.00000000000E+00  0.00000000000E+00  0.58924965292E+03  0.58924965292E+03  0.00000000000E+00 0. -1.
         -2   -1    0    0    0  501 -0.00000000000E+00 -0.00000000000E+00 -0.24979551461E+02  0.24979551461E+02  0.00000000000E+00 0.  1.
         23    2    1    2    0    0 -0.16331723375E+02 -0.16266906133E+02  0.19305004389E+03  0.23118612908E+03  0.12508944563E+03 0.  0.
          5    1    3    3  502    0  0.50897446399E+02 -0.12489414883E+02  0.12382515852E+03  0.13452389311E+03  0.41800000000E+01 0. -1.
         -5    1    3    3    0  502 -0.67229169774E+02 -0.37774912506E+01  0.69224885372E+02  0.96662235973E+02  0.41800000000E+01 0. -1.
        -11    1    1    2    0    0  0.29235251028E+02  0.49601921600E+02  0.19950782343E+03  0.20764975834E+03  0.00000000000E+00 0. -1.
         11    1    1    2    0    0 -0.12903527653E+02 -0.33335015467E+02  0.17171223413E+03  0.17539331696E+03  0.00000000000E+00 0.  1.
</event>
<event>
 7    1  0.1620881E-005  0.1771750E+03  0.7561462E-02  0.1170565E+00
         -1   -1    0    0    0  501 -0.00000000000E+00  0.00000000000E+00  0.53625448187E+02  0.53625448187E+02  0.00000000000E+00 0.  1.
          1   -1    0    0  501    0  0.00000000000E+00 -0.00000000000E+00 -0.67120437152E+03  0.67120437152E+03  0.00000000000E+00 0. -1.
         23    2    1    2    0    0  0.77894985536E+02  0.13399651650E+03 -0.33627130840E+03  0.39082614901E+03  0.12507593970E+03 0.  0.
          5    1    3    3  502    0  0.41186009423E+02 -0.16138141876E+02 -0.69544846070E+02  0.82526874473E+02  0.41800000000E+01 0.  1.
         -5    1    3    3    0  502  0.36708976113E+02  0.15013465837E+03 -0.26672646233E+03  0.30829927453E+03  0.41800000000E+01 0.  1.
        -11    1    1    2    0    0 -0.14488278808E+02 -0.17975669018E+02  0.95060590802E-01  0.23087744281E+02  0.00000000000E+00 0. -1.
         11    1    1    2    0    0 -0.63406706728E+02 -0.11602084748E+03 -0.28140267553E+03  0.31091592642E+03  0.00000000000E+00 0.  1.
</event>
<event>
 7    1  0.1620881E-005  0.1022640E+03  0.7561462E-02  0.1275606E+00
         -2   -1    0    0    0  501 -0.00000000000E+00  0.00000000000E+00  0.64046079177E+02  0.64046079177E+02  0.00000000000E+00 0. -1.
          2   -1    0    0  501    0  0.00000000000E+00 -0.00000000000E+00 -0.23177344345E+03  0.23177344345E+03  0.00000000000E+00 0.  1.
         23    2    1    2    0    0  0.21125653610E+02  0.25912951378E+02 -0.43447716301E+02  0.13658375626E+03  0.12509853769E+03 0.  0.
          5    1    3    3  502    0  0.11345258607E+02  0.72190942768E+02 -0.50007857919E+02  0.88648211286E+02  0.41800000000E+01 0. -1.
         -5    1    3    3    0  502  0.97803950030E+01 -0.46277991390E+02  0.65601416179E+01  0.47935544969E+02  0.41800000000E+01 0. -1.
        -11    1    1    2    0    0  0.18458500951E+02 -0.38178087347E+02 -0.19727495840E+02  0.46770254467E+02  0.00000000000E+00 0. -1.
         11    1    1    2    0    0 -0.39584154561E+02  0.12265135968E+02 -0.10455215213E+03  0.11246551191E+03  0.00000000000E+00 0.  1.
</event>
<event>
 7    1  0.1620881E-005  0.2324137E+03  0.7561462E-02  0.1124952E+00
         -2   -1    0    0    0  501 -0.00000000000E+00  0.00000000000E+00  0.43391955940E+02  0.43391955940E+02  0.00000000000E+00 0.  1.
          2   -1    0    0  501    0  0.00000000000E+00 -0.00000000000E+00 -0.12624567175E+04  0.12624567175E+04  0.00000000000E+00 0. -1.
         23    2    1    2    0    0  0.18400446906E+03  0.94948498041E+02 -0.65597078912E+03  0.69915677036E+03  0.12509856693E+03 0.  0.
          5    1    3    3  502    0  0.18556725856E+03  0.11700235140E+03 -0.59480809363E+03  0.63398651274E+03  0.41800000000E+01 0.  1.
         -5    1    3    3    0  502 -0.15627895028E+01 -0.22053853362E+02 -0.61162695485E+02  0.65170257619E+02  0.41800000000E+01 0.  1.
        -11    1    1    2    0    0 -0.13012070868E+03 -0.21602420499E+02 -0.28405444924E+03  0.31318523837E+03  0.00000000000E+00 0. -1.
         11    1    1    2    0    0 -0.53883760378E+02 -0.73346077541E+02 -0.27903952320E+03  0.29350666471E+03  0.00000000000E+00 0.  1.
</event>
<event>
 7    1  0.1620881E-005  0.9005053E+02  0.7561462E-02  0.1302729E+00
          3   -1    0    0  501    0  0.00000000000E+00  0.00000000000E+00  0.16207650239E+03  0.16207650239E+03  0.00000000000E+00 0. -1.
         -3   -1    0    0    0  501 -0.00000000000E+00 -0.00000000000E+00 -0.11229660361E+03  0.11229660361E+03  0.00000000000E+00 0.  1.
         23    2    1    2    0    0  0.44400182938E+02 -0.13390571472E+02 -0.46247964763E+02  0.14119722866E+03  0.12508836671E+03 0.  0.
          5    1    3    3  502    0 -0.24136024830E+02 -0.17126025271E+02 -0.63603244416E+02  0.70275838923E+02  0.41800000000E+01 0. -1.
         -5    1    3    3    0  502  0.68536207768E+02  0.37354537994E+01  0.17355279652E+02  0.70921389736E+02  0.41800000000E+01 0. -1.
        -11    1    1    2    0    0 -0.23705783115E+02 -0.27081643713E+02  0.12536236292E+02  0.38112160785E+02  0.00000000000E+00 0.  1.
         11    1    1    2    0    0 -0.20694399823E+02  0.40472215185E+02  0.83491627244E+02  0.95063716558E+02  0.00000000000E+00 0. -1.
</event>
<event>
 7    1  0.1620881E-005  0.1495664E+03  0.7561462E-02  0.1201007E+00
         -2   -1    0    0    0  501 -0.00000000000E+00  0.00000000000E+00  0.35815972119E+03  0.35815972119E+03  0.00000000000E+00 0.  1.
          2   -1    0    0  501    0  0.00000000000E+00 -0.00000000000E+00 -0.15151674876E+03  0.15151674876E+03  0.00000000000E+00 0. -1.
         23    2    1    2    0    0 -0.12018400228E+03 -0.13486391321E+02  0.28843642809E+03  0.33685150099E+03  0.12508910231E+03 0.  0.
          5    1    3    3  502    0 -0.10994303986E+03 -0.58920016779E+02  0.23305486091E+03  0.26436921339E+03  0.41800000000E+01 0.  1.
         -5    1    3    3    0  502 -0.10240962412E+02  0.45433625459E+02  0.55381567179E+02  0.72482287606E+02  0.41800000000E+01 0.  1.
        -11    1    1    2    0    0  0.70081836998E+02 -0.12402295942E+02 -0.91165003467E+02  0.11565612253E+03  0.00000000000E+00 0. -1.
         11    1    1    2    0    0  0.50102165278E+02  0.25888687263E+02  0.93715478083E+01  0.57168846429E+02  0.00000000000E+00 0.  1.
</event>
<event>
 7    1  0.1620881E-005  0.1227338E+03  0.7561462E-02  0.1238654E+00
          2   -1    0    0  501    0  0.00000000000E+00  0.00000000000E+00  0.92039309817E+03  0.92039309817E+03  0.00000000000E+00 0. -1.
         -2   -1    0    0    0  501 -0.00000000000E+00 -0.00000000000E+00 -0.21624318059E+02  0.21624318059E+02  0.00000000000E+00 0.  1.
         23    2    1    2    0    0  0.78814284665E+02 -0.32737349412E+02  0.39612552925E+03  0.42408499213E+03  0.12509684294E+03 0.  0.
          5    1    3    3  502    0  0.65337214889E+02 -0.61895504188E+02  0.37438325700E+03  0.38507181228E+03  0.41800000000E+01 0.  1.
         -5    1    3    3    0  502  0.13477069776E+02  0.29158154776E+02  0.21742272250E+02  0.39013179853E+02  0.41800000000E+01 0.  1.
        -11    1    1    2    0    0 -0.58911119441E+02 -0.23421469736E+02  0.21346726292E+03  0.22268218963E+03  0.00000000000E+00 0.  1.
         11    1    1    2    0    0 -0.19903165223E+02  0.56158819149E+02  0.28917598793E+03  0.29525023446E+03  0.00000000000E+00 0. -1.
</event>
<event>
 7    1  0.1620881E-005  0.1714582E+03  0.7561462E-02  0.1176336E+00
         -2   -1    0    0    0  501 -0.00000000000E+00  0.00000000000E+00  0.73758911105E+02  0.73758911105E+02  0.00000000000E+00 0.  1.
          2   -1    0    0  501    0  0.00000000000E+00 -0.00000000000E+00 -0.55712407699E+03  0.55712407699E+03  0.00000000000E+00 0. -1.
         23    2    1    2    0    0  0.16965960390E+03  0.20200963961E+02 -0.23659865983E+03  0.31752106431E+03  0.12509292667E+03 0.  0.
          5    1    3    3  502    0  0.15243423772E+03  0.14306408189E+02 -0.25092804805E+03  0.29397827784E+03  0.41800000000E+01 0.  1.
         -5    1    3    3    0  502  0.17225366179E+02  0.58945557713E+01  0.14329388218E+02  0.23542786463E+02  0.41800000000E+01 0.  1.
        -11    1    1    2    0    0 -0.19809885427E+02 -0.51723608033E+01  0.39871282591E+01  0.20858620967E+02  0.00000000000E+00 0.  1.
         11    1    1    2    0    0 -0.14984971848E+03 -0.15028603157E+02 -0.25075363431E+03  0.29250330282E+03  0.00000000000E+00 0. -1.
</event>
<event>
 7    1  0.5023785E-005  0.1147046E+03  0.7561462E-02  0.1252098E+00
          1   -1    0    0  501    0  0.00000000000E+00  0.00000000000E+00  0.61051522638E+03  0.61051522638E+03  0.00000000000E+00 0. -1.
         -1   -1    0    0    0  501 -0.00000000000E+00 -0.00000000000E+00 -0.27249501707E+02  0.27249501707E+02  0.00000000000E+00 0.  1.
         23    2    1    2    0    0 -0.62809343520E+02 -0.24235599807E+02  0.27595195058E+03  0.31037004826E+03  0.12509080661E+03 0.  0.
          5    1    3    3  502    0 -0.89380553099E+02 -0.48789704400E+02  0.16861149048E+03  0.19701935349E+03  0.41800000000E+01 0.  1.
         -5    1    3    3    0  502  0.26571209579E+02  0.24554104593E+02  0.10734046010E+03  0.11335069477E+03  0.41800000000E+01 0.  1.
        -11    1    1    2    0    0  0.20428647386E+02 -0.20854365236E+02  0.25172915026E+02  0.38547501013E+02  0.00000000000E+00 0.  1.
         11    1    1    2    0    0  0.42380696134E+02  0.45089965043E+02  0.28214085907E+03  0.28884717881E+03  0.00000000000E+00 0. -1.
</event>
<event>
 7    1  0.1620881E-005  0.1723061E+03  0.7561462E-02  0.1175464E+00
          2   -1    0    0  501    0  0.00000000000E+00  0.00000000000E+00  0.11783563340E+03  0.11783563340E+03  0.00000000000E+00 0. -1.
         -2   -1    0    0    0  501 -0.00000000000E+00 -0.00000000000E+00 -0.36658042300E+03  0.36658042300E+03  0.00000000000E+00 0.  1.
         23    2    1    2    0    0 -0.13531714038E+03 -0.12884092083E+02 -0.26032228437E+03  0.31920403901E+03  0.12508716350E+03 0.  0.
          5    1    3    3  502    0 -0.97237749276E+01  0.45103109416E+02 -0.65006257458E+02  0.79825611094E+02  0.41800000000E+01 0. -1.
         -5    1    3    3    0  502 -0.12559336545E+03 -0.57987201499E+02 -0.19531602691E+03  0.23937842792E+03  0.41800000000E+01 0. -1.
        -11    1    1    2    0    0  0.29429741022E+02  0.40870452531E+02 -0.14923129824E+02  0.52528119617E+02  0.00000000000E+00 0.  1.
         11    1    1    2    0    0  0.10588739935E+03 -0.27986360449E+02  0.26500624592E+02  0.11268389777E+03  0.00000000000E+00 0. -1.
</event>
<event>
 7    1  0.1620881E-005  0.1082735E+03  0.7561462E-02  0.1263801E+00
          1   -1    0    0  501    0  0.00000000000E+00  0.00000000000E+00  0.44945707474E+02  0.44945707474E+02  0.00000000000E+00 0. -1.
         -1   -1    0    0    0  501 -0.00000000000E+00 -0.00000000000E+00 -0.46457271019E+03  0.46457271019E+03  0.00000000000E+00 0.  1.
         23    2    1    2    0    0 -0.49294820472E+02 -0.16430302006E+02 -0.36989455234E+03  0.39391680328E+03  0.12509410018E+03 0.  0.
          5    1    3    3  502    0 -0.60695640372E+02 -0.61575044770E+02 -0.20507012368E+03  0.22259082399E+03  0.41800000000E+01 0. -1.
         -5    1    3    3    0  502  0.11400819901E+02  0.45144742764E+02 -0.16482442866E+03  0.17132597928E+03  0.41800000000E+01 0. -1.
        -11    1    1    2    0    0  0.46732389304E+02 -0.16984532886E+02 -0.62387945467E+02  0.79778733426E+02  0.00000000000E+00 0.  1.
         11    1    1    2    0    0  0.25624311675E+01  0.33414834892E+02  0.12655495096E+02  0.35822880962E+02  0.00000000000E+00 0. -1.
</event>
<event>
 7    1  0.1620881E-005  0.6073137E+02  0.7561462E-02  0.1394788E+00
         -1   -1    0    0    0  501 -0.00000000000E+00  0.00000000000E+00  0.31508248514E+03  0.31508248514E+03  0.00000000000E+00 0.  1.
          1   -1    0    0  501    0  0.00000000000E+00 -0.00000000000E+00 -0.37462245277E+02  0.37462245277E+02  0.00000000000E+00 0. -1.
         23    2    1    2    0    0 -0.97434047704E+01  0.99957846731E+00  0.14929971871E+03  0.19501796947E+03  0.12508264994E+03 0.  0.
          5    1    3    3  502    0  0.12486209996E+02  0.46908875786E+01  0.16604597377E+03  0.16663327300E+03  0.41800000000E+01 0.  1.
         -5    1    3    3    0  502 -0.22229614766E+02 -0.36913091113E+01 -0.16746255054E+02  0.28384696474E+02  0.41800000000E+01 0.  1.
        -11    1    1    2    0    0  0.47125411367E+02 -0.20451976803E+01  0.10016549060E+03  0.11071636165E+03  0.00000000000E+00 0.  1.
         11    1    1    2    0    0 -0.37382006596E+02  0.10456192130E+01  0.28155030551E+02  0.46810399293E+02  0.00000000000E+00 0. -1.
</event>
<event>
 7    1  0.1620881E-005  0.1037805E+03  0.7561462E-02  0.1272541E+00
         -2   -1    0    0    0  501 -0.00000000000E+00  0.00000000000E+00  0.21076942012E+03  0.21076942012E+03  0.00000000000E+00 0.  1.
          2   -1    0    0  501    0  0.00000000000E+00 -0.00000000000E+00 -0.68676976009E+02  0.68676976009E+02  0.00000000000E+00 0. -1.
         23    2    1    2    0    0 -0.16076692151E+01 -0.31001744200E+01  0.13767610441E+03  0.18605181231E+03  0.12509345090E+03 0.  0.
          5    1    3    3  502    0  0.53518126224E+02  0.20650929252E+02  0.99087970157E+02  0.11457115232E+03  0.41800000000E+01 0.  1.
         -5    1    3    3    0  502 -0.55125795439E+02 -0.23751103672E+02  0.38588134253E+02  0.71480659997E+02  0.41800000000E+01 0.  1.
        -11    1    1    2    0    0  0.35581848676E+02 -0.26856509983E+02 -0.10327586432E+02  0.45760235196E+02  0.00000000000E+00 0. -1.
         11    1    1    2    0    0 -0.33974179461E+02  0.29956684403E+02  0.14743926133E+02  0.47634348619E+02  0.00000000000E+00 0.  1.
</event>
<event>
 6    1  0.1620881E-005  0.1856907E+03  0.7561462E-02  0.1162406E+00
         -4   -1    0    0    0  501 -0.00000000000E+00  0.00000000000E+00  0.26457393720E+03  0.26457393720E+03  0.00000000000E+00 0.  1.
          4   -1    0    0  501    0  0.00000000000E+00 -0.00000000000E+00 -0.46684760320E+03  0.46684760320E+03  0.00000000000E+00 0. -1.
          5    1    1    2  502    0 -0.19161136385E+02  0.56954660444E+02 -0.11143604868E+02  0.61258753034E+02  0.41800000000E+01 0. -1.
         -5    1    1    2    0  502 -0.63652074716E+02  0.95665519230E+02  0.20093260033E+03  0.23150563807E+03  0.41800000000E+01 0.  1.
        -11    1    1    2    0    0  0.98651257093E+02 -0.15082508879E+03 -0.34999297837E+03  0.39366910323E+03  0.00000000000E+00 0. -1.
         11    1    1    2    0    0 -0.15838045992E+02 -0.17950908816E+01 -0.42069683091E+02  0.44988046051E+02  0.00000000000E+00 0.  1.
</event>
<event>
 6    1  0.1620881E-005  0.9985814E+02  0.7561462E-02  0.1280595E+00
         -2   -1    0    0    0  501 -0.00000000000E+00  0.00000000000E+00  0.10692798115E+03  0.10692798115E+03  0.00000000000E+00 0.  1.
          2   -1    0    0  501    0  0.00000000000E+00 -0.00000000000E+00 -0.14665625916E+03  0.14665625916E+03  0.00000000000E+00 0. -1.
          5    1    1    2  502    0  0.17265663386E+02 -0.43718060276E+02 -0.48471206881E+02  0.67648371917E+02  0.41800000000E+01 0. -1.
         -5    1    1    2    0  502  0.22498266999E+02  0.58112445554E+02  0.45841546299E+02  0.77473531695E+02  0.41800000000E+01 0.  1.
        -11    1    1    2    0    0 -0.16934153420E+02  0.33208529337E+02 -0.41136561310E+02  0.55513859973E+02  0.00000000000E+00 0.  1.
         11    1    1    2    0    0 -0.22829776965E+02 -0.47602914614E+02  0.40379438853E+01  0.52948476719E+02  0.00000000000E+00 0. -1.
</event>
<event>
 7    1  0.1620881E-005  0.1578531E+03  0.7561462E-02  0.1191142E+00
          2   -1    0    0  501    0  0.00000000000E+00  0.00000000000E+00  0.81149333713E+03  0.81149333713E+03  0.00000000000E+00 0. -1.
         -2   -1    0    0    0  501 -0.00000000000E+00 -0.00000000000E+00 -0.44946996354E+02  0.44946996354E+02  0.00000000000E+00 0.  1.
         23    2    1    2    0    0 -0.93180597522E+02  0.11319421024E+03  0.27232295264E+03  0.33362119203E+03  0.12509099188E+03 0.  0.
          5    1    3    3  502    0 -0.53843382312E+02  0.10974241227E+03  0.10360525732E+03  0.16029357009E+03  0.41800000000E+01 0. -1.
         -5    1    3    3    0  502 -0.39337215211E+02  0.34517979658E+01  0.16871769532E+03  0.17332762193E+03  0.41800000000E+01 0. -1.
        -11    1    1    2    0    0  0.72528966456E+02 -0.52392362402E+02  0.16804335285E+03  0.19037851520E+03  0.00000000000E+00 0. -1.
         11    1    1    2    0    0  0.20651631066E+02 -0.60801847835E+02  0.32618003529E+03  0.33244062626E+03  0.00000000000E+00 0.  1.
</event>
<event>
 6    1  0.1620881E-005  0.4631299E+03  0.7561462E-02  0.1023877E+00
         -1   -1    0    0    0  501 -0.00000000000E+00  0.00000000000E+00  0.12110540545E+04  0.12110540545E+04  0.00000000000E+00 0.  1.
          1   -1    0    0  501    0  0.00000000000E+00 -0.00000000000E+00 -0.24130635224E+03  0.24130635224E+03  0.00000000000E+00 0. -1.
          5    1    1    2  502    0  0.30728196940E+03 -0.25945065723E+03  0.73560123058E+03  0.83836954566E+03  0.41800000000E+01 0. -1.
         -5    1    1    2    0  502 -0.30692061071E+03  0.67392706532E+02  0.25034486073E+03  0.40178608719E+03  0.41800000000E+01 0.  1.
        -11    1    1    2    0    0 -0.15468798750E+02  0.19396890906E+03 -0.22178950817E+02  0.19584465087E+03  0.00000000000E+00 0.  1.
         11    1    1    2    0    0  0.15107440057E+02 -0.19109583610E+01  0.59805618117E+01  0.16360123060E+02  0.00000000000E+00 0. -1.
</event>
<event>
 7    1  0.1620881E-005  0.1648384E+03  0.7561462E-02  0.1183340E+00
         -2   -1    0    0    0  501 -0.00000000000E+00  0.00000000000E+00  0.12269419065E+03  0.12269419065E+03  0.00000000000E+00 0.  1.
          2   -1    0    0  501    0  0.00000000000E+00 -0.00000000000E+00 -0.24778734171E+03  0.24778734171E+03  0.00000000000E+00 0. -1.
         23    2    1    2    0    0  0.12400677328E+03 -0.58574934053E+02 -0.60414076339E+02  0.19522715519E+03  0.12512025730E+03 0.  0.
          5    1    3    3  502    0  0.70361450903E+02 -0.90167823082E+02 -0.66779128386E+02  0.13250620544E+03  0.41800000000E+01 0.  1.
         -5    1    3    3    0  502  0.53645322378E+02  0.31592889029E+02  0.63650520463E+01  0.62720949752E+02  0.41800000000E+01 0.  1.
        -11    1    1    2    0    0 -0.15773893543E+02  0.40023834360E+02  0.77436617231E+01  0.43711409623E+02  0.00000000000E+00 0. -1.
         11    1    1    2    0    0 -0.10823287974E+03  0.18551099694E+02 -0.72422736442E+02  0.13154296754E+03  0.00000000000E+00 0.  1.
</event>
<event>
 7    1  0.1620881E-005  0.1800248E+03  0.7561462E-02  0.1167779E+00
          1   -1    0    0  501    0  0.00000000000E+00  0.00000000000E+00  0.11297448711E+03  0.11297448711E+03  0.00000000000E+00 0. -1.
         -1   -1    0    0    0  501 -0.00000000000E+00 -0.00000000000E+00 -0.41154331690E+03  0.41154331690E+03  0.00000000000E+00 0.  1.
         23    2    1    2    0    0  0.15294775623E+03 -0.78733265281E+02 -0.25929397776E+03  0.33537001663E+03  0.12509091874E+03 0.  0.
          5    1    3    3  502    0  0.83955268470E+01 -0.34964892895E+02 -0.13486147126E+03  0.13963565962E+03  0.41800000000E+01 0.  1.
         -5    1    3    3    0  502  0.14455222938E+03 -0.43768372387E+02 -0.12443250650E+03  0.19573435701E+03  0.41800000000E+01 0.  1.
        -11    1    1    2    0    0 -0.66314876671E+02  0.25330977410E+02  0.16804234230E+02  0.72950007351E+02  0.00000000000E+00 0. -1.
         11    1    1    2    0    0 -0.86632879556E+02  0.53402287871E+02 -0.56079086251E+02  0.11619778003E+03  0.00000000000E+00 0.  1.
</event>
<event>
 7    1  0.1620881E-005  0.1241937E+03  0.7561462E-02  0.1236335E+00
          2   -1    0    0  501    0  0.00000000000E+00  0.00000000000E+00  0.49052184792E+03  0.49052184792E+03  0.00000000000E+00 0. -1.
         -2   -1    0    0    0  501 -0.00000000000E+00 -0.00000000000E+00 -0.42757280872E+02  0.42757280872E+02  0.00000000000E+00 0.  1.
         23    2    1    2    0    0 -0.86092711767E+02  0.33441196770E+02  0.28778301227E+03  0.32710432578E+03  0.12509160297E+03 0.  0.
          5    1    3    3  502    0 -0.11863634275E+03  0.28089180072E+02  0.21810076817E+03  0.24989798185E+03  0.41800000000E+01 0. -1.
         -5    1    3    3    0  502  0.32543630982E+02  0.53520166978E+01  0.69682244100E+02  0.77206343930E+02  0.41800000000E+01 0. -1.
        -11    1    1    2    0    0  0.14018933051E+02 -0.82144227554E+00 -0.10960389049E+02  0.17813909717E+02  0.00000000000E+00 0.  1.
         11    1    1    2    0    0  0.72073778716E+02 -0.32619754495E+02  0.17094194383E+03  0.18836089329E+03  0.00000000000E+00 0. -1.
</event>
<event>
 7    1  0.1620881E-005  0.1148126E+03  0.7561462E-02  0.1251909E+00
          1   -1    0    0  501    0  0.00000000000E+00  0.00000000000E+00  0.96368088374E+03  0.96368088374E+03  0.00000000000E+00 0. -1.
         -1   -1    0    0    0  501 -0.00000000000E+00 -0.00000000000E+00 -0.17383373289E+02  0.17383373289E+02  0.00000000000E+00 0.  1.
         23    2    1    2    0    0  0.43810791176E+02  0.56122537696E+02  0.49951570792E+03  0.51983792007E+03  0.12508555482E+03 0.  0.
          5    1    3    3  502    0  0.13423312862E+02 -0.37364708246E+02  0.86559299049E+02  0.95322040486E+02  0.41800000000E+01 0.  1.
         -5    1    3    3    0  502  0.30387478314E+02  0.93487245942E+02  0.41295640887E+03  0.42451587959E+03  0.41800000000E+01 0.  1.
        -11    1    1    2    0    0 -0.10938978189E+02  0.11654736388E+02  0.12052176383E+02  0.20018718232E+02  0.00000000000E+00 0.  1.
         11    1    1    2    0    0 -0.32871812987E+02 -0.67777274084E+02  0.43472962615E+03  0.44120761873E+03  0.00000000000E+00 0. -1.
</event>
<event>
 7    1  0.1620881E-005  0.1156012E+03  0.7561462E-02  0.1250535E+00
         -2   -1    0    0    0  501 -0.00000000000E+00  0.00000000000E+00  0.27020322097E+02  0.27020322097E+02  0.00000000000E+00 0.  1.
          2   -1    0    0  501    0  0.00000000000E+00 -0.00000000000E+00 -0.51319385693E+03  0.51319385693E+03  0.00000000000E+00 0. -1.
         23    2    1    2    0    0 -0.24790016353E+02 -0.36338438615E+02 -0.24738196533E+03  0.28068023981E+03  0.12509409746E+03 0.  0.
          5    1    3    3  502    0  0.72209790140E+01 -0.78764397035E+02 -0.15279122385E+03  0.17210056149E+03  0.41800000000E+01 0. -1.
         -5    1    3    3    0  502 -0.32010995367E+02  0.42425958420E+02 -0.94590741474E+02  0.10857967832E+03  0.41800000000E+01 0. -1.
        -11    1    1    2    0    0 -0.32475743296E+02  0.34778973518E+01 -0.51890658507E+02  0.61314028679E+02  0.00000000000E+00 0. -1.
         11    1    1    2    0    0  0.57265759650E+02  0.32860541263E+02 -0.18690091100E+03  0.19821991054E+03  0.00000000000E+00 0.  1.
</event>
<event>
 7    1  0.1620881E-005  0.1079651E+03  0.7561462E-02  0.1264385E+00
         -2   -1    0    0    0  501 -0.00000000000E+00  0.00000000000E+00  0.18530926410E+03  0.18530926410E+03  0.00000000000E+00 0.  1.
          2   -1    0    0  501    0  0.00000000000E+00 -0.00000000000E+00 -0.21001485773E+03  0.21001485773E+03  0.00000000000E+00 0. -1.
         23    2    1    2    0    0  0.50536101529E+02  0.27818105965E+02  0.14111265066E+03  0.19719813501E+03  0.12508628900E+03 0.  0.
          5    1    3    3  502    0 -0.96363435494E+01  0.54615776235E+02  0.11202340685E+03  0.12506981336E+03  0.41800000000E+01 0.  1.
         -5    1    3    3    0  502  0.60172445079E+02 -0.26797670270E+02  0.29089243813E+02  0.72128321651E+02  0.41800000000E+01 0.  1.
        -11    1    1    2    0    0 -0.23361367261E+02 -0.52586710432E+02 -0.48741442253E+02  0.75411164872E+02  0.00000000000E+00 0.  1.
         11    1    1    2    0    0 -0.27174734268E+02  0.24768604467E+02 -0.11707680204E+03  0.12271482195E+03  0.00000000000E+00 0. -1.
</event>
<event>
 6    1  0.1620881E-005  0.1208571E+03  0.7561462E-02  0.1241690E+00
          1   -1    0    0  501    0  0.00000000000E+00  0.00000000000E+00  0.34423432521E+03  0.34423432521E+03  0.00000000000E+00 0. -1.
         -1   -1    0    0    0  501 -0.00000000000E+00 -0.00000000000E+00 -0.55356067493E+02  0.55356067493E+02  0.00000000000E+00 0.  1.
          5    1    1    2  502    0 -0.19214544372E+02 -0.85536034107E+02  0.49537375325E+02  0.10078212044E+03  0.41800000000E+01 0. -1.
         -5    1    1    2    0  502  0.12858933525E+02  0.54760205967E+02  0.22422688616E+02  0.60698284109E+02  0.41800000000E+01 0.  1.
        -11    1    1    2    0    0  0.23754286559E+02 -0.27724601823E+02  0.94857028245E+02  0.10164042249E+03  0.00000000000E+00 0.  1.
         11    1    1    2    0    0 -0.17398675711E+02  0.58500429963E+02  0.12206116553E+03  0.13646956566E+03  0.00000000000E+00 0. -1.
</event>
<event>
 7    1  0.1620881E-005  0.1877989E+03  0.7561462E-02  0.1160462E+00
         -2   -1    0    0    0  501 -0.00000000000E+00  0.00000000000E+00  0.87215281105E+02  0.87215281105E+02  0.00000000000E+00 0.  1.
          2   -1    0    0  501    0  0.00000000000E+00 -0.00000000000E+00 -0.48761434222E+03  0.48761434222E+03  0.00000000000E+00 0. -1.
         23    2    1    2    0    0  0.10327083553E+03 -0.11422887513E+03 -0.93438109924E+02  0.21929596012E+03  0.12508771464E+03 0.  0.
          5    1    3    3  502    0  0.51215408100E+02 -0.13152413649E+03 -0.81378779241E+02  0.16297728251E+03  0.41800000000E+01 0. -1.
         -5    1    3    3    0  502  0.52055427430E+02  0.17295261361E+02 -0.12059330683E+02  0.56318677604E+02  0.41800000000E+01 0. -1.
        -11    1    1    2    0    0 -0.10045847288E+03  0.44971742095E+02 -0.18692583687E+03  0.21692309893E+03  0.00000000000E+00 0. -1.
         11    1    1    2    0    0 -0.28123626536E+01  0.69257133030E+02 -0.12003511432E+03  0.13861056428E+03  0.00000000000E+00 0.  1.
</event>
<event>
 7    1  0.1620881E-005  0.1275559E+03  0.7561462E-02  0.1231128E+00
         -2   -1    0    0    0  501 -0.00000000000E+00  0.00000000000E+00  0.57607380457E+03  0.57607380457E+03  0.00000000000E+00 0.  1.
          2   -1    0    0  501    0  0.00000000000E+00 -0.00000000000E+00 -0.40745601281E+02  0.40745601281E+02  0.00000000000E+00 0. -1.
         23    2    1    2    0    0 -0.18579291487E+02  0.10540420102E+03  0.26580632841E+03  0.31265976376E+03  0.12509151845E+03 0.  0.
          5    1    3    3  502    0 -0.18641945842E+02  0.58540491289E+01  0.18017847884E+03  0.18128306229E+03  0.41800000000E+01 0.  1.
         -5    1    3    3    0  502  0.62654355087E-01  0.99550151894E+02  0.85627849568E+02  0.13137670147E+03  0.41800000000E+01 0.  1.
        -11    1    1    2    0    0 -0.29105008788E+02 -0.70877290851E+02  0.19269836930E+03  0.20737249920E+03  0.00000000000E+00 0. -1.
         11    1    1    2    0    0  0.47684300275E+02 -0.34526910172E+02  0.76823505580E+02  0.96787142887E+02  0.00000000000E+00 0.  1.
</event>
<event>
 6    1  0.1620881E-005  0.9797755E+02  0.7561462E-02  0.1284607E+00
         -3   -1    0    0    0  501 -0.00000000000E+00  0.00000000000E+00  0.80501218394E+02  0.80501218394E+02  0.00000000000E+00 0.  1.
          3   -1    0    0  501    0  0.00000000000E+00 -0.00000000000E+00 -0.39705193914E+03  0.39705193914E+03  0.00000000000E+00 0. -1.
          5    1    1    2  502    0  0.48966778179E+02 -0.48335665123E+02  0.41675952639E+02  0.80550849259E+02  0.41800000000E+01 0. -1.
         -5    1    1    2    0  502  0.16181088363E+01  0.49966509394E+02 -0.51926750846E+02  0.72202009603E+02  0.41800000000E+01 0.  1.
        -11    1    1    2    0    0 -0.50579814182E+02 -0.22945978292E+02 -0.29592908505E+03  0.30109609579E+03  0.00000000000E+00 0. -1.
         11    1    1    2    0    0 -0.50728333264E-02  0.21315134021E+02 -0.10370837489E+02  0.23704202882E+02  0.00000000000E+00 0.  1.
</event>
<event>
 7    1  0.1620881E-005  0.1996725E+03  0.7561462E-02  0.1150016E+00
          1   -1    0    0  501    0  0.00000000000E+00  0.00000000000E+00  0.18266933642E+03  0.18266933642E+03  0.00000000000E+00 0. -1.
         -1   -1    0    0    0  501 -0.00000000000E+00 -0.00000000000E+00 -0.25307888726E+03  0.25307888726E+03  0.00000000000E+00 0.  1.
         23    2    1    2    0    0  0.13305736734E+03 -0.12665042534E+03 -0.65044955365E+02  0.23156875370E+03  0.12509455715E+03 0.  0.
          5    1    3    3  502    0  0.38310984577E+02 -0.10394850488E+03  0.58303500805E+01  0.11101571325E+03  0.41800000000E+01 0. -1.
         -5    1    3    3    0  502  0.94746382767E+02 -0.22701920461E+02 -0.70875305446E+02  0.12055304045E+03  0.41800000000E+01 0. -1.
        -11    1    1    2    0    0 -0.92184292793E+02  0.51953922847E+02 -0.38794863752E+02  0.11270401674E+03  0.00000000000E+00 0.  1.
         11    1    1    2    0    0 -0.40873074552E+02  0.74696502490E+02  0.33430268277E+02  0.91475453236E+02  0.00000000000E+00 0. -1.
</event>
<event>
 7    1  0.1620881E-005  0.1378927E+03  0.7561462E-02  0.1216193E+00
         -1   -1    0    0    0  501 -0.00000000000E+00  0.00000000000E+00  0.10984294376E+03  0.10984294376E+03  0.00000000000E+00 0.  1.
          1   -1    0    0  501    0  0.00000000000E+00 -0.00000000000E+00 -0.19881101475E+03  0.19881101475E+03  0.00000000000E+00 0. -1.
         23    2    1    2    0    0  0.65309852790E+02 -0.58342352164E+02 -0.50841156246E+01  0.15278257402E+03  0.12508980679E+03 0.  0.
          5    1    3    3  502    0 -0.34218839567E+02 -0.36008559636E+02  0.54699128003E+01  0.50149154474E+02  0.41800000000E+01 0. -1.
         -5    1    3    3    0  502  0.99528692357E+02 -0.22333792528E+02 -0.10554028425E+02  0.10263341954E+03  0.41800000000E+01 0. -1.
        -11    1    1    2    0    0 -0.55147983514E+02 -0.88813981616E+01 -0.64185062452E+02  0.85087611090E+02  0.00000000000E+00 0.  1.
         11    1    1    2    0    0 -0.10161869276E+02  0.67223750326E+02 -0.19698892915E+02  0.70783773403E+02  0.00000000000E+00 0. -1.
</event>
<event>
 7    1  0.1620881E-005  0.1042608E+03  0.7561462E-02  0.1271583E+00
         -1   -1    0    0    0  501 -0.00000000000E+00  0.00000000000E+00  0.12471940640E+03  0.12471940640E+03  0.00000000000E+00 0.  1.
          1   -1    0    0  501    0  0.00000000000E+00 -0.00000000000E+00 -0.13919534533E+03  0.13919534533E+03  0.00000000000E+00 0. -1.
         23    2    1    2    0    0 -0.94675096986E+01  0.70527112737E+02  0.18291025896E+02  0.14507413101E+03  0.12509290344E+03 0.  0.
          5    1    3    3  502    0 -0.34881461901E+02  0.69100037235E+02  0.58629936331E+02  0.97192969728E+02  0.41800000000E+01 0. -1.
         -5    1    3    3    0  502  0.25413952203E+02  0.14270755015E+01 -0.40338910435E+02  0.47881161286E+02  0.41800000000E+01 0. -1.
        -11    1    1    2    0    0  0.16524215623E+02  0.13222014282E+02  0.11248480674E+02  0.23966636833E+02  0.00000000000E+00 0.  1.
         11    1    1    2    0    0 -0.70567059244E+01 -0.83749127019E+02 -0.44015445497E+02  0.94873983880E+02  0.00000000000E+00 0. -1.
</event>
<event>
 7    1  0.1620881E-005  0.1058836E+03  0.7561462E-02  0.1268388E+00
         -1   -1    0    0    0  501 -0.00000000000E+00  0.00000000000E+00  0.17007531933E+03  0.17007531933E+03  0.00000000000E+00 0.  1.
          1   -1    0    0  501    0  0.00000000000E+00 -0.00000000000E+00 -0.10217864075E+03  0.10217864075E+03  0.00000000000E+00 0. -1.
         23    2    1    2    0    0 -0.42394259738E+02 -0.11455732074E+02  0.61018172427E+02  0.14594420838E+03  0.12509191636E+03 0.  0.
          5    1    3    3  502    0  0.28405285240E+02 -0.11913955547E+02  0.67909543886E+02  0.74685882984E+02  0.41800000000E+01 0. -1.
         -5    1    3    3    0  502 -0.70799544978E+02  0.45822347223E+00 -0.68913714589E+01  0.71258325397E+02  0.41800000000E+01 0. -1.
        -11    1    1    2    0    0 -0.24799999574E+02  0.31075086754E+02 -0.27481565065E+02  0.48331536434E+02  0.00000000000E+00 0. -1.
         11    1    1    2    0    0  0.67194259312E+02 -0.19619354680E+02  0.34360071211E+02  0.77978215266E+02  0.00000000000E+00 0.  1.
</event>
<event>
 7    1  0.1620881E-005  0.9084951E+02  0.7561462E-02  0.1300807E+00
          4   -1    0    0  501    0  0.00000000000E+00  0.00000000000E+00  0.10087762398E+03  0.10087762398E+03  0.00000000000E+00 0. -1.
         -4   -1    0    0    0  501 -0.00000000000E+00 -0.00000000000E+00 -0.12173888696E+03  0.12173888696E+03  0.00000000000E+00 0.  1.
         23    2    1    2    0    0  0.35812536022E+01  0.24008992582E+02 -0.31096127952E+02  0.13116562576E+03  0.12509274601E+03 0.  0.
          5    1    3    3  502    0 -0.30284155717E+02 -0.38684342129E+02 -0.33729749865E+02  0.59739240365E+02  0.41800000000E+01 0. -1.
         -5    1    3    3    0  502  0.33865409319E+02  0.62693334711E+02  0.26336219131E+01  0.71426385390E+02  0.41800000000E+01 0. -1.
        -11    1    1    2    0    0  0.17755237651E+02 -0.33304550154E+02  0.39118755304E+02  0.54357322796E+02  0.00000000000E+00 0. -1.
         11    1    1    2    0    0 -0.21336491253E+02  0.92955575713E+01 -0.28883890336E+02  0.37093562386E+02  0.00000000000E+00 0.  1.
</event>
<event>
 7    1  0.1620881E-005  0.5963912E+02  0.7561462E-02  0.1399352E+00
         -2   -1    0    0    0  501 -0.00000000000E+00  0.00000000000E+00  0.83568109552E+02  0.83568109552E+02  0.00000000000E+00 0. -1.
          2   -1    0    0  501    0  0.00000000000E+00 -0.00000000000E+00 -0.15799149114E+03  0.15799149114E+03  0.00000000000E+00 0.  1.
         23    2    1    2    0    0 -0.29933392450E+02 -0.24148412090E+02 -0.35992498339E+02  0.13572867141E+03  0.12509060123E+03 0.  0.
          5    1    3    3  502    0  0.38768324041E+00 -0.18393295600E+02  0.45086068356E+02  0.48874222051E+02  0.41800000000E+01 0.  1.
         -5    1    3    3    0  502 -0.30321075691E+02 -0.57551164903E+01 -0.81078566695E+02  0.86854449363E+02  0.41800000000E+01 0.  1.
        -11    1    1    2    0    0 -0.15680630483E+02 -0.33108428863E+01 -0.48996770933E+02  0.51551211575E+02  0.00000000000E+00 0.  1.
         11    1    1    2    0    0  0.45614022934E+02  0.27459254976E+02  0.10565887680E+02  0.54279717708E+02  0.00000000000E+00 0. -1.
</event>
<event>
 7    1  0.1620881E-005  0.1003623E+03  0.7561462E-02  0.1279536E+00
          1   -1    0    0  501    0  0.00000000000E+00  0.00000000000E+00  0.17206068028E+03  0.17206068028E+03  0.00000000000E+00 0. -1.
         -1   -1    0    0    0  501 -0.00000000000E+00 -0.00000000000E+00 -0.10332520519E+03  0.10332520519E+03  0.00000000000E+00 0.  1.
         23    2    1    2    0    0  0.12883925312E+02  0.76244221811E+01 -0.43330751122E+02  0.13326266081E+03  0.12512895520E+03 0.  0.
          5    1    3    3  502    0  0.29576101064E+02 -0.54078962958E+02 -0.17679170938E+02  0.64259672220E+02  0.41800000000E+01 0. -1.
         -5    1    3    3    0  502 -0.16692175752E+02  0.61703385139E+02 -0.25651580183E+02  0.69002988593E+02  0.41800000000E+01 0. -1.
        -11    1    1    2    0    0  0.17857680471E+02  0.24568973273E+02  0.12100824147E+02  0.32694971242E+02  0.00000000000E+00 0.  1.
         11    1    1    2    0    0 -0.30741605783E+02 -0.32193395454E+02  0.99965402065E+02  0.10942825342E+03  0.00000000000E+00 0. -1.
</event>
<event>
 7    1  0.1620881E-005  0.1014587E+03  0.7561462E-02  0.1277258E+00
         -2   -1    0    0    0  501 -0.00000000000E+00  0.00000000000E+00  0.22659815035E+02  0.22659815035E+02  0.00000000000E+00 0.  1.
          2   -1    0    0  501    0  0.00000000000E+00 -0.00000000000E+00 -0.62461977804E+03  0.62461977804E+03  0.00000000000E+00 0. -1.
         23    2    1    2    0    0 -0.45095406254E+02 -0.36043683372E+02 -0.31815855551E+03  0.34505681432E+03  0.12044333059E+03 0.  0.
          5    1    3    3  502    0 -0.35797328822E+02 -0.61709785956E+02 -0.30710518466E+03  0.31531034439E+03  0.41800000000E+01 0. -1.
         -5    1    3    3    0  502 -0.92980774323E+01  0.25666102584E+02 -0.11053370851E+02  0.29746469924E+02  0.41800000000E+01 0.  1.
        -11    1    1    2    0    0 -0.63764614723E+00 -0.26416558366E+02 -0.67708023825E+02  0.72681618301E+02  0.00000000000E+00 0.  1.
         11    1    1    2    0    0  0.45733052401E+02  0.62460241738E+02 -0.21609338366E+03  0.22954116045E+03  0.00000000000E+00 0. -1.
</event>
<event>
 7    1  0.1620881E-005  0.1135840E+03  0.7561462E-02  0.1254073E+00
         -1   -1    0    0    0  501 -0.00000000000E+00  0.00000000000E+00  0.37872901983E+02  0.37872901983E+02  0.00000000000E+00 0.  1.
          1   -1    0    0  501    0  0.00000000000E+00 -0.00000000000E+00 -0.57665316058E+03  0.57665316058E+03  0.00000000000E+00 0. -1.
         23    2    1    2    0    0  0.87813038157E+02  0.41026015679E+02 -0.18944780792E+03  0.24684420529E+03  0.12508927262E+03 0.  0.
          5    1    3    3  502    0 -0.38246817376E+01 -0.15166720267E+02  0.10847313558E+02  0.19488309457E+02  0.41800000000E+01 0. -1.
         -5    1    3    3    0  502  0.91637719895E+02  0.56192735946E+02 -0.20029512148E+03  0.22735589583E+03  0.41800000000E+01 0. -1.
        -11    1    1    2    0    0 -0.49280381626E+02 -0.31662563144E+01 -0.88792082447E+02  0.10160027115E+03  0.00000000000E+00 0.  1.
         11    1    1    2    0    0 -0.38532656531E+02 -0.37859759365E+02 -0.26054036823E+03  0.26608158612E+03  0.00000000000E+00 0. -1.
</event>
<event>
 7    1  0.1620881E-005  0.1097904E+03  0.7561462E-02  0.1260959E+00
         -1   -1    0    0    0  501 -0.00000000000E+00  0.00000000000E+00  0.32384376956E+02  0.32384376956E+02  0.00000000000E+00 0.  1.
          1   -1    0    0  501    0  0.00000000000E+00 -0.00000000000E+00 -0.54696220280E+03  0.54696220280E+03  0.00000000000E+00 0. -1.
         23    2    1    2    0    0 -0.16278015753E+02  0.65996324945E+02 -0.15877043841E+03  0.20580545107E+03  0.11192561313E+03 0.  0.
          5    1    3    3  502    0  0.30770660240E+02  0.44751711467E+01 -0.10952591469E+03  0.11393093995E+03  0.41800000000E+01 0. -1.
         -5    1    3    3    0  502 -0.47048675993E+02  0.61521153798E+02 -0.49244523712E+02  0.91874511117E+02  0.41800000000E+01 0.  1.
        -11    1    1    2    0    0 -0.35914639317E+02 -0.20183886492E+02 -0.93068679079E+02  0.10177931822E+03  0.00000000000E+00 0.  1.
         11    1    1    2    0    0  0.52192655070E+02 -0.45812438453E+02 -0.26273870836E+03  0.27176181047E+03  0.00000000000E+00 0. -1.
</event>
<event>
 7    1  0.1620881E-005  0.1194552E+03  0.7561462E-02  0.1243999E+00
         -2   -1    0    0    0  501 -0.00000000000E+00  0.00000000000E+00  0.42212461515E+03  0.42212461515E+03  0.00000000000E+00 0. -1.
          2   -1    0    0  501    0  0.00000000000E+00 -0.00000000000E+00 -0.65021442054E+02  0.65021442054E+02  0.00000000000E+00 0.  1.
         23    2    1    2    0    0  0.49956797827E+02 -0.38724662232E+02  0.31953719862E+03  0.34892663011E+03  0.12510192160E+03 0.  0.
          5    1    3    3  502    0 -0.14393563182E+02 -0.48554396020E+02  0.24348858143E+03  0.24873452861E+03  0.41800000000E+01 0.  1.
         -5    1    3    3    0  502  0.64350361009E+02  0.98297337879E+01  0.76048617184E+02  0.10019210150E+03  0.41800000000E+01 0.  1.
        -11    1    1    2    0    0  0.21465308525E+01  0.64637464912E+02 -0.68209471472E+01  0.65031798261E+02  0.00000000000E+00 0.  1.
         11    1    1    2    0    0 -0.52103328679E+02 -0.25912802680E+02  0.44386921624E+02  0.73187628828E+02  0.00000000000E+00 0. -1.
</event>
<event>
 7    1  0.1620881E-005  0.1901267E+03  0.7561462E-02  0.1158347E+00
          1   -1    0    0  501    0  0.00000000000E+00  0.00000000000E+00  0.38500220550E+03  0.38500220550E+03  0.00000000000E+00 0. -1.
         -1   -1    0    0    0  501 -0.00000000000E+00 -0.00000000000E+00 -0.12059360904E+03  0.12059360904E+03  0.00000000000E+00 0.  1.
         23    2    1    2    0    0 -0.12738939662E+02  0.18110875035E+03  0.88551529330E+02  0.23759353143E+03  0.12508658119E+03 0.  0.
          5    1    3    3  502    0  0.19949026633E+02  0.10196561339E+03 -0.12889090687E+02  0.10477858100E+03  0.41800000000E+01 0. -1.
         -5    1    3    3    0  502 -0.32687966295E+02  0.79143136957E+02  0.10144062002E+03  0.13281495043E+03  0.41800000000E+01 0. -1.
        -11    1    1    2    0    0 -0.22379844040E+02 -0.49448347291E+02  0.95396808221E+02  0.10975676511E+03  0.00000000000E+00 0. -1.
         11    1    1    2    0    0  0.35118783702E+02 -0.13166040306E+03  0.80460258912E+02  0.15824551800E+03  0.00000000000E+00 0.  1.
</event>
<event>
 7    1  0.1620881E-005  0.1887823E+03  0.7561462E-02  0.1159564E+00
         -2   -1    0    0    0  501 -0.00000000000E+00  0.00000000000E+00  0.37915896885E+03  0.37915896885E+03  0.00000000000E+00 0. -1.
          2   -1    0    0  501    0  0.00000000000E+00 -0.00000000000E+00 -0.11770047985E+03  0.11770047985E+03  0.00000000000E+00 0.  1.
         23    2    1    2    0    0  0.12458904323E+03  0.11541078189E+03  0.20909291399E+03  0.29699888256E+03  0.12508561584E+03 0.  0.
          5    1    3    3  502    0  0.44615766338E+02  0.10897844296E+03  0.17204529432E+03  0.20852799173E+03  0.41800000000E+01 0. -1.
         -5    1    3    3    0  502  0.79973276894E+02  0.64323389278E+01  0.37047619668E+02  0.88470890830E+02  0.41800000000E+01 0. -1.
        -11    1    1    2    0    0 -0.55568924993E+02 -0.15017799421E+02  0.52680921075E+02  0.78030245224E+02  0.00000000000E+00 0. -1.
         11    1    1    2    0    0 -0.69020118239E+02 -0.10039298247E+03 -0.31534606328E+00  0.12183032091E+03  0.00000000000E+00 0.  1.
</event>
<event>
 7    1  0.1620881E-005  0.1271283E+03  0.7561462E-02  0.1231780E+00
         -1   -1    0    0    0  501 -0.00000000000E+00  0.00000000000E+00  0.12383284724E+03  0.12383284724E+03  0.00000000000E+00 0.  1.
          1   -1    0    0  501    0  0.00000000000E+00 -0.00000000000E+00 -0.15017713673E+03  0.15017713673E+03  0.00000000000E+00 0. -1.
         23    2    1    2    0    0  0.43543506610E+02 -0.70458106335E+02 -0.86670134766E+01  0.15027600964E+03  0.12508948890E+03 0.  0.
          5    1    3    3  502    0  0.74455680123E+02 -0.27371134140E+02  0.29573488388E+02  0.84763735772E+02  0.41800000000E+01 0. -1.
         -5    1    3    3    0  502 -0.30912173513E+02 -0.43086972196E+02 -0.38240501865E+02  0.65512273866E+02  0.41800000000E+01 0. -1.
        -11    1    1    2    0    0 -0.86719701450E+01  0.83830793774E+02 -0.55255606847E+01  0.84459084010E+02  0.00000000000E+00 0.  1.
         11    1    1    2    0    0 -0.34871536465E+02 -0.13372687439E+02 -0.12151715324E+02  0.39274890326E+02  0.00000000000E+00 0. -1.
</event>
<event>
 7    1  0.1620881E-005  0.1918862E+03  0.7561462E-02  0.1156771E+00
         -2   -1    0    0    0  501 -0.00000000000E+00  0.00000000000E+00  0.79426974650E+02  0.79426974650E+02  0.00000000000E+00 0.  1.
          2   -1    0    0  501    0  0.00000000000E+00 -0.00000000000E+00 -0.66881998375E+03  0.66881998375E+03  0.00000000000E+00 0. -1.
         23    2    1    2    0    0 -0.18011686450E+03 -0.18998432238E+02 -0.15524701127E+03  0.26935349454E+03  0.12508655087E+03 0.  0.
          5    1    3    3  502    0 -0.15334902119E+03  0.14815247395E+01 -0.17284064505E+03  0.23110490734E+03  0.41800000000E+01 0. -1.
         -5    1    3    3    0  502 -0.26767843314E+02 -0.20479956978E+02  0.17593633779E+02  0.38248587203E+02  0.41800000000E+01 0. -1.
        -11    1    1    2    0    0  0.26938507504E+02  0.32978337310E+02 -0.53729919331E+02  0.68557699419E+02  0.00000000000E+00 0.  1.
         11    1    1    2    0    0  0.15317835700E+03 -0.13979905072E+02 -0.38041607849E+03  0.41033576443E+03  0.00000000000E+00 0. -1.
</event>
<event>
 7    1  0.1620881E-005  0.1335869E+03  0.7561462E-02  0.1222228E+00
         -2   -1    0    0    0  501 -0.00000000000E+00  0.00000000000E+00  0.18646330793E+02  0.18646330793E+02  0.00000000000E+00 0.  1.
          2   -1    0    0  501    0  0.00000000000E+00 -0.00000000000E+00 -0.12532250725E+04  0.12532250725E+04  0.00000000000E+00 0. -1.
         23    2    1    2    0    0 -0.10249212210E+03 -0.29358027029E+02 -0.60634683961E+03  0.62823116770E+03  0.12510548077E+03 0.  0.
          5    1    3    3  502    0 -0.32847989871E+01  0.20843193750E+02 -0.32457675247E+03  0.32528874754E+03  0.41800000000E+01 0.  1.
         -5    1    3    3    0  502 -0.99207323109E+02 -0.50201220779E+02 -0.28177008714E+03  0.30294242017E+03  0.41800000000E+01 0.  1.
        -11    1    1    2    0    0 -0.50989700789E+01 -0.16628127946E+02 -0.36258124306E+02  0.40213750298E+02  0.00000000000E+00 0.  1.
         11    1    1    2    0    0  0.10759109218E+03  0.45986154975E+02 -0.59197377776E+03  0.60342648526E+03  0.00000000000E+00 0. -1.
</event>
<event>
 7    1  0.1620881E-005  0.7249873E+02  0.7561462E-02  0.1351796E+00
          1   -1    0    0  501    0  0.00000000000E+00  0.00000000000E+00  0.43837412692E+02  0.43837412692E+02  0.00000000000E+00 0. -1.
         -1   -1    0    0    0  501 -0.00000000000E+00 -0.00000000000E+00 -0.81920140589E+03  0.81920140589E+03  0.00000000000E+00 0.  1.
         23    2    1    2    0    0 -0.12711252067E+02  0.11624054970E+02 -0.75906575146E+03  0.76949638801E+03  0.12508869467E+03 0.  0.
          5    1    3    3  502    0  0.13678108283E+02 -0.19296373216E+02 -0.26397960819E+02  0.35689850110E+02  0.41800000000E+01 0.  1.
         -5    1    3    3    0  502 -0.26389360350E+02  0.30920428185E+02 -0.73266779064E+03  0.73380653790E+03  0.41800000000E+01 0.  1.
        -11    1    1    2    0    0  0.19499830166E+02  0.31179445536E+02 -0.30667200165E+02  0.47884009506E+02  0.00000000000E+00 0.  1.
         11    1    1    2    0    0 -0.67885780985E+01 -0.42803500506E+02  0.14368958427E+02  0.45658421068E+02  0.00000000000E+00 0. -1.
</event>
<event>
 7    1  0.1620881E-005  0.1309450E+03  0.7561462E-02  0.1226060E+00
         -1   -1    0    0    0  501 -0.00000000000E+00  0.00000000000E+00  0.28481510720E+03  0.28481510720E+03  0.00000000000E+00 0.  1.
          1   -1    0    0  501    0  0.00000000000E+00 -0.00000000000E+00 -0.75388763254E+02  0.75388763254E+02  0.00000000000E+00 0. -1.
         23    2    1    2    0    0 -0.96135489731E+02  0.85668840672E+01  0.13634484649E+03  0.20869388563E+03  0.12509115416E+03 0.  0.
          5    1    3    3  502    0 -0.11894710955E+03  0.18703603740E+02  0.73962021626E+02  0.14137217798E+03  0.41800000000E+01 0.  1.
         -5    1    3    3    0  502  0.22811619817E+02 -0.10136719673E+02  0.62382824860E+02  0.67321707657E+02  0.41800000000E+01 0.  1.
        -11    1    1    2    0    0  0.60418002944E+02  0.26563832713E+02  0.39286076149E+01  0.66116610968E+02  0.00000000000E+00 0.  1.
         11    1    1    2    0    0  0.35717486786E+02 -0.35130716780E+02  0.69152889841E+02  0.85393373848E+02  0.00000000000E+00 0. -1.
</event>
<event>
 7    1  0.1620881E-005  0.9283537E+02  0.7561462E-02  0.1296127E+00
         -2   -1    0    0    0  501 -0.00000000000E+00  0.00000000000E+00  0.94040970979E+02  0.94040970979E+02  0.00000000000E+00 0.  1.
          2   -1    0    0  501    0  0.00000000000E+00 -0.00000000000E+00 -0.17751008454E+03  0.17751008454E+03  0.00000000000E+00 0. -1.
         23    2    1    2    0    0  0.85469393451E+01 -0.25779502481E+01  0.32135628659E+02  0.12945799431E+03  0.12508787975E+03 0.  0.
          5    1    3    3  502    0  0.50774070673E+02 -0.26982237185E+02  0.51026634394E+02  0.76988552356E+02  0.41800000000E+01 0.  1.
         -5    1    3    3    0  502 -0.42227131328E+02  0.24404286937E+02 -0.18891005735E+02  0.52469441952E+02  0.41800000000E+01 0.  1.
        -11    1    1    2    0    0 -0.18197825342E+01 -0.37946962059E+02 -0.76320451770E+02  0.85253122503E+02  0.00000000000E+00 0. -1.
         11    1    1    2    0    0 -0.67271568108E+01  0.40524912307E+02 -0.39284290450E+02  0.56839938709E+02  0.00000000000E+00 0.  1.
</event>
<event>
 7    1  0.1620881E-005  0.9660166E+02  0.7561462E-02  0.1287609E+00
          2   -1    0    0  501    0  0.00000000000E+00  0.00000000000E+00  0.13039151850E+03  0.13039151850E+03  0.00000000000E+00 0. -1.
         -2   -1    0    0    0  501 -0.00000000000E+00 -0.00000000000E+00 -0.11570047659E+03  0.11570047659E+03  0.00000000000E+00 0.  1.
         23    2    1    2    0    0  0.47910058059E+02  0.30800822239E+02  0.17866819016E+02  0.13860525220E+03  0.12509247939E+03 0.  0.
          5    1    3    3  502    0 -0.15805565579E+02 -0.24374258682E+02  0.41629013838E+02  0.50934934796E+02  0.41800000000E+01 0. -1.
         -5    1    3    3    0  502  0.63715623638E+02  0.55175080920E+02 -0.23762194823E+02  0.87670317399E+02  0.41800000000E+01 0. -1.
        -11    1    1    2    0    0 -0.59137737463E+01 -0.36596182882E+02  0.34596188532E+02  0.50706504340E+02  0.00000000000E+00 0. -1.
         11    1    1    2    0    0 -0.41996284313E+02  0.57953606437E+01 -0.37771965641E+02  0.56780238547E+02  0.00000000000E+00 0.  1.
</event>
<event>
 7    1  0.1620881E-005  0.9750195E+02  0.7561462E-02  0.1285638E+00
         -1   -1    0    0    0  501 -0.00000000000E+00  0.00000000000E+00  0.29027354067E+03  0.29027354067E+03  0.00000000000E+00 0.  1.
          1   -1    0    0  501    0  0.00000000000E+00 -0.00000000000E+00 -0.12923226624E+03  0.12923226624E+03  0.00000000000E+00 0. -1.
         23    2    1    2    0    0  0.24335036983E+02  0.47180241349E+02  0.25061519033E+03  0.28508457256E+03  0.12508825161E+03 0.  0.
          5    1    3    3  502    0  0.12944002220E+02 -0.37644483041E+02  0.13731827545E+03  0.14303298735E+03  0.41800000000E+01 0.  1.
         -5    1    3    3    0  502  0.11391034763E+02  0.84824724390E+02  0.11329691488E+03  0.14205158521E+03  0.41800000000E+01 0.  1.
        -11    1    1    2    0    0  0.10366618274E+02 -0.27514186125E+02 -0.89844776926E+02  0.94533492231E+02  0.00000000000E+00 0. -1.
         11    1    1    2    0    0 -0.34701655256E+02 -0.19666055224E+02  0.27086103592E+00  0.39887742119E+02  0.00000000000E+00 0.  1.
</event>
<event>
 7    1  0.1620881E-005  0.7191489E+02  0.7561462E-02  0.1353700E+00
          3   -1    0    0  501    0  0.00000000000E+00  0.00000000000E+00  0.15143148233E+03  0.15143148233E+03  0.00000000000E+00 0. -1.
         -3   -1    0    0    0  501 -0.00000000000E+00 -0.00000000000E+00 -0.80495322892E+02  0.80495322892E+02  0.00000000000E+00 0.  1.
         23    2    1    2    0    0  0.12402599651E+01  0.55362999829E+01  0.21281791283E+02  0.12701351253E+03  0.12508928356E+03 0.  0.
          5    1    3    3  502    0 -0.37751305663E+02  0.24173998855E+02  0.55690882270E+02  0.71613476860E+02  0.41800000000E+01 0. -1.
         -5    1    3    3    0  502  0.38991565628E+02 -0.18637698872E+02 -0.34409090987E+02  0.55400035668E+02  0.41800000000E+01 0. -1.
        -11    1    1    2    0    0  0.53026210883E+01  0.24285481102E+02 -0.17998975424E+02  0.30689827289E+02  0.00000000000E+00 0.  1.
         11    1    1    2    0    0 -0.65428810534E+01 -0.29821781085E+02  0.67653343579E+02  0.74223465406E+02  0.00000000000E+00 0. -1.
</event>
<event>
 7    1  0.1620881E-005  0.1129265E+03  0.7561462E-02  0.1255245E+00
          1   -1    0    0  501    0  0.00000000000E+00  0.00000000000E+00  0.29057153328E+03  0.29057153328E+03  0.00000000000E+00 0. -1.
         -1   -1    0    0    0  501 -0.00000000000E+00 -0.00000000000E+00 -0.53825686254E+02  0.53825686254E+02  0.00000000000E+00 0.  1.
         23    2    1    2    0    0 -0.47344005559E+01 -0.60730308286E+02  0.11850310304E+03  0.18276229899E+03  0.12509391515E+03 0.  0.
          5    1    3    3  502    0 -0.18682982018E+02 -0.97312058636E+02  0.77046525635E+02  0.12558793766E+03  0.41800000000E+01 0.  1.
         -5    1    3    3    0  502  0.13948581462E+02  0.36581750349E+02  0.41456577408E+02  0.57174361333E+02  0.41800000000E+01 0.  1.
        -11    1    1    2    0    0 -0.27685552057E+01  0.72928596296E+02  0.42299935724E+02  0.84353598725E+02  0.00000000000E+00 0.  1.
         11    1    1    2    0    0  0.75029557617E+01 -0.12198288009E+02  0.75942808256E+02  0.77281321814E+02  0.00000000000E+00 0. -1.
</event>
<event>
 7    1  0.1620881E-005  0.7281006E+02  0.7561462E-02  0.1350790E+00
         -2   -1    0    0    0  501 -0.00000000000E+00  0.00000000000E+00  0.40256377606E+02  0.40256377606E+02  0.00000000000E+00 0.  1.
          2   -1    0    0  501    0  0.00000000000E+00 -0.00000000000E+00 -0.40739238810E+03  0.40739238810E+03  0.00000000000E+00 0. -1.
         23    2    1    2    0    0  0.14294932849E+02  0.27903270306E+02 -0.99080827143E+02  0.16262544410E+03  0.12508831745E+03 0.  0.
          5    1    3    3  502    0 -0.87664020603E+01  0.33542830513E+02  0.20598110398E+02  0.40542888845E+02  0.41800000000E+01 0.  1.
         -5    1    3    3    0  502  0.23061334909E+02 -0.56395602074E+01 -0.11967893754E+03  0.12208255526E+03  0.41800000000E+01 0.  1.
        -11    1    1    2    0    0  0.32002439851E+02 -0.24249621117E+02 -0.62493371740E+02  0.74280695959E+02  0.00000000000E+00 0.  1.
         11    1    1    2    0    0 -0.46297372700E+02 -0.36536491886E+01 -0.20556181161E+03  0.21074262564E+03  0.00000000000E+00 0. -1.
</event>
<event>
 7    1  0.1620881E-005  0.1760715E+03  0.7561462E-02  0.1171660E+00
         -1   -1    0    0    0  501 -0.00000000000E+00  0.00000000000E+00  0.49104303492E+03  0.49104303492E+03  0.00000000000E+00 0.  1.
          1   -1    0    0  501    0  0.00000000000E+00 -0.00000000000E+00 -0.97543515633E+02  0.97543515633E+02  0.00000000000E+00 0. -1.
         23    2    1    2    0    0  0.93175066525E+02  0.10732660353E+03  0.37277248730E+03  0.41809936598E+03  0.12508860739E+03 0.  0.
          5    1    3    3  502    0  0.10936972804E+03  0.12004150044E+03  0.35565849890E+03  0.39100145713E+03  0.41800000000E+01 0. -1.
         -5    1    3    3    0  502 -0.16194661513E+02 -0.12714896915E+02  0.17113988400E+02  0.27097908850E+02  0.41800000000E+01 0. -1.
        -11    1    1    2    0    0 -0.39469169369E+02 -0.10798898561E+03  0.20427523599E+02  0.11677636774E+03  0.00000000000E+00 0.  1.
         11    1    1    2    0    0 -0.53705897156E+02  0.66238207729E+00  0.29950838968E+00  0.53710816830E+02  0.00000000000E+00 0. -1.
</event>
<event>
 7    1  0.1620881E-005  0.1068945E+03  0.7561462E-02  0.1266431E+00
         -1   -1    0    0    0  501 -0.00000000000E+00  0.00000000000E+00  0.20503682653E+03  0.20503682653E+03  0.00000000000E+00 0.  1.
          1   -1    0    0  501    0  0.00000000000E+00 -0.00000000000E+00 -0.74695793223E+02  0.74695793223E+02  0.00000000000E+00 0. -1.
         23    2    1    2    0    0  0.57124306050E+02 -0.16904642382E+02  0.69192248179E+02  0.15486939950E+03  0.12509200781E+03 0.  0.
          5    1    3    3  502    0  0.89484609798E+02 -0.39581533659E+02  0.56946795285E+02  0.11328990728E+03  0.41800000000E+01 0.  1.
         -5    1    3    3    0  502 -0.32360303749E+02  0.22676891277E+02  0.12245452894E+02  0.41579492220E+02  0.41800000000E+01 0.  1.
        -11    1    1    2    0    0  0.10852927347E+01 -0.11357049658E+02 -0.18811381208E+02  0.22000647723E+02  0.00000000000E+00 0. -1.
         11    1    1    2    0    0 -0.58209598784E+02  0.28261692040E+02  0.79960166339E+02  0.10286257254E+03  0.00000000000E+00 0.  1.
</event>
<event>
 7    1  0.1620881E-005  0.1397588E+03  0.7561462E-02  0.1213654E+00
         -2   -1    0    0    0  501 -0.00000000000E+00  0.00000000000E+00  0.68490642456E+02  0.68490642456E+02  0.00000000000E+00 0.  1.
          2   -1    0    0  501    0  0.00000000000E+00 -0.00000000000E+00 -0.30426361807E+03  0.30426361807E+03  0.00000000000E+00 0. -1.
         23    2    1    2    0    0  0.64616129424E+01 -0.92100241628E+02 -0.15975601119E+03  0.22292574583E+03  0.12509875337E+03 0.  0.
          5    1    3    3  502    0 -0.30941162319E+02 -0.10595448312E+03 -0.13967725386E+03  0.17807558976E+03  0.41800000000E+01 0. -1.
         -5    1    3    3    0  502  0.37402775261E+02  0.13854241496E+02 -0.20078757323E+02  0.44850156079E+02  0.41800000000E+01 0. -1.
        -11    1    1    2    0    0 -0.19014659777E+02  0.10745311756E+03 -0.61583370335E+02  0.12530060360E+03  0.00000000000E+00 0.  1.
         11    1    1    2    0    0  0.12553046835E+02 -0.15352875933E+02 -0.14433594091E+02  0.24527911094E+02  0.00000000000E+00 0. -1.
</event>
<event>
 6    1  0.1620881E-005  0.1122427E+03  0.7561462E-02  0.1256472E+00
          1   -1    0    0  501    0  0.00000000000E+00  0.00000000000E+00  0.10623522311E+03  0.10623522311E+03  0.00000000000E+00 0. -1.
         -1   -1    0    0    0  501 -0.00000000000E+00 -0.00000000000E+00 -0.19288975046E+03  0.19288975046E+03  0.00000000000E+00 0.  1.
          5    1    1    2  502    0  0.79694019272E+02  0.18111897535E+01  0.37767747739E+02  0.88307940104E+02  0.41800000000E+01 0. -1.
         -5    1    1    2    0  502 -0.46520857979E+02 -0.94083036896E+01 -0.99994050306E+02  0.11076546800E+03  0.41800000000E+01 0.  1.
        -11    1    1    2    0    0 -0.55501081361E+02 -0.22203483369E+02 -0.14398656329E+02  0.61487283320E+02  0.00000000000E+00 0.  1.
         11    1    1    2    0    0  0.22327920068E+02  0.29800597305E+02 -0.10029568454E+02  0.38564282149E+02  0.00000000000E+00 0. -1.
</event>
<event>
 7    1  0.1620881E-005  0.1085988E+03  0.7561462E-02  0.1263187E+00
         -2   -1    0    0    0  501 -0.00000000000E+00  0.00000000000E+00  0.24323141602E+03  0.24323141602E+03  0.00000000000E+00 0.  1.
          2   -1    0    0  501    0  0.00000000000E+00 -0.00000000000E+00 -0.60149893751E+02  0.60149893751E+02  0.00000000000E+00 0. -1.
         23    2    1    2    0    0  0.59536469288E+01 -0.51789570403E+02  0.11329256820E+03  0.17663862879E+03  0.12509353963E+03 0.  0.
          5    1    3    3  502    0 -0.28135919731E+02 -0.81222032530E+02  0.52298916202E+02  0.10070400977E+03  0.41800000000E+01 0.  1.
         -5    1    3    3    0  502  0.34089566659E+02  0.29432462127E+02  0.60993652003E+02  0.75934619026E+02  0.41800000000E+01 0.  1.
        -11    1    1    2    0    0  0.26125617543E+02  0.46582706702E+02  0.76752065342E+02  0.93506021143E+02  0.00000000000E+00 0.  1.
         11    1    1    2    0    0 -0.32079264472E+02  0.52068637010E+01 -0.69631112732E+01  0.33236659839E+02  0.00000000000E+00 0. -1.
</event>
<event>
 7    1  0.1620881E-005  0.1223539E+03  0.7561462E-02  0.1239264E+00
          1   -1    0    0  501    0  0.00000000000E+00  0.00000000000E+00  0.57538370375E+02  0.57538370375E+02  0.00000000000E+00 0. -1.
         -1   -1    0    0    0  501 -0.00000000000E+00 -0.00000000000E+00 -0.46843305246E+03  0.46843305246E+03  0.00000000000E+00 0.  1.
         23    2    1    2    0    0 -0.16444231249E+02 -0.90427633960E+02 -0.35306762290E+03  0.38568314563E+03  0.12508865957E+03 0.  0.
          5    1    3    3  502    0 -0.69390582103E+02 -0.44225741737E+02 -0.22390725460E+03  0.23858520528E+03  0.41800000000E+01 0. -1.
         -5    1    3    3    0  502  0.52946350854E+02 -0.46201892223E+02 -0.12916036830E+03  0.14709794035E+03  0.41800000000E+01 0. -1.
        -11    1    1    2    0    0  0.50916016363E+01  0.24545578286E+02  0.23944814250E+02  0.34666467228E+02  0.00000000000E+00 0. -1.
         11    1    1    2    0    0  0.11352629613E+02  0.65882055674E+02 -0.81771873433E+02  0.10562180998E+03  0.00000000000E+00 0.  1.
</event>
<event>
 7    1  0.1620881E-005  0.1561344E+03  0.7561462E-02  0.1193131E+00
          2   -1    0    0  501    0  0.00000000000E+00  0.00000000000E+00  0.70128334121E+03  0.70128334121E+03  0.00000000000E+00 0. -1.
         -2   -1    0    0    0  501 -0.00000000000E+00 -0.00000000000E+00 -0.43943087539E+02  0.43943087539E+02  0.00000000000E+00 0.  1.
         23    2    1    2    0    0  0.24990918471E+02  0.12008157601E+03  0.21556030952E+03  0.27777036147E+03  0.12508395488E+03 0.  0.
          5    1    3    3  502    0 -0.42093548040E+02  0.27850760313E+02  0.11501794451E+03  0.12567470547E+03  0.41800000000E+01 0.  1.
         -5    1    3    3    0  502  0.67084466511E+02  0.92230815701E+02  0.10054236501E+03  0.15209565600E+03  0.41800000000E+01 0.  1.
        -11    1    1    2    0    0  0.26889011560E+02 -0.71636203000E+02  0.28956608411E+03  0.29950506104E+03  0.00000000000E+00 0. -1.
         11    1    1    2    0    0 -0.51879930031E+02 -0.48445373014E+02  0.15221386004E+03  0.16795100624E+03  0.00000000000E+00 0.  1.
</event>
<event>
 7    1  0.1620881E-005  0.1100430E+03  0.7561462E-02  0.1260490E+00
          1   -1    0    0  501    0  0.00000000000E+00  0.00000000000E+00  0.71334982762E+03  0.71334982762E+03  0.00000000000E+00 0. -1.
         -1   -1    0    0    0  501 -0.00000000000E+00 -0.00000000000E+00 -0.19208223565E+02  0.19208223565E+02  0.00000000000E+00 0.  1.
         23    2    1    2    0    0  0.12602952902E+02  0.29503188111E+02  0.38627773923E+03  0.40729296118E+03  0.12509113428E+03 0.  0.
          5    1    3    3  502    0  0.42892409045E+02  0.61716481183E+02  0.16165452143E+03  0.17832088913E+03  0.41800000000E+01 0. -1.
         -5    1    3    3    0  502 -0.30289456142E+02 -0.32213293072E+02  0.22462321780E+03  0.22897207205E+03  0.41800000000E+01 0. -1.
        -11    1    1    2    0    0 -0.47948038718E+02 -0.41148419838E+02  0.14439575990E+03  0.15761453724E+03  0.00000000000E+00 0.  1.
         11    1    1    2    0    0  0.35345085815E+02  0.11645231727E+02  0.16346810493E+03  0.16765055277E+03  0.00000000000E+00 0. -1.
</event>
<event>
 7    1  0.1620881E-005  0.7723365E+02  0.7561462E-02  0.1337090E+00
          2   -1    0    0  501    0  0.00000000000E+00  0.00000000000E+00  0.50434958288E+02  0.50434958288E+02  0.00000000000E+00 0. -1.
         -2   -1    0    0    0  501 -0.00000000000E+00 -0.00000000000E+00 -0.27904579844E+03  0.27904579844E+03  0.00000000000E+00 0.  1.
         23    2    1    2    0    0  0.35394925058E+02 -0.15860007381E+02 -0.17101135945E+03  0.21540166612E+03  0.12509457283E+03 0.  0.
          5    1    3    3  502    0  0.18363528049E+02 -0.53137197102E+02 -0.21529701905E+02  0.60347173441E+02  0.41800000000E+01 0.  1.
         -5    1    3    3    0  502  0.17031397010E+02  0.37277189720E+02 -0.14948165754E+03  0.15505449268E+03  0.41800000000E+01 0.  1.
        -11    1    1    2    0    0 -0.14340738074E+02 -0.14208914794E+02 -0.71903199300E+02  0.74683466026E+02  0.00000000000E+00 0.  1.
         11    1    1    2    0    0 -0.21054186985E+02  0.30068922175E+02  0.14303718599E+02  0.39395624581E+02  0.00000000000E+00 0. -1.
</event>
<event>
 7    1  0.1620881E-005  0.9343856E+02  0.7561462E-02  0.1294732E+00
          1   -1    0    0  501    0  0.00000000000E+00  0.00000000000E+00  0.24104829657E+02  0.24104829657E+02  0.00000000000E+00 0. -1.
         -1   -1    0    0    0  501 -0.00000000000E+00 -0.00000000000E+00 -0.53993489432E+03  0.53993489432E+03  0.00000000000E+00 0.  1.
         23    2    1    2    0    0 -0.16318251226E+01  0.16424012942E+01 -0.37983351961E+03  0.39990779913E+03  0.12508950736E+03 0.  0.
          5    1    3    3  502    0  0.16872974022E+02 -0.51290991370E+02 -0.28123780425E+03  0.28640467522E+03  0.41800000000E+01 0.  1.
         -5    1    3    3    0  502 -0.18504799144E+02  0.52933392664E+02 -0.98595715364E+02  0.11350312392E+03  0.41800000000E+01 0.  1.
        -11    1    1    2    0    0 -0.10358450509E+02  0.35751078650E+02 -0.11220624468E+03  0.11821877375E+03  0.00000000000E+00 0.  1.
         11    1    1    2    0    0  0.11990275632E+02 -0.37393479944E+02 -0.23790300379E+02  0.45913151102E+02  0.00000000000E+00 0. -1.
</event>
<event>
 7    1  0.1620881E-005  0.9368025E+02  0.7561462E-02  0.1294176E+00
         -2   -1    0    0    0  501 -0.00000000000E+00  0.00000000000E+00  0.10968143716E+03  0.10968143716E+03  0.00000000000E+00 0. -1.
          2   -1    0    0  501    0  0.00000000000E+00 -0.00000000000E+00 -0.12889707585E+03  0.12889707585E+03  0.00000000000E+00 0.  1.
         23    2    1    2    0    0 -0.48410872132E+02 -0.14385944748E+01 -0.13544136918E+02  0.13482530902E+03  0.12509491682E+03 0.  0.
          5    1    3    3  502    0 -0.46351056477E+02 -0.29716875813E+02  0.43957029111E+02  0.70577659021E+02  0.41800000000E+01 0. -1.
         -5    1    3    3    0  502 -0.20598156548E+01  0.28278281339E+02 -0.57501166029E+02  0.64247650001E+02  0.41800000000E+01 0. -1.
        -11    1    1    2    0    0  0.37545891002E+02 -0.43376936963E+02 -0.55712966762E+01  0.57639326315E+02  0.00000000000E+00 0.  1.
         11    1    1    2    0    0  0.10864981130E+02  0.44815531437E+02 -0.10020509432E+00  0.46113877673E+02  0.00000000000E+00 0. -1.
</event>
<event>
 7    1  0.1620881E-005  0.1573045E+03  0.7561462E-02  0.1191774E+00
         -2   -1    0    0    0  501 -0.00000000000E+00  0.00000000000E+00  0.59276035498E+03  0.59276035498E+03  0.00000000000E+00 0.  1.
          2   -1    0    0  501    0  0.00000000000E+00 -0.00000000000E+00 -0.69547326353E+02  0.69547326353E+02  0.00000000000E+00 0. -1.
         23    2    1    2    0    0  0.28401703612E+02  0.12778537481E+03  0.42462497179E+03  0.46161647542E+03  0.12509054695E+03 0.  0.
          5    1    3    3  502    0  0.47227566990E+02  0.13667913720E+03  0.27730112590E+03  0.31276990976E+03  0.41800000000E+01 0. -1.
         -5    1    3    3    0  502 -0.18825863379E+02 -0.88937623928E+01  0.14732384589E+03  0.14884656566E+03  0.41800000000E+01 0. -1.
        -11    1    1    2    0    0  0.23812368383E+02 -0.38300199025E+02 -0.14449076110E+02  0.47357258512E+02  0.00000000000E+00 0. -1.
         11    1    1    2    0    0 -0.52214071995E+02 -0.89485175780E+02  0.11303713295E+03  0.15333394739E+03  0.00000000000E+00 0.  1.
</event>
<event>
 7    1  0.1620881E-005  0.1049544E+03  0.7561462E-02  0.1270209E+00
         -1   -1    0    0    0  501 -0.00000000000E+00  0.00000000000E+00  0.17755412387E+03  0.17755412387E+03  0.00000000000E+00 0.  1.
          1   -1    0    0  501    0  0.00000000000E+00 -0.00000000000E+00 -0.89691493682E+02  0.89691493682E+02  0.00000000000E+00 0. -1.
         23    2    1    2    0    0 -0.22593095861E+02 -0.51869015296E+02  0.68181358594E+02  0.15328420037E+03  0.12508599320E+03 0.  0.
          5    1    3    3  502    0 -0.29772831162E+02  0.27989933182E+02  0.59812364332E+02  0.72559280329E+02  0.41800000000E+01 0.  1.
         -5    1    3    3    0  502  0.71797353019E+01 -0.79858948478E+02  0.83689942623E+01  0.80724920043E+02  0.41800000000E+01 0.  1.
        -11    1    1    2    0    0  0.24870361929E+02 -0.98725924226E+01  0.40693233278E+02  0.48702589441E+02  0.00000000000E+00 0.  1.
         11    1    1    2    0    0 -0.22772660683E+01  0.61741607718E+02 -0.21011961683E+02  0.65258827741E+02  0.00000000000E+00 0. -1.
</event>
<event>
 7    1  0.1620881E-005  0.1232074E+03  0.7561462E-02  0.1237898E+00
         -3   -1    0    0    0  501 -0.00000000000E+00  0.00000000000E+00  0.23333726837E+02  0.23333726837E+02  0.00000000000E+00 0.  1.
          3   -1    0    0  501    0  0.00000000000E+00 -0.00000000000E+00 -0.10283171309E+04  0.10283171309E+04  0.00000000000E+00 0. -1.
         23    2    1    2    0    0  0.94577177078E+02  0.18489380122E+02 -0.36092081679E+03  0.39394860281E+03  0.12507983874E+03 0.  0.
          5    1    3    3  502    0  0.74874089609E+02 -0.18032145308E+02 -0.84532777447E+02  0.11443142235E+03  0.41800000000E+01 0.  1.
         -5    1    3    3    0  502  0.19703087470E+02  0.36521525429E+02 -0.27638803935E+03  0.27951718045E+03  0.41800000000E+01 0.  1.
        -11    1    1    2    0    0 -0.97832293082E+02  0.10512209626E+02 -0.56328825739E+03  0.57181756272E+03  0.00000000000E+00 0. -1.
         11    1    1    2    0    0  0.32551160033E+01 -0.29001589748E+02 -0.80774329864E+02  0.85884692193E+02  0.00000000000E+00 0.  1.
</event>
<event>
 7    1  0.1620881E-005  0.1149770E+03  0.7561462E-02  0.1251621E+00
          2   -1    0    0  501    0  0.00000000000E+00  0.00000000000E+00  0.92763084778E+03  0.92763084778E+03  0.00000000000E+00 0. -1.
         -2   -1    0    0    0  501 -0.00000000000E+00 -0.00000000000E+00 -0.15029300221E+02  0.15029300221E+02  0.00000000000E+00 0.  1.
         23    2    1    2    0    0 -0.10758175491E+02  0.37471121143E+02  0.42559805985E+03  0.44530987452E+03  0.12508937818E+03 0.  0.
          5    1    3    3  502    0  0.35649528211E+02  0.66763216639E+02  0.25816045966E+03  0.26905856479E+03  0.41800000000E+01 0. -1.
         -5    1    3    3    0  502 -0.46407703701E+02 -0.29292095495E+02  0.16743760020E+03  0.17625130973E+03  0.41800000000E+01 0. -1.
        -11    1    1    2    0    0 -0.79179199208E+01  0.29004771788E+02  0.10794121121E+03  0.11205032494E+03  0.00000000000E+00 0.  1.
         11    1    1    2    0    0  0.18676095411E+02 -0.66475892931E+02  0.37906227650E+03  0.38529994854E+03  0.00000000000E+00 0. -1.
</event>
<event>
 7    1  0.1620881E-005  0.2646956E+03  0.7561462E-02  0.1104354E+00
          1   -1    0    0  501    0  0.00000000000E+00  0.00000000000E+00  0.98252132129E+03  0.98252132129E+03  0.00000000000E+00 0. -1.
         -1   -1    0    0    0  501 -0.00000000000E+00 -0.00000000000E+00 -0.12652288149E+03  0.12652288149E+03  0.00000000000E+00 0.  1.
         23    2    1    2    0    0 -0.12977815775E+03  0.21424868081E+03  0.83935487213E+02  0.29229777294E+03  0.12509178467E+03 0.  0.
          5    1    3    3  502    0 -0.60164375467E+01  0.81812702692E+02  0.74254898116E+02  0.11072839806E+03  0.41800000000E+01 0. -1.
         -5    1    3    3    0  502 -0.12376172020E+03  0.13243597812E+03  0.96805890971E+01  0.18156937488E+03  0.41800000000E+01 0. -1.
        -11    1    1    2    0    0  0.83315095303E+02 -0.20106441348E+03  0.65033833971E+03  0.68579024459E+03  0.00000000000E+00 0. -1.
         11    1    1    2    0    0  0.46463062449E+02 -0.13184267339E+02  0.12172461287E+03  0.13095618525E+03  0.00000000000E+00 0.  1.
</event>
<event>
 7    1  0.1620881E-005  0.6282143E+02  0.7561462E-02  0.1386359E+00
          1   -1    0    0  501    0  0.00000000000E+00  0.00000000000E+00  0.59172911342E+02  0.59172911342E+02  0.00000000000E+00 0. -1.
         -1   -1    0    0    0  501 -0.00000000000E+00 -0.00000000000E+00 -0.36782409622E+03  0.36782409622E+03  0.00000000000E+00 0.  1.
         23    2    1    2    0    0  0.40133514148E+02 -0.45336412147E+02 -0.28178782776E+03  0.31419600597E+03  0.12509460848E+03 0.  0.
          5    1    3    3  502    0  0.27115980399E+02 -0.14923292549E+02 -0.27899124161E+03  0.28073397790E+03  0.41800000000E+01 0. -1.
         -5    1    3    3    0  502  0.13017533749E+02 -0.30413119598E+02 -0.27965861509E+01  0.33462028072E+02  0.41800000000E+01 0. -1.
        -11    1    1    2    0    0 -0.29099216495E+02  0.37799872413E+02 -0.60244928950E+02  0.76844298547E+02  0.00000000000E+00 0.  1.
         11    1    1    2    0    0 -0.11034297653E+02  0.75365397345E+01  0.33381571831E+02  0.35956703044E+02  0.00000000000E+00 0. -1.
</event>
<event>
 6    1  0.1620881E-005  0.2354967E+03  0.7561462E-02  0.1122830E+00
          1   -1    0    0  501    0  0.00000000000E+00  0.00000000000E+00  0.15727193644E+04  0.15727193644E+04  0.00000000000E+00 0. -1.
         -1   -1    0    0    0  501 -0.00000000000E+00 -0.00000000000E+00 -0.43077696700E+02  0.43077696700E+02  0.00000000000E+00 0.  1.
          5    1    1    2  502    0 -0.14101992909E+02  0.11742054432E+03  0.68668225718E+03  0.69680445260E+03  0.41800000000E+01 0. -1.
         -5    1    1    2    0  502 -0.14966315513E+03 -0.22979255449E+02  0.30366657021E+03  0.33934932510E+03  0.41800000000E+01 0.  1.
        -11    1    1    2    0    0  0.74211511655E+02 -0.82283012419E+02  0.20135657975E+03  0.22983105709E+03  0.00000000000E+00 0.  1.
         11    1    1    2    0    0  0.89553636382E+02 -0.12158276451E+02  0.33793626058E+03  0.34981222633E+03  0.00000000000E+00 0. -1.
</event>
<event>
 7    1  0.1620881E-005  0.1251621E+03  0.7561462E-02  0.1234816E+00
          2   -1    0    0  501    0  0.00000000000E+00  0.00000000000E+00  0.48049956962E+03  0.48049956962E+03  0.00000000000E+00 0. -1.
         -2   -1    0    0    0  501 -0.00000000000E+00 -0.00000000000E+00 -0.46481605429E+02  0.46481605429E+02  0.00000000000E+00 0.  1.
         23    2    1    2    0    0  0.66050673142E+02  0.77730875123E+02  0.20363958104E+03  0.25984980334E+03  0.12509220982E+03 0.  0.
          5    1    3    3  502    0  0.52135182640E+02  0.10423654345E+03  0.19695415838E+03  0.22889243579E+03  0.41800000000E+01 0.  1.
         -5    1    3    3    0  502  0.13915490502E+02 -0.26505668325E+02  0.66854226641E+01  0.30957367547E+02  0.41800000000E+01 0.  1.
        -11    1    1    2    0    0 -0.33292238392E+02 -0.52328607161E+02  0.21358106416E+03  0.22240397306E+03  0.00000000000E+00 0. -1.
         11    1    1    2    0    0 -0.32758434750E+02 -0.25402267961E+02  0.16797318983E+02  0.44727398649E+02  0.00000000000E+00 0.  1.
</event>
<event>
 7    1  0.1620881E-005  0.1583270E+03  0.7561462E-02  0.1190599E+00
         -2   -1    0    0    0  501 -0.00000000000E+00  0.00000000000E+00  0.35359967895E+02  0.35359967895E+02  0.00000000000E+00 0. -1.
          2   -1    0    0  501    0  0.00000000000E+00 -0.00000000000E+00 -0.94056320171E+03  0.94056320171E+03  0.00000000000E+00 0.  1.
         23    2    1    2    0    0  0.10779663959E+03 -0.72732961584E+02 -0.30205449800E+03  0.35184477859E+03  0.12509048425E+03 0.  0.
          5    1    3    3  502    0 -0.61640900669E+01  0.21285635510E+02 -0.10303520024E+02  0.24793329956E+02  0.41800000000E+01 0.  1.
         -5    1    3    3    0  502  0.11396072965E+03 -0.94018597093E+02 -0.29175097798E+03  0.32705144864E+03  0.41800000000E+01 0.  1.
        -11    1    1    2    0    0 -0.12336410271E+02  0.45346695721E+02 -0.91306997624E+02  0.10269117609E+03  0.00000000000E+00 0. -1.
         11    1    1    2    0    0 -0.95460229315E+02  0.27386265863E+02 -0.51184173819E+03  0.52138721493E+03  0.00000000000E+00 0.  1.
</event>
<event>
 7    1  0.1620881E-005  0.9834790E+02  0.7561462E-02  0.1283809E+00
          2   -1    0    0  501    0  0.00000000000E+00  0.00000000000E+00  0.29215839815E+03  0.29215839815E+03  0.00000000000E+00 0. -1.
         -2   -1    0    0    0  501 -0.00000000000E+00 -0.00000000000E+00 -0.61349789373E+02  0.61349789373E+02  0.00000000000E+00 0.  1.
         23    2    1    2    0    0 -0.58365513890E+02 -0.15190736122E+01  0.57145229903E+02  0.14940427830E+03  0.12508884953E+03 0.  0.
          5    1    3    3  502    0  0.16585119979E+01  0.43340326245E+02 -0.14224587137E+02  0.45836075533E+02  0.41800000000E+01 0. -1.
         -5    1    3    3    0  502 -0.60024025888E+02 -0.44859399857E+02  0.71369817040E+02  0.10356820276E+03  0.41800000000E+01 0. -1.
        -11    1    1    2    0    0  0.15367737751E+02  0.24799975320E+02  0.14397355454E+03  0.14689993379E+03  0.00000000000E+00 0. -1.
         11    1    1    2    0    0  0.42997776139E+02 -0.23280901707E+02  0.29689824336E+02  0.57203975442E+02  0.00000000000E+00 0.  1.
</event>
<event>
 7    1  0.1620881E-005  0.1781262E+03  0.7561462E-02  0.1169629E+00
         -1   -1    0    0    0  501 -0.00000000000E+00  0.00000000000E+00  0.13360315571E+03  0.13360315571E+03  0.00000000000E+00 0.  1.
          1   -1    0    0  501    0  0.00000000000E+00 -0.00000000000E+00 -0.28038278465E+03  0.28038278465E+03  0.00000000000E+00 0. -1.
         23    2    1    2    0    0  0.12025889779E+03  0.96614578962E+02 -0.33542235679E+02  0.20141682335E+03  0.12508827198E+03 0.  0.
          5    1    3    3  502    0  0.67253545098E+02  0.11613726357E+03 -0.48623386688E+02  0.14280269413E+03  0.41800000000E+01 0.  1.
         -5    1    3    3    0  502  0.53005352697E+02 -0.19522684603E+02  0.15081151009E+02  0.58614129221E+02  0.41800000000E+01 0.  1.
        -11    1    1    2    0    0 -0.64309564441E+02 -0.14410547234E+02 -0.57721355053E+01  0.66156643645E+02  0.00000000000E+00 0.  1.
         11    1    1    2    0    0 -0.55949333354E+02 -0.82204031728E+02 -0.10746525775E+03  0.14641247337E+03  0.00000000000E+00 0. -1.
</event>
<event>
 7    1  0.1620881E-005  0.1117026E+03  0.7561462E-02  0.1257449E+00
          2   -1    0    0  501    0  0.00000000000E+00  0.00000000000E+00  0.23360417080E+03  0.23360417080E+03  0.00000000000E+00 0. -1.
         -2   -1    0    0    0  501 -0.00000000000E+00 -0.00000000000E+00 -0.67125325416E+02  0.67125325416E+02  0.00000000000E+00 0.  1.
         23    2    1    2    0    0  0.57326540103E+02  0.63307493698E+01  0.72079721221E+02  0.15546388555E+03  0.12508846035E+03 0.  0.
          5    1    3    3  502    0  0.29213677892E+02  0.62640497898E+02  0.16012964426E+02  0.71071501902E+02  0.41800000000E+01 0.  1.
         -5    1    3    3    0  502  0.28112862211E+02 -0.56309748528E+02  0.56066756795E+02  0.84392383652E+02  0.41800000000E+01 0.  1.
        -11    1    1    2    0    0 -0.42699406449E+02 -0.37388633263E+02  0.14911457956E+02  0.58681349565E+02  0.00000000000E+00 0.  1.
         11    1    1    2    0    0 -0.14627133653E+02  0.31057883893E+02  0.79487666206E+02  0.86584261097E+02  0.00000000000E+00 0. -1.
</event>
<event>
 7    1  0.1620881E-005  0.1605168E+03  0.7561462E-02  0.1188114E+00
          2   -1    0    0  501    0  0.00000000000E+00  0.00000000000E+00  0.24395942309E+03  0.24395942309E+03  0.00000000000E+00 0. -1.
         -2   -1    0    0    0  501 -0.00000000000E+00 -0.00000000000E+00 -0.12722176621E+03  0.12722176621E+03  0.00000000000E+00 0.  1.
         23    2    1    2    0    0  0.12888101862E+03 -0.16073116917E+02  0.99627064758E+01  0.18059478893E+03  0.12508621115E+03 0.  0.
          5    1    3    3  502    0  0.15337855670E+03 -0.79546126390E+01  0.13404299258E+02  0.15422517679E+03  0.41800000000E+01 0.  1.
         -5    1    3    3    0  502 -0.24497538078E+02 -0.81185042782E+01 -0.34415927820E+01  0.26369612141E+02  0.41800000000E+01 0.  1.
        -11    1    1    2    0    0 -0.50068055391E+02  0.33873196837E+02  0.89435639511E+02  0.10794877141E+03  0.00000000000E+00 0. -1.
         11    1    1    2    0    0 -0.78812963229E+02 -0.17800079920E+02  0.17339310897E+02  0.82637628962E+02  0.00000000000E+00 0.  1.
</event>
<event>
 7    1  0.1620881E-005  0.5959311E+02  0.7561462E-02  0.1399547E+00
          2   -1    0    0  501    0  0.00000000000E+00  0.00000000000E+00  0.73426842463E+02  0.73426842463E+02  0.00000000000E+00 0. -1.
         -2   -1    0    0    0  501 -0.00000000000E+00 -0.00000000000E+00 -0.17715491422E+03  0.17715491422E+03  0.00000000000E+00 0.  1.
         23    2    1    2    0    0 -0.24498929265E+02 -0.26389329235E+02 -0.60788508413E+02  0.14366356114E+03  0.12508949521E+03 0.  0.
          5    1    3    3  502    0  0.25374873188E+02 -0.13324263515E+02  0.28397918218E+02  0.40562721145E+02  0.41800000000E+01 0. -1.
         -5    1    3    3    0  502 -0.49873802453E+02 -0.13065065720E+02 -0.89186426631E+02  0.10310084000E+03  0.41800000000E+01 0. -1.
        -11    1    1    2    0    0  0.11018387759E+02  0.21496243799E+02 -0.71222406949E+02  0.75207211209E+02  0.00000000000E+00 0.  1.
         11    1    1    2    0    0  0.13480541505E+02  0.48930854367E+01  0.28282843608E+02  0.31710984326E+02  0.00000000000E+00 0. -1.
</event>
<event>
 7    1  0.1620881E-005  0.1098514E+03  0.7561462E-02  0.1260845E+00
         -2   -1    0    0    0  501 -0.00000000000E+00  0.00000000000E+00  0.25864378277E+02  0.25864378277E+02  0.00000000000E+00 0. -1.
          2   -1    0    0  501    0  0.00000000000E+00 -0.00000000000E+00 -0.54057517854E+03  0.54057517854E+03  0.00000000000E+00 0.  1.
         23    2    1    2    0    0  0.14784782990E+02 -0.30978424689E+02 -0.21723661074E+03  0.25301552572E+03  0.12508740386E+03 0.  0.
          5    1    3    3  502    0 -0.45253880051E+02  0.20735815670E+02 -0.93841306743E+02  0.10630875299E+03  0.41800000000E+01 0.  1.
         -5    1    3    3    0  502  0.60038663040E+02 -0.51714240359E+02 -0.12339530399E+03  0.14670677273E+03  0.41800000000E+01 0.  1.
        -11    1    1    2    0    0 -0.38241395391E+02  0.48033563337E+02 -0.25289595569E+03  0.26024217939E+03  0.00000000000E+00 0.  1.
         11    1    1    2    0    0  0.23456612402E+02 -0.17055138648E+02 -0.44578233828E+02  0.53181851706E+02  0.00000000000E+00 0. -1.
</event>
<event>
 7    1  0.1620881E-005  0.1589108E+03  0.7561462E-02  0.1189932E+00
         -2   -1    0    0    0  501 -0.00000000000E+00  0.00000000000E+00  0.85661768377E+03  0.85661768377E+03  0.00000000000E+00 0.  1.
          2   -1    0    0  501    0  0.00000000000E+00 -0.00000000000E+00 -0.37836829188E+02  0.37836829188E+02  0.00000000000E+00 0. -1.
         23    2    1    2    0    0 -0.94699453616E+02 -0.98070849396E+02  0.54093064660E+03  0.57169899534E+03  0.12509156174E+03 0.  0.
          5    1    3    3  502    0 -0.46208449382E+02  0.17384140364E+02  0.25115545832E+03  0.25599602688E+03  0.41800000000E+01 0. -1.
         -5    1    3    3    0  502 -0.48491004234E+02 -0.11545498976E+03  0.28977518828E+03  0.31570296846E+03  0.41800000000E+01 0. -1.
        -11    1    1    2    0    0  0.72813403254E-02  0.20695139272E+02  0.17282231891E+01  0.20767175973E+02  0.00000000000E+00 0. -1.
         11    1    1    2    0    0  0.94692172276E+02  0.77375710124E+02  0.27612198479E+03  0.30198834165E+03  0.00000000000E+00 0.  1.
</event>
<event>
 7    1  0.1620881E-005  0.1027450E+03  0.7561462E-02  0.1274627E+00
         -1   -1    0    0    0  501 -0.00000000000E+00  0.00000000000E+00  0.47521540787E+02  0.47521540787E+02  0.00000000000E+00 0.  1.
          1   -1    0    0  501    0  0.00000000000E+00 -0.00000000000E+00 -0.26495794160E+03  0.26495794160E+03  0.00000000000E+00 0. -1.
         23    2    1    2    0    0  0.79809439303E+01 -0.25841270256E+02 -0.12125098929E+03  0.17629823445E+03  0.12509116017E+03 0.  0.
          5    1    3    3  502    0  0.52694949503E+02 -0.39725554907E+02 -0.27877164686E+02  0.71759920058E+02  0.41800000000E+01 0.  1.
         -5    1    3    3    0  502 -0.44714005573E+02  0.13884284651E+02 -0.93373824609E+02  0.10453831440E+03  0.41800000000E+01 0.  1.
        -11    1    1    2    0    0 -0.41704805581E+02  0.38089270438E+02 -0.77002517749E+02  0.95495921749E+02  0.00000000000E+00 0.  1.
         11    1    1    2    0    0  0.33723861651E+02 -0.12248000183E+02 -0.19182893766E+02  0.40685326180E+02  0.00000000000E+00 0. -1.
</event>
<event>
 7    1  0.1620881E-005  0.1147332E+03  0.7561462E-02  0.1252047E+00
          2   -1    0    0  501    0  0.00000000000E+00  0.00000000000E+00  0.19199897938E+03  0.19199897938E+03  0.00000000000E+00 0. -1.
         -2   -1    0    0    0  501 -0.00000000000E+00 -0.00000000000E+00 -0.10587524946E+03  0.10587524946E+03  0.00000000000E+00 0.  1.
         23    2    1    2    0    0  0.65179932172E+02 -0.75170016188E+01 -0.17930188147E+02  0.14239025366E+03  0.12509421977E+03 0.  0.
          5    1    3    3  502    0  0.28787839093E+02 -0.53322304839E+02 -0.47121535694E+02  0.76876000150E+02  0.41800000000E+01 0.  1.
         -5    1    3    3    0  502  0.36392093080E+02  0.45805303220E+02  0.29191347547E+02  0.65514253513E+02  0.41800000000E+01 0.  1.
        -11    1    1    2    0    0 -0.82842333644E+02 -0.12050334810E+02  0.97134810173E+02  0.12823117468E+03  0.00000000000E+00 0.  1.
         11    1    1    2    0    0  0.17662401472E+02  0.19567336429E+02  0.69191079013E+01  0.27252800495E+02  0.00000000000E+00 0. -1.
</event>
<event>
 7    1  0.1620881E-005  0.1753473E+03  0.7561462E-02  0.1172383E+00
          2   -1    0    0  501    0  0.00000000000E+00  0.00000000000E+00  0.48997972386E+03  0.48997972386E+03  0.00000000000E+00 0. -1.
         -2   -1    0    0    0  501 -0.00000000000E+00 -0.00000000000E+00 -0.67081945447E+02  0.67081945447E+02  0.00000000000E+00 0.  1.
         23    2    1    2    0    0 -0.68920414237E+02 -0.12660372676E+03  0.21400109099E+03  0.28674353528E+03  0.12508741323E+03 0.  0.
          5    1    3    3  502    0  0.23342333492E+02 -0.87157980285E+02  0.96713838997E+02  0.13233448951E+03  0.41800000000E+01 0.  1.
         -5    1    3    3    0  502 -0.92262747729E+02 -0.39445746476E+02  0.11728725200E+03  0.15440904577E+03  0.41800000000E+01 0.  1.
        -11    1    1    2    0    0  0.60512647687E+02  0.39127691789E+02  0.14416521555E+03  0.16117185291E+03  0.00000000000E+00 0. -1.
         11    1    1    2    0    0  0.84077665503E+01  0.87476034972E+02  0.64731471865E+02  0.10914628112E+03  0.00000000000E+00 0.  1.
</event>
<event>
 7    1  0.1620881E-005  0.1094853E+03  0.7561462E-02  0.1261526E+00
          2   -1    0    0  501    0  0.00000000000E+00  0.00000000000E+00  0.24661176987E+03  0.24661176987E+03  0.00000000000E+00 0. -1.
         -2   -1    0    0    0  501 -0.00000000000E+00 -0.00000000000E+00 -0.10315245007E+03  0.10315245007E+03  0.00000000000E+00 0.  1.
         23    2    1    2    0    0 -0.87477863692E+02 -0.26647000527E+02 -0.36758793679E+01  0.15499765047E+03  0.12509324638E+03 0.  0.
          5    1    3    3  502    0 -0.84275648987E+02 -0.52358395500E+02 -0.42597072797E+02  0.10805447516E+03  0.41800000000E+01 0.  1.
         -5    1    3    3    0  502 -0.32022147054E+01  0.25711394973E+02  0.38921193429E+02  0.46943175312E+02  0.41800000000E+01 0.  1.
        -11    1    1    2    0    0  0.67066436004E+02  0.11597055426E+02  0.15410534499E+03  0.16846618619E+03  0.00000000000E+00 0. -1.
         11    1    1    2    0    0  0.20411427688E+02  0.15049945102E+02 -0.69701458298E+01  0.26300383281E+02  0.00000000000E+00 0.  1.
</event>
<event>
 7    1  0.1620881E-005  0.1197530E+03  0.7561462E-02  0.1243505E+00
         -2   -1    0    0    0  501 -0.00000000000E+00  0.00000000000E+00  0.17162177798E+02  0.17162177798E+02  0.00000000000E+00 0. -1.
          2   -1    0    0  501    0  0.00000000000E+00 -0.00000000000E+00 -0.11060756349E+04  0.11060756349E+04  0.00000000000E+00 0.  1.
         23    2    1    2    0    0 -0.40529734348E+02  0.71235284317E+02 -0.68734729051E+03  0.70342826838E+03  0.12509158998E+03 0.  0.
          5    1    3    3  502    0  0.14806505790E+02 -0.22405663505E+02 -0.50536358630E+02  0.57381550297E+02  0.41800000000E+01 0.  1.
         -5    1    3    3    0  502 -0.55336240138E+02  0.93640947822E+02 -0.63681093188E+03  0.64604671808E+03  0.41800000000E+01 0.  1.
        -11    1    1    2    0    0  0.17722191140E+02 -0.77760597371E+02 -0.37817813516E+03  0.38649642751E+03  0.00000000000E+00 0.  1.
         11    1    1    2    0    0  0.22807543207E+02  0.65253130534E+01 -0.23388031431E+02  0.33313116813E+02  0.00000000000E+00 0. -1.
</event>
<event>
 7    1  0.1620881E-005  0.1344144E+03  0.7561462E-02  0.1221049E+00
          1   -1    0    0  501    0  0.00000000000E+00  0.00000000000E+00  0.58764443587E+03  0.58764443587E+03  0.00000000000E+00 0.  1.
         -1   -1    0    0    0  501 -0.00000000000E+00 -0.00000000000E+00 -0.43626568690E+02  0.43626568690E+02  0.00000000000E+00 0. -1.
         23    2    1    2    0    0 -0.21141889241E+02 -0.10225103109E+03  0.18658983357E+03  0.24770406024E+03  0.12505711747E+03 0.  0.
          5    1    3    3  502    0 -0.71113241701E+02 -0.77970798033E+02  0.10516721641E+03  0.14904413541E+03  0.41800000000E+01 0.  1.
         -5    1    3    3    0  502  0.49971352460E+02 -0.24280233054E+02  0.81422617157E+02  0.98659924836E+02  0.41800000000E+01 0.  1.
        -11    1    1    2    0    0  0.85612675361E+01  0.60548035076E+01 -0.25112132759E+01  0.10782492266E+02  0.00000000000E+00 0. -1.
         11    1    1    2    0    0  0.12580621705E+02  0.96196227579E+02  0.35993924689E+03  0.37278445206E+03  0.00000000000E+00 0.  1.
</event>
<event>
 7    1  0.1620881E-005  0.1033126E+03  0.7561462E-02  0.1273480E+00
         -3   -1    0    0    0  501 -0.00000000000E+00  0.00000000000E+00  0.64033700176E+03  0.64033700176E+03  0.00000000000E+00 0.  1.
          3   -1    0    0  501    0  0.00000000000E+00 -0.00000000000E+00 -0.19896484304E+02  0.19896484304E+02  0.00000000000E+00 0. -1.
         23    2    1    2    0    0 -0.10229966241E+02  0.73058761790E+01  0.44542594902E+03  0.46118947960E+03  0.11888411164E+03 0.  0.
          5    1    3    3  502    0  0.12677515656E+00 -0.52861676112E+02  0.14027818790E+03  0.14996604707E+03  0.41800000000E+01 0. -1.
         -5    1    3    3    0  502 -0.10356741398E+02  0.60167552291E+02  0.30514776111E+03  0.31122343253E+03  0.41800000000E+01 0.  1.
        -11    1    1    2    0    0 -0.11120735931E+02 -0.46478128500E+02  0.68107226840E+02  0.83201451576E+02  0.00000000000E+00 0. -1.
         11    1    1    2    0    0  0.21350702171E+02  0.39172252321E+02  0.10690734160E+03  0.11584255489E+03  0.00000000000E+00 0.  1.
</event>
<event>
 6    1  0.1620881E-005  0.1506817E+03  0.7561462E-02  0.1199638E+00
         -1   -1    0    0    0  501 -0.00000000000E+00  0.00000000000E+00  0.67130229306E+03  0.67130229306E+03  0.00000000000E+00 0.  1.
          1   -1    0    0  501    0  0.00000000000E+00 -0.00000000000E+00 -0.50873263685E+02  0.50873263685E+02  0.00000000000E+00 0. -1.
          5    1    1    2  502    0 -0.36674560230E+02  0.24926641006E+02  0.26475936026E+02  0.51815136672E+02  0.41800000000E+01 0. -1.
         -5    1    1    2    0  502  0.48052781774E+02 -0.11946842198E+03  0.48349438462E+03  0.50036593214E+03  0.41800000000E+01 0.  1.
        -11    1    1    2    0    0  0.27866899763E+02  0.82276975163E+02  0.63647812056E+02  0.10768987289E+03  0.00000000000E+00 0.  1.
         11    1    1    2    0    0 -0.39245121307E+02  0.12264805810E+02  0.46810896671E+02  0.62304615038E+02  0.00000000000E+00 0. -1.
</event>
<event>
 6    1  0.1620881E-005  0.2107633E+03  0.7561462E-02  0.1140963E+00
          2   -1    0    0  501    0  0.00000000000E+00  0.00000000000E+00  0.86302462117E+03  0.86302462117E+03  0.00000000000E+00 0. -1.
         -2   -1    0    0    0  501 -0.00000000000E+00 -0.00000000000E+00 -0.86755005155E+02  0.86755005155E+02  0.00000000000E+00 0.  1.
          5    1    1    2  502    0  0.13212617211E+02  0.52121637577E+02  0.37119963484E+03  0.37509716029E+03  0.41800000000E+01 0. -1.
         -5    1    1    2    0  502 -0.16816502847E+03 -0.77998809924E+02  0.83165106788E+02  0.20321712166E+03  0.41800000000E+01 0.  1.
        -11    1    1    2    0    0 -0.11982615508E+02  0.77199218957E+01  0.49057499699E+02  0.51086383169E+02  0.00000000000E+00 0.  1.
         11    1    1    2    0    0  0.16693502676E+03  0.18157250452E+02  0.27284737469E+03  0.32037896120E+03  0.00000000000E+00 0. -1.
</event>
<event>
 7    1  0.1620881E-005  0.1160106E+03  0.7561462E-02  0.1249827E+00
          1   -1    0    0  501    0  0.00000000000E+00  0.00000000000E+00  0.30175868134E+02  0.30175868134E+02  0.00000000000E+00 0. -1.
         -1   -1    0    0    0  501 -0.00000000000E+00 -0.00000000000E+00 -0.55865152377E+03  0.55865152377E+03  0.00000000000E+00 0.  1.
         23    2    1    2    0    0 -0.42564802874E+02  0.45725947202E+02 -0.37607555025E+03  0.40122637524E+03  0.12508860860E+03 0.  0.
          5    1    3    3  502    0 -0.74389613950E+02  0.49877674856E+00 -0.28513252665E+03  0.29470679259E+03  0.41800000000E+01 0. -1.
         -5    1    3    3    0  502  0.31824811077E+02  0.45227170453E+02 -0.90943023595E+02  0.10651958265E+03  0.41800000000E+01 0. -1.
        -11    1    1    2    0    0  0.10464577153E+02  0.23511927534E+02 -0.73300896388E+02  0.77687447652E+02  0.00000000000E+00 0.  1.
         11    1    1    2    0    0  0.32100225721E+02 -0.69237874736E+02 -0.79099209001E+02  0.10991356902E+03  0.00000000000E+00 0. -1.
</event>
<event>
 7    1  0.1620881E-005  0.1063589E+03  0.7561462E-02  0.1267465E+00
         -2   -1    0    0    0  501 -0.00000000000E+00  0.00000000000E+00  0.56163532101E+02  0.56163532101E+02  0.00000000000E+00 0.  1.
          2   -1    0    0  501    0  0.00000000000E+00 -0.00000000000E+00 -0.22165725592E+03  0.22165725592E+03  0.00000000000E+00 0. -1.
         23    2    1    2    0    0 -0.14543039753E+01 -0.56367234954E+01 -0.61608600868E+02  0.13956303412E+03  0.12509329774E+03 0.  0.
          5    1    3    3  502    0  0.38256428066E+02  0.45511769461E+02 -0.21952925754E+02  0.63515972770E+02  0.41800000000E+01 0.  1.
         -5    1    3    3    0  502 -0.39710732041E+02 -0.51148492956E+02 -0.39655675114E+02  0.76047061348E+02  0.41800000000E+01 0.  1.
        -11    1    1    2    0    0 -0.40806534450E+02  0.17397594079E+02 -0.34622127233E+02  0.56272028821E+02  0.00000000000E+00 0.  1.
         11    1    1    2    0    0  0.42260838425E+02 -0.11760870584E+02 -0.69262995715E+02  0.81985725079E+02  0.00000000000E+00 0. -1.
</event>
<event>
 7    1  0.1620881E-005  0.1399297E+03  0.7561462E-02  0.1213424E+00
          2   -1    0    0  501    0  0.00000000000E+00  0.00000000000E+00  0.31233802565E+03  0.31233802565E+03  0.00000000000E+00 0. -1.
         -2   -1    0    0    0  501 -0.00000000000E+00 -0.00000000000E+00 -0.77485715581E+02  0.77485715581E+02  0.00000000000E+00 0.  1.
         23    2    1    2    0    0 -0.91221850997E+02  0.34057878524E+02  0.60229922958E+02  0.16960682664E+03  0.12512979994E+03 0.  0.
          5    1    3    3  502    0 -0.99484068156E+02 -0.17702195062E+02  0.19266154552E+02  0.10295195306E+03  0.41800000000E+01 0.  1.
         -5    1    3    3    0  502  0.82622171584E+01  0.51760073586E+02  0.40963768406E+02  0.66654873580E+02  0.41800000000E+01 0.  1.
        -11    1    1    2    0    0  0.10089904409E+02  0.24228793119E+02  0.10891036959E+02  0.28415757478E+02  0.00000000000E+00 0.  1.
         11    1    1    2    0    0  0.81131946589E+02 -0.58286671643E+02  0.16373135015E+03  0.19180115711E+03  0.00000000000E+00 0. -1.
</event>
<event>
 7    1  0.1620881E-005  0.9656002E+02  0.7561462E-02  0.1287701E+00
         -2   -1    0    0    0  501 -0.00000000000E+00  0.00000000000E+00  0.41889075481E+02  0.41889075481E+02  0.00000000000E+00 0.  1.
          2   -1    0    0  501    0  0.00000000000E+00 -0.00000000000E+00 -0.35712331559E+03  0.35712331559E+03  0.00000000000E+00 0. -1.
         23    2    1    2    0    0  0.17505625222E+02 -0.49822121712E+02 -0.14374749683E+03  0.19772558477E+03  0.12507347161E+03 0.  0.
          5    1    3    3  502    0  0.22647930423E+01 -0.91204365122E+02 -0.92546098873E+02  0.13002160713E+03  0.41800000000E+01 0.  1.
         -5    1    3    3    0  502  0.15240832180E+02  0.41382243410E+02 -0.51201397959E+02  0.67703977639E+02  0.41800000000E+01 0.  1.
        -11    1    1    2    0    0 -0.20696026330E+02  0.24939949892E+02 -0.17313947902E+03  0.17614654638E+03  0.00000000000E+00 0. -1.
         11    1    1    2    0    0  0.31904011080E+01  0.24882171820E+02  0.16527357365E+01  0.25140259926E+02  0.00000000000E+00 0.  1.
</event>
<event>
 7    1  0.1620881E-005  0.1345340E+03  0.7561462E-02  0.1220879E+00
         -3   -1    0    0    0  501 -0.00000000000E+00  0.00000000000E+00  0.74761218642E+03  0.74761218642E+03  0.00000000000E+00 0.  1.
          3   -1    0    0  501    0  0.00000000000E+00 -0.00000000000E+00 -0.30840445634E+02  0.30840445634E+02  0.00000000000E+00 0. -1.
         23    2    1    2    0    0 -0.41652997117E+02  0.86751858764E+02  0.45804916807E+03  0.48447692195E+03  0.12509192764E+03 0.  0.
          5    1    3    3  502    0  0.18120005065E+02 -0.56716514203E+01  0.23410146898E+03  0.23490736981E+03  0.41800000000E+01 0.  1.
         -5    1    3    3    0  502 -0.59773002182E+02  0.92423510185E+02  0.22394769909E+03  0.24956955213E+03  0.41800000000E+01 0.  1.
        -11    1    1    2    0    0  0.60722871696E+02 -0.11440684235E+02  0.10892176209E+03  0.12522821830E+03  0.00000000000E+00 0. -1.
         11    1    1    2    0    0 -0.19069874579E+02 -0.75311174530E+02  0.14980081063E+03  0.16874749180E+03  0.00000000000E+00 0.  1.
</event>
<event>
 7    1  0.1620881E-005  0.1757051E+03  0.7561462E-02  0.1172026E+00
         -1   -1    0    0    0  501 -0.00000000000E+00  0.00000000000E+00  0.12479892080E+04  0.12479892080E+04  0.00000000000E+00 0.  1.
          1   -1    0    0  501    0  0.00000000000E+00 -0.00000000000E+00 -0.31727950927E+02  0.31727950927E+02  0.00000000000E+00 0. -1.
         23    2    1    2    0    0  0.83795189236E+02 -0.13906820942E+03  0.73228452851E+03  0.76042720177E+03  0.12508915972E+03 0.  0.
          5    1    3    3  502    0  0.67882115257E+02 -0.73649965915E+02  0.62984320357E+03  0.63777130113E+03  0.41800000000E+01 0. -1.
         -5    1    3    3    0  502  0.15913073979E+02 -0.65418243509E+02  0.10244132494E+03  0.12265590064E+03  0.41800000000E+01 0. -1.
        -11    1    1    2    0    0 -0.65781867998E+02  0.14918642735E+03  0.38366204778E+03  0.41686977723E+03  0.00000000000E+00 0. -1.
         11    1    1    2    0    0 -0.18013321238E+02 -0.10118217928E+02  0.10031468075E+03  0.10242017990E+03  0.00000000000E+00 0.  1.
</event>
<event>
 7    1  0.1620881E-005  0.1820848E+03  0.7561462E-02  0.1165800E+00
         -1   -1    0    0    0  501 -0.00000000000E+00  0.00000000000E+00  0.55387049866E+02  0.55387049866E+02  0.00000000000E+00 0.  1.
          1   -1    0    0  501    0  0.00000000000E+00 -0.00000000000E+00 -0.63351405469E+03  0.63351405469E+03  0.00000000000E+00 0. -1.
         23    2    1    2    0    0 -0.10026804979E+03 -0.10944011508E+03 -0.27054254354E+03  0.33297352858E+03  0.12508909732E+03 0.  0.
          5    1    3    3  502    0 -0.28962275025E+02  0.26867303487E+02 -0.46314218343E+02  0.61017576091E+02  0.41800000000E+01 0. -1.
         -5    1    3    3    0  502 -0.71305774769E+02 -0.13630741856E+03 -0.22422832520E+03  0.27195595249E+03  0.41800000000E+01 0. -1.
        -11    1    1    2    0    0  0.27628596390E+02  0.91712738683E+02 -0.22490852989E+03  0.24445533865E+03  0.00000000000E+00 0.  1.
         11    1    1    2    0    0  0.72639453404E+02  0.17727376393E+02 -0.82675931393E+02  0.11147223733E+03  0.00000000000E+00 0. -1.
</event>
<event>
 7    1  0.1620881E-005  0.9636564E+02  0.7561462E-02  0.1288130E+00
          1   -1    0    0  501    0  0.00000000000E+00  0.00000000000E+00  0.61179372324E+02  0.61179372324E+02  0.00000000000E+00 0. -1.
         -1   -1    0    0    0  501 -0.00000000000E+00 -0.00000000000E+00 -0.28075802044E+03  0.28075802044E+03  0.00000000000E+00 0.  1.
         23    2    1    2    0    0 -0.35135622826E+02 -0.33430344322E+02 -0.19303097862E+03  0.23506801251E+03  0.12507562466E+03 0.  0.
          5    1    3    3  502    0 -0.43570315529E+02 -0.68982138076E+02 -0.73106018149E+02  0.10963060731E+03  0.41800000000E+01 0. -1.
         -5    1    3    3    0  502  0.84346927022E+01  0.35551793753E+02 -0.11992496047E+03  0.12543740520E+03  0.41800000000E+01 0. -1.
        -11    1    1    2    0    0  0.39842816117E+02 -0.65537698701E+00  0.23404324325E+02  0.46213005878E+02  0.00000000000E+00 0. -1.
         11    1    1    2    0    0 -0.47071932911E+01  0.34085721309E+02 -0.49951993817E+02  0.60656374374E+02  0.00000000000E+00 0.  1.
</event>
<event>
 7    1  0.1620881E-005  0.1050694E+03  0.7561462E-02  0.1269983E+00
          2   -1    0    0  501    0  0.00000000000E+00  0.00000000000E+00  0.32065798039E+03  0.32065798039E+03  0.00000000000E+00 0. -1.
         -2   -1    0    0    0  501 -0.00000000000E+00 -0.00000000000E+00 -0.50630732836E+02  0.50630732836E+02  0.00000000000E+00 0.  1.
         23    2    1    2    0    0  0.81877034835E+01 -0.49268403578E+02  0.84308902696E+02  0.15890368728E+03  0.12509187294E+03 0.  0.
          5    1    3    3  502    0  0.30329073945E+02 -0.73107764954E+02  0.95626373282E+02  0.12420335619E+03  0.41800000000E+01 0.  1.
         -5    1    3    3    0  502 -0.22141370461E+02  0.23839361376E+02 -0.11317470585E+02  0.34700331082E+02  0.41800000000E+01 0.  1.
        -11    1    1    2    0    0  0.32688127006E+02  0.46853574974E+02  0.13888232138E+03  0.15017346746E+03  0.00000000000E+00 0.  1.
         11    1    1    2    0    0 -0.40875830490E+02  0.24148286038E+01  0.46836023477E+02  0.62211558496E+02  0.00000000000E+00 0. -1.
</event>
<event>
 7    1  0.1620881E-005  0.1225576E+03  0.7561462E-02  0.1238936E+00
          3   -1    0    0  501    0  0.00000000000E+00  0.00000000000E+00  0.53787983895E+03  0.53787983895E+03  0.00000000000E+00 0. -1.
         -3   -1    0    0    0  501 -0.00000000000E+00 -0.00000000000E+00 -0.39192694917E+02  0.39192694917E+02  0.00000000000E+00 0.  1.
         23    2    1    2    0    0  0.94938267602E+02 -0.83235255336E+01  0.23290219782E+03  0.28102105707E+03  0.12508734963E+03 0.  0.
          5    1    3    3  502    0  0.10976769134E+03  0.92362121851E+01  0.23288851852E+03  0.25766021838E+03  0.41800000000E+01 0. -1.
         -5    1    3    3    0  502 -0.14829423741E+02 -0.17559737719E+02  0.13679298240E-01  0.23360838692E+02  0.41800000000E+01 0. -1.
        -11    1    1    2    0    0 -0.77243920072E+02 -0.18459792431E+02  0.24562544246E+03  0.25814578267E+03  0.00000000000E+00 0. -1.
         11    1    1    2    0    0 -0.17694347531E+02  0.26783317964E+02  0.20159503758E+02  0.37905694130E+02  0.00000000000E+00 0.  1.
</event>
<event>
 7    1  0.1620881E-005  0.1197139E+03  0.7561462E-02  0.1243570E+00
         -2   -1    0    0    0  501 -0.00000000000E+00  0.00000000000E+00  0.41907354340E+02  0.41907354340E+02  0.00000000000E+00 0.  1.
          2   -1    0    0  501    0  0.00000000000E+00 -0.00000000000E+00 -0.48426217472E+03  0.48426217472E+03  0.00000000000E+00 0. -1.
         23    2    1    2    0    0 -0.39303567322E+02 -0.42694216901E+02 -0.10968369254E+03  0.17619798488E+03  0.12509057081E+03 0.  0.
          5    1    3    3  502    0 -0.19893809822E+02 -0.83256995320E+02 -0.43597332169E+02  0.96154514773E+02  0.41800000000E+01 0.  1.
         -5    1    3    3    0  502 -0.19409757500E+02  0.40562778419E+02 -0.66086360374E+02  0.80043470107E+02  0.41800000000E+01 0.  1.
        -11    1    1    2    0    0  0.37367528352E+02  0.70978141954E+02 -0.25255676431E+03  0.26498895828E+03  0.00000000000E+00 0.  1.
         11    1    1    2    0    0  0.19360389695E+01 -0.28283925053E+02 -0.80114363520E+02  0.84982585896E+02  0.00000000000E+00 0. -1.
</event>
<event>
 7    1  0.1620881E-005  0.1024987E+03  0.7561462E-02  0.1275128E+00
         -2   -1    0    0    0  501 -0.00000000000E+00  0.00000000000E+00  0.36639069726E+03  0.36639069726E+03  0.00000000000E+00 0.  1.
          2   -1    0    0  501    0  0.00000000000E+00 -0.00000000000E+00 -0.56836524531E+02  0.56836524531E+02  0.00000000000E+00 0. -1.
         23    2    1    2    0    0  0.58219381220E+02  0.26423371116E+02  0.27129846407E+03  0.30550954297E+03  0.12508210644E+03 0.  0.
          5    1    3    3  502    0  0.62518947827E+02 -0.34118003509E+02  0.93635763195E+02  0.11771909594E+03  0.41800000000E+01 0. -1.
         -5    1    3    3    0  502 -0.42995666068E+01  0.60541374625E+02  0.17766270087E+03  0.18779044703E+03  0.41800000000E+01 0. -1.
        -11    1    1    2    0    0 -0.30875455593E+02 -0.32474174216E+02 -0.22997326731E+02  0.50366087657E+02  0.00000000000E+00 0. -1.
         11    1    1    2    0    0 -0.27343925628E+02  0.60508031002E+01  0.61253035390E+02  0.67351591157E+02  0.00000000000E+00 0.  1.
</event>
<event>
 7    1  0.1620881E-005  0.1135877E+03  0.7561462E-02  0.1254067E+00
         -2   -1    0    0    0  501 -0.00000000000E+00  0.00000000000E+00  0.27399620596E+03  0.27399620596E+03  0.00000000000E+00 0.  1.
          2   -1    0    0  501    0  0.00000000000E+00 -0.00000000000E+00 -0.64458557028E+02  0.64458557028E+02  0.00000000000E+00 0. -1.
         23    2    1    2    0    0 -0.26116832551E+02 -0.70602695432E+02  0.10966600339E+03  0.18259476387E+03  0.12508951174E+03 0.  0.
          5    1    3    3  502    0  0.19704581361E+02 -0.55995664480E+02  0.11934581998E+03  0.13335922208E+03  0.41800000000E+01 0. -1.
         -5    1    3    3    0  502 -0.45821413912E+02 -0.14607030952E+02 -0.96798165907E+01  0.49235541790E+02  0.41800000000E+01 0. -1.
        -11    1    1    2    0    0 -0.31837182800E+02  0.47106737350E+02  0.52754553023E+02  0.77560903664E+02  0.00000000000E+00 0. -1.
         11    1    1    2    0    0  0.57954015351E+02  0.23495958082E+02  0.47117092521E+02  0.78299095456E+02  0.00000000000E+00 0.  1.
</event>
<event>
 7    1  0.1620881E-005  0.1633314E+03  0.7561462E-02  0.1184986E+00
          1   -1    0    0  501    0  0.00000000000E+00  0.00000000000E+00  0.29358849923E+03  0.29358849923E+03  0.00000000000E+00 0. -1.
         -1   -1    0    0    0  501 -0.00000000000E+00 -0.00000000000E+00 -0.11068560607E+03  0.11068560607E+03  0.00000000000E+00 0.  1.
         23    2    1    2    0    0  0.11508061602E+03 -0.78203103491E+02  0.57137750785E+02  0.19592812441E+03  0.12555410702E+03 0.  0.
          5    1    3    3  502    0  0.14158907034E+03 -0.70367244094E+02  0.56530835387E+02  0.16796494167E+03  0.41800000000E+01 0. -1.
         -5    1    3    3    0  502 -0.26508454314E+02 -0.78358593963E+01  0.60691539870E+00  0.27963182739E+02  0.41800000000E+01 0.  1.
        -11    1    1    2    0    0 -0.76212031230E+02  0.40132599874E+02  0.18537916774E+02  0.88105355315E+02  0.00000000000E+00 0.  1.
         11    1    1    2    0    0 -0.38868584794E+02  0.38070503617E+02  0.10722722560E+03  0.12024062558E+03  0.00000000000E+00 0. -1.
</event>
<event>
 7    1  0.1620881E-005  0.2031417E+03  0.7561462E-02  0.1147115E+00
         -2   -1    0    0    0  501 -0.00000000000E+00  0.00000000000E+00  0.75560553138E+02  0.75560553138E+02  0.00000000000E+00 0.  1.
          2   -1    0    0  501    0  0.00000000000E+00 -0.00000000000E+00 -0.69396619501E+03  0.69396619501E+03  0.00000000000E+00 0. -1.
         23    2    1    2    0    0  0.31258253141E+02 -0.19597758294E+03 -0.37830944533E+03  0.44513995205E+03  0.12508896466E+03 0.  0.
          5    1    3    3  502    0  0.28814417385E+02 -0.79500276570E+02 -0.53765626663E+02  0.10029346756E+03  0.41800000000E+01 0.  1.
         -5    1    3    3    0  502  0.24438357558E+01 -0.11647730637E+03 -0.32454381867E+03  0.34484648449E+03  0.41800000000E+01 0.  1.
        -11    1    1    2    0    0 -0.44873000185E+02  0.12600915595E+03 -0.20538975183E+03  0.24510578061E+03  0.00000000000E+00 0. -1.
         11    1    1    2    0    0  0.13614747044E+02  0.69968426995E+02 -0.34706444711E+02  0.79281015493E+02  0.00000000000E+00 0.  1.
</event>
<event>
 7    1  0.1620881E-005  0.8724804E+02  0.7561462E-02  0.1309656E+00
         -2   -1    0    0    0  501 -0.00000000000E+00  0.00000000000E+00  0.32599966906E+02  0.32599966906E+02  0.00000000000E+00 0.  1.
          2   -1    0    0  501    0  0.00000000000E+00 -0.00000000000E+00 -0.47898133765E+03  0.47898133765E+03  0.00000000000E+00 0. -1.
         23    2    1    2    0    0  0.45832672254E+02  0.21870054554E+02 -0.15469880107E+03  0.20183930924E+03  0.11928308584E+03 0.  0.
          5    1    3    3  502    0  0.33739269838E+02  0.46004568278E+02 -0.16343744964E+03  0.17315897602E+03  0.41800000000E+01 0. -1.
         -5    1    3    3    0  502  0.12093402416E+02 -0.24134513724E+02  0.87386485683E+01  0.28680333218E+02  0.41800000000E+01 0.  1.
        -11    1    1    2    0    0 -0.65340678773E+02 -0.75481002046E+01 -0.26773213138E+03  0.27569343897E+03  0.00000000000E+00 0. -1.
         11    1    1    2    0    0  0.19508006520E+02 -0.14321954349E+02 -0.23950438291E+02  0.34048556344E+02  0.00000000000E+00 0.  1.
</event>
<event>
 7    1  0.2534698E-005  0.1646865E+03  0.7561462E-02  0.1183505E+00
         -1   -1    0    0    0  501 -0.00000000000E+00  0.00000000000E+00  0.24216001153E+02  0.24216001153E+02  0.00000000000E+00 0.  1.
          1   -1    0    0  501    0  0.00000000000E+00 -0.00000000000E+00 -0.12620168357E+04  0.12620168357E+04  0.00000000000E+00 0. -1.
         23    2    1    2    0    0 -0.10469689922E+03  0.87058760005E+02 -0.68032589479E+03  0.70500471594E+03  0.12509059906E+03 0.  0.
          5    1    3    3  502    0  0.90790392687E+00 -0.26247558608E+02 -0.60164310536E+02  0.65779748287E+02  0.41800000000E+01 0. -1.
         -5    1    3    3    0  502 -0.10560480315E+03  0.11330631861E+03 -0.62016158425E+03  0.63922496765E+03  0.41800000000E+01 0. -1.
        -11    1    1    2    0    0  0.26683219791E+01 -0.31588297357E+02 -0.40829746523E+02  0.51691475827E+02  0.00000000000E+00 0.  1.
         11    1    1    2    0    0  0.10202857724E+03 -0.55470462648E+02 -0.51664519328E+03  0.52953664514E+03  0.00000000000E+00 0. -1.
</event>
<event>
 7    1  0.1620881E-005  0.1133243E+03  0.7561462E-02  0.1254535E+00
         -2   -1    0    0    0  501 -0.00000000000E+00  0.00000000000E+00  0.15852454234E+03  0.15852454234E+03  0.00000000000E+00 0.  1.
          2   -1    0    0  501    0  0.00000000000E+00 -0.00000000000E+00 -0.99393452221E+02  0.99393452221E+02  0.00000000000E+00 0. -1.
         23    2    1    2    0    0 -0.44362455215E+02  0.25566363746E+02  0.85386537292E+02  0.15070606906E+03  0.11313616624E+03 0.  0.
          5    1    3    3  502    0  0.24981833061E+02 -0.27015328860E+02  0.24095135154E+02  0.44181080957E+02  0.41800000000E+01 0. -1.
         -5    1    3    3    0  502 -0.69344288275E+02  0.52581692606E+02  0.61291402138E+02  0.10652498810E+03  0.41800000000E+01 0.  1.
        -11    1    1    2    0    0  0.70467474824E+02 -0.77664014354E+01 -0.97408094898E+01  0.71560221973E+02  0.00000000000E+00 0. -1.
         11    1    1    2    0    0 -0.26105019609E+02 -0.17799962311E+02 -0.16514637681E+02  0.35651703533E+02  0.00000000000E+00 0.  1.
</event>
<event>
 7    1  0.1620881E-005  0.1131320E+03  0.7561462E-02  0.1254877E+00
          2   -1    0    0  501    0  0.00000000000E+00  0.00000000000E+00  0.19661276475E+03  0.19661276475E+03  0.00000000000E+00 0. -1.
         -2   -1    0    0    0  501 -0.00000000000E+00 -0.00000000000E+00 -0.75199055683E+02  0.75199055683E+02  0.00000000000E+00 0.  1.
         23    2    1    2    0    0 -0.38154517971E+02 -0.39087046373E+02  0.80713222762E+02  0.15855007473E+03  0.12505973545E+03 0.  0.
          5    1    3    3  502    0 -0.37686029264E+02 -0.83453658643E+02  0.49860799379E+02  0.10434712098E+03  0.41800000000E+01 0. -1.
         -5    1    3    3    0  502 -0.46848870711E+00  0.44366612271E+02  0.30852423383E+02  0.54202953745E+02  0.41800000000E+01 0. -1.
        -11    1    1    2    0    0  0.43789711424E+01 -0.20812915623E+02  0.39060982152E+02  0.44475984212E+02  0.00000000000E+00 0. -1.
         11    1    1    2    0    0  0.33775546829E+02  0.59899961995E+02  0.16395041550E+01  0.68785761496E+02  0.00000000000E+00 0.  1.
</event>
<event>
 7    1  0.1620881E-005  0.1677321E+03  0.7561462E-02  0.1180234E+00
         -1   -1    0    0    0  501 -0.00000000000E+00  0.00000000000E+00  0.52408770172E+02  0.52408770172E+02  0.00000000000E+00 0.  1.
          1   -1    0    0  501    0  0.00000000000E+00 -0.00000000000E+00 -0.82434092848E+03  0.82434092848E+03  0.00000000000E+00 0. -1.
         23    2    1    2    0    0  0.14046520281E+03 -0.73501013766E+02 -0.56702370487E+03  0.60191078225E+03  0.12509130934E+03 0.  0.
          5    1    3    3  502    0  0.20292401301E+02 -0.11920799338E+02 -0.57197641160E+01  0.24577939477E+02  0.41800000000E+01 0.  1.
         -5    1    3    3    0  502  0.12017280151E+03 -0.61580214428E+02 -0.56130394076E+03  0.57733284277E+03  0.41800000000E+01 0.  1.
        -11    1    1    2    0    0 -0.78601553999E+02  0.82500385873E+02 -0.16551635116E+03  0.20094820343E+03  0.00000000000E+00 0.  1.
         11    1    1    2    0    0 -0.61863648811E+02 -0.89993721073E+01 -0.39392102276E+02  0.73890712977E+02  0.00000000000E+00 0. -1.
</event>
<event>
 7    1  0.1620881E-005  0.1346091E+03  0.7561462E-02  0.1220773E+00
          1   -1    0    0  501    0  0.00000000000E+00  0.00000000000E+00  0.51013387770E+03  0.51013387770E+03  0.00000000000E+00 0. -1.
         -1   -1    0    0    0  501 -0.00000000000E+00 -0.00000000000E+00 -0.43172689205E+02  0.43172689205E+02  0.00000000000E+00 0.  1.
         23    2    1    2    0    0  0.68810526339E+02 -0.72398007001E+02  0.21539851817E+03  0.26836656596E+03  0.12509089553E+03 0.  0.
          5    1    3    3  502    0  0.82876037598E+02 -0.14335979162E+02  0.64672590351E+02  0.10617897273E+03  0.41800000000E+01 0.  1.
         -5    1    3    3    0  502 -0.14065511259E+02 -0.58062027838E+02  0.15072592782E+03  0.16218759324E+03  0.41800000000E+01 0.  1.
        -11    1    1    2    0    0 -0.14272462300E+02 -0.15881650957E+02  0.13545334478E+02  0.25286480644E+02  0.00000000000E+00 0.  1.
         11    1    1    2    0    0 -0.54538064038E+02  0.88279657958E+02  0.23801733584E+03  0.25965352029E+03  0.00000000000E+00 0. -1.
</event>
<event>
 7    1  0.1620881E-005  0.1895453E+03  0.7561462E-02  0.1158872E+00
         -2   -1    0    0    0  501 -0.00000000000E+00  0.00000000000E+00  0.24101421192E+03  0.24101421192E+03  0.00000000000E+00 0.  1.
          2   -1    0    0  501    0  0.00000000000E+00 -0.00000000000E+00 -0.31180650182E+03  0.31180650182E+03  0.00000000000E+00 0. -1.
         23    2    1    2    0    0 -0.12519093745E+03 -0.12848520089E+03  0.14153870292E+03  0.26050276932E+03  0.12508905119E+03 0.  0.
          5    1    3    3  502    0 -0.12151398945E+03 -0.98932057993E+02  0.50591329779E+02  0.16471234556E+03  0.41800000000E+01 0.  1.
         -5    1    3    3    0  502 -0.36769479997E+01 -0.29553142897E+02  0.90947373142E+02  0.95790423755E+02  0.41800000000E+01 0.  1.
        -11    1    1    2    0    0  0.71250853821E+01  0.49976112225E+02 -0.97772189767E+02  0.11003535671E+03  0.00000000000E+00 0. -1.
         11    1    1    2    0    0  0.11806585207E+03  0.78509088665E+02 -0.11455880305E+03  0.18228258771E+03  0.00000000000E+00 0.  1.
</event>
<event>
 7    1  0.1620881E-005  0.2732361E+03  0.7561462E-02  0.1099442E+00
         -2   -1    0    0    0  501 -0.00000000000E+00  0.00000000000E+00  0.12099545350E+03  0.12099545350E+03  0.00000000000E+00 0.  1.
          2   -1    0    0  501    0  0.00000000000E+00 -0.00000000000E+00 -0.64001914734E+03  0.64001914734E+03  0.00000000000E+00 0. -1.
         23    2    1    2    0    0  0.18808278827E+03  0.16854541187E+03 -0.21080751341E+03  0.35204821936E+03  0.12536127765E+03 0.  0.
          5    1    3    3  502    0  0.15260736867E+03  0.18727774774E+03 -0.18100956664E+03  0.30190047928E+03  0.41800000000E+01 0. -1.
         -5    1    3    3    0  502  0.35475419600E+02 -0.18732335873E+02 -0.29797946768E+02  0.50147740075E+02  0.41800000000E+01 0. -1.
        -11    1    1    2    0    0 -0.17629671731E+03 -0.11686866676E+03 -0.21416163462E+03  0.30100502246E+03  0.00000000000E+00 0.  1.
         11    1    1    2    0    0 -0.11786070958E+02 -0.51676745115E+02 -0.94054545816E+02  0.10796135903E+03  0.00000000000E+00 0. -1.
</event>
<event>
 7    1  0.1620881E-005  0.2057988E+03  0.7561462E-02  0.1144937E+00
          1   -1    0    0  501    0  0.00000000000E+00  0.00000000000E+00  0.23034840432E+03  0.23034840432E+03  0.00000000000E+00 0. -1.
         -1   -1    0    0    0  501 -0.00000000000E+00 -0.00000000000E+00 -0.29363030627E+03  0.29363030627E+03  0.00000000000E+00 0.  1.
         23    2    1    2    0    0 -0.26660131309E+02  0.20070179518E+03 -0.14978180929E+03  0.28120085711E+03  0.12508940183E+03 0.  0.
          5    1    3    3  502    0 -0.22444084685E+01  0.26625944876E+02 -0.92351100927E+02  0.96229811142E+02  0.41800000000E+01 0.  1.
         -5    1    3    3    0  502 -0.24415722840E+02  0.17407585031E+03 -0.57430708367E+02  0.18497104597E+03  0.41800000000E+01 0.  1.
        -11    1    1    2    0    0  0.41166311909E+02 -0.16760732639E+03  0.29208009164E+02  0.17504282018E+03  0.00000000000E+00 0.  1.
         11    1    1    2    0    0 -0.14506180600E+02 -0.33094468794E+02  0.57291898183E+02  0.67735033312E+02  0.00000000000E+00 0. -1.
</event>
<event>
 7    1  0.1620881E-005  0.1151405E+03  0.7561462E-02  0.1251336E+00
         -1   -1    0    0    0  501 -0.00000000000E+00  0.00000000000E+00  0.86932907935E+02  0.86932907935E+02  0.00000000000E+00 0.  1.
          1   -1    0    0  501    0  0.00000000000E+00 -0.00000000000E+00 -0.26536870286E+03  0.26536870286E+03  0.00000000000E+00 0. -1.
         23    2    1    2    0    0  0.86777905571E+02  0.51047991884E+02 -0.57556541323E+02  0.17058175171E+03  0.12509626771E+03 0.  0.
          5    1    3    3  502    0  0.43967117002E+01  0.36306027074E+02  0.31393668239E+02  0.48378646954E+02  0.41800000000E+01 0.  1.
         -5    1    3    3    0  502  0.82381193871E+02  0.14741964810E+02 -0.88950209562E+02  0.12220310475E+03  0.41800000000E+01 0.  1.
        -11    1    1    2    0    0 -0.64678859554E+02 -0.57619699474E+02 -0.36068776524E+02  0.93831451447E+02  0.00000000000E+00 0.  1.
         11    1    1    2    0    0 -0.22099046017E+02  0.65717075899E+01 -0.84810477078E+02  0.87888407641E+02  0.00000000000E+00 0. -1.
</event>
<event>
 7    1  0.1620881E-005  0.1621825E+03  0.7561462E-02  0.1186255E+00
         -1   -1    0    0    0  501 -0.00000000000E+00  0.00000000000E+00  0.55118142539E+03  0.55118142539E+03  0.00000000000E+00 0.  1.
          1   -1    0    0  501    0  0.00000000000E+00 -0.00000000000E+00 -0.99443539905E+02  0.99443539905E+02  0.00000000000E+00 0. -1.
         23    2    1    2    0    0  0.13073119039E+03 -0.22394415302E+02  0.45452297315E+03  0.48972712804E+03  0.12509745338E+03 0.  0.
          5    1    3    3  502    0  0.12756558499E+03  0.28812774373E+02  0.32520594724E+03  0.35054177349E+03  0.41800000000E+01 0. -1.
         -5    1    3    3    0  502  0.31656054069E+01 -0.51207189676E+02  0.12931702591E+03  0.13918535455E+03  0.41800000000E+01 0. -1.
        -11    1    1    2    0    0 -0.99369041426E+02  0.38769735741E+02 -0.35794568787E+02  0.11251022157E+03  0.00000000000E+00 0. -1.
         11    1    1    2    0    0 -0.31362148969E+02 -0.16375320438E+02  0.33009481123E+02  0.48387615682E+02  0.00000000000E+00 0.  1.
</event>
<event>
 7    1  0.1620881E-005  0.2230762E+03  0.7561462E-02  0.1131610E+00
          2   -1    0    0  501    0  0.00000000000E+00  0.00000000000E+00  0.34772432485E+03  0.34772432485E+03  0.00000000000E+00 0. -1.
         -2   -1    0    0    0  501 -0.00000000000E+00 -0.00000000000E+00 -0.27783137144E+03  0.27783137144E+03  0.00000000000E+00 0.  1.
         23    2    1    2    0    0 -0.15438563728E+03 -0.14819524704E+03 -0.16272619854E+03  0.29651943298E+03  0.12508877727E+03 0.  0.
          5    1    3    3  502    0 -0.60651666931E+01  0.70054521693E+01  0.14774218115E+02  0.17933558710E+02  0.41800000000E+01 0. -1.
         -5    1    3    3    0  502 -0.14832047059E+03 -0.15520069921E+03 -0.17750041666E+03  0.27858587427E+03  0.41800000000E+01 0. -1.
        -11    1    1    2    0    0  0.12582787344E+03  0.84790913959E+02  0.10770752814E+03  0.18607273966E+03  0.00000000000E+00 0.  1.
         11    1    1    2    0    0  0.28557763840E+02  0.63404333082E+02  0.12491162382E+03  0.14296352365E+03  0.00000000000E+00 0. -1.
</event>
<event>
 7    1  0.1620881E-005  0.1591797E+03  0.7561462E-02  0.1189626E+00
          1   -1    0    0  501    0  0.00000000000E+00  0.00000000000E+00  0.27777681458E+03  0.27777681458E+03  0.00000000000E+00 0. -1.
         -1   -1    0    0    0  501 -0.00000000000E+00 -0.00000000000E+00 -0.96704684170E+02  0.96704684170E+02  0.00000000000E+00 0.  1.
         23    2    1    2    0    0 -0.32342443392E+02  0.11218998867E+03  0.53902613117E+02  0.17940041756E+03  0.12508553440E+03 0.  0.
          5    1    3    3  502    0  0.42269234078E+02  0.78188027862E+02  0.29714035987E+02  0.93810725321E+02  0.41800000000E+01 0.  1.
         -5    1    3    3    0  502 -0.74611677471E+02  0.34001960810E+02  0.24188577130E+02  0.85589692239E+02  0.41800000000E+01 0.  1.
        -11    1    1    2    0    0 -0.31491802502E+02 -0.40117171329E+02  0.35476280798E+02  0.62126383763E+02  0.00000000000E+00 0.  1.
         11    1    1    2    0    0  0.63834245895E+02 -0.72072817344E+02  0.91693236491E+02  0.13295469742E+03  0.00000000000E+00 0. -1.
</event>
<event>
 7    1  0.1620881E-005  0.1214060E+03  0.7561462E-02  0.1240795E+00
          2   -1    0    0  501    0  0.00000000000E+00  0.00000000000E+00  0.32456406890E+02  0.32456406890E+02  0.00000000000E+00 0.  1.
         -2   -1    0    0    0  501 -0.00000000000E+00 -0.00000000000E+00 -0.74460549033E+03  0.74460549033E+03  0.00000000000E+00 0. -1.
         23    2    1    2    0    0 -0.81424080497E+02 -0.72818286403E+02 -0.37983016431E+03  0.41454765508E+03  0.12508565420E+03 0.  0.
          5    1    3    3  502    0 -0.20934171314E+02 -0.63090960798E+02 -0.62522729754E+02  0.91352465751E+02  0.41800000000E+01 0. -1.
         -5    1    3    3    0  502 -0.60489909182E+02 -0.97273256055E+01 -0.31730743456E+03  0.32319518932E+03  0.41800000000E+01 0. -1.
        -11    1    1    2    0    0  0.43936368206E+02  0.16065137255E+02 -0.37514496809E+02  0.59965244575E+02  0.00000000000E+00 0.  1.
         11    1    1    2    0    0  0.37487712291E+02  0.56753149148E+02 -0.29480442232E+03  0.30254899757E+03  0.00000000000E+00 0. -1.
</event>
<event>
 7    1  0.1620881E-005  0.9657611E+02  0.7561462E-02  0.1287665E+00
         -1   -1    0    0    0  501 -0.00000000000E+00  0.00000000000E+00  0.74071454059E+02  0.74071454059E+02  0.00000000000E+00 0.  1.
          1   -1    0    0  501    0  0.00000000000E+00 -0.00000000000E+00 -0.17788677829E+03  0.17788677829E+03  0.00000000000E+00 0. -1.
         23    2    1    2    0    0 -0.13578400818E+02  0.22457749462E+02 -0.28424978949E+02  0.13093696790E+03  0.12509111341E+03 0.  0.
          5    1    3    3  502    0 -0.25976088880E+02  0.57262598608E+02  0.23340627846E+02  0.67201337048E+02  0.41800000000E+01 0. -1.
         -5    1    3    3    0  502  0.12397688062E+02 -0.34804849145E+02 -0.51765606795E+02  0.63735630853E+02  0.41800000000E+01 0. -1.
        -11    1    1    2    0    0 -0.11333533336E+02 -0.52622973982E+02 -0.54782446591E+02  0.76803273518E+02  0.00000000000E+00 0.  1.
         11    1    1    2    0    0  0.24911934154E+02  0.30165224519E+02 -0.20607898693E+02  0.44217990933E+02  0.00000000000E+00 0. -1.
</event>
<event>
 7    1  0.1620881E-005  0.1233791E+03  0.7561462E-02  0.1237624E+00
         -1   -1    0    0    0  501 -0.00000000000E+00  0.00000000000E+00  0.30189842625E+03  0.30189842625E+03  0.00000000000E+00 0.  1.
          1   -1    0    0  501    0  0.00000000000E+00 -0.00000000000E+00 -0.76115020744E+02  0.76115020744E+02  0.00000000000E+00 0. -1.
         23    2    1    2    0    0  0.62393256651E+02  0.70085679412E+02  0.18383476447E+03  0.24134596557E+03  0.12509090110E+03 0.  0.
          5    1    3    3  502    0  0.97648133693E+02  0.53675715466E+02  0.16165882573E+03  0.19638556154E+03  0.41800000000E+01 0.  1.
         -5    1    3    3    0  502 -0.35254877042E+02  0.16409963946E+02  0.22175938738E+02  0.44960404034E+02  0.41800000000E+01 0.  1.
        -11    1    1    2    0    0 -0.43042748403E+02 -0.61267107003E+02  0.69298902811E+02  0.10202291175E+03  0.00000000000E+00 0.  1.
         11    1    1    2    0    0 -0.19350508248E+02 -0.88185724095E+01 -0.27350261774E+02  0.34644569674E+02  0.00000000000E+00 0. -1.
</event>
<event>
 7    1  0.1620881E-005  0.1053157E+03  0.7561462E-02  0.1269499E+00
         -2   -1    0    0    0  501 -0.00000000000E+00  0.00000000000E+00  0.27195368746E+03  0.27195368746E+03  0.00000000000E+00 0.  1.
          2   -1    0    0  501    0  0.00000000000E+00 -0.00000000000E+00 -0.66536775605E+02  0.66536775605E+02  0.00000000000E+00 0. -1.
         23    2    1    2    0    0  0.11418757183E+02  0.63949888854E+02  0.16911213029E+03  0.22015035157E+03  0.12508912178E+03 0.  0.
          5    1    3    3  502    0 -0.18788785292E+02 -0.26502705805E+02  0.93830547151E+01  0.34072363926E+02  0.41800000000E+01 0.  1.
         -5    1    3    3    0  502  0.30207542474E+02  0.90452594659E+02  0.15972907557E+03  0.18607798764E+03  0.41800000000E+01 0.  1.
        -11    1    1    2    0    0  0.19872897529E+02 -0.17898750251E+02 -0.24234185836E+02  0.36091454389E+02  0.00000000000E+00 0. -1.
         11    1    1    2    0    0 -0.31291654712E+02 -0.46051138603E+02  0.60538967407E+02  0.82248657107E+02  0.00000000000E+00 0.  1.
</event>
<event>
 7    1  0.1620881E-005  0.1254963E+03  0.7561462E-02  0.1234296E+00
          2   -1    0    0  501    0  0.00000000000E+00  0.00000000000E+00  0.59141451205E+02  0.59141451205E+02  0.00000000000E+00 0. -1.
         -2   -1    0    0    0  501 -0.00000000000E+00 -0.00000000000E+00 -0.28188377189E+03  0.28188377189E+03  0.00000000000E+00 0.  1.
         23    2    1    2    0    0 -0.38688698350E+02 -0.52232269831E+02 -0.12995446923E+03  0.19172525960E+03  0.12508151624E+03 0.  0.
          5    1    3    3  502    0 -0.22773593710E+02 -0.92404762625E+02 -0.72489903076E+02  0.11970603650E+03  0.41800000000E+01 0.  1.
         -5    1    3    3    0  502 -0.15915104640E+02  0.40172492793E+02 -0.57464566152E+02  0.72019223100E+02  0.41800000000E+01 0.  1.
        -11    1    1    2    0    0  0.60686696241E+02  0.58292220167E+01 -0.70815602323E+02  0.93443589733E+02  0.00000000000E+00 0.  1.
         11    1    1    2    0    0 -0.21997997891E+02  0.46403047815E+02 -0.21972249130E+02  0.55856373759E+02  0.00000000000E+00 0. -1.
</event>
<event>
 7    1  0.1620881E-005  0.1211392E+03  0.7561462E-02  0.1241230E+00
          1   -1    0    0  501    0  0.00000000000E+00  0.00000000000E+00  0.54201690140E+02  0.54201690140E+02  0.00000000000E+00 0. -1.
         -1   -1    0    0    0  501 -0.00000000000E+00 -0.00000000000E+00 -0.32464227982E+03  0.32464227982E+03  0.00000000000E+00 0.  1.
         23    2    1    2    0    0  0.39972516558E+02 -0.60082230886E+02 -0.18924031512E+03  0.23804775353E+03  0.12508860678E+03 0.  0.
          5    1    3    3  502    0 -0.29104439033E+02 -0.49846361832E+02 -0.32426982505E+02  0.66337845561E+02  0.41800000000E+01 0. -1.
         -5    1    3    3    0  502  0.69076955592E+02 -0.10235869054E+02 -0.15681333262E+03  0.17170990797E+03  0.41800000000E+01 0. -1.
        -11    1    1    2    0    0  0.13898429795E+02  0.58950773123E+02 -0.49949826470E+02  0.78506975276E+02  0.00000000000E+00 0. -1.
         11    1    1    2    0    0 -0.53870946354E+02  0.11314577629E+01 -0.31250448090E+02  0.62289241154E+02  0.00000000000E+00 0.  1.
</event>
<event>
 7    1  0.1620881E-005  0.1559810E+03  0.7561462E-02  0.1193310E+00
          2   -1    0    0  501    0  0.00000000000E+00  0.00000000000E+00  0.13694375396E+04  0.13694375396E+04  0.00000000000E+00 0. -1.
         -2   -1    0    0    0  501 -0.00000000000E+00 -0.00000000000E+00 -0.27659177452E+02  0.27659177452E+02  0.00000000000E+00 0.  1.
         23    2    1    2    0    0  0.12838201282E+03 -0.61426376707E+02  0.42556165107E+03  0.46559366216E+03  0.12417567559E+03 0.  0.
          5    1    3    3  502    0  0.49321842967E+02 -0.59198893137E+01  0.31412871336E+03  0.31805975891E+03  0.41800000000E+01 0. -1.
         -5    1    3    3    0  502  0.79060169852E+02 -0.55506487393E+02  0.11143293771E+03  0.14753390325E+03  0.41800000000E+01 0.  1.
        -11    1    1    2    0    0  0.31609896758E+01 -0.13615806248E+02  0.41972511100E+02  0.44238825974E+02  0.00000000000E+00 0.  1.
         11    1    1    2    0    0 -0.13154300249E+03  0.75042182956E+02  0.87424419997E+03  0.88726422892E+03  0.00000000000E+00 0. -1.
</event>
<event>
 7    1  0.1620881E-005  0.9870241E+02  0.7561462E-02  0.1283048E+00
          2   -1    0    0  501    0  0.00000000000E+00  0.00000000000E+00  0.79640802932E+02  0.79640802932E+02  0.00000000000E+00 0. -1.
         -2   -1    0    0    0  501 -0.00000000000E+00 -0.00000000000E+00 -0.16612591261E+03  0.16612591261E+03  0.00000000000E+00 0.  1.
         23    2    1    2    0    0  0.29314995587E+02 -0.38816428898E+02 -0.58122129578E+02  0.13537940932E+03  0.11217539125E+03 0.  0.
          5    1    3    3  502    0  0.47093726933E+02 -0.51419740121E+02  0.34436947819E+01  0.69936687255E+02  0.41800000000E+01 0. -1.
         -5    1    3    3    0  502 -0.17778731346E+02  0.12603311223E+02 -0.61565824360E+02  0.65442722064E+02  0.41800000000E+01 0.  1.
        -11    1    1    2    0    0  0.33114332591E+02  0.26641775378E+01 -0.10174580678E+01  0.33236908488E+02  0.00000000000E+00 0.  1.
         11    1    1    2    0    0 -0.62429328178E+02  0.36152251360E+02 -0.27345522029E+02  0.77150397732E+02  0.00000000000E+00 0. -1.
</event>
<event>
 7    1  0.1620881E-005  0.9595841E+02  0.7561462E-02  0.1289032E+00
          1   -1    0    0  501    0  0.00000000000E+00  0.00000000000E+00  0.11516502129E+03  0.11516502129E+03  0.00000000000E+00 0. -1.
         -1   -1    0    0    0  501 -0.00000000000E+00 -0.00000000000E+00 -0.16072747913E+03  0.16072747913E+03  0.00000000000E+00 0.  1.
         23    2    1    2    0    0 -0.15668510575E+01  0.29257910692E+02 -0.10423379084E+03  0.16544257894E+03  0.12509229958E+03 0.  0.
          5    1    3    3  502    0  0.13384050020E+02 -0.32129552398E+02 -0.95240300763E+02  0.10148708401E+03  0.41800000000E+01 0.  1.
         -5    1    3    3    0  502 -0.14950901078E+02  0.61387463090E+02 -0.89934900799E+01  0.63955494928E+02  0.41800000000E+01 0.  1.
        -11    1    1    2    0    0 -0.41375199047E+02 -0.29125982546E+02  0.30184657289E+02  0.58918108347E+02  0.00000000000E+00 0.  1.
         11    1    1    2    0    0  0.42942050105E+02 -0.13192814568E+00  0.28486675712E+02  0.51531813139E+02  0.00000000000E+00 0. -1.
</event>
<event>
 6    1  0.1620881E-005  0.7253324E+02  0.7561462E-02  0.1351685E+00
          2   -1    0    0  501    0  0.00000000000E+00  0.00000000000E+00  0.41787930333E+03  0.41787930333E+03  0.00000000000E+00 0. -1.
         -2   -1    0    0    0  501 -0.00000000000E+00 -0.00000000000E+00 -0.36496642312E+02  0.36496642312E+02  0.00000000000E+00 0.  1.
          5    1    1    2  502    0 -0.10928812944E+02 -0.22764366930E+02  0.25849228982E+03  0.25975640830E+03  0.41800000000E+01 0. -1.
         -5    1    1    2    0  502 -0.59337926697E+01  0.64492288681E+02  0.54603893745E+01  0.65128745166E+02  0.41800000000E+01 0.  1.
        -11    1    1    2    0    0  0.22117134652E+02 -0.13615036532E+02  0.55782476656E+02  0.61532280690E+02  0.00000000000E+00 0. -1.
         11    1    1    2    0    0 -0.52545290385E+01 -0.28112885219E+02  0.61647505170E+02  0.67958511493E+02  0.00000000000E+00 0.  1.
</event>
<event>
 7    1  0.1620881E-005  0.9554270E+02  0.7561462E-02  0.1289958E+00
          1   -1    0    0  501    0  0.00000000000E+00  0.00000000000E+00  0.17930407950E+03  0.17930407950E+03  0.00000000000E+00 0. -1.
         -1   -1    0    0    0  501 -0.00000000000E+00 -0.00000000000E+00 -0.12249673790E+03  0.12249673790E+03  0.00000000000E+00 0.  1.
         23    2    1    2    0    0 -0.34057545157E+02 -0.14780361773E+02 -0.64679941292E+02  0.14564242906E+03  0.12509934796E+03 0.  0.
          5    1    3    3  502    0 -0.13813661639E+02  0.50719732486E+02 -0.21801555028E+01  0.52778158260E+02  0.41800000000E+01 0.  1.
         -5    1    3    3    0  502 -0.20243883518E+02 -0.65500094259E+02 -0.62499785789E+02  0.92864270801E+02  0.41800000000E+01 0.  1.
        -11    1    1    2    0    0 -0.15879275895E+02 -0.39004078746E+01  0.95419531716E+02  0.96810390029E+02  0.00000000000E+00 0. -1.
         11    1    1    2    0    0  0.49936821053E+02  0.18680769647E+02  0.26067751176E+02  0.59347998305E+02  0.00000000000E+00 0.  1.
</event>
<event>
 7    1  0.1620881E-005  0.2050980E+03  0.7561462E-02  0.1145508E+00
          2   -1    0    0  501    0  0.00000000000E+00  0.00000000000E+00  0.26685675636E+03  0.26685675636E+03  0.00000000000E+00 0. -1.
         -2   -1    0    0    0  501 -0.00000000000E+00 -0.00000000000E+00 -0.17623931246E+03  0.17623931246E+03  0.00000000000E+00 0.  1.
         23    2    1    2    0    0  0.21420441487E+02  0.18391834373E+03  0.81356947726E+02  0.23780021952E+03  0.12508076986E+03 0.  0.
          5    1    3    3  502    0  0.69377168503E+02  0.66063567358E+02  0.29372702038E+02  0.10028865572E+03  0.41800000000E+01 0. -1.
         -5    1    3    3    0  502 -0.47956727017E+02  0.11785477637E+03  0.51984245688E+02  0.13751156380E+03  0.41800000000E+01 0. -1.
        -11    1    1    2    0    0 -0.22152333704E+02 -0.78195553388E+02 -0.37723324005E+02  0.89600890801E+02  0.00000000000E+00 0.  1.
         11    1    1    2    0    0  0.73189221778E+00 -0.10572279034E+03  0.46983820183E+02  0.11569495850E+03  0.00000000000E+00 0. -1.
</event>
<event>
 7    1  0.1620881E-005  0.1443829E+03  0.7561462E-02  0.1207550E+00
         -2   -1    0    0    0  501 -0.00000000000E+00  0.00000000000E+00  0.31599403975E+02  0.31599403975E+02  0.00000000000E+00 0.  1.
          2   -1    0    0  501    0  0.00000000000E+00 -0.00000000000E+00 -0.87050796841E+03  0.87050796841E+03  0.00000000000E+00 0. -1.
         23    2    1    2    0    0 -0.37276949272E+02  0.10281167403E+03 -0.28118310902E+03  0.32660507430E+03  0.12508845867E+03 0.  0.
          5    1    3    3  502    0  0.36559633573E+02  0.93100651681E+01 -0.12175379716E+03  0.12753330406E+03  0.41800000000E+01 0.  1.
         -5    1    3    3    0  502 -0.73836582844E+02  0.93501608865E+02 -0.15942931186E+03  0.19907177024E+03  0.41800000000E+01 0.  1.
        -11    1    1    2    0    0  0.57722196268E+02 -0.55593380169E+02 -0.43670499086E+03  0.44399743795E+03  0.00000000000E+00 0.  1.
         11    1    1    2    0    0 -0.20445246997E+02 -0.47218293864E+02 -0.12102046455E+03  0.13150486014E+03  0.00000000000E+00 0. -1.
</event>
<event>
 6    1  0.1620881E-005  0.2653921E+03  0.7561462E-02  0.1103946E+00
         -3   -1    0    0    0  501 -0.00000000000E+00  0.00000000000E+00  0.20173376724E+03  0.20173376724E+03  0.00000000000E+00 0.  1.
          3   -1    0    0  501    0  0.00000000000E+00 -0.00000000000E+00 -0.45194250643E+03  0.45194250643E+03  0.00000000000E+00 0. -1.
          5    1    1    2  502    0 -0.80139149319E+02  0.10809233613E+03 -0.57952162673E+02  0.14656794309E+03  0.41800000000E+01 0. -1.
         -5    1    1    2    0  502 -0.14658936667E+03 -0.78022471801E+01 -0.17457507153E+02  0.14789034599E+03  0.41800000000E+01 0.  1.
        -11    1    1    2    0    0  0.52914910509E+02 -0.35912219532E+02  0.40056565694E+02  0.75459947794E+02  0.00000000000E+00 0.  1.
         11    1    1    2    0    0  0.17381360548E+03 -0.64377869422E+02 -0.21485563507E+03  0.28375803679E+03  0.00000000000E+00 0. -1.
</event>
<event>
 7    1  0.2541710E-005  0.2379751E+03  0.7561462E-02  0.1121149E+00
         -1   -1    0    0    0  501 -0.00000000000E+00  0.00000000000E+00  0.48009193079E+02  0.48009193079E+02  0.00000000000E+00 0.  1.
          1   -1    0    0  501    0  0.00000000000E+00 -0.00000000000E+00 -0.12434097915E+04  0.12434097915E+04  0.00000000000E+00 0. -1.
         23    2    1    2    0    0  0.10878539871E+03  0.18918178405E+03 -0.61660559320E+03  0.66593838517E+03  0.12508982732E+03 0.  0.
          5    1    3    3  502    0  0.53001129330E+02  0.18789230942E+03 -0.46500854446E+03  0.50434418651E+03  0.41800000000E+01 0.  1.
         -5    1    3    3    0  502  0.55784269382E+02  0.12894746264E+01 -0.15159704874E+03  0.16159419866E+03  0.41800000000E+01 0.  1.
        -11    1    1    2    0    0 -0.48913398517E+02 -0.13641601703E+03 -0.26879394718E+03  0.30537196383E+03  0.00000000000E+00 0.  1.
         11    1    1    2    0    0 -0.59872000195E+02 -0.52765767017E+02 -0.31000105802E+03  0.32010863555E+03  0.00000000000E+00 0. -1.
</event>
<event>
 7    1  0.1620881E-005  0.1211100E+03  0.7561462E-02  0.1241277E+00
          3   -1    0    0  501    0  0.00000000000E+00  0.00000000000E+00  0.25706034778E+03  0.25706034778E+03  0.00000000000E+00 0. -1.
         -3   -1    0    0    0  501 -0.00000000000E+00 -0.00000000000E+00 -0.58610190943E+02  0.58610190943E+02  0.00000000000E+00 0.  1.
         23    2    1    2    0    0 -0.90409634258E+01  0.54658268318E+02  0.94685412179E+02  0.16637963644E+03  0.12509033068E+03 0.  0.
          5    1    3    3  502    0  0.56934502067E+02  0.29049623859E+02  0.58666028543E+02  0.86859619369E+02  0.41800000000E+01 0.  1.
         -5    1    3    3    0  502 -0.65975465493E+02  0.25608644459E+02  0.36019383636E+02  0.79520017075E+02  0.41800000000E+01 0.  1.
        -11    1    1    2    0    0  0.50525398496E+02 -0.34242770972E+02  0.61556033113E+02  0.86686379955E+02  0.00000000000E+00 0.  1.
         11    1    1    2    0    0 -0.41484435070E+02 -0.20415497346E+02  0.42208711541E+02  0.62604522320E+02  0.00000000000E+00 0. -1.
</event>
<event>
 7    1  0.1620881E-005  0.6552931E+02  0.7561462E-02  0.1375991E+00
         -1   -1    0    0    0  501 -0.00000000000E+00  0.00000000000E+00  0.13510612981E+03  0.13510612981E+03  0.00000000000E+00 0.  1.
          1   -1    0    0  501    0  0.00000000000E+00 -0.00000000000E+00 -0.93510037548E+02  0.93510037548E+02  0.00000000000E+00 0. -1.
         23    2    1    2    0    0  0.92689800681E+01  0.24321086027E+02  0.49502839083E+02  0.13702903186E+03  0.12509594430E+03 0.  0.
          5    1    3    3  502    0 -0.16242685856E+02  0.16512325971E+01  0.85561031929E+02  0.87205011311E+02  0.41800000000E+01 0. -1.
         -5    1    3    3    0  502  0.25511665924E+02  0.22669853429E+02 -0.36058192846E+02  0.49824020553E+02  0.41800000000E+01 0. -1.
        -11    1    1    2    0    0  0.32986384892E+02 -0.50164716094E+01  0.18499000303E+02  0.38150748196E+02  0.00000000000E+00 0.  1.
         11    1    1    2    0    0 -0.42255364960E+02 -0.19304614417E+02 -0.26405747128E+02  0.53436387295E+02  0.00000000000E+00 0. -1.
</event>
<event>
 7    1  0.1620881E-005  0.1613432E+03  0.7561462E-02  0.1187189E+00
         -4   -1    0    0    0  501 -0.00000000000E+00  0.00000000000E+00  0.13567701728E+03  0.13567701728E+03  0.00000000000E+00 0.  1.
          4   -1    0    0  501    0  0.00000000000E+00 -0.00000000000E+00 -0.20128610947E+03  0.20128610947E+03  0.00000000000E+00 0. -1.
         23    2    1    2    0    0 -0.46762301586E+02 -0.11291436718E+03 -0.11693694963E+02  0.17527291601E+03  0.12508990935E+03 0.  0.
          5    1    3    3  502    0  0.24864187499E+02 -0.92193409687E+02  0.13346412375E+02  0.96506226395E+02  0.41800000000E+01 0. -1.
         -5    1    3    3    0  502 -0.71626489085E+02 -0.20720957489E+02 -0.25040107337E+02  0.78766689618E+02  0.41800000000E+01 0. -1.
        -11    1    1    2    0    0  0.56988594953E+02  0.22234971641E+02 -0.20751902251E+02  0.64596713273E+02  0.00000000000E+00 0.  1.
         11    1    1    2    0    0 -0.10226293367E+02  0.90679395535E+02 -0.33163494971E+02  0.97093497462E+02  0.00000000000E+00 0. -1.
</event>
<event>
 7    1  0.1620881E-005  0.1598794E+03  0.7561462E-02  0.1188833E+00
          2   -1    0    0  501    0  0.00000000000E+00  0.00000000000E+00  0.11714250293E+03  0.11714250293E+03  0.00000000000E+00 0. -1.
         -2   -1    0    0    0  501 -0.00000000000E+00 -0.00000000000E+00 -0.34646678787E+03  0.34646678787E+03  0.00000000000E+00 0.  1.
         23    2    1    2    0    0  0.12952896998E+03 -0.82176604876E+02 -0.20474696988E+03  0.28478007222E+03  0.12509044490E+03 0.  0.
          5    1    3    3  502    0  0.83264817419E+01 -0.26646870137E+01  0.17150423381E+02  0.19698737961E+02  0.41800000000E+01 0. -1.
         -5    1    3    3    0  502  0.12120248824E+03 -0.79511917862E+02 -0.22189739326E+03  0.26508133426E+03  0.41800000000E+01 0. -1.
        -11    1    1    2    0    0 -0.58759492112E+02  0.29684671399E+01 -0.40497212871E+02  0.71424883344E+02  0.00000000000E+00 0.  1.
         11    1    1    2    0    0 -0.70769477871E+02  0.79208137736E+02  0.15919897812E+02  0.10740433524E+03  0.00000000000E+00 0. -1.
</event>
<event>
 7    1  0.1620881E-005  0.1097805E+03  0.7561462E-02  0.1260977E+00
          4   -1    0    0  501    0  0.00000000000E+00  0.00000000000E+00  0.76796581081E+02  0.76796581081E+02  0.00000000000E+00 0. -1.
         -4   -1    0    0    0  501 -0.00000000000E+00 -0.00000000000E+00 -0.16790354025E+03  0.16790354025E+03  0.00000000000E+00 0.  1.
         23    2    1    2    0    0 -0.16228388618E+02 -0.10890796405E+02 -0.82824889905E+02  0.15128953290E+03  0.12508633152E+03 0.  0.
          5    1    3    3  502    0 -0.59001654100E+02 -0.42803586527E+02 -0.50113779049E+02  0.88556227656E+02  0.41800000000E+01 0. -1.
         -5    1    3    3    0  502  0.42773265482E+02  0.31912790123E+02 -0.32711110856E+02  0.62733305244E+02  0.41800000000E+01 0. -1.
        -11    1    1    2    0    0  0.46518264145E+02 -0.19198118482E+02 -0.55399616350E+01  0.50628132765E+02  0.00000000000E+00 0.  1.
         11    1    1    2    0    0 -0.30289875527E+02  0.30088914887E+02 -0.27421076287E+01  0.42782455665E+02  0.00000000000E+00 0. -1.
</event>
<event>
 7    1  0.1620881E-005  0.1383150E+03  0.7561462E-02  0.1215614E+00
          2   -1    0    0  501    0  0.00000000000E+00  0.00000000000E+00  0.57723229676E+02  0.57723229676E+02  0.00000000000E+00 0. -1.
         -2   -1    0    0    0  501 -0.00000000000E+00 -0.00000000000E+00 -0.41040937206E+03  0.41040937206E+03  0.00000000000E+00 0.  1.
         23    2    1    2    0    0  0.55285691602E+02 -0.73388519514E+02 -0.28883031576E+03  0.32789329571E+03  0.12509468245E+03 0.  0.
          5    1    3    3  502    0 -0.68225340846E+01 -0.89500409459E+02 -0.18685997389E+03  0.20734269340E+03  0.41800000000E+01 0.  1.
         -5    1    3    3    0  502  0.62108225687E+02  0.16111889946E+02 -0.10197034187E+03  0.12055060231E+03  0.41800000000E+01 0.  1.
        -11    1    1    2    0    0 -0.62957187306E+02  0.86677091303E+02 -0.64197840511E+02  0.12489150618E+03  0.00000000000E+00 0.  1.
         11    1    1    2    0    0  0.76714957032E+01 -0.13288571790E+02  0.34201388848E+00  0.15347799843E+02  0.00000000000E+00 0. -1.
</event>
<event>
 7    1  0.1620881E-005  0.9165242E+02  0.7561462E-02  0.1298899E+00
          1   -1    0    0  501    0  0.00000000000E+00  0.00000000000E+00  0.11214319847E+03  0.11214319847E+03  0.00000000000E+00 0.  1.
         -1   -1    0    0    0  501 -0.00000000000E+00 -0.00000000000E+00 -0.24927281250E+03  0.24927281250E+03  0.00000000000E+00 0. -1.
         23    2    1    2    0    0 -0.64276895964E+02  0.44848932607E+02 -0.18312880709E+03  0.23521476943E+03  0.12508749602E+03 0.  0.
          5    1    3    3  502    0  0.38530479466E+01  0.34938419164E+02  0.41481482530E+01  0.35640126909E+02  0.41800000000E+01 0. -1.
         -5    1    3    3    0  502 -0.68129943910E+02  0.99105134426E+01 -0.18727695534E+03  0.19957464252E+03  0.41800000000E+01 0. -1.
        -11    1    1    2    0    0  0.28611569796E+02 -0.14364548070E+02  0.67411828641E+02  0.74627855444E+02  0.00000000000E+00 0.  1.
         11    1    1    2    0    0  0.35665326168E+02 -0.30484384537E+02 -0.21412635587E+02  0.51573386102E+02  0.00000000000E+00 0. -1.
</event>
<event>
 7    1  0.1620881E-005  0.1100516E+03  0.7561462E-02  0.1260474E+00
         -4   -1    0    0    0  501 -0.00000000000E+00  0.00000000000E+00  0.21650525806E+03  0.21650525806E+03  0.00000000000E+00 0.  1.
          4   -1    0    0  501    0  0.00000000000E+00 -0.00000000000E+00 -0.16713671313E+03  0.16713671313E+03  0.00000000000E+00 0. -1.
         23    2    1    2    0    0  0.25922817200E+02  0.38332018444E+02  0.17711974718E+03  0.22172105414E+03  0.12508990734E+03 0.  0.
          5    1    3    3  502    0 -0.98046276822E+01  0.75203423218E+02  0.71993296847E+02  0.10465272466E+03  0.41800000000E+01 0.  1.
         -5    1    3    3    0  502  0.35727444882E+02 -0.36871404774E+02  0.10512645033E+03  0.11706832948E+03  0.41800000000E+01 0.  1.
        -11    1    1    2    0    0 -0.26280338744E+02  0.20792724165E+02 -0.20032574744E+02  0.39042254463E+02  0.00000000000E+00 0.  1.
         11    1    1    2    0    0  0.35752154459E+00 -0.59124742609E+02 -0.10771862750E+03  0.12287866259E+03  0.00000000000E+00 0. -1.
</event>
<event>
 7    1  0.1620881E-005  0.1115776E+03  0.7561462E-02  0.1257676E+00
         -1   -1    0    0    0  501 -0.00000000000E+00  0.00000000000E+00  0.56828634838E+02  0.56828634838E+02  0.00000000000E+00 0.  1.
          1   -1    0    0  501    0  0.00000000000E+00 -0.00000000000E+00 -0.24106909248E+03  0.24106909248E+03  0.00000000000E+00 0. -1.
         23    2    1    2    0    0 -0.77026898345E+01 -0.42430084759E+02 -0.92653837724E+02  0.16153039288E+03  0.12509072969E+03 0.  0.
          5    1    3    3  502    0 -0.49924141371E+02  0.13712769672E+02 -0.98576608102E+01  0.52868760344E+02  0.41800000000E+01 0. -1.
         -5    1    3    3    0  502  0.42221451536E+02 -0.56142854431E+02 -0.82796176913E+02  0.10866163253E+03  0.41800000000E+01 0. -1.
        -11    1    1    2    0    0  0.46673281894E+02  0.40547115199E+02 -0.60207565655E+02  0.86298405292E+02  0.00000000000E+00 0. -1.
         11    1    1    2    0    0 -0.38970592059E+02  0.18829695593E+01 -0.31379054268E+02  0.50068929153E+02  0.00000000000E+00 0.  1.
</event>
<event>
 7    1  0.1620881E-005  0.9135061E+02  0.7561462E-02  0.1299614E+00
         -1   -1    0    0    0  501 -0.00000000000E+00  0.00000000000E+00  0.45993319593E+03  0.45993319593E+03  0.00000000000E+00 0.  1.
          1   -1    0    0  501    0  0.00000000000E+00 -0.00000000000E+00 -0.52435432567E+02  0.52435432567E+02  0.00000000000E+00 0. -1.
         23    2    1    2    0    0 -0.14896172840E+02  0.28950761034E+02  0.39114916218E+03  0.41195249165E+03  0.12508855172E+03 0.  0.
          5    1    3    3  502    0 -0.64395148675E+02  0.17816419533E+02  0.13376080119E+03  0.14957802082E+03  0.41800000000E+01 0. -1.
         -5    1    3    3    0  502  0.49498975835E+02  0.11134341502E+02  0.25738836099E+03  0.26237447082E+03  0.41800000000E+01 0. -1.
        -11    1    1    2    0    0 -0.16615705681E+02 -0.28900649616E+02 -0.29679799029E+02  0.44634288321E+02  0.00000000000E+00 0. -1.
         11    1    1    2    0    0  0.31511878521E+02 -0.50111418553E-01  0.46028400218E+02  0.55781848532E+02  0.00000000000E+00 0.  1.
</event>
<event>
 7    1  0.1620881E-005  0.9001465E+02  0.7561462E-02  0.1302816E+00
         -2   -1    0    0    0  501 -0.00000000000E+00  0.00000000000E+00  0.35189843550E+03  0.35189843550E+03  0.00000000000E+00 0.  1.
          2   -1    0    0  501    0  0.00000000000E+00 -0.00000000000E+00 -0.40047711339E+02  0.40047711339E+02  0.00000000000E+00 0. -1.
         23    2    1    2    0    0 -0.10619842416E+02  0.41256175240E+01  0.16743500734E+03  0.20929865710E+03  0.12506655992E+03 0.  0.
          5    1    3    3  502    0 -0.25615393785E+02 -0.49640825914E+02  0.36387394891E+02  0.66797267183E+02  0.41800000000E+01 0.  1.
         -5    1    3    3    0  502  0.14995551370E+02  0.53766443438E+02  0.13104761245E+03  0.14250138992E+03  0.41800000000E+01 0.  1.
        -11    1    1    2    0    0  0.38583209953E+01  0.31520868615E+02 -0.19848146228E+01  0.31818096867E+02  0.00000000000E+00 0. -1.
         11    1    1    2    0    0  0.67615214205E+01 -0.35646486139E+02  0.14640053144E+03  0.15082939287E+03  0.00000000000E+00 0.  1.
</event>
<event>
 7    1  0.1620881E-005  0.9029132E+02  0.7561462E-02  0.1302148E+00
          1   -1    0    0  501    0  0.00000000000E+00  0.00000000000E+00  0.32246587879E+03  0.32246587879E+03  0.00000000000E+00 0. -1.
         -1   -1    0    0    0  501 -0.00000000000E+00 -0.00000000000E+00 -0.85340095227E+02  0.85340095227E+02  0.00000000000E+00 0.  1.
         23    2    1    2    0    0 -0.49283810513E+01 -0.17462989561E+02 -0.25814294473E+02  0.12900873550E+03  0.12509049161E+03 0.  0.
          5    1    3    3  502    0  0.20731877288E+02 -0.48238066822E+02 -0.57335436770E+02  0.77855934496E+02  0.41800000000E+01 0. -1.
         -5    1    3    3    0  502 -0.25660258339E+02  0.30775077262E+02  0.31521142297E+02  0.51152801001E+02  0.41800000000E+01 0. -1.
        -11    1    1    2    0    0  0.40631874330E+02  0.29206843306E+02  0.10315795707E+03  0.11465405799E+03  0.00000000000E+00 0.  1.
         11    1    1    2    0    0 -0.35703493279E+02 -0.11743853745E+02  0.15978212097E+03  0.16414318053E+03  0.00000000000E+00 0. -1.
</event>
<event>
 7    1  0.1620881E-005  0.1408192E+03  0.7561462E-02  0.1212231E+00
         -2   -1    0    0    0  501 -0.00000000000E+00  0.00000000000E+00  0.45624514211E+02  0.45624514211E+02  0.00000000000E+00 0.  1.
          2   -1    0    0  501    0  0.00000000000E+00 -0.00000000000E+00 -0.58694223840E+03  0.58694223840E+03  0.00000000000E+00 0. -1.
         23    2    1    2    0    0 -0.11847757681E+03 -0.67965104839E+00 -0.22617007886E+03  0.28432127669E+03  0.12509310803E+03 0.  0.
          5    1    3    3  502    0 -0.14563587946E+02  0.22405169894E+02  0.70257495589E+01  0.27945004718E+02  0.41800000000E+01 0.  1.
         -5    1    3    3    0  502 -0.10391398886E+03 -0.23084820943E+02 -0.23319582842E+03  0.25637627197E+03  0.41800000000E+01 0.  1.
        -11    1    1    2    0    0  0.36352130168E+02 -0.41968044462E+02 -0.12493741145E+03  0.13671924116E+03  0.00000000000E+00 0.  1.
         11    1    1    2    0    0  0.82125446641E+02  0.42647695510E+02 -0.19021023388E+03  0.21152623476E+03  0.00000000000E+00 0. -1.
</event>
<event>
 7    1  0.1620881E-005  0.9298520E+02  0.7561462E-02  0.1295779E+00
         -1   -1    0    0    0  501 -0.00000000000E+00  0.00000000000E+00  0.42681754454E+03  0.42681754454E+03  0.00000000000E+00 0.  1.
          1   -1    0    0  501    0  0.00000000000E+00 -0.00000000000E+00 -0.28378632737E+02  0.28378632737E+02  0.00000000000E+00 0. -1.
         23    2    1    2    0    0 -0.10219364486E+02 -0.30545322240E+02  0.28743389179E+03  0.31512504384E+03  0.12509236180E+03 0.  0.
          5    1    3    3  502    0  0.11612126939E+02  0.41485254150E+02  0.50611931514E+02  0.66595103540E+02  0.41800000000E+01 0. -1.
         -5    1    3    3    0  502 -0.21831491426E+02 -0.72030576390E+02  0.23682196028E+03  0.24852994030E+03  0.41800000000E+01 0. -1.
        -11    1    1    2    0    0 -0.53880106254E+01 -0.16700958877E+02  0.78962528991E+02  0.80889020705E+02  0.00000000000E+00 0.  1.
         11    1    1    2    0    0  0.15607375112E+02  0.47246281118E+02  0.32042491019E+02  0.59182112737E+02  0.00000000000E+00 0. -1.
</event>
<event>
 7    1  0.1620881E-005  0.7813011E+02  0.7561462E-02  0.1334443E+00
         -1   -1    0    0    0  501 -0.00000000000E+00  0.00000000000E+00  0.25403136330E+03  0.25403136330E+03  0.00000000000E+00 0.  1.
          1   -1    0    0  501    0  0.00000000000E+00 -0.00000000000E+00 -0.63029051492E+02  0.63029051492E+02  0.00000000000E+00 0. -1.
         23    2    1    2    0    0 -0.39132095714E+02  0.21665161488E+02  0.16890212881E+03  0.21488582580E+03  0.12508912374E+03 0.  0.
          5    1    3    3  502    0  0.16652434866E+02  0.96290353339E+01 -0.13400934016E+02  0.23813427744E+02  0.41800000000E+01 0. -1.
         -5    1    3    3    0  502 -0.55784530580E+02  0.12036126154E+02  0.18230306282E+03  0.19107239806E+03  0.41800000000E+01 0. -1.
        -11    1    1    2    0    0  0.40798470987E+02 -0.42231910409E+02 -0.14206368593E+02  0.60414157284E+02  0.00000000000E+00 0. -1.
         11    1    1    2    0    0 -0.16663752735E+01  0.20566748921E+02  0.36306551590E+02  0.41760431703E+02  0.00000000000E+00 0.  1.
</event>
<event>
 7    1  0.1620881E-005  0.9668415E+02  0.7561462E-02  0.1287427E+00
         -1   -1    0    0    0  501 -0.00000000000E+00  0.00000000000E+00  0.54496346248E+03  0.54496346248E+03  0.00000000000E+00 0.  1.
          1   -1    0    0  501    0  0.00000000000E+00 -0.00000000000E+00 -0.22214059145E+02  0.22214059145E+02  0.00000000000E+00 0. -1.
         23    2    1    2    0    0 -0.91061805796E+01  0.10557579778E+02  0.39566985901E+03  0.41181467586E+03  0.11332389381E+03 0.  0.
          5    1    3    3  502    0  0.34926897386E+02 -0.33888940231E+02  0.13076837132E+03  0.13959293595E+03  0.41800000000E+01 0. -1.
         -5    1    3    3    0  502 -0.44033077966E+02  0.44446520010E+02  0.26490148769E+03  0.27222173990E+03  0.41800000000E+01 0.  1.
        -11    1    1    2    0    0  0.36328889254E+01  0.35375084527E+02  0.87619800476E+02  0.94561217857E+02  0.00000000000E+00 0. -1.
         11    1    1    2    0    0  0.54732916543E+01 -0.45932664306E+02  0.39459743852E+02  0.60801627911E+02  0.00000000000E+00 0.  1.
</event>
<event>
 7    1  0.1620881E-005  0.2216086E+03  0.7561462E-02  0.1132689E+00
          1   -1    0    0  501    0  0.00000000000E+00  0.00000000000E+00  0.16367040888E+03  0.16367040888E+03  0.00000000000E+00 0. -1.
         -1   -1    0    0    0  501 -0.00000000000E+00 -0.00000000000E+00 -0.33751245799E+03  0.33751245799E+03  0.00000000000E+00 0.  1.
         23    2    1    2    0    0  0.16991843517E+03  0.10341108019E+03 -0.15506581458E+03  0.28152902677E+03  0.12508820865E+03 0.  0.
          5    1    3    3  502    0  0.11517336806E+03  0.12907786946E+03 -0.10131262708E+03  0.20051863230E+03  0.41800000000E+01 0.  1.
         -5    1    3    3    0  502  0.54745067117E+02 -0.25666789271E+02 -0.53753187499E+02  0.81010394466E+02  0.41800000000E+01 0.  1.
        -11    1    1    2    0    0 -0.11682969799E+03 -0.10409196935E+03 -0.41527408403E+02  0.16189145149E+03  0.00000000000E+00 0.  1.
         11    1    1    2    0    0 -0.53088737184E+02  0.68088915876E+00  0.22751173869E+02  0.57762388613E+02  0.00000000000E+00 0. -1.
</event>
<event>
 7    1  0.1620881E-005  0.1351151E+03  0.7561462E-02  0.1220057E+00
          1   -1    0    0  501    0  0.00000000000E+00  0.00000000000E+00  0.53731887951E+03  0.53731887951E+03  0.00000000000E+00 0. -1.
         -1   -1    0    0    0  501 -0.00000000000E+00 -0.00000000000E+00 -0.37522550464E+02  0.37522550464E+02  0.00000000000E+00 0.  1.
         23    2    1    2    0    0 -0.65504258330E+02 -0.71269263966E+02  0.26823155910E+03  0.30812314801E+03  0.11671156412E+03 0.  0.
          5    1    3    3  502    0 -0.24052266848E+02  0.31387151605E+02  0.55538105934E+02  0.68305332421E+02  0.41800000000E+01 0. -1.
         -5    1    3    3    0  502 -0.41451991481E+02 -0.10265641557E+03  0.21269345316E+03  0.23981781559E+03  0.41800000000E+01 0.  1.
        -11    1    1    2    0    0  0.71880306422E+02  0.29950456176E+02  0.19909781933E+03  0.21378435382E+03  0.00000000000E+00 0. -1.
         11    1    1    2    0    0 -0.63760480929E+01  0.41318807789E+02  0.32466950625E+02  0.52933928149E+02  0.00000000000E+00 0.  1.
</event>
<event>
 7    1  0.1620881E-005  0.9498332E+02  0.7561462E-02  0.1291214E+00
         -2   -1    0    0    0  501 -0.00000000000E+00  0.00000000000E+00  0.55680123561E+02  0.55680123561E+02  0.00000000000E+00 0.  1.
          2   -1    0    0  501    0  0.00000000000E+00 -0.00000000000E+00 -0.23151557779E+03  0.23151557779E+03  0.00000000000E+00 0. -1.
         23    2    1    2    0    0 -0.14108442720E+02 -0.14922697577E+02 -0.80604182076E+02  0.15022072992E+03  0.12508996151E+03 0.  0.
          5    1    3    3  502    0  0.53688042844E+02 -0.57107560412E+01 -0.54618744089E+02  0.76913576726E+02  0.41800000000E+01 0.  1.
         -5    1    3    3    0  502 -0.67796485564E+02 -0.92119415359E+01 -0.25985437987E+02  0.73307153192E+02  0.41800000000E+01 0.  1.
        -11    1    1    2    0    0 -0.24808768114E+02 -0.18749443866E+01  0.73820020718E+01  0.25951576953E+02  0.00000000000E+00 0.  1.
         11    1    1    2    0    0  0.38917210834E+02  0.16797641964E+02 -0.10261327422E+03  0.11102339448E+03  0.00000000000E+00 0. -1.
</event>
<event>
 7    1  0.1620881E-005  0.1526972E+03  0.7561462E-02  0.1197197E+00
          1   -1    0    0  501    0  0.00000000000E+00  0.00000000000E+00  0.16662822372E+03  0.16662822372E+03  0.00000000000E+00 0. -1.
         -1   -1    0    0    0  501 -0.00000000000E+00 -0.00000000000E+00 -0.19679361357E+03  0.19679361357E+03  0.00000000000E+00 0.  1.
         23    2    1    2    0    0  0.23532933574E+01  0.11773350267E+03 -0.10632851367E+03  0.20203849540E+03  0.12508830946E+03 0.  0.
          5    1    3    3  502    0 -0.34377837738E+02 -0.59996081903E+01 -0.61920207784E+00  0.35152337578E+02  0.41800000000E+01 0.  1.
         -5    1    3    3    0  502  0.36731131095E+02  0.12373311086E+03 -0.10570931159E+03  0.16688615782E+03  0.41800000000E+01 0.  1.
        -11    1    1    2    0    0  0.41371100016E+01  0.11237967588E+02  0.11206852482E+01  0.12027615312E+02  0.00000000000E+00 0. -1.
         11    1    1    2    0    0 -0.64904033590E+01 -0.12897147026E+03  0.75042438569E+02  0.14935572658E+03  0.00000000000E+00 0.  1.
</event>
<event>
 7    1  0.1620881E-005  0.8382162E+02  0.7561462E-02  0.1318543E+00
          1   -1    0    0  501    0  0.00000000000E+00  0.00000000000E+00  0.26632611345E+03  0.26632611345E+03  0.00000000000E+00 0. -1.
         -1   -1    0    0    0  501 -0.00000000000E+00 -0.00000000000E+00 -0.62606603811E+02  0.62606603811E+02  0.00000000000E+00 0.  1.
         23    2    1    2    0    0 -0.10103033651E+01  0.58824178800E+02  0.73691863965E+02  0.15664824695E+03  0.12508748032E+03 0.  0.
          5    1    3    3  502    0 -0.31202418005E+02  0.14138271871E+02 -0.26012787211E+02  0.43215959082E+02  0.41800000000E+01 0. -1.
         -5    1    3    3    0  502  0.30192114640E+02  0.44685906929E+02  0.99704651177E+02  0.11343228787E+03  0.41800000000E+01 0. -1.
        -11    1    1    2    0    0  0.23114894786E+02 -0.94999862853E+01  0.11282876175E+03  0.11556330550E+03  0.00000000000E+00 0. -1.
         11    1    1    2    0    0 -0.22104591421E+02 -0.49324192515E+02  0.17198883923E+02  0.56721164809E+02  0.00000000000E+00 0.  1.
</event>
<event>
 7    1  0.1620881E-005  0.1061684E+03  0.7561462E-02  0.1267835E+00
          2   -1    0    0  501    0  0.00000000000E+00  0.00000000000E+00  0.10098920013E+03  0.10098920013E+03  0.00000000000E+00 0. -1.
         -2   -1    0    0    0  501 -0.00000000000E+00 -0.00000000000E+00 -0.20092279839E+03  0.20092279839E+03  0.00000000000E+00 0.  1.
         23    2    1    2    0    0  0.95587948372E+01  0.36664393129E+02 -0.14813980315E+03  0.19315419269E+03  0.11801479820E+03 0.  0.
          5    1    3    3  502    0  0.26160276371E+02 -0.38271143075E+02 -0.64729240919E+02  0.79726955806E+02  0.41800000000E+01 0. -1.
         -5    1    3    3    0  502 -0.16601481534E+02  0.74935536204E+02 -0.83410562232E+02  0.11342723688E+03  0.41800000000E+01 0.  1.
        -11    1    1    2    0    0  0.33313686914E+02 -0.12838512722E+01 -0.26151897344E+01  0.33440831736E+02  0.00000000000E+00 0.  1.
         11    1    1    2    0    0 -0.42872481751E+02 -0.35380541857E+02  0.50821394627E+02  0.75316974085E+02  0.00000000000E+00 0. -1.
</event>
<event>
 6    1  0.1620881E-005  0.1284302E+03  0.7561462E-02  0.1229804E+00
          4   -1    0    0  501    0  0.00000000000E+00  0.00000000000E+00  0.12103143074E+03  0.12103143074E+03  0.00000000000E+00 0. -1.
         -4   -1    0    0    0  501 -0.00000000000E+00 -0.00000000000E+00 -0.17266976346E+03  0.17266976346E+03  0.00000000000E+00 0.  1.
          5    1    1    2  502    0 -0.54781492491E+02  0.59080142406E+02 -0.53678556357E+02  0.96903740686E+02  0.41800000000E+01 0. -1.
         -5    1    1    2    0  502  0.64408848757E+02  0.70997763197E+01 -0.40309013995E+02  0.76427715072E+02  0.41800000000E+01 0.  1.
        -11    1    1    2    0    0 -0.42733352842E+02 -0.65412288698E+02  0.38275248869E+02  0.87005181650E+02  0.00000000000E+00 0. -1.
         11    1    1    2    0    0  0.33105996577E+02 -0.76763002795E+00  0.40739887608E+01  0.33364556787E+02  0.00000000000E+00 0.  1.
</event>
<event>
 7    1  0.1620881E-005  0.1074440E+03  0.7561462E-02  0.1265378E+00
         -1   -1    0    0    0  501 -0.00000000000E+00  0.00000000000E+00  0.37000881599E+02  0.37000881599E+02  0.00000000000E+00 0.  1.
          1   -1    0    0  501    0  0.00000000000E+00 -0.00000000000E+00 -0.35000276957E+03  0.35000276957E+03  0.00000000000E+00 0. -1.
         23    2    1    2    0    0 -0.27385229405E+02  0.13328267719E+02 -0.14206034812E+03  0.19171790620E+03  0.12508804715E+03 0.  0.
          5    1    3    3  502    0 -0.18011566973E+02  0.67508408257E+02 -0.56622487025E+02  0.90029884856E+02  0.41800000000E+01 0. -1.
         -5    1    3    3    0  502 -0.93736624321E+01 -0.54180140538E+02 -0.85437861092E+02  0.10168802134E+03  0.41800000000E+01 0. -1.
        -11    1    1    2    0    0 -0.11306650568E+02 -0.40773499503E+02 -0.11135188712E+03  0.11911994532E+03  0.00000000000E+00 0. -1.
         11    1    1    2    0    0  0.38691879972E+02  0.27445231784E+02 -0.59589652739E+02  0.76165799654E+02  0.00000000000E+00 0.  1.
</event>
<event>
 7    1  0.1620881E-005  0.1099044E+03  0.7561462E-02  0.1260747E+00
         -1   -1    0    0    0  501 -0.00000000000E+00  0.00000000000E+00  0.34695713867E+03  0.34695713867E+03  0.00000000000E+00 0.  1.
          1   -1    0    0  501    0  0.00000000000E+00 -0.00000000000E+00 -0.41075427221E+02  0.41075427221E+02  0.00000000000E+00 0. -1.
         23    2    1    2    0    0 -0.34407621900E+01  0.29074762514E+02  0.24184311995E+03  0.27384758668E+03  0.12508887002E+03 0.  0.
          5    1    3    3  502    0  0.55316666991E+02  0.36050949049E+02  0.97872546681E+02  0.11813599099E+03  0.41800000000E+01 0. -1.
         -5    1    3    3    0  502 -0.58757429181E+02 -0.69761865354E+01  0.14397057327E+03  0.15571159568E+03  0.41800000000E+01 0. -1.
        -11    1    1    2    0    0  0.41133604571E+02 -0.37552751773E+02  0.41485129545E+02  0.69449251717E+02  0.00000000000E+00 0.  1.
         11    1    1    2    0    0 -0.37692842381E+02  0.84779892589E+01  0.22553461953E+02  0.44735727497E+02  0.00000000000E+00 0. -1.
</event>
<event>
 7    1  0.1620881E-005  0.7540381E+02  0.7561462E-02  0.1342625E+00
          1   -1    0    0  501    0  0.00000000000E+00  0.00000000000E+00  0.10308799910E+03  0.10308799910E+03  0.00000000000E+00 0. -1.
         -1   -1    0    0    0  501 -0.00000000000E+00 -0.00000000000E+00 -0.14094486791E+03  0.14094486791E+03  0.00000000000E+00 0.  1.
         23    2    1    2    0    0  0.28734159451E+01  0.27345688849E+02 -0.66852996825E+02  0.14447276634E+03  0.12508802426E+03 0.  0.
          5    1    3    3  502    0 -0.10560192496E+02  0.43817587064E+02  0.23887858202E+02  0.51182035629E+02  0.41800000000E+01 0.  1.
         -5    1    3    3    0  502  0.13433608441E+02 -0.16471898215E+02 -0.90740855026E+02  0.93290730716E+02  0.41800000000E+01 0.  1.
        -11    1    1    2    0    0 -0.20841495033E+02 -0.50464878152E+02  0.40625023668E+02  0.68054863089E+02  0.00000000000E+00 0. -1.
         11    1    1    2    0    0  0.17968079088E+02  0.23119189303E+02 -0.11628895656E+02  0.31505237570E+02  0.00000000000E+00 0.  1.
</event>
<event>
 6    1  0.1620881E-005  0.2068100E+03  0.7561462E-02  0.1144117E+00
          2   -1    0    0  501    0  0.00000000000E+00  0.00000000000E+00  0.79155445613E+03  0.79155445613E+03  0.00000000000E+00 0. -1.
         -2   -1    0    0    0  501 -0.00000000000E+00 -0.00000000000E+00 -0.74276283774E+02  0.74276283774E+02  0.00000000000E+00 0.  1.
          5    1    1    2  502    0 -0.57313307431E+02  0.78544849886E+02  0.11872491565E+03  0.15351607945E+03  0.41800000000E+01 0. -1.
         -5    1    1    2    0  502 -0.53998461159E+02 -0.15049786427E+03  0.99995759328E+02  0.18863208964E+03  0.41800000000E+01 0.  1.
        -11    1    1    2    0    0  0.14795324497E+02  0.56747373942E+02  0.13424574706E+03  0.14649602957E+03  0.00000000000E+00 0. -1.
         11    1    1    2    0    0  0.96516444093E+02  0.15205640440E+02  0.36431175031E+03  0.37718654125E+03  0.00000000000E+00 0.  1.
</event>
<event>
 7    1  0.1620881E-005  0.1074014E+03  0.7561462E-02  0.1265459E+00
         -3   -1    0    0    0  501 -0.00000000000E+00  0.00000000000E+00  0.24224838358E+03  0.24224838358E+03  0.00000000000E+00 0.  1.
          3   -1    0    0  501    0  0.00000000000E+00 -0.00000000000E+00 -0.65554546866E+02  0.65554546866E+02  0.00000000000E+00 0. -1.
         23    2    1    2    0    0 -0.10995739672E+02 -0.34573889023E+00  0.17331798134E+03  0.21402755949E+03  0.12509055816E+03 0.  0.
          5    1    3    3  502    0 -0.60239811252E+02 -0.26761313930E+02  0.68413729892E+02  0.95094235475E+02  0.41800000000E+01 0. -1.
         -5    1    3    3    0  502  0.49244071580E+02  0.26415575039E+02  0.10490425145E+03  0.11893332402E+03  0.41800000000E+01 0. -1.
        -11    1    1    2    0    0  0.51233446794E+02  0.77088995707E+01 -0.48978955197E+01  0.52041162396E+02  0.00000000000E+00 0.  1.
         11    1    1    2    0    0 -0.40237707122E+02 -0.73631606805E+01  0.82737508906E+01  0.41734208552E+02  0.00000000000E+00 0. -1.
</event>
<event>
 7    1  0.1620881E-005  0.1228324E+03  0.7561462E-02  0.1238496E+00
          1   -1    0    0  501    0  0.00000000000E+00  0.00000000000E+00  0.62802648916E+02  0.62802648916E+02  0.00000000000E+00 0. -1.
         -1   -1    0    0    0  501 -0.00000000000E+00 -0.00000000000E+00 -0.37297883976E+03  0.37297883976E+03  0.00000000000E+00 0.  1.
         23    2    1    2    0    0 -0.40902100531E+02 -0.10127984766E+03 -0.20616397857E+03  0.26472994724E+03  0.12509104499E+03 0.  0.
          5    1    3    3  502    0 -0.44069149107E+02 -0.27610494961E+02 -0.74076016352E+01  0.52695106955E+02  0.41800000000E+01 0.  1.
         -5    1    3    3    0  502  0.31670485760E+01 -0.73669352694E+02 -0.19875637694E+03  0.21203484029E+03  0.41800000000E+01 0.  1.
        -11    1    1    2    0    0  0.48265305495E+02  0.56733448448E+02 -0.10140954118E+03  0.12582574828E+03  0.00000000000E+00 0.  1.
         11    1    1    2    0    0 -0.73632049640E+01  0.44546399208E+02 -0.26026710938E+01  0.45225793156E+02  0.00000000000E+00 0. -1.
</event>
<event>
 7    1  0.1620881E-005  0.1331300E+03  0.7561462E-02  0.1222884E+00
          2   -1    0    0  501    0  0.00000000000E+00  0.00000000000E+00  0.15791013409E+03  0.15791013409E+03  0.00000000000E+00 0. -1.
         -2   -1    0    0    0  501 -0.00000000000E+00 -0.00000000000E+00 -0.14441005689E+03  0.14441005689E+03  0.00000000000E+00 0.  1.
         23    2    1    2    0    0  0.87549160581E+02 -0.56441554414E+02  0.81721328846E+01  0.16300086627E+03  0.12510792967E+03 0.  0.
          5    1    3    3  502    0  0.90606217554E+02 -0.85602105373E+02  0.27396197405E+02  0.12769193841E+03  0.41800000000E+01 0. -1.
         -5    1    3    3    0  502 -0.30570569729E+01  0.29160550959E+02 -0.19224064520E+02  0.35308927854E+02  0.41800000000E+01 0. -1.
        -11    1    1    2    0    0 -0.73038260486E+02  0.24832734599E+02  0.42776824519E+02  0.88210594139E+02  0.00000000000E+00 0. -1.
         11    1    1    2    0    0 -0.14510900095E+02  0.31608819816E+02 -0.37448880210E+02  0.51108730572E+02  0.00000000000E+00 0.  1.
</event>
<event>
 7    1  0.1620881E-005  0.1557569E+03  0.7561462E-02  0.1193572E+00
          2   -1    0    0  501    0  0.00000000000E+00  0.00000000000E+00  0.89432494914E+03  0.89432494914E+03  0.00000000000E+00 0. -1.
         -2   -1    0    0    0  501 -0.00000000000E+00 -0.00000000000E+00 -0.40445384992E+02  0.40445384992E+02  0.00000000000E+00 0.  1.
         23    2    1    2    0    0 -0.42859244861E+02  0.11914961371E+03  0.22839410884E+03  0.28955195193E+03  0.12507165385E+03 0.  0.
          5    1    3    3  502    0 -0.61024714791E+02  0.39728736733E+01  0.79875936146E+02  0.10068484055E+03  0.41800000000E+01 0.  1.
         -5    1    3    3    0  502  0.18165469930E+02  0.11517674004E+03  0.14851817269E+03  0.18886711138E+03  0.41800000000E+01 0.  1.
        -11    1    1    2    0    0 -0.80460637567E+01 -0.28086444164E+02  0.35017526709E+02  0.45604985085E+02  0.00000000000E+00 0.  1.
         11    1    1    2    0    0  0.50905308617E+02 -0.91063169546E+02  0.59046792861E+03  0.59961339712E+03  0.00000000000E+00 0. -1.
</event>
<event>
 7    1  0.1620881E-005  0.1765418E+03  0.7561462E-02  0.1171193E+00
          2   -1    0    0  501    0  0.00000000000E+00  0.00000000000E+00  0.13379544696E+04  0.13379544696E+04  0.00000000000E+00 0. -1.
         -2   -1    0    0    0  501 -0.00000000000E+00 -0.00000000000E+00 -0.29135203512E+02  0.29135203512E+02  0.00000000000E+00 0.  1.
         23    2    1    2    0    0 -0.88187349403E+02  0.13542244895E+03  0.79869511847E+03  0.82442550984E+03  0.12508909113E+03 0.  0.
          5    1    3    3  502    0 -0.98974490535E+02  0.13644595495E+03  0.79431307097E+03  0.81201242325E+03  0.41800000000E+01 0.  1.
         -5    1    3    3    0  502  0.10787141132E+02 -0.10235059926E+01  0.43820475055E+01  0.12413086589E+02  0.41800000000E+01 0.  1.
        -11    1    1    2    0    0  0.50753614060E+02 -0.12357428819E+03  0.29299357133E+03  0.32201206015E+03  0.00000000000E+00 0.  1.
         11    1    1    2    0    0  0.37433735343E+02 -0.11848160761E+02  0.21713057629E+03  0.22065210313E+03  0.00000000000E+00 0. -1.
</event>
<event>
 7    1  0.1620881E-005  0.1068335E+03  0.7561462E-02  0.1266549E+00
         -1   -1    0    0    0  501 -0.00000000000E+00  0.00000000000E+00  0.32791117768E+02  0.32791117768E+02  0.00000000000E+00 0.  1.
          1   -1    0    0  501    0  0.00000000000E+00 -0.00000000000E+00 -0.41671113893E+03  0.41671113893E+03  0.00000000000E+00 0. -1.
         23    2    1    2    0    0 -0.45581824540E+02 -0.37559564891E+01 -0.23518069837E+03  0.27027633907E+03  0.12509008210E+03 0.  0.
          5    1    3    3  502    0  0.31122798641E+02 -0.32370659346E+02 -0.12542309281E+03  0.13328508090E+03  0.41800000000E+01 0. -1.
         -5    1    3    3    0  502 -0.76704623181E+02  0.28614702857E+02 -0.10975760556E+03  0.13699125817E+03  0.41800000000E+01 0. -1.
        -11    1    1    2    0    0 -0.75982882229E+01 -0.25004727883E+02 -0.10172550502E+02  0.28043736986E+02  0.00000000000E+00 0.  1.
         11    1    1    2    0    0  0.53180112763E+02  0.28760684372E+02 -0.13856677229E+03  0.15118218064E+03  0.00000000000E+00 0. -1.
</event>
<event>
 7    1  0.1620881E-005  0.1215386E+03  0.7561462E-02  0.1240580E+00
         -1   -1    0    0    0  501 -0.00000000000E+00  0.00000000000E+00  0.18933973081E+02  0.18933973081E+02  0.00000000000E+00 0.  1.
          1   -1    0    0  501    0  0.00000000000E+00 -0.00000000000E+00 -0.89170737533E+03  0.89170737533E+03  0.00000000000E+00 0. -1.
         23    2    1    2    0    0 -0.48070262529E+02  0.51721613762E+02 -0.44123336619E+03  0.46402688770E+03  0.12509273997E+03 0.  0.
          5    1    3    3  502    0  0.15694234059E+02  0.74155580563E+02 -0.23084245455E+03  0.24300425991E+03  0.41800000000E+01 0.  1.
         -5    1    3    3    0  502 -0.63764496588E+02 -0.22433966801E+02 -0.21039091164E+03  0.22102262778E+03  0.41800000000E+01 0.  1.
        -11    1    1    2    0    0 -0.16514083263E+02  0.28794464731E+00 -0.16407142023E+02  0.23280725235E+02  0.00000000000E+00 0.  1.
         11    1    1    2    0    0  0.64584345792E+02 -0.52009558409E+02 -0.41513289404E+03  0.42333373548E+03  0.00000000000E+00 0. -1.
</event>
<event>
 7    1  0.1620881E-005  0.1144280E+03  0.7561462E-02  0.1252583E+00
          3   -1    0    0  501    0  0.00000000000E+00  0.00000000000E+00  0.14122495654E+03  0.14122495654E+03  0.00000000000E+00 0. -1.
         -3   -1    0    0    0  501 -0.00000000000E+00 -0.00000000000E+00 -0.11615308124E+03  0.11615308124E+03  0.00000000000E+00 0.  1.
         23    2    1    2    0    0  0.33343502114E+02  0.49943443831E+01 -0.52912330899E+01  0.12966473166E+03  0.12509281706E+03 0.  0.
          5    1    3    3  502    0  0.50297690883E+02  0.53354451494E+02  0.13966975537E+02  0.74760310380E+02  0.41800000000E+01 0.  1.
         -5    1    3    3    0  502 -0.16954188770E+02 -0.48360107111E+02 -0.19258208627E+02  0.54904421281E+02  0.41800000000E+01 0.  1.
        -11    1    1    2    0    0 -0.15517925467E+01  0.44849418441E+02 -0.20862066421E+02  0.49488425010E+02  0.00000000000E+00 0.  1.
         11    1    1    2    0    0 -0.31791709567E+02 -0.49843762824E+02  0.51225174818E+02  0.78224881111E+02  0.00000000000E+00 0. -1.
</event>
<event>
 7    1  0.1620881E-005  0.3623254E+02  0.7561462E-02  0.1537920E+00
          1   -1    0    0  501    0  0.00000000000E+00  0.00000000000E+00  0.16775214639E+03  0.16775214639E+03  0.00000000000E+00 0. -1.
         -1   -1    0    0    0  501 -0.00000000000E+00 -0.00000000000E+00 -0.76268668185E+02  0.76268668185E+02  0.00000000000E+00 0.  1.
         23    2    1    2    0    0  0.36839324692E+00  0.28336391281E+02  0.65030351555E+02  0.14380629440E+03  0.12509283314E+03 0.  0.
          5    1    3    3  502    0 -0.15767369424E+02  0.14251815836E+02  0.10014632425E+03  0.10246210448E+03  0.41800000000E+01 0. -1.
         -5    1    3    3    0  502  0.16135762671E+02  0.14084575445E+02 -0.35115972695E+02  0.41344189927E+02  0.41800000000E+01 0. -1.
        -11    1    1    2    0    0 -0.31452258986E+01 -0.11701526790E+02 -0.34712447675E+02  0.36766454803E+02  0.00000000000E+00 0.  1.
         11    1    1    2    0    0  0.27768326517E+01 -0.16634864491E+02  0.61165574323E+02  0.63448065365E+02  0.00000000000E+00 0. -1.
</event>
<event>
 7    1  0.1620881E-005  0.1352160E+03  0.7561462E-02  0.1219915E+00
         -2   -1    0    0    0  501 -0.00000000000E+00  0.00000000000E+00  0.14157335029E+03  0.14157335029E+03  0.00000000000E+00 0.  1.
          2   -1    0    0  501    0  0.00000000000E+00 -0.00000000000E+00 -0.15378249296E+03  0.15378249296E+03  0.00000000000E+00 0. -1.
         23    2    1    2    0    0  0.75162867278E+02 -0.54591352698E+02  0.28540278386E+02  0.15840326878E+03  0.12508947063E+03 0.  0.
          5    1    3    3  502    0  0.65701047120E+02  0.27379640346E+02  0.98135862360E+00  0.71307136831E+02  0.41800000000E+01 0.  1.
         -5    1    3    3    0  502  0.94618201572E+01 -0.81970993044E+02  0.27558919762E+02  0.87096131945E+02  0.41800000000E+01 0.  1.
        -11    1    1    2    0    0 -0.19344972825E+02  0.57449905801E+02  0.10023988335E+02  0.61442656130E+02  0.00000000000E+00 0. -1.
         11    1    1    2    0    0 -0.55817894453E+02 -0.28585531040E+01 -0.50773409395E+02  0.75509918346E+02  0.00000000000E+00 0.  1.
</event>
<event>
 7    1  0.1620881E-005  0.6732800E+02  0.7561462E-02  0.1369422E+00
          1   -1    0    0  501    0  0.00000000000E+00  0.00000000000E+00  0.78850695575E+02  0.78850695575E+02  0.00000000000E+00 0. -1.
         -1   -1    0    0    0  501 -0.00000000000E+00 -0.00000000000E+00 -0.21148738475E+03  0.21148738475E+03  0.00000000000E+00 0.  1.
         23    2    1    2    0    0 -0.48064329934E+01  0.24909510679E+02 -0.14711429966E+03  0.19476520425E+03  0.12508909666E+03 0.  0.
          5    1    3    3  502    0  0.12876619826E+02 -0.11289014587E+01 -0.15994376788E+03  0.16051966558E+03  0.41800000000E+01 0.  1.
         -5    1    3    3    0  502 -0.17683052819E+02  0.26038412137E+02  0.12829468220E+02  0.34245538665E+02  0.41800000000E+01 0.  1.
        -11    1    1    2    0    0 -0.11044045510E+02 -0.54576951306E+02 -0.62974105982E+01  0.56038129299E+02  0.00000000000E+00 0.  1.
         11    1    1    2    0    0  0.15850478503E+02  0.29667440627E+02  0.20775021078E+02  0.39534746779E+02  0.00000000000E+00 0. -1.
</event>
<event>
 7    1  0.1620881E-005  0.8022755E+02  0.7561462E-02  0.1328407E+00
         -1   -1    0    0    0  501 -0.00000000000E+00  0.00000000000E+00  0.99427115161E+02  0.99427115161E+02  0.00000000000E+00 0.  1.
          1   -1    0    0  501    0  0.00000000000E+00 -0.00000000000E+00 -0.28514828864E+03  0.28514828864E+03  0.00000000000E+00 0. -1.
         23    2    1    2    0    0 -0.40166611598E+02 -0.29790999980E+02  0.41761695207E+02  0.13472841437E+03  0.11792729152E+03 0.  0.
          5    1    3    3  502    0 -0.19382508957E+02 -0.33746127766E+02 -0.36519079286E+02  0.53531283793E+02  0.41800000000E+01 0. -1.
         -5    1    3    3    0  502 -0.20784102641E+02  0.39551277860E+01  0.78280774493E+02  0.81197130575E+02  0.41800000000E+01 0.  1.
        -11    1    1    2    0    0  0.65152848418E+02  0.63046812392E+01 -0.17790873641E+03  0.18956835484E+03  0.00000000000E+00 0. -1.
         11    1    1    2    0    0 -0.24986236820E+02  0.23486318741E+02 -0.49574132269E+02  0.60278634595E+02  0.00000000000E+00 0.  1.
</event>
<event>
 7    1  0.1620881E-005  0.1736628E+03  0.7561462E-02  0.1174081E+00
         -3   -1    0    0    0  501 -0.00000000000E+00  0.00000000000E+00  0.20244872341E+03  0.20244872341E+03  0.00000000000E+00 0.  1.
          3   -1    0    0  501    0  0.00000000000E+00 -0.00000000000E+00 -0.20716889968E+03  0.20716889968E+03  0.00000000000E+00 0. -1.
         23    2    1    2    0    0  0.18546106328E+02 -0.16147051097E+03  0.59275217696E+02  0.21348471639E+03  0.12508192806E+03 0.  0.
          5    1    3    3  502    0  0.11582483929E+02 -0.14955700772E+03 -0.24648993145E+01  0.15008331227E+03  0.41800000000E+01 0. -1.
         -5    1    3    3    0  502  0.69636223984E+01 -0.11913503246E+02  0.61740117010E+02  0.63401404124E+02  0.41800000000E+01 0. -1.
        -11    1    1    2    0    0 -0.51835324269E+02  0.86994167364E+02 -0.51481270780E+02  0.11360108819E+03  0.00000000000E+00 0. -1.
         11    1    1    2    0    0  0.33289217941E+02  0.74476343602E+02 -0.12514123185E+02  0.82531818510E+02  0.00000000000E+00 0.  1.
</event>
<event>
 7    1  0.1620881E-005  0.1070288E+03  0.7561462E-02  0.1266173E+00
          1   -1    0    0  501    0  0.00000000000E+00  0.00000000000E+00  0.12508099512E+03  0.12508099512E+03  0.00000000000E+00 0. -1.
         -1   -1    0    0    0  501 -0.00000000000E+00 -0.00000000000E+00 -0.16435392243E+03  0.16435392243E+03  0.00000000000E+00 0.  1.
         23    2    1    2    0    0 -0.11243485065E+02  0.70395489446E+02 -0.85432006798E+02  0.16741620549E+03  0.12509043602E+03 0.  0.
          5    1    3    3  502    0 -0.19768956037E+02 -0.25476739765E+02  0.77032534050E+01  0.33416888019E+02  0.41800000000E+01 0.  1.
         -5    1    3    3    0  502  0.85254709720E+01  0.95872229211E+02 -0.93135260203E+02  0.13399931747E+03  0.41800000000E+01 0.  1.
        -11    1    1    2    0    0 -0.13333164774E+02 -0.32871834204E+01  0.48607174592E+02  0.50509764200E+02  0.00000000000E+00 0. -1.
         11    1    1    2    0    0  0.24576649839E+02 -0.67108306026E+02 -0.24480951067E+01  0.71508947864E+02  0.00000000000E+00 0.  1.
</event>
<event>
 7    1  0.1620881E-005  0.1130520E+03  0.7561462E-02  0.1255020E+00
          2   -1    0    0  501    0  0.00000000000E+00  0.00000000000E+00  0.22582674725E+03  0.22582674725E+03  0.00000000000E+00 0. -1.
         -2   -1    0    0    0  501 -0.00000000000E+00 -0.00000000000E+00 -0.62292704071E+02  0.62292704071E+02  0.00000000000E+00 0.  1.
         23    2    1    2    0    0  0.37795637881E+02  0.95023030144E+01  0.59699218386E+02  0.14397631380E+03  0.12508548379E+03 0.  0.
          5    1    3    3  502    0  0.75635571692E+02  0.36562976286E+02  0.42120210626E+02  0.94070056252E+02  0.41800000000E+01 0.  1.
         -5    1    3    3    0  502 -0.37839933810E+02 -0.27060673272E+02  0.17579007760E+02  0.49906257549E+02  0.41800000000E+01 0.  1.
        -11    1    1    2    0    0 -0.40470847676E+02 -0.44518421540E+02  0.85443724499E+02  0.10450076279E+03  0.00000000000E+00 0.  1.
         11    1    1    2    0    0  0.26752097950E+01  0.35016118526E+02  0.18391100294E+02  0.39642374728E+02  0.00000000000E+00 0. -1.
</event>
<event>
 7    1  0.1620881E-005  0.2880913E+03  0.7561462E-02  0.1091350E+00
          3   -1    0    0  501    0  0.00000000000E+00  0.00000000000E+00  0.10668368973E+03  0.10668368973E+03  0.00000000000E+00 0. -1.
         -3   -1    0    0    0  501 -0.00000000000E+00 -0.00000000000E+00 -0.84683379521E+03  0.84683379521E+03  0.00000000000E+00 0.  1.
         23    2    1    2    0    0  0.15848808178E+03 -0.21813896315E+03 -0.49905298537E+03  0.58086548753E+03  0.12509097922E+03 0.  0.
          5    1    3    3  502    0  0.15242249450E+03 -0.10799957456E+03 -0.31414891357E+03  0.36551817634E+03  0.41800000000E+01 0. -1.
         -5    1    3    3    0  502  0.60655872731E+01 -0.11013938859E+03 -0.18490407180E+03  0.21534731119E+03  0.41800000000E+01 0. -1.
        -11    1    1    2    0    0  0.66703611370E+01  0.19523631992E+02 -0.41020016045E+02  0.45916311265E+02  0.00000000000E+00 0.  1.
         11    1    1    2    0    0 -0.16515844291E+03  0.19861533116E+03 -0.20007710406E+03  0.32673568616E+03  0.00000000000E+00 0. -1.
</event>
<event>
 7    1  0.1620881E-005  0.1126772E+03  0.7561462E-02  0.1255691E+00
          1   -1    0    0  501    0  0.00000000000E+00  0.00000000000E+00  0.12157614124E+04  0.12157614124E+04  0.00000000000E+00 0. -1.
         -1   -1    0    0    0  501 -0.00000000000E+00 -0.00000000000E+00 -0.20548557679E+02  0.20548557679E+02  0.00000000000E+00 0.  1.
         23    2    1    2    0    0  0.92686340181E+02  0.48161782173E+02  0.82170525825E+03  0.83770938763E+03  0.12508865565E+03 0.  0.
          5    1    3    3  502    0  0.20425973198E+02 -0.14012616133E+02  0.53406734286E+03  0.53465780917E+03  0.41800000000E+01 0. -1.
         -5    1    3    3    0  502  0.72260366983E+02  0.62174398306E+02  0.28763791539E+03  0.30305157846E+03  0.41800000000E+01 0. -1.
        -11    1    1    2    0    0 -0.27639676516E+02 -0.18938791390E+02  0.22350544915E+02  0.40276251008E+02  0.00000000000E+00 0.  1.
         11    1    1    2    0    0 -0.65046663665E+02 -0.29222990783E+02  0.35115705155E+03  0.35832433143E+03  0.00000000000E+00 0. -1.
</event>
<event>
 7    1  0.1620881E-005  0.1095194E+03  0.7561462E-02  0.1261463E+00
         -2   -1    0    0    0  501 -0.00000000000E+00  0.00000000000E+00  0.38017110809E+02  0.38017110809E+02  0.00000000000E+00 0.  1.
          2   -1    0    0  501    0  0.00000000000E+00 -0.00000000000E+00 -0.35633364834E+03  0.35633364834E+03  0.00000000000E+00 0. -1.
         23    2    1    2    0    0  0.73667718066E+01 -0.12683010169E+02 -0.11647792006E+03  0.17155092880E+03  0.12508991660E+03 0.  0.
          5    1    3    3  502    0  0.37888416525E+02  0.45765312102E+02 -0.61302758747E+02  0.85472197401E+02  0.41800000000E+01 0. -1.
         -5    1    3    3    0  502 -0.30521644718E+02 -0.58448322271E+02 -0.55175161313E+02  0.86078731395E+02  0.41800000000E+01 0. -1.
        -11    1    1    2    0    0  0.38073364528E+02  0.25944000071E+02 -0.11523903783E+03  0.12410764709E+03  0.00000000000E+00 0. -1.
         11    1    1    2    0    0 -0.45440136334E+02 -0.13260989902E+02 -0.86599579641E+02  0.98692183263E+02  0.00000000000E+00 0.  1.
</event>
<event>
 7    1  0.1620881E-005  0.9781739E+02  0.7561462E-02  0.1284954E+00
          2   -1    0    0  501    0  0.00000000000E+00  0.00000000000E+00  0.20908537869E+03  0.20908537869E+03  0.00000000000E+00 0. -1.
         -2   -1    0    0    0  501 -0.00000000000E+00 -0.00000000000E+00 -0.84682359586E+02  0.84682359586E+02  0.00000000000E+00 0.  1.
         23    2    1    2    0    0  0.60326057071E+02  0.26366737039E+02  0.93238938848E+02  0.16933888501E+03  0.12509084808E+03 0.  0.
          5    1    3    3  502    0 -0.20715358717E+02  0.12789510894E+02 -0.18296609916E+02  0.30739811485E+02  0.41800000000E+01 0.  1.
         -5    1    3    3    0  502  0.81041415788E+02  0.13577226145E+02  0.11153554876E+03  0.13859907352E+03  0.41800000000E+01 0.  1.
        -11    1    1    2    0    0 -0.50404850030E+02  0.96305179397E+01 -0.24923553491E+02  0.57048920244E+02  0.00000000000E+00 0.  1.
         11    1    1    2    0    0 -0.99212070408E+01 -0.35997254979E+02  0.56087633744E+02  0.67379933023E+02  0.00000000000E+00 0. -1.
</event>
<event>
 7    1  0.1620881E-005  0.1208983E+03  0.7561462E-02  0.1241622E+00
          2   -1    0    0  501    0  0.00000000000E+00  0.00000000000E+00  0.15388782060E+04  0.15388782060E+04  0.00000000000E+00 0. -1.
         -2   -1    0    0    0  501 -0.00000000000E+00 -0.00000000000E+00 -0.14494805360E+02  0.14494805360E+02  0.00000000000E+00 0.  1.
         23    2    1    2    0    0  0.93782319476E+02  0.40500142924E+02  0.88470359018E+03  0.89932354508E+03  0.12508801400E+03 0.  0.
          5    1    3    3  502    0  0.49247473556E+02  0.36369382592E+02  0.80879286224E+03  0.81111738488E+03  0.41800000000E+01 0. -1.
         -5    1    3    3    0  502  0.44534845921E+02  0.41307603319E+01  0.75910727937E+02  0.88206160204E+02  0.41800000000E+01 0. -1.
        -11    1    1    2    0    0  0.49572830319E+01 -0.36348512829E+02  0.14279701588E+03  0.14743397432E+03  0.00000000000E+00 0.  1.
         11    1    1    2    0    0 -0.98739602508E+02 -0.41516300955E+01  0.49688279456E+03  0.50661549193E+03  0.00000000000E+00 0. -1.
</event>
<event>
 7    1  0.1620881E-005  0.1599722E+03  0.7561462E-02  0.1188728E+00
         -2   -1    0    0    0  501 -0.00000000000E+00  0.00000000000E+00  0.43895445336E+02  0.43895445336E+02  0.00000000000E+00 0. -1.
          2   -1    0    0  501    0  0.00000000000E+00 -0.00000000000E+00 -0.65716329197E+03  0.65716329197E+03  0.00000000000E+00 0.  1.
         23    2    1    2    0    0  0.12880207362E+03 -0.20023538308E+02 -0.33692401449E+03  0.38230462916E+03  0.12509245252E+03 0.  0.
          5    1    3    3  502    0  0.47116057498E+02  0.52788243021E+02 -0.14282330815E+03  0.15944432015E+03  0.41800000000E+01 0. -1.
         -5    1    3    3    0  502  0.81686016126E+02 -0.72811781329E+02 -0.19410070634E+03  0.22286030901E+03  0.41800000000E+01 0. -1.
        -11    1    1    2    0    0 -0.15214157224E+02 -0.14318211625E+02 -0.12348979979E+03  0.12524461033E+03  0.00000000000E+00 0.  1.
         11    1    1    2    0    0 -0.11358791640E+03  0.34341749933E+02 -0.15285403236E+03  0.19350949783E+03  0.00000000000E+00 0. -1.
</event>
<event>
 7    1  0.1620881E-005  0.1067478E+03  0.7561462E-02  0.1266714E+00
         -1   -1    0    0    0  501 -0.00000000000E+00  0.00000000000E+00  0.68761049357E+02  0.68761049357E+02  0.00000000000E+00 0.  1.
          1   -1    0    0  501    0  0.00000000000E+00 -0.00000000000E+00 -0.20523425795E+03  0.20523425795E+03  0.00000000000E+00 0. -1.
         23    2    1    2    0    0  0.42289761699E+02 -0.25473941828E+02 -0.79101583437E+02  0.15601122430E+03  0.12508035797E+03 0.  0.
          5    1    3    3  502    0  0.48099276379E+02  0.43433953755E+02 -0.43029252585E+02  0.77904028811E+02  0.41800000000E+01 0. -1.
         -5    1    3    3    0  502 -0.58095146801E+01 -0.68907895584E+02 -0.36072330853E+02  0.78107195493E+02  0.41800000000E+01 0. -1.
        -11    1    1    2    0    0  0.91342837518E+01  0.26302953692E+02  0.13075130026E+02  0.30761006775E+02  0.00000000000E+00 0.  1.
         11    1    1    2    0    0 -0.51424045451E+02 -0.82901186387E+00 -0.70446755176E+02  0.87223076224E+02  0.00000000000E+00 0. -1.
</event>
<event>
 7    1  0.1620881E-005  0.1106344E+03  0.7561462E-02  0.1259400E+00
         -2   -1    0    0    0  501 -0.00000000000E+00  0.00000000000E+00  0.45470818419E+02  0.45470818419E+02  0.00000000000E+00 0. -1.
          2   -1    0    0  501    0  0.00000000000E+00 -0.00000000000E+00 -0.51005851221E+03  0.51005851221E+03  0.00000000000E+00 0.  1.
         23    2    1    2    0    0  0.18196915341E+02 -0.10570972584E+03 -0.19737873510E+03  0.25712286645E+03  0.12509248384E+03 0.  0.
          5    1    3    3  502    0 -0.25501510949E+01 -0.55864250577E+02 -0.19501616217E+03  0.20291893374E+03  0.41800000000E+01 0. -1.
         -5    1    3    3    0  502  0.20747066436E+02 -0.49845475267E+02 -0.23625729365E+01  0.54203932709E+02  0.41800000000E+01 0. -1.
        -11    1    1    2    0    0  0.96439083435E-01  0.76969906645E+02 -0.92165330948E+02  0.12007840796E+03  0.00000000000E+00 0. -1.
         11    1    1    2    0    0 -0.18293354424E+02  0.28739819198E+02 -0.17504362774E+03  0.17832805622E+03  0.00000000000E+00 0.  1.
</event>
<event>
 7    1  0.1620881E-005  0.6405019E+02  0.7561462E-02  0.1381580E+00
          1   -1    0    0  501    0  0.00000000000E+00  0.00000000000E+00  0.61992035398E+03  0.61992035398E+03  0.00000000000E+00 0. -1.
         -1   -1    0    0    0  501 -0.00000000000E+00 -0.00000000000E+00 -0.21222245590E+02  0.21222245590E+02  0.00000000000E+00 0.  1.
         23    2    1    2    0    0 -0.26276905598E+02  0.16918234978E+02  0.29513622505E+03  0.32206858295E+03  0.12508428497E+03 0.  0.
          5    1    3    3  502    0 -0.30199924973E+02  0.21688445875E+02  0.12667489377E+02  0.39501415670E+02  0.41800000000E+01 0. -1.
         -5    1    3    3    0  502  0.39230193750E+01 -0.47702108970E+01  0.28246873567E+03  0.28256716728E+03  0.41800000000E+01 0. -1.
        -11    1    1    2    0    0  0.50710053846E+01 -0.46530095998E+02  0.24973024136E+03  0.25407864605E+03  0.00000000000E+00 0. -1.
         11    1    1    2    0    0  0.21205900213E+02  0.29611861020E+02  0.53831641984E+02  0.64995370571E+02  0.00000000000E+00 0.  1.
</event>
<event>
 7    1  0.1620881E-005  0.1258286E+03  0.7561462E-02  0.1233780E+00
         -2   -1    0    0    0  501 -0.00000000000E+00  0.00000000000E+00  0.39724752322E+02  0.39724752322E+02  0.00000000000E+00 0.  1.
          2   -1    0    0  501    0  0.00000000000E+00 -0.00000000000E+00 -0.46458956860E+03  0.46458956860E+03  0.00000000000E+00 0. -1.
         23    2    1    2    0    0  0.22780427158E+02 -0.63334130699E+02 -0.18529292734E+03  0.23347271192E+03  0.12508348539E+03 0.  0.
          5    1    3    3  502    0  0.73172740863E+01  0.31269608725E+02 -0.10445147405E+02  0.34027994859E+02  0.41800000000E+01 0. -1.
         -5    1    3    3    0  502  0.15463153072E+02 -0.94603739423E+02 -0.17484777993E+03  0.19944471706E+03  0.41800000000E+01 0. -1.
        -11    1    1    2    0    0  0.39213832765E+02  0.75708080265E+01 -0.51968084185E+02  0.65541769797E+02  0.00000000000E+00 0.  1.
         11    1    1    2    0    0 -0.61994259923E+02  0.55763322672E+02 -0.18760380475E+03  0.20529983920E+03  0.00000000000E+00 0. -1.
</event>
<event>
 7    1  0.1620881E-005  0.2060246E+03  0.7561462E-02  0.1144753E+00
         -2   -1    0    0    0  501 -0.00000000000E+00  0.00000000000E+00  0.73584043240E+02  0.73584043240E+02  0.00000000000E+00 0.  1.
          2   -1    0    0  501    0  0.00000000000E+00 -0.00000000000E+00 -0.84605328563E+03  0.84605328563E+03  0.00000000000E+00 0. -1.
         23    2    1    2    0    0 -0.14114062040E+03 -0.10901083012E+03 -0.14723443029E+03  0.26292611819E+03  0.12509248719E+03 0.  0.
          5    1    3    3  502    0 -0.16284535382E+03 -0.10301501143E+03 -0.11877996128E+03  0.22639976467E+03  0.41800000000E+01 0. -1.
         -5    1    3    3    0  502  0.21704733422E+02 -0.59958186865E+01 -0.28454469008E+02  0.36526353516E+02  0.41800000000E+01 0. -1.
        -11    1    1    2    0    0  0.20740758959E+02  0.64980069891E+02 -0.15561324354E+03  0.16990606266E+03  0.00000000000E+00 0.  1.
         11    1    1    2    0    0  0.12039986144E+03  0.44030760226E+02 -0.46962156856E+03  0.48680514802E+03  0.00000000000E+00 0. -1.
</event>
<event>
 7    1  0.1620881E-005  0.8635733E+02  0.7561462E-02  0.1311921E+00
          2   -1    0    0  501    0  0.00000000000E+00  0.00000000000E+00  0.13237286002E+03  0.13237286002E+03  0.00000000000E+00 0. -1.
         -2   -1    0    0    0  501 -0.00000000000E+00 -0.00000000000E+00 -0.15202913559E+03  0.15202913559E+03  0.00000000000E+00 0.  1.
         23    2    1    2    0    0  0.35383483617E+02  0.49654516790E+01 -0.94930124615E+02  0.16104599780E+03  0.12508972071E+03 0.  0.
          5    1    3    3  502    0  0.17639168371E+02  0.38625937549E+02 -0.11146124397E+03  0.11934900343E+03  0.41800000000E+01 0. -1.
         -5    1    3    3    0  502  0.17744315245E+02 -0.33660485870E+02  0.16531119357E+02  0.41696994373E+02  0.41800000000E+01 0. -1.
        -11    1    1    2    0    0 -0.62598945934E+02  0.49656871619E+01  0.29969439292E+02  0.69580553121E+02  0.00000000000E+00 0.  1.
         11    1    1    2    0    0  0.27215462318E+02 -0.99311388409E+01  0.45304409751E+02  0.53775444682E+02  0.00000000000E+00 0. -1.
</event>
<event>
 7    1  0.1620881E-005  0.1034992E+03  0.7561462E-02  0.1273105E+00
          2   -1    0    0  501    0  0.00000000000E+00  0.00000000000E+00  0.24466455132E+03  0.24466455132E+03  0.00000000000E+00 0. -1.
         -2   -1    0    0    0  501 -0.00000000000E+00 -0.00000000000E+00 -0.55950693948E+02  0.55950693948E+02  0.00000000000E+00 0.  1.
         23    2    1    2    0    0  0.35454400575E+02  0.80925290763E+01  0.46595780667E+02  0.12822914829E+03  0.11379386692E+03 0.  0.
          5    1    3    3  502    0  0.24345329283E+02  0.56509225780E+02  0.48322712708E+02  0.78348864826E+02  0.41800000000E+01 0. -1.
         -5    1    3    3    0  502  0.11109071292E+02 -0.48416696703E+02 -0.17269320409E+01  0.49880283469E+02  0.41800000000E+01 0.  1.
        -11    1    1    2    0    0 -0.61777209099E+02 -0.22157901408E+02  0.80048410416E+02  0.10351398055E+03  0.00000000000E+00 0. -1.
         11    1    1    2    0    0  0.26322808524E+02  0.14065372332E+02  0.62069666289E+02  0.68872116424E+02  0.00000000000E+00 0.  1.
</event>
<event>
 7    1  0.1620881E-005  0.1898500E+03  0.7561462E-02  0.1158597E+00
          1   -1    0    0  501    0  0.00000000000E+00  0.00000000000E+00  0.73374448515E+03  0.73374448515E+03  0.00000000000E+00 0. -1.
         -1   -1    0    0    0  501 -0.00000000000E+00 -0.00000000000E+00 -0.53172669772E+02  0.53172669772E+02  0.00000000000E+00 0.  1.
         23    2    1    2    0    0 -0.14708504268E+03  0.68204222982E+02  0.30742859931E+03  0.36938556073E+03  0.12509005951E+03 0.  0.
          5    1    3    3  502    0 -0.10040849447E+03 -0.13232726936E+02  0.21445347418E+03  0.23720188830E+03  0.41800000000E+01 0. -1.
         -5    1    3    3    0  502 -0.46676548212E+02  0.81436949918E+02  0.92975125129E+02  0.13218367243E+03  0.41800000000E+01 0. -1.
        -11    1    1    2    0    0  0.14510007105E+03 -0.32597247488E+02  0.26789371777E+03  0.30640439812E+03  0.00000000000E+00 0. -1.
         11    1    1    2    0    0  0.19849716279E+01 -0.35606975495E+02  0.10524949830E+03  0.11112719608E+03  0.00000000000E+00 0.  1.
</event>
<event>
 6    1  0.1620881E-005  0.1419732E+03  0.7561462E-02  0.1210698E+00
          1   -1    0    0  501    0  0.00000000000E+00  0.00000000000E+00  0.44238234304E+03  0.44238234304E+03  0.00000000000E+00 0. -1.
         -1   -1    0    0    0  501 -0.00000000000E+00 -0.00000000000E+00 -0.35599795965E+03  0.35599795965E+03  0.00000000000E+00 0.  1.
          5    1    1    2  502    0 -0.28723799724E+02 -0.47556873980E+02  0.57545480479E+02  0.80097862998E+02  0.41800000000E+01 0. -1.
         -5    1    1    2    0  502 -0.61795733136E+02 -0.55400473435E+02 -0.32121068742E+03  0.33178562838E+03  0.41800000000E+01 0.  1.
        -11    1    1    2    0    0  0.83593452575E+02  0.63250286932E+02  0.15363857900E+03  0.18599268014E+03  0.00000000000E+00 0. -1.
         11    1    1    2    0    0  0.69260802848E+01  0.39707060482E+02  0.19641101133E+03  0.20050413116E+03  0.00000000000E+00 0.  1.
</event>
<event>
 7    1  0.1620881E-005  0.1150415E+03  0.7561462E-02  0.1251509E+00
         -1   -1    0    0    0  501 -0.00000000000E+00  0.00000000000E+00  0.47636358856E+03  0.47636358856E+03  0.00000000000E+00 0.  1.
          1   -1    0    0  501    0  0.00000000000E+00 -0.00000000000E+00 -0.39402396544E+02  0.39402396544E+02  0.00000000000E+00 0. -1.
         23    2    1    2    0    0  0.42630998567E+02  0.42759415519E+02  0.34698637715E+03  0.37375403787E+03  0.12508703065E+03 0.  0.
          5    1    3    3  502    0  0.76383414406E+02 -0.88122658496E+01  0.18485913333E+03  0.20025597020E+03  0.41800000000E+01 0.  1.
         -5    1    3    3    0  502 -0.33752415838E+02  0.51571681369E+02  0.16212724382E+03  0.17349806766E+03  0.41800000000E+01 0.  1.
        -11    1    1    2    0    0  0.14942173869E+02 -0.28205212109E+02  0.73887701370E+02  0.80487234788E+02  0.00000000000E+00 0.  1.
         11    1    1    2    0    0 -0.57573172436E+02 -0.14554203410E+02  0.16087113491E+02  0.61524712447E+02  0.00000000000E+00 0. -1.
</event>
<event>
 7    1  0.1620881E-005  0.9983509E+02  0.7561462E-02  0.1280643E+00
          1   -1    0    0  501    0  0.00000000000E+00  0.00000000000E+00  0.60651483689E+03  0.60651483689E+03  0.00000000000E+00 0. -1.
         -1   -1    0    0    0  501 -0.00000000000E+00 -0.00000000000E+00 -0.31026285800E+02  0.31026285800E+02  0.00000000000E+00 0.  1.
         23    2    1    2    0    0  0.37967011559E+02  0.71512949694E+02  0.26431813294E+03  0.30342467518E+03  0.12508741809E+03 0.  0.
          5    1    3    3  502    0  0.59324171212E+02  0.71173565962E+02  0.26589041412E+03  0.28160294477E+03  0.41800000000E+01 0.  1.
         -5    1    3    3    0  502 -0.21357159653E+02  0.33938373153E+00 -0.15722811835E+01  0.21821730406E+02  0.41800000000E+01 0.  1.
        -11    1    1    2    0    0 -0.18600826700E+02 -0.10979345169E+02  0.60271079635E+01  0.22424602665E+02  0.00000000000E+00 0.  1.
         11    1    1    2    0    0 -0.19366184859E+02 -0.60533604525E+02  0.30514331019E+03  0.31169184485E+03  0.00000000000E+00 0. -1.
</event>
<event>
 7    1  0.1620881E-005  0.7888925E+02  0.7561462E-02  0.1332233E+00
          3   -1    0    0  501    0  0.00000000000E+00  0.00000000000E+00  0.65482923630E+03  0.65482923630E+03  0.00000000000E+00 0. -1.
         -3   -1    0    0    0  501 -0.00000000000E+00 -0.00000000000E+00 -0.20568473800E+02  0.20568473800E+02  0.00000000000E+00 0.  1.
         23    2    1    2    0    0  0.38593766434E+02  0.70515474105E+01  0.32465572138E+03  0.35012478207E+03  0.12508725941E+03 0.  0.
          5    1    3    3  502    0 -0.79850938589E+01  0.13322712713E+02 -0.52051314052E+01  0.16906276672E+02  0.41800000000E+01 0. -1.
         -5    1    3    3    0  502  0.46578860293E+02 -0.62711653021E+01  0.32986085279E+03  0.33321850540E+03  0.41800000000E+01 0. -1.
        -11    1    1    2    0    0  0.35769468604E+01 -0.40515951740E+02  0.83939831802E+02  0.93275035552E+02  0.00000000000E+00 0. -1.
         11    1    1    2    0    0 -0.42170713295E+02  0.33464404330E+02  0.22566520931E+03  0.23199789247E+03  0.00000000000E+00 0.  1.
</event>
<event>
 6    1  0.1620881E-005  0.2121762E+03  0.7561462E-02  0.1139854E+00
          1   -1    0    0  501    0  0.00000000000E+00  0.00000000000E+00  0.19113644358E+03  0.19113644358E+03  0.00000000000E+00 0. -1.
         -1   -1    0    0    0  501 -0.00000000000E+00 -0.00000000000E+00 -0.34269009224E+03  0.34269009224E+03  0.00000000000E+00 0.  1.
          5    1    1    2  502    0  0.11025085164E+03 -0.12847431776E+03 -0.20379408843E+03  0.26497245798E+03  0.41800000000E+01 0. -1.
         -5    1    1    2    0  502 -0.47906423885E+02  0.13783457769E+03  0.64197718711E+01  0.14612351669E+03  0.41800000000E+01 0.  1.
        -11    1    1    2    0    0  0.23137405328E+02 -0.17703283711E+01 -0.39283842322E+01  0.23535203219E+02  0.00000000000E+00 0.  1.
         11    1    1    2    0    0 -0.85481833086E+02 -0.75899315625E+01  0.49749052123E+02  0.99195357936E+02  0.00000000000E+00 0. -1.
</event>
<event>
 7    1  0.1620881E-005  0.7292733E+02  0.7561462E-02  0.1350412E+00
         -2   -1    0    0    0  501 -0.00000000000E+00  0.00000000000E+00  0.41705616788E+03  0.41705616788E+03  0.00000000000E+00 0.  1.
          2   -1    0    0  501    0  0.00000000000E+00 -0.00000000000E+00 -0.34823809033E+02  0.34823809033E+02  0.00000000000E+00 0. -1.
         23    2    1    2    0    0  0.28466786920E+02 -0.20975031431E+01  0.29130014608E+03  0.31830413435E+03  0.12508792650E+03 0.  0.
          5    1    3    3  502    0 -0.17009439205E+02 -0.31285353911E+02  0.24323299782E+03  0.24586146103E+03  0.41800000000E+01 0.  1.
         -5    1    3    3    0  502  0.45476226125E+02  0.29187850768E+02  0.48067148262E+02  0.72442673315E+02  0.41800000000E+01 0.  1.
        -11    1    1    2    0    0 -0.39538032868E+02  0.11607084082E+02  0.10531234036E+03  0.11308699959E+03  0.00000000000E+00 0.  1.
         11    1    1    2    0    0  0.11071245948E+02 -0.95095809390E+01 -0.14380127602E+02  0.20488842972E+02  0.00000000000E+00 0. -1.
</event>
<event>
 7    1  0.1620881E-005  0.8822355E+02  0.7561462E-02  0.1307212E+00
         -2   -1    0    0    0  501 -0.00000000000E+00  0.00000000000E+00  0.39554274967E+02  0.39554274967E+02  0.00000000000E+00 0.  1.
          2   -1    0    0  501    0  0.00000000000E+00 -0.00000000000E+00 -0.33168099669E+03  0.33168099669E+03  0.00000000000E+00 0. -1.
         23    2    1    2    0    0  0.50698676947E+01 -0.32955160058E+02 -0.14049791179E+03  0.19104587453E+03  0.12508843601E+03 0.  0.
          5    1    3    3  502    0  0.31180455392E+02  0.59949322956E+01 -0.14036038562E+03  0.14396760143E+03  0.41800000000E+01 0.  1.
         -5    1    3    3    0  502 -0.26110587697E+02 -0.38950092354E+02 -0.13752617768E+00  0.47078273096E+02  0.41800000000E+01 0.  1.
        -11    1    1    2    0    0 -0.48102893100E+02  0.22246769994E+02 -0.83544723625E+02  0.98936989773E+02  0.00000000000E+00 0. -1.
         11    1    1    2    0    0  0.43033025406E+02  0.10708390064E+02 -0.68084086304E+02  0.81252407356E+02  0.00000000000E+00 0.  1.
</event>
<event>
 7    1  0.1620881E-005  0.1287077E+03  0.7561462E-02  0.1229386E+00
         -4   -1    0    0    0  501 -0.00000000000E+00  0.00000000000E+00  0.17409457562E+03  0.17409457562E+03  0.00000000000E+00 0.  1.
          4   -1    0    0  501    0  0.00000000000E+00 -0.00000000000E+00 -0.11249327676E+03  0.11249327676E+03  0.00000000000E+00 0. -1.
         23    2    1    2    0    0  0.30943296509E+02 -0.65849332818E+02  0.82305221256E+02  0.16648038770E+03  0.12509175757E+03 0.  0.
          5    1    3    3  502    0  0.37188591597E+02  0.29984889505E+02  0.34828148420E+02  0.59266831077E+02  0.41800000000E+01 0. -1.
         -5    1    3    3    0  502 -0.62452950874E+01 -0.95834222323E+02  0.47477072837E+02  0.10721355662E+03  0.41800000000E+01 0. -1.
        -11    1    1    2    0    0  0.30266988087E+02  0.28823734963E+02 -0.24539482594E+02  0.48467354694E+02  0.00000000000E+00 0. -1.
         11    1    1    2    0    0 -0.61210284596E+02  0.37025597855E+02  0.38355601946E+01  0.71640109986E+02  0.00000000000E+00 0.  1.
</event>
<event>
 7    1  0.1620881E-005  0.1001003E+03  0.7561462E-02  0.1280085E+00
         -1   -1    0    0    0  501 -0.00000000000E+00  0.00000000000E+00  0.77070946147E+02  0.77070946147E+02  0.00000000000E+00 0.  1.
          1   -1    0    0  501    0  0.00000000000E+00 -0.00000000000E+00 -0.21474856354E+03  0.21474856354E+03  0.00000000000E+00 0. -1.
         23    2    1    2    0    0  0.90196647473E+01 -0.45202494192E+02 -0.20130866765E+02  0.13483292821E+03  0.12510014749E+03 0.  0.
          5    1    3    3  502    0 -0.37329020667E+02 -0.13810754018E+02  0.37168719708E+02  0.54618484373E+02  0.41800000000E+01 0.  1.
         -5    1    3    3    0  502  0.46348685415E+02 -0.31391740174E+02 -0.57299586473E+02  0.80214443842E+02  0.41800000000E+01 0.  1.
        -11    1    1    2    0    0  0.40654628518E+02  0.34293552860E+02 -0.61206666329E+02  0.81087006301E+02  0.00000000000E+00 0.  1.
         11    1    1    2    0    0 -0.49674293265E+02  0.10908941332E+02 -0.56340084298E+02  0.75899575170E+02  0.00000000000E+00 0. -1.
</event>
<event>
 7    1  0.1620881E-005  0.1170951E+03  0.7561462E-02  0.1247968E+00
         -1   -1    0    0    0  501 -0.00000000000E+00  0.00000000000E+00  0.25906610654E+03  0.25906610654E+03  0.00000000000E+00 0.  1.
          1   -1    0    0  501    0  0.00000000000E+00 -0.00000000000E+00 -0.63439835918E+02  0.63439835918E+02  0.00000000000E+00 0. -1.
         23    2    1    2    0    0  0.34054389136E+02  0.61264804810E+02  0.10421005211E+03  0.17725861781E+03  0.12509118634E+03 0.  0.
          5    1    3    3  502    0  0.45722172601E+02 -0.23987656966E+02  0.16619597973E+02  0.54402281118E+02  0.41800000000E+01 0.  1.
         -5    1    3    3    0  502 -0.11667783464E+02  0.85252461777E+02  0.87590454139E+02  0.12285633670E+03  0.41800000000E+01 0.  1.
        -11    1    1    2    0    0  0.19920027643E+02 -0.12632952561E+02  0.62938539870E+02  0.67213531321E+02  0.00000000000E+00 0.  1.
         11    1    1    2    0    0 -0.53974416780E+02 -0.48631852249E+02  0.28477678643E+02  0.78033793325E+02  0.00000000000E+00 0. -1.
</event>
<event>
 7    1  0.1620881E-005  0.1219083E+03  0.7561462E-02  0.1239982E+00
          1   -1    0    0  501    0  0.00000000000E+00  0.00000000000E+00  0.11583013893E+03  0.11583013893E+03  0.00000000000E+00 0. -1.
         -1   -1    0    0    0  501 -0.00000000000E+00 -0.00000000000E+00 -0.16047123390E+03  0.16047123390E+03  0.00000000000E+00 0.  1.
         23    2    1    2    0    0  0.78040698695E+02 -0.24368525836E+02 -0.29864175090E+02  0.15239371647E+03  0.12509116740E+03 0.  0.
          5    1    3    3  502    0  0.56136535837E+02 -0.73560058369E+02 -0.32904270900E+02  0.98298302562E+02  0.41800000000E+01 0.  1.
         -5    1    3    3    0  502  0.21904162858E+02  0.49191532533E+02  0.30400958098E+01  0.54095413909E+02  0.41800000000E+01 0.  1.
        -11    1    1    2    0    0 -0.76466621303E+02  0.36650748125E+02  0.19888103087E+02  0.87097406138E+02  0.00000000000E+00 0. -1.
         11    1    1    2    0    0 -0.15740773926E+01 -0.12282222289E+02 -0.34665022969E+02  0.36810250222E+02  0.00000000000E+00 0.  1.
</event>
<event>
 7    1  0.1620881E-005  0.8739788E+02  0.7561462E-02  0.1309278E+00
          1   -1    0    0  501    0  0.00000000000E+00  0.00000000000E+00  0.57130663730E+02  0.57130663730E+02  0.00000000000E+00 0. -1.
         -1   -1    0    0    0  501 -0.00000000000E+00 -0.00000000000E+00 -0.23536074585E+03  0.23536074585E+03  0.00000000000E+00 0.  1.
         23    2    1    2    0    0 -0.23144926893E+02 -0.35204104662E+02 -0.10936523850E+03  0.17141673874E+03  0.12509167159E+03 0.  0.
          5    1    3    3  502    0 -0.20468436040E+01  0.22810503533E+02 -0.10699465490E+03  0.10949811513E+03  0.41800000000E+01 0.  1.
         -5    1    3    3    0  502 -0.21098083289E+02 -0.58014608195E+02 -0.23705835987E+01  0.61918623605E+02  0.41800000000E+01 0.  1.
        -11    1    1    2    0    0  0.49035576932E+02  0.41500698948E+01 -0.63427919594E+02  0.80279585632E+02  0.00000000000E+00 0.  1.
         11    1    1    2    0    0 -0.25890650039E+02  0.31054034767E+02 -0.54369240308E+01  0.40795085215E+02  0.00000000000E+00 0. -1.
</event>
<event>
 7    1  0.1620881E-005  0.1776423E+03  0.7561462E-02  0.1170105E+00
          2   -1    0    0  501    0  0.00000000000E+00  0.00000000000E+00  0.75143070315E+03  0.75143070315E+03  0.00000000000E+00 0. -1.
         -2   -1    0    0    0  501 -0.00000000000E+00 -0.00000000000E+00 -0.62007996752E+02  0.62007996752E+02  0.00000000000E+00 0.  1.
         23    2    1    2    0    0 -0.14262620658E+03 -0.83981267593E+02  0.19815727220E+03  0.28689558080E+03  0.12509069370E+03 0.  0.
          5    1    3    3  502    0 -0.98717588240E+02 -0.85553946767E+02  0.63730024854E+02  0.14540848841E+03  0.41800000000E+01 0. -1.
         -5    1    3    3    0  502 -0.43908618336E+02  0.15726791736E+01  0.13442724735E+03  0.14148709239E+03  0.41800000000E+01 0. -1.
        -11    1    1    2    0    0  0.97419628207E+02  0.92625908178E+02  0.28370003111E+03  0.31393606113E+03  0.00000000000E+00 0. -1.
         11    1    1    2    0    0  0.45206578368E+02 -0.86446405848E+01  0.20756540309E+03  0.21260705797E+03  0.00000000000E+00 0.  1.
</event>
<event>
 7    1  0.1620881E-005  0.1952097E+03  0.7561462E-02  0.1153845E+00
         -2   -1    0    0    0  501 -0.00000000000E+00  0.00000000000E+00  0.52709319822E+02  0.52709319822E+02  0.00000000000E+00 0. -1.
          2   -1    0    0  501    0  0.00000000000E+00 -0.00000000000E+00 -0.84463451578E+03  0.84463451578E+03  0.00000000000E+00 0.  1.
         23    2    1    2    0    0 -0.17073237606E+03 -0.59479569314E+02 -0.43502691758E+03  0.48741799033E+03  0.12506204413E+03 0.  0.
          5    1    3    3  502    0 -0.10650076319E+03  0.11825410042E+01 -0.12137569055E+03  0.16153433573E+03  0.41800000000E+01 0.  1.
         -5    1    3    3    0  502 -0.64231612865E+02 -0.60662110318E+02 -0.31365122703E+03  0.32588365460E+03  0.41800000000E+01 0.  1.
        -11    1    1    2    0    0  0.48131549092E+02  0.54456276097E+02 -0.86434238593E+02  0.11292922397E+03  0.00000000000E+00 0. -1.
         11    1    1    2    0    0  0.12260082696E+03  0.50232932168E+01 -0.27046403978E+03  0.29699662130E+03  0.00000000000E+00 0.  1.
</event>
<event>
 7    1  0.1620881E-005  0.1053078E+03  0.7561462E-02  0.1269514E+00
          1   -1    0    0  501    0  0.00000000000E+00  0.00000000000E+00  0.27091492867E+02  0.27091492867E+02  0.00000000000E+00 0. -1.
         -1   -1    0    0    0  501 -0.00000000000E+00 -0.00000000000E+00 -0.45656043272E+03  0.45656043272E+03  0.00000000000E+00 0.  1.
         23    2    1    2    0    0 -0.96844194341E+01 -0.17504680373E+02 -0.27074478904E+03  0.29891578909E+03  0.12509079245E+03 0.  0.
          5    1    3    3  502    0  0.93044979695E+01  0.51428437291E+02 -0.85356870678E+02  0.10017347761E+03  0.41800000000E+01 0.  1.
         -5    1    3    3    0  502 -0.18988917404E+02 -0.68933117664E+02 -0.18538791837E+03  0.19874231148E+03  0.41800000000E+01 0.  1.
        -11    1    1    2    0    0  0.22857160721E+02 -0.29743956823E+02 -0.33670868144E+02  0.50407143594E+02  0.00000000000E+00 0. -1.
         11    1    1    2    0    0 -0.13172741287E+02  0.47248637196E+02 -0.12505328267E+03  0.13432899291E+03  0.00000000000E+00 0.  1.
</event>
<event>
 7    1  0.1620881E-005  0.1059586E+03  0.7561462E-02  0.1268242E+00
         -1   -1    0    0    0  501 -0.00000000000E+00  0.00000000000E+00  0.25188189760E+03  0.25188189760E+03  0.00000000000E+00 0.  1.
          1   -1    0    0  501    0  0.00000000000E+00 -0.00000000000E+00 -0.59484721969E+02  0.59484721969E+02  0.00000000000E+00 0. -1.
         23    2    1    2    0    0 -0.28451854481E+02 -0.93999447293E+01  0.17146586489E+03  0.21434932572E+03  0.12508886294E+03 0.  0.
          5    1    3    3  502    0  0.21432081737E+02 -0.54998242089E+02  0.97648826847E+02  0.11417927371E+03  0.41800000000E+01 0.  1.
         -5    1    3    3    0  502 -0.49883936218E+02  0.45598297360E+02  0.73817038042E+02  0.10017005201E+03  0.41800000000E+01 0.  1.
        -11    1    1    2    0    0 -0.27385045523E+02  0.10100084955E+02 -0.12698969345E+02  0.31831058053E+02  0.00000000000E+00 0. -1.
         11    1    1    2    0    0  0.55836900004E+02 -0.70014022565E+00  0.33630280088E+02  0.65186235795E+02  0.00000000000E+00 0.  1.
</event>
<event>
 7    1  0.1620881E-005  0.8181339E+02  0.7561462E-02  0.1323983E+00
         -1   -1    0    0    0  501 -0.00000000000E+00  0.00000000000E+00  0.24813241683E+03  0.24813241683E+03  0.00000000000E+00 0.  1.
          1   -1    0    0  501    0  0.00000000000E+00 -0.00000000000E+00 -0.94285985147E+02  0.94285985147E+02  0.00000000000E+00 0. -1.
         23    2    1    2    0    0 -0.45666812342E+02  0.51275948988E+02  0.17245568815E+03  0.22383859047E+03  0.12509224401E+03 0.  0.
          5    1    3    3  502    0 -0.11995898798E+02  0.13692510642E+02 -0.18497073020E+02  0.26286889240E+02  0.41800000000E+01 0.  1.
         -5    1    3    3    0  502 -0.33670913544E+02  0.37583438346E+02  0.19095276117E+03  0.19755170122E+03  0.41800000000E+01 0.  1.
        -11    1    1    2    0    0 -0.12247291541E+02  0.53079603636E+01  0.23717817819E+02  0.27215904824E+02  0.00000000000E+00 0.  1.
         11    1    1    2    0    0  0.57914103882E+02 -0.56583909351E+02 -0.42327074295E+02  0.91363906683E+02  0.00000000000E+00 0. -1.
</event>
<event>
 7    1  0.1620881E-005  0.1037249E+03  0.7561462E-02  0.1272652E+00
         -3   -1    0    0    0  501 -0.00000000000E+00  0.00000000000E+00  0.37394320849E+03  0.37394320849E+03  0.00000000000E+00 0.  1.
          3   -1    0    0  501    0  0.00000000000E+00 -0.00000000000E+00 -0.39297644676E+02  0.39297644676E+02  0.00000000000E+00 0. -1.
         23    2    1    2    0    0  0.28662993504E+02 -0.97666015818E+00  0.26061437459E+03  0.29049811583E+03  0.12508709766E+03 0.  0.
          5    1    3    3  502    0 -0.43797706938E+02 -0.25880584620E+02  0.91128500628E+02  0.10445056161E+03  0.41800000000E+01 0. -1.
         -5    1    3    3    0  502  0.72460700443E+02  0.24903924462E+02  0.16948587396E+03  0.18604755423E+03  0.41800000000E+01 0. -1.
        -11    1    1    2    0    0  0.25488051018E+02 -0.62967784638E+00 -0.59121033893E+01  0.26172317539E+02  0.00000000000E+00 0. -1.
         11    1    1    2    0    0 -0.54151044522E+02  0.16063380046E+01  0.79943292618E+02  0.96570419794E+02  0.00000000000E+00 0.  1.
</event>
<event>
 7    1  0.1620881E-005  0.1154920E+03  0.7561462E-02  0.1250725E+00
         -2   -1    0    0    0  501 -0.00000000000E+00  0.00000000000E+00  0.43305422735E+03  0.43305422735E+03  0.00000000000E+00 0.  1.
          2   -1    0    0  501    0  0.00000000000E+00 -0.00000000000E+00 -0.44203175512E+02  0.44203175512E+02  0.00000000000E+00 0. -1.
         23    2    1    2    0    0 -0.60577695077E+02 -0.12043737177E+02  0.33124323908E+03  0.35942187132E+03  0.12508912585E+03 0.  0.
          5    1    3    3  502    0 -0.87785457593E+02 -0.35862130440E+02  0.28607544534E+03  0.30141169816E+03  0.41800000000E+01 0. -1.
         -5    1    3    3    0  502  0.27207762516E+02  0.23818393263E+02  0.45167793741E+02  0.58010173161E+02  0.41800000000E+01 0. -1.
        -11    1    1    2    0    0  0.12572186049E+01  0.35756151692E+02  0.35049521558E+02  0.50085446428E+02  0.00000000000E+00 0.  1.
         11    1    1    2    0    0  0.59320476472E+02 -0.23712414515E+02  0.22558291207E+02  0.67750085116E+02  0.00000000000E+00 0. -1.
</event>
<event>
 7    1  0.1620881E-005  0.1215094E+03  0.7561462E-02  0.1240628E+00
         -1   -1    0    0    0  501 -0.00000000000E+00  0.00000000000E+00  0.13221824514E+03  0.13221824514E+03  0.00000000000E+00 0.  1.
          1   -1    0    0  501    0  0.00000000000E+00 -0.00000000000E+00 -0.19101443245E+03  0.19101443245E+03  0.00000000000E+00 0. -1.
         23    2    1    2    0    0  0.72384064850E+02  0.48652029433E+02  0.46780440922E+02  0.15950592173E+03  0.12508899473E+03 0.  0.
          5    1    3    3  502    0  0.34467235632E+02  0.89743665434E+02  0.33456148648E+02  0.10187591521E+03  0.41800000000E+01 0. -1.
         -5    1    3    3    0  502  0.37916829218E+02 -0.41091636002E+02  0.13324292274E+02  0.57630006523E+02  0.41800000000E+01 0. -1.
        -11    1    1    2    0    0 -0.26080400382E+02 -0.32531020462E+02 -0.10683285080E+03  0.11468091640E+03  0.00000000000E+00 0. -1.
         11    1    1    2    0    0 -0.46303664468E+02 -0.16121008971E+02  0.12562225685E+01  0.49045839462E+02  0.00000000000E+00 0.  1.
</event>
<event>
 7    1  0.1620881E-005  0.8413214E+02  0.7561462E-02  0.1317718E+00
          2   -1    0    0  501    0  0.00000000000E+00  0.00000000000E+00  0.28821472086E+03  0.28821472086E+03  0.00000000000E+00 0. -1.
         -2   -1    0    0    0  501 -0.00000000000E+00 -0.00000000000E+00 -0.50679276732E+02  0.50679276732E+02  0.00000000000E+00 0.  1.
         23    2    1    2    0    0  0.34544698649E+02  0.13015671735E+01  0.68955747697E+02  0.14695814449E+03  0.12508705293E+03 0.  0.
          5    1    3    3  502    0 -0.56952057838E+01  0.33981087009E+02 -0.22773300594E+02  0.41511989391E+02  0.41800000000E+01 0.  1.
         -5    1    3    3    0  502  0.40239904433E+02 -0.32679519836E+02  0.91729048291E+02  0.10544615510E+03  0.41800000000E+01 0.  1.
        -11    1    1    2    0    0 -0.55249861882E+02 -0.14341547405E+02  0.69786909694E+02  0.90157861468E+02  0.00000000000E+00 0.  1.
         11    1    1    2    0    0  0.20705163233E+02  0.13039980231E+02  0.98792786741E+02  0.10177799163E+03  0.00000000000E+00 0. -1.
</event>
<event>
 7    1  0.1620881E-005  0.1117583E+03  0.7561462E-02  0.1257348E+00
         -2   -1    0    0    0  501 -0.00000000000E+00  0.00000000000E+00  0.28738179139E+02  0.28738179139E+02  0.00000000000E+00 0.  1.
          2   -1    0    0  501    0  0.00000000000E+00 -0.00000000000E+00 -0.49555651231E+03  0.49555651231E+03  0.00000000000E+00 0. -1.
         23    2    1    2    0    0 -0.19813432677E+02 -0.41760614282E+02 -0.22537635558E+03  0.26187513398E+03  0.12509021995E+03 0.  0.
          5    1    3    3  502    0 -0.70331609502E+02 -0.33833214171E+02 -0.16547467006E+03  0.18300426363E+03  0.41800000000E+01 0.  1.
         -5    1    3    3    0  502  0.50518176825E+02 -0.79274001114E+01 -0.59901685519E+02  0.78870870353E+02  0.41800000000E+01 0.  1.
        -11    1    1    2    0    0  0.23985042713E+02  0.65601377434E+02 -0.12226999579E+03  0.14081468271E+03  0.00000000000E+00 0.  1.
         11    1    1    2    0    0 -0.41716100362E+01 -0.23840763152E+02 -0.11917198180E+03  0.12160487476E+03  0.00000000000E+00 0. -1.
</event>
<event>
 7    1  0.1620881E-005  0.1587685E+03  0.7561462E-02  0.1190094E+00
          2   -1    0    0  501    0  0.00000000000E+00  0.00000000000E+00  0.37175997341E+03  0.37175997341E+03  0.00000000000E+00 0. -1.
         -2   -1    0    0    0  501 -0.00000000000E+00 -0.00000000000E+00 -0.86790262682E+02  0.86790262682E+02  0.00000000000E+00 0.  1.
         23    2    1    2    0    0  0.25425996922E+02 -0.13973317807E+03  0.12955876554E+03  0.22937558889E+03  0.12512331789E+03 0.  0.
          5    1    3    3  502    0  0.49170305061E+02 -0.10821681759E+03  0.30677932862E+02  0.12282999012E+03  0.41800000000E+01 0. -1.
         -5    1    3    3    0  502 -0.23744308140E+02 -0.31516360479E+02  0.98880832674E+02  0.10654559877E+03  0.41800000000E+01 0. -1.
        -11    1    1    2    0    0 -0.45184543727E+02  0.51550305942E+02  0.10584686895E+03  0.12610565690E+03  0.00000000000E+00 0. -1.
         11    1    1    2    0    0  0.19758546806E+02  0.88182872126E+02  0.49564076237E+02  0.10306899030E+03  0.00000000000E+00 0.  1.
</event>
<event>
 7    1  0.1620881E-005  0.8526813E+02  0.7561462E-02  0.1314733E+00
          1   -1    0    0  501    0  0.00000000000E+00  0.00000000000E+00  0.62421127314E+02  0.62421127314E+02  0.00000000000E+00 0. -1.
         -1   -1    0    0    0  501 -0.00000000000E+00 -0.00000000000E+00 -0.21901562040E+03  0.21901562040E+03  0.00000000000E+00 0.  1.
         23    2    1    2    0    0  0.36586681124E+02  0.32789622174E+02 -0.92742555343E+02  0.16328637926E+03  0.12509002966E+03 0.  0.
          5    1    3    3  502    0  0.56483960452E+01 -0.40383824812E+02 -0.69011755009E+02  0.80267380758E+02  0.41800000000E+01 0. -1.
         -5    1    3    3    0  502  0.30938285079E+02  0.73173446986E+02 -0.23730800334E+02  0.83018998500E+02  0.41800000000E+01 0. -1.
        -11    1    1    2    0    0 -0.19796021704E+02 -0.23759812669E+02  0.16856020957E+02  0.35221252333E+02  0.00000000000E+00 0. -1.
         11    1    1    2    0    0 -0.16790659420E+02 -0.90298095052E+01 -0.80707958697E+02  0.82929116120E+02  0.00000000000E+00 0.  1.
</event>
<event>
 7    1  0.1620881E-005  0.1148768E+03  0.7561462E-02  0.1251796E+00
          3   -1    0    0  501    0  0.00000000000E+00  0.00000000000E+00  0.56909910700E+02  0.56909910700E+02  0.00000000000E+00 0. -1.
         -3   -1    0    0    0  501 -0.00000000000E+00 -0.00000000000E+00 -0.30946270375E+03  0.30946270375E+03  0.00000000000E+00 0.  1.
         23    2    1    2    0    0 -0.15585470779E+02  0.55450021790E+02 -0.20793635521E+03  0.24940477747E+03  0.12509038090E+03 0.  0.
          5    1    3    3  502    0  0.47157173482E+02  0.43608641171E+02 -0.14942647839E+03  0.16269989994E+03  0.41800000000E+01 0. -1.
         -5    1    3    3    0  502 -0.62742644260E+02  0.11841380620E+02 -0.58509876818E+02  0.86704877538E+02  0.41800000000E+01 0. -1.
        -11    1    1    2    0    0 -0.10788823666E+02  0.19312822778E+02 -0.28482347966E+02  0.36064220294E+02  0.00000000000E+00 0.  1.
         11    1    1    2    0    0  0.26374294445E+02 -0.74762844568E+02 -0.16134089873E+02  0.80903616677E+02  0.00000000000E+00 0. -1.
</event>
<event>
 7    1  0.1620881E-005  0.1564457E+03  0.7561462E-02  0.1192769E+00
          2   -1    0    0  501    0  0.00000000000E+00  0.00000000000E+00  0.90834777400E+03  0.90834777400E+03  0.00000000000E+00 0. -1.
         -2   -1    0    0    0  501 -0.00000000000E+00 -0.00000000000E+00 -0.31471267105E+02  0.31471267105E+02  0.00000000000E+00 0.  1.
         23    2    1    2    0    0  0.12269108449E+03  0.15827923871E+01  0.35301324265E+03  0.39410805593E+03  0.12508877974E+03 0.  0.
          5    1    3    3  502    0  0.78103881851E+02  0.52313537866E+02  0.12622399110E+03  0.15743853065E+03  0.41800000000E+01 0.  1.
         -5    1    3    3    0  502  0.44587202637E+02 -0.50730745479E+02  0.22678925155E+03  0.23666952528E+03  0.41800000000E+01 0.  1.
        -11    1    1    2    0    0 -0.12013976354E+03 -0.28998817400E+02  0.45658751236E+03  0.47301865782E+03  0.00000000000E+00 0.  1.
         11    1    1    2    0    0 -0.25513209439E+01  0.27416025013E+02  0.67275751880E+02  0.72692327361E+02  0.00000000000E+00 0. -1.
</event>
<event>
 7    1  0.1620881E-005  0.1069809E+03  0.7561462E-02  0.1266265E+00
          1   -1    0    0  501    0  0.00000000000E+00  0.00000000000E+00  0.74511300023E+03  0.74511300023E+03  0.00000000000E+00 0. -1.
         -1   -1    0    0    0  501 -0.00000000000E+00 -0.00000000000E+00 -0.19629604487E+02  0.19629604487E+02  0.00000000000E+00 0.  1.
         23    2    1    2    0    0  0.23692778015E+02 -0.11234562828E+02  0.25995771319E+03  0.28967899401E+03  0.12509334031E+03 0.  0.
          5    1    3    3  502    0  0.21221911513E+02 -0.64519029464E+02  0.99566293015E+02  0.12059848173E+03  0.41800000000E+01 0. -1.
         -5    1    3    3    0  502  0.24708665016E+01  0.53284466636E+02  0.16039142017E+03  0.16908051228E+03  0.41800000000E+01 0. -1.
        -11    1    1    2    0    0 -0.48245160165E+02  0.33923329202E+02  0.34420432842E+03  0.34922057134E+03  0.00000000000E+00 0.  1.
         11    1    1    2    0    0  0.24552382150E+02 -0.22688766374E+02  0.12132135414E+03  0.12584303937E+03  0.00000000000E+00 0. -1.
</event>
<event>
 7    1  0.1620881E-005  0.1084558E+03  0.7561462E-02  0.1263456E+00
          1   -1    0    0  501    0  0.00000000000E+00  0.00000000000E+00  0.20101715126E+03  0.20101715126E+03  0.00000000000E+00 0. -1.
         -1   -1    0    0    0  501 -0.00000000000E+00 -0.00000000000E+00 -0.65154777106E+02  0.65154777106E+02  0.00000000000E+00 0.  1.
         23    2    1    2    0    0  0.32097932347E+02  0.48084782158E+01  0.51363671984E+02  0.13906442991E+03  0.12508912879E+03 0.  0.
          5    1    3    3  502    0 -0.42014745990E+02 -0.25157003884E+02  0.18040461397E+02  0.52354984218E+02  0.41800000000E+01 0.  1.
         -5    1    3    3    0  502  0.74112678338E+02  0.29965482100E+02  0.33323210587E+02  0.86709445689E+02  0.41800000000E+01 0.  1.
        -11    1    1    2    0    0 -0.70339152574E+01  0.37707799363E+02  0.13550531112E+02  0.40681334664E+02  0.00000000000E+00 0.  1.
         11    1    1    2    0    0 -0.25064017090E+02 -0.42516277579E+02  0.70948171057E+02  0.86426163794E+02  0.00000000000E+00 0. -1.
</event>
<event>
 7    1  0.1620881E-005  0.1011433E+03  0.7561462E-02  0.1277910E+00
          1   -1    0    0  501    0  0.00000000000E+00  0.00000000000E+00  0.97915339972E+02  0.97915339972E+02  0.00000000000E+00 0. -1.
         -1   -1    0    0    0  501 -0.00000000000E+00 -0.00000000000E+00 -0.15705513986E+03  0.15705513986E+03  0.00000000000E+00 0.  1.
         23    2    1    2    0    0 -0.47034107435E+02 -0.30726991282E+02 -0.65779913932E+02  0.15209047446E+03  0.12509260605E+03 0.  0.
          5    1    3    3  502    0 -0.36233800036E+02  0.34346831969E+02 -0.69745963144E+02  0.85875286935E+02  0.41800000000E+01 0. -1.
         -5    1    3    3    0  502 -0.10800307399E+02 -0.65073823251E+02  0.39660492125E+01  0.66215187524E+02  0.41800000000E+01 0. -1.
        -11    1    1    2    0    0  0.16416808120E+02 -0.20589686641E+02 -0.24085654161E+02  0.35687049769E+02  0.00000000000E+00 0.  1.
         11    1    1    2    0    0  0.30617299315E+02  0.51316677924E+02  0.30725768207E+02  0.67192955601E+02  0.00000000000E+00 0. -1.
</event>
<event>
 7    1  0.2944793E-005  0.3103200E+03  0.7561462E-02  0.1080193E+00
          1   -1    0    0  501    0  0.00000000000E+00  0.00000000000E+00  0.14191798443E+03  0.14191798443E+03  0.00000000000E+00 0.  1.
         -1   -1    0    0    0  501 -0.00000000000E+00 -0.00000000000E+00 -0.73320297464E+03  0.73320297464E+03  0.00000000000E+00 0. -1.
         23    2    1    2    0    0  0.14379166146E+03 -0.26060087544E+03 -0.38065185283E+03  0.49913165403E+03  0.12509083422E+03 0.  0.
          5    1    3    3  502    0  0.15102639685E+03 -0.15368961438E+03 -0.26010601303E+03  0.33778999472E+03  0.41800000000E+01 0.  1.
         -5    1    3    3    0  502 -0.72347353926E+01 -0.10691126105E+03 -0.12054583980E+03  0.16134165931E+03  0.41800000000E+01 0.  1.
        -11    1    1    2    0    0 -0.59989320747E+02  0.12125864340E+03 -0.15114563267E+03  0.20284816854E+03  0.00000000000E+00 0. -1.
         11    1    1    2    0    0 -0.83802340712E+02  0.13934223203E+03 -0.59487504712E+02  0.17314113652E+03  0.00000000000E+00 0.  1.
</event>
<event>
 7    1  0.1620881E-005  0.1265217E+03  0.7561462E-02  0.1232710E+00
         -2   -1    0    0    0  501 -0.00000000000E+00  0.00000000000E+00  0.55398253981E+03  0.55398253981E+03  0.00000000000E+00 0.  1.
          2   -1    0    0  501    0  0.00000000000E+00 -0.00000000000E+00 -0.34187410494E+02  0.34187410494E+02  0.00000000000E+00 0. -1.
         23    2    1    2    0    0  0.55821293426E+02  0.63492194260E+02  0.29459146297E+03  0.33102743493E+03  0.12509099526E+03 0.  0.
          5    1    3    3  502    0  0.60260293487E+02 -0.22713323366E+02  0.12893294156E+03  0.14418173896E+03  0.41800000000E+01 0.  1.
         -5    1    3    3    0  502 -0.44390000609E+01  0.86205517626E+02  0.16565852140E+03  0.18684569598E+03  0.41800000000E+01 0.  1.
        -11    1    1    2    0    0 -0.40526762346E+02 -0.40715778696E+01  0.16932048172E+03  0.17415057204E+03  0.00000000000E+00 0.  1.
         11    1    1    2    0    0 -0.15294531080E+02 -0.59420616390E+02  0.55883184636E+02  0.82991943333E+02  0.00000000000E+00 0. -1.
</event>
<event>
 7    1  0.1620881E-005  0.9081762E+02  0.7561462E-02  0.1300884E+00
          1   -1    0    0  501    0  0.00000000000E+00  0.00000000000E+00  0.35010128576E+03  0.35010128576E+03  0.00000000000E+00 0. -1.
         -1   -1    0    0    0  501 -0.00000000000E+00 -0.00000000000E+00 -0.43289489141E+02  0.43289489141E+02  0.00000000000E+00 0.  1.
         23    2    1    2    0    0  0.19547571972E+02  0.17955758038E+02  0.90166337913E+02  0.15646694435E+03  0.12508964532E+03 0.  0.
          5    1    3    3  502    0  0.11768387456E+02 -0.45017198337E+02  0.72275794919E+00  0.46722990792E+02  0.41800000000E+01 0.  1.
         -5    1    3    3    0  502  0.77791845156E+01  0.62972956376E+02  0.89443579964E+02  0.10974395356E+03  0.41800000000E+01 0.  1.
        -11    1    1    2    0    0  0.24712992976E+02 -0.78409728935E+01  0.14425801224E+02  0.29670130075E+02  0.00000000000E+00 0. -1.
         11    1    1    2    0    0 -0.44260564948E+02 -0.10114785145E+02  0.20221965748E+03  0.20725370048E+03  0.00000000000E+00 0.  1.
</event>
<event>
 7    1  0.1620881E-005  0.1243785E+03  0.7561462E-02  0.1236044E+00
          1   -1    0    0  501    0  0.00000000000E+00  0.00000000000E+00  0.73894816013E+02  0.73894816013E+02  0.00000000000E+00 0. -1.
         -1   -1    0    0    0  501 -0.00000000000E+00 -0.00000000000E+00 -0.23554342254E+03  0.23554342254E+03  0.00000000000E+00 0.  1.
         23    2    1    2    0    0  0.33131757256E+02  0.24040342664E+02 -0.66309981510E+02  0.14737854266E+03  0.12509104594E+03 0.  0.
          5    1    3    3  502    0 -0.12537809685E+02  0.63064633650E+02 -0.10516444318E+02  0.65287155630E+02  0.41800000000E+01 0. -1.
         -5    1    3    3    0  502  0.45669566941E+02 -0.39024290986E+02 -0.55793537192E+02  0.82091387026E+02  0.41800000000E+01 0. -1.
        -11    1    1    2    0    0  0.44311430519E+02 -0.86718428831E+01 -0.10879916886E+02  0.46444335769E+02  0.00000000000E+00 0. -1.
         11    1    1    2    0    0 -0.77443187775E+02 -0.15368499781E+02 -0.84458708133E+02  0.11561536013E+03  0.00000000000E+00 0.  1.
</event>
<event>
 7    1  0.1620881E-005  0.1499649E+03  0.7561462E-02  0.1200516E+00
         -2   -1    0    0    0  501 -0.00000000000E+00  0.00000000000E+00  0.60764214664E+02  0.60764214664E+02  0.00000000000E+00 0.  1.
          2   -1    0    0  501    0  0.00000000000E+00 -0.00000000000E+00 -0.39540511564E+03  0.39540511564E+03  0.00000000000E+00 0. -1.
         23    2    1    2    0    0 -0.65542087267E+02 -0.87292709761E+02 -0.16482674273E+03  0.23394827648E+03  0.12509259996E+03 0.  0.
          5    1    3    3  502    0 -0.96527739520E+02 -0.87406838370E+02 -0.10860582502E+03  0.16961797523E+03  0.41800000000E+01 0.  1.
         -5    1    3    3    0  502  0.30985652253E+02  0.11412860932E+00 -0.56220917708E+02  0.64330301249E+02  0.41800000000E+01 0.  1.
        -11    1    1    2    0    0  0.15025229333E+02 -0.16880809399E+02 -0.96013806758E+01  0.24554139231E+02  0.00000000000E+00 0.  1.
         11    1    1    2    0    0  0.50516857934E+02  0.10417351916E+03 -0.16021277757E+03  0.19766691459E+03  0.00000000000E+00 0. -1.
</event>
<event>
 7    1  0.1620881E-005  0.1177034E+03  0.7561462E-02  0.1246934E+00
         -2   -1    0    0    0  501 -0.00000000000E+00  0.00000000000E+00  0.19134149534E+03  0.19134149534E+03  0.00000000000E+00 0.  1.
          2   -1    0    0  501    0  0.00000000000E+00 -0.00000000000E+00 -0.10077745562E+03  0.10077745562E+03  0.00000000000E+00 0. -1.
         23    2    1    2    0    0 -0.44187743245E+02 -0.31707196952E+02  0.12204766565E+03  0.18303559086E+03  0.12509393207E+03 0.  0.
          5    1    3    3  502    0 -0.16379299617E+02 -0.76947735031E+02  0.94608420972E+02  0.12311564117E+03  0.41800000000E+01 0. -1.
         -5    1    3    3    0  502 -0.27808443629E+02  0.45240538078E+02  0.27439244675E+02  0.59919949691E+02  0.41800000000E+01 0. -1.
        -11    1    1    2    0    0  0.28075538554E+02 -0.29108769292E+02 -0.20047840363E+02  0.45138367472E+02  0.00000000000E+00 0.  1.
         11    1    1    2    0    0  0.16112204692E+02  0.60815966245E+02 -0.11435785559E+02  0.63944992624E+02  0.00000000000E+00 0. -1.
</event>
<event>
 7    1  0.1620881E-005  0.1630579E+03  0.7561462E-02  0.1185287E+00
          1   -1    0    0  501    0  0.00000000000E+00  0.00000000000E+00  0.73098800176E+02  0.73098800176E+02  0.00000000000E+00 0. -1.
         -1   -1    0    0    0  501 -0.00000000000E+00 -0.00000000000E+00 -0.53691772956E+03  0.53691772956E+03  0.00000000000E+00 0.  1.
         23    2    1    2    0    0 -0.79985565995E+02  0.11323071932E+03 -0.38012906287E+03  0.42351442158E+03  0.12508986485E+03 0.  0.
          5    1    3    3  502    0 -0.20351738362E+02 -0.26457140870E+02 -0.52280907032E+02  0.62168635158E+02  0.41800000000E+01 0.  1.
         -5    1    3    3    0  502 -0.59633827633E+02  0.13968786019E+03 -0.32784815584E+03  0.36134578643E+03  0.41800000000E+01 0.  1.
        -11    1    1    2    0    0  0.41180398307E+02 -0.77610205784E+02 -0.28875119401E+00  0.87859277392E+02  0.00000000000E+00 0. -1.
         11    1    1    2    0    0  0.38805167688E+02 -0.35620513534E+02 -0.83401115318E+02  0.98642830758E+02  0.00000000000E+00 0.  1.
</event>
<event>
 7    1  0.1620881E-005  0.1978602E+03  0.7561462E-02  0.1151557E+00
         -1   -1    0    0    0  501 -0.00000000000E+00  0.00000000000E+00  0.19436402908E+03  0.19436402908E+03  0.00000000000E+00 0.  1.
          1   -1    0    0  501    0  0.00000000000E+00 -0.00000000000E+00 -0.28782852373E+03  0.28782852373E+03  0.00000000000E+00 0. -1.
         23    2    1    2    0    0 -0.15221614335E+02 -0.16868056535E+03  0.78231847080E+02  0.22461691953E+03  0.12509079891E+03 0.  0.
          5    1    3    3  502    0 -0.67222818006E+02 -0.12435619214E+03  0.61041226260E+02  0.15403529949E+03  0.41800000000E+01 0. -1.
         -5    1    3    3    0  502  0.52001203670E+02 -0.44324373208E+02  0.17190620821E+02  0.70581620041E+02  0.41800000000E+01 0. -1.
        -11    1    1    2    0    0  0.46156225226E+02  0.86768472798E+02 -0.12280920282E+03  0.15729356406E+03  0.00000000000E+00 0. -1.
         11    1    1    2    0    0 -0.30934610891E+02  0.81912092553E+02 -0.48887138913E+02  0.10028206923E+03  0.00000000000E+00 0.  1.
</event>
<event>
 7    1  0.1620881E-005  0.8574286E+02  0.7561462E-02  0.1313501E+00
          3   -1    0    0  501    0  0.00000000000E+00  0.00000000000E+00  0.14156155945E+03  0.14156155945E+03  0.00000000000E+00 0. -1.
         -3   -1    0    0    0  501 -0.00000000000E+00 -0.00000000000E+00 -0.97373604205E+02  0.97373604205E+02  0.00000000000E+00 0.  1.
         23    2    1    2    0    0 -0.18154464934E+02 -0.53581661330E+02 -0.16154737512E+01  0.12460470150E+03  0.11100965207E+03 0.  0.
          5    1    3    3  502    0 -0.32550310405E+02 -0.64874090014E+02 -0.39198342980E+02  0.82596324101E+02  0.41800000000E+01 0. -1.
         -5    1    3    3    0  502  0.14395845471E+02  0.11292428684E+02  0.37582869229E+02  0.42008377401E+02  0.41800000000E+01 0.  1.
        -11    1    1    2    0    0 -0.20533400324E+02  0.15473169875E+02  0.53620513969E+02  0.59465948519E+02  0.00000000000E+00 0. -1.
         11    1    1    2    0    0  0.38687865258E+02  0.38108491454E+02 -0.78170849707E+01  0.54864513637E+02  0.00000000000E+00 0.  1.
</event>
<event>
 7    1  0.1620881E-005  0.1767151E+03  0.7561462E-02  0.1171021E+00
          2   -1    0    0  501    0  0.00000000000E+00  0.00000000000E+00  0.11439646703E+04  0.11439646703E+04  0.00000000000E+00 0. -1.
         -2   -1    0    0    0  501 -0.00000000000E+00 -0.00000000000E+00 -0.30948125122E+02  0.30948125122E+02  0.00000000000E+00 0.  1.
         23    2    1    2    0    0 -0.21830122837E+02  0.15226192502E+03  0.61744741308E+03  0.64849769716E+03  0.12509079596E+03 0.  0.
          5    1    3    3  502    0  0.45922784632E+02  0.68401967905E+02  0.18099933918E+03  0.19891195174E+03  0.41800000000E+01 0.  1.
         -5    1    3    3    0  502 -0.67752907469E+02  0.83859957120E+02  0.43644807389E+03  0.44958574542E+03  0.41800000000E+01 0.  1.
        -11    1    1    2    0    0  0.39894136520E+02 -0.96149656232E+02  0.20487633001E+03  0.22980558984E+03  0.00000000000E+00 0.  1.
         11    1    1    2    0    0 -0.18064013683E+02 -0.56112268793E+02  0.29069280212E+03  0.29660950845E+03  0.00000000000E+00 0. -1.
</event>
<event>
 7    1  0.1620881E-005  0.1286637E+03  0.7561462E-02  0.1229452E+00
          2   -1    0    0  501    0  0.00000000000E+00  0.00000000000E+00  0.27854732181E+03  0.27854732181E+03  0.00000000000E+00 0. -1.
         -2   -1    0    0    0  501 -0.00000000000E+00 -0.00000000000E+00 -0.65811447331E+02  0.65811447331E+02  0.00000000000E+00 0.  1.
         23    2    1    2    0    0  0.56822074850E+02 -0.54923186077E+02  0.13899207460E+03  0.20301483464E+03  0.12510364392E+03 0.  0.
          5    1    3    3  502    0 -0.34772458013E+02  0.87041559991E+01  0.28715858425E+02  0.46118966738E+02  0.41800000000E+01 0.  1.
         -5    1    3    3    0  502  0.91594532863E+02 -0.63627342076E+02  0.11027621618E+03  0.15689586790E+03  0.41800000000E+01 0.  1.
        -11    1    1    2    0    0  0.14731382905E+02  0.30770990050E+02  0.52993721845E+02  0.63025407781E+02  0.00000000000E+00 0.  1.
         11    1    1    2    0    0 -0.71553457755E+02  0.24152196027E+02  0.20750078035E+02  0.78318526723E+02  0.00000000000E+00 0. -1.
</event>
<event>
 7    1  0.1620881E-005  0.1453258E+03  0.7561462E-02  0.1206337E+00
          2   -1    0    0  501    0  0.00000000000E+00  0.00000000000E+00  0.54380643903E+03  0.54380643903E+03  0.00000000000E+00 0. -1.
         -2   -1    0    0    0  501 -0.00000000000E+00 -0.00000000000E+00 -0.75598862499E+02  0.75598862499E+02  0.00000000000E+00 0.  1.
         23    2    1    2    0    0 -0.10590205444E+03 -0.69497878367E+02  0.61087973857E+02  0.18314135226E+03  0.11731928284E+03 0.  0.
          5    1    3    3  502    0 -0.14089967449E+02 -0.32177560918E+02  0.75048913676E+02  0.82968273775E+02  0.41800000000E+01 0. -1.
         -5    1    3    3    0  502 -0.91812086994E+02 -0.37320317449E+02 -0.13960939819E+02  0.10017307849E+03  0.41800000000E+01 0.  1.
        -11    1    1    2    0    0 -0.16826844288E+02  0.11169731075E+02  0.40139559214E+02  0.44934283068E+02  0.00000000000E+00 0.  1.
         11    1    1    2    0    0  0.12272889873E+03  0.58328147291E+02  0.36698004346E+03  0.39132966620E+03  0.00000000000E+00 0. -1.
</event>
<event>
 7    1  0.1620881E-005  0.2198849E+03  0.7561462E-02  0.1133969E+00
          2   -1    0    0  501    0  0.00000000000E+00  0.00000000000E+00  0.51628798859E+03  0.51628798859E+03  0.00000000000E+00 0. -1.
         -2   -1    0    0    0  501 -0.00000000000E+00 -0.00000000000E+00 -0.11038552905E+03  0.11038552905E+03  0.00000000000E+00 0.  1.
         23    2    1    2    0    0 -0.46438740678E+02  0.19695425677E+03  0.12466426490E+03  0.26858199919E+03  0.12509026920E+03 0.  0.
          5    1    3    3  502    0  0.37232407913E+02  0.49977751981E+02  0.62458753410E+02  0.88332305357E+02  0.41800000000E+01 0.  1.
         -5    1    3    3    0  502 -0.83671148591E+02  0.14697650479E+03  0.62205511487E+02  0.18024969383E+03  0.41800000000E+01 0.  1.
        -11    1    1    2    0    0  0.47107973478E+02 -0.93697741674E+02  0.79984129298E+02  0.13189347558E+03  0.00000000000E+00 0. -1.
         11    1    1    2    0    0 -0.66923280023E+00 -0.10325651510E+03  0.20125406534E+03  0.22619804287E+03  0.00000000000E+00 0.  1.
</event>
<event>
 6    1  0.1620881E-005  0.5250756E+03  0.7561462E-02  0.1007433E+00
         -2   -1    0    0    0  501 -0.00000000000E+00  0.00000000000E+00  0.74365282352E+03  0.74365282352E+03  0.00000000000E+00 0.  1.
          2   -1    0    0  501    0  0.00000000000E+00 -0.00000000000E+00 -0.16298985494E+04  0.16298985494E+04  0.00000000000E+00 0. -1.
          5    1    1    2  502    0 -0.24132280548E+03  0.16280832628E+03 -0.22308476595E+03  0.36677995140E+03  0.41800000000E+01 0. -1.
         -5    1    1    2    0  502  0.45074666279E+03 -0.25018024304E+03  0.55899816426E+03  0.76043351325E+03  0.41800000000E+01 0.  1.
        -11    1    1    2    0    0 -0.21129022193E+03  0.65051820356E+02 -0.11362151079E+04  0.11575232476E+04  0.00000000000E+00 0.  1.
         11    1    1    2    0    0  0.18663646256E+01  0.22320096404E+02 -0.85944016239E+02  0.88814660658E+02  0.00000000000E+00 0. -1.
</event>
<event>
 7    1  0.1620881E-005  0.1218419E+03  0.7561462E-02  0.1240089E+00
          2   -1    0    0  501    0  0.00000000000E+00  0.00000000000E+00  0.23294448966E+03  0.23294448966E+03  0.00000000000E+00 0. -1.
         -2   -1    0    0    0  501 -0.00000000000E+00 -0.00000000000E+00 -0.67928868445E+02  0.67928868445E+02  0.00000000000E+00 0.  1.
         23    2    1    2    0    0  0.58598179909E+02 -0.21058575546E+02  0.86825148633E+02  0.16451146618E+03  0.12509278866E+03 0.  0.
          5    1    3    3  502    0  0.22556428504E+02 -0.70268448601E+02  0.26239086421E+02  0.78437295924E+02  0.41800000000E+01 0. -1.
         -5    1    3    3    0  502  0.36041751405E+02  0.49209873054E+02  0.60586062212E+02  0.86074170253E+02  0.41800000000E+01 0. -1.
        -11    1    1    2    0    0 -0.43709904025E+02 -0.31578410424E+02  0.22901018792E+02  0.58585052501E+02  0.00000000000E+00 0.  1.
         11    1    1    2    0    0 -0.14888275884E+02  0.52636985971E+02  0.55289453788E+02  0.77776839426E+02  0.00000000000E+00 0. -1.
</event>
<event>
 7    1  0.1620881E-005  0.8744452E+02  0.7561462E-02  0.1309161E+00
          2   -1    0    0  501    0  0.00000000000E+00  0.00000000000E+00  0.89983536211E+02  0.89983536211E+02  0.00000000000E+00 0. -1.
         -2   -1    0    0    0  501 -0.00000000000E+00 -0.00000000000E+00 -0.12754997019E+03  0.12754997019E+03  0.00000000000E+00 0.  1.
         23    2    1    2    0    0  0.30827690523E+02  0.18215199599E+02 -0.47603429317E+02  0.13855374381E+03  0.12509561720E+03 0.  0.
          5    1    3    3  502    0  0.71750860742E+02  0.38458824757E+02 -0.16546672723E+02  0.83177713344E+02  0.41800000000E+01 0.  1.
         -5    1    3    3    0  502 -0.40923170219E+02 -0.20243625158E+02 -0.31056756594E+02  0.55376030469E+02  0.41800000000E+01 0.  1.
        -11    1    1    2    0    0 -0.34703778390E+02 -0.66582352005E+01 -0.24072831552E+02  0.42757286507E+02  0.00000000000E+00 0.  1.
         11    1    1    2    0    0  0.38760878666E+01 -0.11556964398E+02  0.34109826888E+02  0.36222476083E+02  0.00000000000E+00 0. -1.
</event>
<event>
 7    1  0.1620881E-005  0.1107292E+03  0.7561462E-02  0.1259226E+00
          1   -1    0    0  501    0  0.00000000000E+00  0.00000000000E+00  0.12276735299E+03  0.12276735299E+03  0.00000000000E+00 0. -1.
         -1   -1    0    0    0  501 -0.00000000000E+00 -0.00000000000E+00 -0.16444269713E+03  0.16444269713E+03  0.00000000000E+00 0.  1.
         23    2    1    2    0    0 -0.30153851307E+02 -0.40729816729E+02 -0.99709762559E+02  0.16863363393E+03  0.12620258724E+03 0.  0.
          5    1    3    3  502    0 -0.17244392744E+02  0.44008088990E+02 -0.52196939773E+02  0.70541292158E+02  0.41800000000E+01 0. -1.
         -5    1    3    3    0  502 -0.12909458563E+02 -0.84737905719E+02 -0.47512822786E+02  0.98092341776E+02  0.41800000000E+01 0.  1.
        -11    1    1    2    0    0  0.52927784319E+02  0.38206538114E+02  0.67394653703E+02  0.93824992700E+02  0.00000000000E+00 0. -1.
         11    1    1    2    0    0 -0.22773933012E+02  0.25232786151E+01 -0.93602352906E+01  0.24751423484E+02  0.00000000000E+00 0.  1.
</event>
<event>
 7    1  0.1620881E-005  0.1384281E+03  0.7561462E-02  0.1215460E+00
          2   -1    0    0  501    0  0.00000000000E+00  0.00000000000E+00  0.60728776150E+03  0.60728776150E+03  0.00000000000E+00 0. -1.
         -2   -1    0    0    0  501 -0.00000000000E+00 -0.00000000000E+00 -0.73144210914E+02  0.73144210914E+02  0.00000000000E+00 0.  1.
         23    2    1    2    0    0  0.75687032617E+02  0.10982627453E+03  0.82912763978E+02  0.20077844845E+03  0.12508845450E+03 0.  0.
          5    1    3    3  502    0  0.38526815372E+02  0.84791206788E+02  0.11311465338E+03  0.14658192747E+03  0.41800000000E+01 0. -1.
         -5    1    3    3    0  502  0.37160217246E+02  0.25035067743E+02 -0.30201889405E+02  0.54196520980E+02  0.41800000000E+01 0. -1.
        -11    1    1    2    0    0 -0.59070073728E+02 -0.10634606894E+03  0.44538210421E+03  0.46169684723E+03  0.00000000000E+00 0. -1.
         11    1    1    2    0    0 -0.16616958889E+02 -0.34802055898E+01  0.58486824019E+01  0.17956676739E+02  0.00000000000E+00 0.  1.
</event>
<event>
 7    1  0.2168957E-005  0.1157654E+03  0.7561462E-02  0.1250251E+00
          1   -1    0    0  501    0  0.00000000000E+00  0.00000000000E+00  0.66487981045E+03  0.66487981045E+03  0.00000000000E+00 0. -1.
         -1   -1    0    0    0  501 -0.00000000000E+00 -0.00000000000E+00 -0.21828704905E+02  0.21828704905E+02  0.00000000000E+00 0.  1.
         23    2    1    2    0    0  0.51874378131E+02  0.73686344947E+01  0.34270194306E+03  0.36856134177E+03  0.12509033931E+03 0.  0.
          5    1    3    3  502    0  0.82187093406E+02  0.39463408360E+02  0.22856991998E+03  0.24611736964E+03  0.41800000000E+01 0.  1.
         -5    1    3    3    0  502 -0.30312715275E+02 -0.32094773866E+02  0.11413202309E+03  0.12244397213E+03  0.41800000000E+01 0.  1.
        -11    1    1    2    0    0  0.77794394336E+01  0.26296259340E+02  0.37114743539E+02  0.46146691335E+02  0.00000000000E+00 0. -1.
         11    1    1    2    0    0 -0.59653817564E+02 -0.33664893835E+02  0.26323441894E+03  0.27200048225E+03  0.00000000000E+00 0.  1.
</event>
<event>
 7    1  0.1620881E-005  0.1192446E+03  0.7561462E-02  0.1244348E+00
          3   -1    0    0  501    0  0.00000000000E+00  0.00000000000E+00  0.18560991551E+03  0.18560991551E+03  0.00000000000E+00 0. -1.
         -3   -1    0    0    0  501 -0.00000000000E+00 -0.00000000000E+00 -0.85040908272E+02  0.85040908272E+02  0.00000000000E+00 0.  1.
         23    2    1    2    0    0  0.46508406316E+02 -0.39646282111E+02  0.38924777713E+02  0.14454527950E+03  0.12507333834E+03 0.  0.
          5    1    3    3  502    0 -0.39860855128E+02 -0.20270341465E+02  0.32998310265E+02  0.55732713868E+02  0.41800000000E+01 0. -1.
         -5    1    3    3    0  502  0.86369261444E+02 -0.19375940645E+02  0.59264674477E+01  0.88812565635E+02  0.41800000000E+01 0. -1.
        -11    1    1    2    0    0 -0.30157458056E+02  0.66784283379E+02  0.59424847109E+02  0.94344714938E+02  0.00000000000E+00 0. -1.
         11    1    1    2    0    0 -0.16350948260E+02 -0.27138001268E+02  0.22193824123E+01  0.31760829336E+02  0.00000000000E+00 0.  1.
</event>
<event>
 7    1  0.1620881E-005  0.1267671E+03  0.7561462E-02  0.1232333E+00
          1   -1    0    0  501    0  0.00000000000E+00  0.00000000000E+00  0.40126094406E+03  0.40126094406E+03  0.00000000000E+00 0. -1.
         -1   -1    0    0    0  501 -0.00000000000E+00 -0.00000000000E+00 -0.62856380545E+02  0.62856380545E+02  0.00000000000E+00 0.  1.
         23    2    1    2    0    0  0.98854857865E+02 -0.60010404320E+02  0.19389757417E+03  0.25810299353E+03  0.12508938583E+03 0.  0.
          5    1    3    3  502    0  0.46202029267E+01 -0.24999268358E+02 -0.12388336213E+02  0.28587636622E+02  0.41800000000E+01 0. -1.
         -5    1    3    3    0  502  0.94234654938E+02 -0.35011135962E+02  0.20628591038E+03  0.22951535690E+03  0.41800000000E+01 0. -1.
        -11    1    1    2    0    0 -0.26034654120E+02 -0.82837056214E+01  0.86143013311E+02  0.90371686585E+02  0.00000000000E+00 0. -1.
         11    1    1    2    0    0 -0.72820203745E+02  0.68294109941E+02  0.58363976031E+02  0.11564264449E+03  0.00000000000E+00 0.  1.
</event>
<event>
 7    1  0.1620881E-005  0.8888684E+02  0.7561462E-02  0.1305570E+00
         -1   -1    0    0    0  501 -0.00000000000E+00  0.00000000000E+00  0.82126730563E+02  0.82126730563E+02  0.00000000000E+00 0.  1.
          1   -1    0    0  501    0  0.00000000000E+00 -0.00000000000E+00 -0.15456950401E+03  0.15456950401E+03  0.00000000000E+00 0. -1.
         23    2    1    2    0    0 -0.16948086220E+02  0.20773586707E+02 -0.25650183784E+02  0.13047538682E+03  0.12508842915E+03 0.  0.
          5    1    3    3  502    0 -0.37808501535E+02  0.55730369282E+02  0.18811825277E+02  0.70047940861E+02  0.41800000000E+01 0. -1.
         -5    1    3    3    0  502  0.20860415315E+02 -0.34956782576E+02 -0.44462009061E+02  0.60427445957E+02  0.41800000000E+01 0. -1.
        -11    1    1    2    0    0 -0.22183408967E+02 -0.20558576531E+02 -0.58088781881E+02  0.65490955733E+02  0.00000000000E+00 0. -1.
         11    1    1    2    0    0  0.39131495187E+02 -0.21501017524E+00  0.11296192223E+02  0.40729892017E+02  0.00000000000E+00 0.  1.
</event>
<event>
 7    1  0.1620881E-005  0.1358065E+03  0.7561462E-02  0.1219086E+00
         -1   -1    0    0    0  501 -0.00000000000E+00  0.00000000000E+00  0.69830364054E+03  0.69830364054E+03  0.00000000000E+00 0.  1.
          1   -1    0    0  501    0  0.00000000000E+00 -0.00000000000E+00 -0.41677743576E+02  0.41677743576E+02  0.00000000000E+00 0. -1.
         23    2    1    2    0    0 -0.10797077279E+03  0.13031355968E+01  0.51124884686E+03  0.53729160971E+03  0.12508998564E+03 0.  0.
          5    1    3    3  502    0 -0.28473658975E+02  0.52186279319E+02  0.11039343551E+03  0.12545254086E+03  0.41800000000E+01 0.  1.
         -5    1    3    3    0  502 -0.79497113817E+02 -0.50883143722E+02  0.40085541135E+03  0.41183906885E+03  0.41800000000E+01 0.  1.
        -11    1    1    2    0    0  0.64858000808E+02  0.22053627662E+02  0.25369512131E+02  0.73051590726E+02  0.00000000000E+00 0. -1.
         11    1    1    2    0    0  0.43112771985E+02 -0.23356763259E+02  0.12000753798E+03  0.12963818369E+03  0.00000000000E+00 0.  1.
</event>
<event>
 7    1  0.1620881E-005  0.1456350E+03  0.7561462E-02  0.1205942E+00
          3   -1    0    0  501    0  0.00000000000E+00  0.00000000000E+00  0.20226501517E+03  0.20226501517E+03  0.00000000000E+00 0. -1.
         -3   -1    0    0    0  501 -0.00000000000E+00 -0.00000000000E+00 -0.11082129986E+03  0.11082129986E+03  0.00000000000E+00 0.  1.
         23    2    1    2    0    0 -0.10130513852E+03  0.34596286299E+02  0.53925604906E+02  0.16621690856E+03  0.11515405208E+03 0.  0.
          5    1    3    3  502    0 -0.84160502708E+01 -0.33319947361E+02  0.35536837174E+02  0.49612377394E+02  0.41800000000E+01 0. -1.
         -5    1    3    3    0  502 -0.92889088246E+02  0.67916233660E+02  0.18388767732E+02  0.11660453117E+03  0.41800000000E+01 0.  1.
        -11    1    1    2    0    0  0.63179900490E+02 -0.66547020818E+02  0.18458539921E+02  0.93599805030E+02  0.00000000000E+00 0. -1.
         11    1    1    2    0    0  0.38125238027E+02  0.31950734520E+02  0.19059570479E+02  0.53269601442E+02  0.00000000000E+00 0.  1.
</event>
<event>
 6    1  0.1620881E-005  0.1679857E+03  0.7561462E-02  0.1179965E+00
         -1   -1    0    0    0  501 -0.00000000000E+00  0.00000000000E+00  0.10613666616E+03  0.10613666616E+03  0.00000000000E+00 0.  1.
          1   -1    0    0  501    0  0.00000000000E+00 -0.00000000000E+00 -0.45143273987E+03  0.45143273987E+03  0.00000000000E+00 0. -1.
          5    1    1    2  502    0  0.26134733735E+02 -0.26911428081E+01 -0.56236270827E+02  0.62211390545E+02  0.41800000000E+01 0. -1.
         -5    1    1    2    0  502 -0.14603299548E+03 -0.47990869617E+02  0.13208022714E+02  0.15433950757E+03  0.41800000000E+01 0.  1.
        -11    1    1    2    0    0  0.46086440706E+02  0.65717898803E+02 -0.18471833016E+03  0.20140422969E+03  0.00000000000E+00 0.  1.
         11    1    1    2    0    0  0.73811821035E+02 -0.15035886378E+02 -0.11754949544E+03  0.13961427822E+03  0.00000000000E+00 0. -1.
</event>
<event>
 7    1  0.1620881E-005  0.1030121E+03  0.7561462E-02  0.1274086E+00
          2   -1    0    0  501    0  0.00000000000E+00  0.00000000000E+00  0.31499917173E+03  0.31499917173E+03  0.00000000000E+00 0. -1.
         -2   -1    0    0    0  501 -0.00000000000E+00 -0.00000000000E+00 -0.34544809847E+02  0.34544809847E+02  0.00000000000E+00 0.  1.
         23    2    1    2    0    0 -0.28009086069E+02 -0.10890418656E+01  0.16885137293E+03  0.21200176648E+03  0.12509303713E+03 0.  0.
          5    1    3    3  502    0  0.64394094463E+01  0.58593169189E+02  0.74546177567E+02  0.95127443250E+02  0.41800000000E+01 0.  1.
         -5    1    3    3    0  502 -0.34448495515E+02 -0.59682211054E+02  0.94305195359E+02  0.11687432323E+03  0.41800000000E+01 0.  1.
        -11    1    1    2    0    0  0.52038340595E+02 -0.70698982638E+01  0.58044708786E+02  0.78276181379E+02  0.00000000000E+00 0.  1.
         11    1    1    2    0    0 -0.24029254526E+02  0.81589401294E+01  0.53558280171E+02  0.59266033712E+02  0.00000000000E+00 0. -1.
</event>
<event>
 7    1  0.1620881E-005  0.1056952E+03  0.7561462E-02  0.1268756E+00
         -2   -1    0    0    0  501 -0.00000000000E+00  0.00000000000E+00  0.14591477457E+03  0.14591477457E+03  0.00000000000E+00 0.  1.
          2   -1    0    0  501    0  0.00000000000E+00 -0.00000000000E+00 -0.19831510192E+03  0.19831510192E+03  0.00000000000E+00 0. -1.
         23    2    1    2    0    0  0.73554342588E+02 -0.25695558786E+02  0.86687200303E+02  0.16389317842E+03  0.11522065866E+03 0.  0.
          5    1    3    3  502    0  0.63085320912E+01 -0.31438131378E+02 -0.19678353864E+02  0.37853186028E+02  0.41800000000E+01 0. -1.
         -5    1    3    3    0  502  0.67245810496E+02  0.57425725920E+01  0.10636555417E+03  0.12603999239E+03  0.41800000000E+01 0.  1.
        -11    1    1    2    0    0 -0.53103252318E+02  0.54509580280E+02 -0.73298501657E+02  0.10565945341E+03  0.00000000000E+00 0. -1.
         11    1    1    2    0    0 -0.20451090270E+02 -0.28814021494E+02 -0.65789025998E+02  0.74677244658E+02  0.00000000000E+00 0.  1.
</event>
<event>
 7    1  0.1620881E-005  0.8758685E+02  0.7561462E-02  0.1308803E+00
          2   -1    0    0  501    0  0.00000000000E+00  0.00000000000E+00  0.68561211047E+03  0.68561211047E+03  0.00000000000E+00 0. -1.
         -2   -1    0    0    0  501 -0.00000000000E+00 -0.00000000000E+00 -0.23718033067E+02  0.23718033067E+02  0.00000000000E+00 0.  1.
         23    2    1    2    0    0  0.51680374416E+02 -0.45410295279E+02  0.25265008484E+03  0.28478427219E+03  0.11196901490E+03 0.  0.
          5    1    3    3  502    0  0.11294255218E+02 -0.40354575390E+02  0.23742021554E+03  0.24112628041E+03  0.41800000000E+01 0. -1.
         -5    1    3    3    0  502  0.40386119199E+02 -0.50557198887E+01  0.15229869303E+02  0.43657991783E+02  0.41800000000E+01 0.  1.
        -11    1    1    2    0    0  0.13844687273E+02  0.13208744290E+02  0.17097318015E+02  0.25660564583E+02  0.00000000000E+00 0.  1.
         11    1    1    2    0    0 -0.65525061689E+02  0.32201550989E+02  0.39214667454E+03  0.39888530676E+03  0.00000000000E+00 0. -1.
</event>
<event>
 7    1  0.1620881E-005  0.1303419E+03  0.7561462E-02  0.1226949E+00
         -1   -1    0    0    0  501 -0.00000000000E+00  0.00000000000E+00  0.78695894021E+03  0.78695894021E+03  0.00000000000E+00 0.  1.
          1   -1    0    0  501    0  0.00000000000E+00 -0.00000000000E+00 -0.24603361139E+02  0.24603361139E+02  0.00000000000E+00 0. -1.
         23    2    1    2    0    0  0.81574635655E+02  0.15632821334E+02  0.46949960197E+03  0.48945132908E+03  0.11060705673E+03 0.  0.
          5    1    3    3  502    0  0.10146053640E+03 -0.36279577740E+00  0.43281327597E+03  0.44456627889E+03  0.41800000000E+01 0. -1.
         -5    1    3    3    0  502 -0.19885900743E+02  0.15995617112E+02  0.36686326000E+02  0.44885050190E+02  0.41800000000E+01 0.  1.
        -11    1    1    2    0    0 -0.10532137982E+03 -0.89086446339E+00  0.21553444638E+03  0.23989265154E+03  0.00000000000E+00 0.  1.
         11    1    1    2    0    0  0.23746744167E+02 -0.14741956871E+02  0.77321530712E+02  0.82218320724E+02  0.00000000000E+00 0. -1.
</event>
<event>
 7    1  0.1620881E-005  0.8548361E+02  0.7561462E-02  0.1314173E+00
         -1   -1    0    0    0  501 -0.00000000000E+00  0.00000000000E+00  0.28302791820E+03  0.28302791820E+03  0.00000000000E+00 0.  1.
          1   -1    0    0  501    0  0.00000000000E+00 -0.00000000000E+00 -0.59889456025E+02  0.59889456025E+02  0.00000000000E+00 0. -1.
         23    2    1    2    0    0  0.39815051386E+02 -0.49424514220E+02  0.16948551741E+03  0.22000313416E+03  0.12509203614E+03 0.  0.
          5    1    3    3  502    0  0.66234460423E+02 -0.27149741510E+02  0.17072589467E+03  0.18517266462E+03  0.41800000000E+01 0. -1.
         -5    1    3    3    0  502 -0.26419409036E+02 -0.22274772710E+02 -0.12403772557E+01  0.34830469547E+02  0.41800000000E+01 0. -1.
        -11    1    1    2    0    0 -0.22341380590E+02  0.36204142158E+02  0.78805944150E+02  0.89555870993E+02  0.00000000000E+00 0.  1.
         11    1    1    2    0    0 -0.17473670797E+02  0.13220372062E+02 -0.25152999387E+02  0.33358369066E+02  0.00000000000E+00 0. -1.
</event>
<event>
 7    1  0.1620881E-005  0.7981965E+02  0.7561462E-02  0.1329564E+00
         -2   -1    0    0    0  501 -0.00000000000E+00  0.00000000000E+00  0.12589122290E+03  0.12589122290E+03  0.00000000000E+00 0.  1.
          2   -1    0    0  501    0  0.00000000000E+00 -0.00000000000E+00 -0.15799229416E+03  0.15799229416E+03  0.00000000000E+00 0. -1.
         23    2    1    2    0    0 -0.60272803327E+02  0.28507175361E+02  0.34537779920E+02  0.14589218462E+03  0.12508477694E+03 0.  0.
          5    1    3    3  502    0 -0.13332917108E+00  0.30501426301E+02 -0.39700513969E+02  0.50239008673E+02  0.41800000000E+01 0.  1.
         -5    1    3    3    0  502 -0.60139474155E+02 -0.19942509398E+01  0.74238293889E+02  0.95653175943E+02  0.41800000000E+01 0.  1.
        -11    1    1    2    0    0  0.29785347004E+02 -0.53781500753E+01  0.24631492182E+02  0.39023093182E+02  0.00000000000E+00 0.  1.
         11    1    1    2    0    0  0.30487456323E+02 -0.23129025286E+02 -0.91270343367E+02  0.98968239259E+02  0.00000000000E+00 0. -1.
</event>
<event>
 7    1  0.1620881E-005  0.1025123E+03  0.7561462E-02  0.1275100E+00
         -1   -1    0    0    0  501 -0.00000000000E+00  0.00000000000E+00  0.57906048984E+03  0.57906048984E+03  0.00000000000E+00 0.  1.
          1   -1    0    0  501    0  0.00000000000E+00 -0.00000000000E+00 -0.24289938845E+02  0.24289938845E+02  0.00000000000E+00 0. -1.
         23    2    1    2    0    0  0.36011368122E+02 -0.15776775580E+02  0.35741010303E+03  0.38070613637E+03  0.12509778273E+03 0.  0.
          5    1    3    3  502    0 -0.31367722284E+02 -0.13564578708E+02  0.27815980566E+02  0.44262094072E+02  0.41800000000E+01 0. -1.
         -5    1    3    3    0  502  0.67379090405E+02 -0.22121968719E+01  0.32959412246E+03  0.33644404230E+03  0.41800000000E+01 0. -1.
        -11    1    1    2    0    0  0.23850227400E+01  0.50933720654E+02  0.97840875541E+02  0.11033027309E+03  0.00000000000E+00 0.  1.
         11    1    1    2    0    0 -0.38396390862E+02 -0.35156945074E+02  0.99519572426E+02  0.11231401922E+03  0.00000000000E+00 0. -1.
</event>
<event>
 7    1  0.1620881E-005  0.1447576E+03  0.7561462E-02  0.1207067E+00
          2   -1    0    0  501    0  0.00000000000E+00  0.00000000000E+00  0.20901215829E+03  0.20901215829E+03  0.00000000000E+00 0. -1.
         -2   -1    0    0    0  501 -0.00000000000E+00 -0.00000000000E+00 -0.12965695663E+03  0.12965695663E+03  0.00000000000E+00 0.  1.
         23    2    1    2    0    0 -0.19316886520E+02  0.11836436633E+03  0.15547614937E+02  0.17400120081E+03  0.12510565227E+03 0.  0.
          5    1    3    3  502    0 -0.69698529863E+02  0.78999981611E+02 -0.80025605595E+01  0.10573738948E+03  0.41800000000E+01 0.  1.
         -5    1    3    3    0  502  0.50381643344E+02  0.39364384721E+02  0.23550175496E+02  0.68263811323E+02  0.41800000000E+01 0.  1.
        -11    1    1    2    0    0  0.20147924795E+01 -0.22910941039E+02 -0.24415199117E+02  0.33542101245E+02  0.00000000000E+00 0.  1.
         11    1    1    2    0    0  0.17302094040E+02 -0.95453425292E+02  0.88222785844E+02  0.13112581287E+03  0.00000000000E+00 0. -1.
</event>
<event>
 7    1  0.1620881E-005  0.1679666E+03  0.7561462E-02  0.1179985E+00
         -2   -1    0    0    0  501 -0.00000000000E+00  0.00000000000E+00  0.12395511731E+03  0.12395511731E+03  0.00000000000E+00 0.  1.
          2   -1    0    0  501    0  0.00000000000E+00 -0.00000000000E+00 -0.27849975602E+03  0.27849975602E+03  0.00000000000E+00 0. -1.
         23    2    1    2    0    0 -0.10689979932E+03  0.97893366739E+02 -0.89883204937E+02  0.21151072513E+03  0.12508844059E+03 0.  0.
          5    1    3    3  502    0 -0.84771938785E+02  0.11288037350E+03 -0.28006350163E+02  0.14397947207E+03  0.41800000000E+01 0. -1.
         -5    1    3    3    0  502 -0.22127860540E+02 -0.14987006764E+02 -0.61876854774E+02  0.67531253065E+02  0.41800000000E+01 0. -1.
        -11    1    1    2    0    0  0.56237742261E+02 -0.10236340567E+03 -0.75327226993E+02  0.13897892503E+03  0.00000000000E+00 0. -1.
         11    1    1    2    0    0  0.50662057064E+02  0.44700389352E+01  0.10665793212E+02  0.51965223167E+02  0.00000000000E+00 0.  1.
</event>
<event>
 7    1  0.1620881E-005  0.1259951E+03  0.7561462E-02  0.1233522E+00
          4   -1    0    0  501    0  0.00000000000E+00  0.00000000000E+00  0.47212451733E+03  0.47212451733E+03  0.00000000000E+00 0. -1.
         -4   -1    0    0    0  501 -0.00000000000E+00 -0.00000000000E+00 -0.34051635410E+02  0.34051635410E+02  0.00000000000E+00 0.  1.
         23    2    1    2    0    0 -0.30969875637E+02 -0.54798023250E+02  0.22836743302E+03  0.26788710784E+03  0.12509940660E+03 0.  0.
          5    1    3    3  502    0 -0.58349955258E+02 -0.82214076631E+02  0.17050169640E+03  0.19812161051E+03  0.41800000000E+01 0.  1.
         -5    1    3    3    0  502  0.27380079621E+02  0.27416053382E+02  0.57865736622E+02  0.69765497331E+02  0.41800000000E+01 0.  1.
        -11    1    1    2    0    0  0.45312200605E+00 -0.25867268609E+02  0.63087690054E+02  0.68186344243E+02  0.00000000000E+00 0.  1.
         11    1    1    2    0    0  0.30516753631E+02  0.80665291858E+02  0.14661775884E+03  0.17010270066E+03  0.00000000000E+00 0. -1.
</event>
<event>
 7    1  0.1620881E-005  0.6319263E+02  0.7561462E-02  0.1384902E+00
          4   -1    0    0  501    0  0.00000000000E+00  0.00000000000E+00  0.29579174065E+02  0.29579174065E+02  0.00000000000E+00 0.  1.
         -4   -1    0    0    0  501 -0.00000000000E+00 -0.00000000000E+00 -0.67690383727E+03  0.67690383727E+03  0.00000000000E+00 0. -1.
         23    2    1    2    0    0  0.11397488252E+02  0.11794806303E+02 -0.58224657035E+03  0.59575824103E+03  0.12509113830E+03 0.  0.
          5    1    3    3  502    0 -0.39187872875E+02  0.11615453464E+02 -0.71254125669E+02  0.82251024094E+02  0.41800000000E+01 0. -1.
         -5    1    3    3    0  502  0.50585361126E+02  0.17935283902E+00 -0.51099244468E+03  0.51350721694E+03  0.41800000000E+01 0. -1.
        -11    1    1    2    0    0 -0.84394198798E+01 -0.22185973837E+02 -0.84896658900E+02  0.88152617292E+02  0.00000000000E+00 0. -1.
         11    1    1    2    0    0 -0.29580683719E+01  0.10391167534E+02  0.19818566047E+02  0.22572153007E+02  0.00000000000E+00 0.  1.
</event>
<event>
 7    1  0.1620881E-005  0.1734376E+03  0.7561462E-02  0.1174310E+00
          1   -1    0    0  501    0  0.00000000000E+00  0.00000000000E+00  0.35407435254E+03  0.35407435254E+03  0.00000000000E+00 0. -1.
         -1   -1    0    0    0  501 -0.00000000000E+00 -0.00000000000E+00 -0.11895248772E+03  0.11895248772E+03  0.00000000000E+00 0.  1.
         23    2    1    2    0    0  0.56859713625E+02 -0.16299319598E+03  0.98288330391E+02  0.23475130854E+03  0.12509105483E+03 0.  0.
          5    1    3    3  502    0  0.56969741526E+02 -0.14821643443E+03  0.12621370807E+03  0.20288182617E+03  0.41800000000E+01 0. -1.
         -5    1    3    3    0  502 -0.11002790077E+00 -0.14776761554E+02 -0.27925377677E+02  0.31869482371E+02  0.41800000000E+01 0. -1.
        -11    1    1    2    0    0 -0.30997242066E+02  0.95016954003E+02  0.13174803698E+03  0.16536806164E+03  0.00000000000E+00 0. -1.
         11    1    1    2    0    0 -0.25862471559E+02  0.67976241980E+02  0.50854974562E+01  0.72907470079E+02  0.00000000000E+00 0.  1.
</event>
<event>
 7    1  0.1620881E-005  0.8459329E+02  0.7561462E-02  0.1316500E+00
          1   -1    0    0  501    0  0.00000000000E+00  0.00000000000E+00  0.31436240276E+03  0.31436240276E+03  0.00000000000E+00 0. -1.
         -1   -1    0    0    0  501 -0.00000000000E+00 -0.00000000000E+00 -0.39994167931E+02  0.39994167931E+02  0.00000000000E+00 0.  1.
         23    2    1    2    0    0 -0.28952564480E+02 -0.21171579523E+01  0.13575109257E+03  0.18686492149E+03  0.12508959350E+03 0.  0.
          5    1    3    3  502    0 -0.39017450399E+02 -0.56852185113E+02  0.96321413448E+02  0.11853193442E+03  0.41800000000E+01 0.  1.
         -5    1    3    3    0  502  0.10064885918E+02  0.54735027160E+02  0.39429679119E+02  0.68332987072E+02  0.41800000000E+01 0.  1.
        -11    1    1    2    0    0  0.59921128848E+01 -0.14675315723E+02 -0.82674650960E+01  0.17877955350E+02  0.00000000000E+00 0.  1.
         11    1    1    2    0    0  0.22960451596E+02  0.16792473675E+02  0.14688460736E+03  0.14961369386E+03  0.00000000000E+00 0. -1.
</event>
<event>
 7    1  0.1620881E-005  0.1207090E+03  0.7561462E-02  0.1241932E+00
          3   -1    0    0  501    0  0.00000000000E+00  0.00000000000E+00  0.32248239575E+02  0.32248239575E+02  0.00000000000E+00 0. -1.
         -3   -1    0    0    0  501 -0.00000000000E+00 -0.00000000000E+00 -0.61152078216E+03  0.61152078216E+03  0.00000000000E+00 0.  1.
         23    2    1    2    0    0 -0.29388121488E+02  0.56766755789E+02 -0.45237004205E+03  0.47367955172E+03  0.12509011362E+03 0.  0.
          5    1    3    3  502    0 -0.72589440309E+02  0.62972778525E+02 -0.32764707151E+03  0.34147455769E+03  0.41800000000E+01 0. -1.
         -5    1    3    3    0  502  0.43201318822E+02 -0.62060227360E+01 -0.12472297054E+03  0.13220499403E+03  0.41800000000E+01 0. -1.
        -11    1    1    2    0    0  0.35785748927E+02 -0.74436897035E+02 -0.64136096339E+02  0.10457012155E+03  0.00000000000E+00 0. -1.
         11    1    1    2    0    0 -0.63976274390E+01  0.17670141246E+02 -0.62766404192E+02  0.65519348468E+02  0.00000000000E+00 0.  1.
</event>
<event>
 7    1  0.1620881E-005  0.1400843E+03  0.7561462E-02  0.1213216E+00
         -1   -1    0    0    0  501 -0.00000000000E+00  0.00000000000E+00  0.17703050919E+03  0.17703050919E+03  0.00000000000E+00 0.  1.
          1   -1    0    0  501    0  0.00000000000E+00 -0.00000000000E+00 -0.11786762165E+03  0.11786762165E+03  0.00000000000E+00 0. -1.
         23    2    1    2    0    0 -0.64957823823E+02 -0.59965890577E+02  0.40675084647E+02  0.15848435820E+03  0.12508957740E+03 0.  0.
          5    1    3    3  502    0  0.33225000953E+02 -0.20511600743E+02  0.34725982419E+02  0.52421300139E+02  0.41800000000E+01 0. -1.
         -5    1    3    3    0  502 -0.98182824776E+02 -0.39454289834E+02  0.59491022273E+01  0.10606305806E+03  0.41800000000E+01 0. -1.
        -11    1    1    2    0    0  0.48942871442E+02  0.89157056885E+02  0.16707788985E+02  0.10307053735E+03  0.00000000000E+00 0.  1.
         11    1    1    2    0    0  0.16014952381E+02 -0.29191166308E+02  0.17800139003E+01  0.33343235291E+02  0.00000000000E+00 0. -1.
</event>
<event>
 7    1  0.1620881E-005  0.1180409E+03  0.7561462E-02  0.1246364E+00
         -1   -1    0    0    0  501 -0.00000000000E+00  0.00000000000E+00  0.18473194735E+02  0.18473194735E+02  0.00000000000E+00 0.  1.
          1   -1    0    0  501    0  0.00000000000E+00 -0.00000000000E+00 -0.86309656271E+03  0.86309656271E+03  0.00000000000E+00 0. -1.
         23    2    1    2    0    0  0.12531728060E+02  0.62230418460E+02 -0.42629416275E+03  0.44878085044E+03  0.12509144390E+03 0.  0.
          5    1    3    3  502    0 -0.87446350332E+01  0.92168172831E+02 -0.37003689786E+03  0.38146588170E+03  0.41800000000E+01 0. -1.
         -5    1    3    3    0  502  0.21276363093E+02 -0.29937754371E+02 -0.56257264893E+02  0.67314968740E+02  0.41800000000E+01 0. -1.
        -11    1    1    2    0    0  0.36805144554E+02 -0.22928985992E+02 -0.11348950208E+03  0.12149166287E+03  0.00000000000E+00 0.  1.
         11    1    1    2    0    0 -0.49336872614E+02 -0.39301432468E+02 -0.30483970315E+03  0.31129724414E+03  0.00000000000E+00 0. -1.
</event>
<event>
 7    1  0.1620881E-005  0.8586506E+02  0.7561462E-02  0.1313186E+00
         -1   -1    0    0    0  501 -0.00000000000E+00  0.00000000000E+00  0.40740530207E+02  0.40740530207E+02  0.00000000000E+00 0.  1.
          1   -1    0    0  501    0  0.00000000000E+00 -0.00000000000E+00 -0.34406986847E+03  0.34406986847E+03  0.00000000000E+00 0. -1.
         23    2    1    2    0    0 -0.64727554583E+01  0.47727208397E+02 -0.14424346869E+03  0.19690966217E+03  0.12508978302E+03 0.  0.
          5    1    3    3  502    0 -0.35748821178E+02 -0.25324347039E+02 -0.16880622690E+02  0.47135216038E+02  0.41800000000E+01 0. -1.
         -5    1    3    3    0  502  0.29276065720E+02  0.73051555436E+02 -0.12736284600E+03  0.14977444614E+03  0.41800000000E+01 0. -1.
        -11    1    1    2    0    0 -0.52227648147E+00 -0.27560758210E+02 -0.16374827591E+03  0.16605229908E+03  0.00000000000E+00 0. -1.
         11    1    1    2    0    0  0.69950319398E+01 -0.20166450187E+02  0.46624063331E+01  0.21848437422E+02  0.00000000000E+00 0.  1.
</event>
<event>
 7    1  0.1620881E-005  0.5703432E+02  0.7561462E-02  0.1410716E+00
          4   -1    0    0  501    0  0.00000000000E+00  0.00000000000E+00  0.54327432678E+02  0.54327432678E+02  0.00000000000E+00 0.  1.
         -4   -1    0    0    0  501 -0.00000000000E+00 -0.00000000000E+00 -0.22512305840E+03  0.22512305840E+03  0.00000000000E+00 0. -1.
         23    2    1    2    0    0 -0.61538624137E+01  0.14484814679E+02 -0.12097620607E+03  0.17472808801E+03  0.12508789879E+03 0.  0.
          5    1    3    3  502    0 -0.11418588582E+01  0.42096835679E+02  0.76540018745E+01  0.43005854956E+02  0.41800000000E+01 0.  1.
         -5    1    3    3    0  502 -0.50120035556E+01 -0.27612021000E+02 -0.12863020794E+03  0.13172223305E+03  0.41800000000E+01 0.  1.
        -11    1    1    2    0    0  0.93947216371E+01 -0.27970938998E+02  0.18620844563E+02  0.34890830820E+02  0.00000000000E+00 0.  1.
         11    1    1    2    0    0 -0.32408592233E+01  0.13486124320E+02 -0.68440264217E+02  0.69831572256E+02  0.00000000000E+00 0. -1.
</event>
<event>
 7    1  0.1620881E-005  0.1303866E+03  0.7561462E-02  0.1226883E+00
         -4   -1    0    0    0  501 -0.00000000000E+00  0.00000000000E+00  0.63219720085E+02  0.63219720085E+02  0.00000000000E+00 0.  1.
          4   -1    0    0  501    0  0.00000000000E+00 -0.00000000000E+00 -0.27588237002E+03  0.27588237002E+03  0.00000000000E+00 0. -1.
         23    2    1    2    0    0 -0.72069850535E+02  0.19618523764E+02 -0.10666805633E+03  0.18056198152E+03  0.12508239324E+03 0.  0.
          5    1    3    3  502    0  0.34671752969E+02  0.30155997141E+01 -0.12566793429E+02  0.37237360173E+02  0.41800000000E+01 0. -1.
         -5    1    3    3    0  502 -0.10674160350E+03  0.16602924050E+02 -0.94101262903E+02  0.14332462135E+03  0.41800000000E+01 0. -1.
        -11    1    1    2    0    0  0.85445375683E+02  0.91052735286E+01 -0.72437615818E+02  0.11238783928E+03  0.00000000000E+00 0.  1.
         11    1    1    2    0    0 -0.13375525148E+02 -0.28723797293E+02 -0.33556977787E+02  0.46152269306E+02  0.00000000000E+00 0. -1.
</event>
<event>
 7    1  0.1620881E-005  0.1136070E+03  0.7561462E-02  0.1254032E+00
          2   -1    0    0  501    0  0.00000000000E+00  0.00000000000E+00  0.50692713192E+03  0.50692713192E+03  0.00000000000E+00 0. -1.
         -2   -1    0    0    0  501 -0.00000000000E+00 -0.00000000000E+00 -0.36912165598E+02  0.36912165598E+02  0.00000000000E+00 0.  1.
         23    2    1    2    0    0 -0.82158902512E+02  0.49258768804E+01  0.21211624730E+03  0.25964260721E+03  0.12508649642E+03 0.  0.
          5    1    3    3  502    0 -0.55415677151E+02 -0.41102154426E+02  0.18939196265E+03  0.20161119088E+03  0.41800000000E+01 0. -1.
         -5    1    3    3    0  502 -0.26743225362E+02  0.46028031306E+02  0.22724284655E+02  0.58031416334E+02  0.41800000000E+01 0. -1.
        -11    1    1    2    0    0  0.90373073730E+02 -0.15093244544E+02  0.25478633198E+03  0.27076036167E+03  0.00000000000E+00 0. -1.
         11    1    1    2    0    0 -0.82141712175E+01  0.10167367663E+02  0.31123870319E+01  0.13436328629E+02  0.00000000000E+00 0.  1.
</event>
<event>
 7    1  0.1620881E-005  0.1863049E+03  0.7561462E-02  0.1161837E+00
          2   -1    0    0  501    0  0.00000000000E+00  0.00000000000E+00  0.31228337135E+03  0.31228337135E+03  0.00000000000E+00 0.  1.
         -2   -1    0    0    0  501 -0.00000000000E+00 -0.00000000000E+00 -0.66565278715E+03  0.66565278715E+03  0.00000000000E+00 0. -1.
         23    2    1    2    0    0  0.15592826551E+03 -0.25490890373E+02 -0.51106465482E+03  0.54935973350E+03  0.12508247639E+03 0.  0.
          5    1    3    3  502    0  0.94379826140E+02 -0.35168643438E+02 -0.13684514914E+03  0.16996603281E+03  0.41800000000E+01 0. -1.
         -5    1    3    3    0  502  0.61548439375E+02  0.96777530651E+01 -0.37421950568E+03  0.37939370069E+03  0.41800000000E+01 0. -1.
        -11    1    1    2    0    0 -0.29286014730E+02 -0.52866139915E+02 -0.10813267790E+03  0.12387564505E+03  0.00000000000E+00 0. -1.
         11    1    1    2    0    0 -0.12664225078E+03  0.78357030288E+02  0.26582791693E+03  0.30470077994E+03  0.00000000000E+00 0.  1.
</event>
<event>
 7    1  0.1620881E-005  0.1425527E+03  0.7561462E-02  0.1209935E+00
          1   -1    0    0  501    0  0.00000000000E+00  0.00000000000E+00  0.43251579560E+02  0.43251579560E+02  0.00000000000E+00 0. -1.
         -1   -1    0    0    0  501 -0.00000000000E+00 -0.00000000000E+00 -0.50934526228E+03  0.50934526228E+03  0.00000000000E+00 0.  1.
         23    2    1    2    0    0  0.76030938161E+02 -0.50494745371E+02 -0.31698852606E+03  0.35278919741E+03  0.12509224312E+03 0.  0.
          5    1    3    3  502    0  0.95641148575E+02 -0.75318342389E+02 -0.26716076197E+03  0.29361952785E+03  0.41800000000E+01 0. -1.
         -5    1    3    3    0  502 -0.19610210414E+02  0.24823597018E+02 -0.49827764095E+02  0.59169669562E+02  0.41800000000E+01 0. -1.
        -11    1    1    2    0    0 -0.35913809862E+02  0.75853568082E+02 -0.10969543544E+03  0.13811826123E+03  0.00000000000E+00 0.  1.
         11    1    1    2    0    0 -0.40117128299E+02 -0.25358822710E+02 -0.39409721214E+02  0.61689383190E+02  0.00000000000E+00 0. -1.
</event>
<event>
 7    1  0.1620881E-005  0.7847381E+02  0.7561462E-02  0.1333439E+00
         -4   -1    0    0    0  501 -0.00000000000E+00  0.00000000000E+00  0.21879676374E+03  0.21879676374E+03  0.00000000000E+00 0.  1.
          4   -1    0    0  501    0  0.00000000000E+00 -0.00000000000E+00 -0.74828221367E+02  0.74828221367E+02  0.00000000000E+00 0. -1.
         23    2    1    2    0    0 -0.40208896814E+02 -0.13890831242E+02  0.14610993895E+03  0.19698973105E+03  0.12508848589E+03 0.  0.
          5    1    3    3  502    0 -0.42018865200E+02  0.22525916539E+02  0.15241431181E+03  0.15975167227E+03  0.41800000000E+01 0. -1.
         -5    1    3    3    0  502  0.18099683856E+01 -0.36416747781E+02 -0.63043728577E+01  0.37238058779E+02  0.41800000000E+01 0. -1.
        -11    1    1    2    0    0  0.34445490777E+02  0.35831609138E+02 -0.32017312417E+02  0.59122790383E+02  0.00000000000E+00 0. -1.
         11    1    1    2    0    0  0.57634060374E+01 -0.21940777896E+02  0.29875915844E+02  0.37512463680E+02  0.00000000000E+00 0.  1.
</event>
<event>
 6    1  0.1620881E-005  0.9241424E+02  0.7561462E-02  0.1297108E+00
          2   -1    0    0  501    0  0.00000000000E+00  0.00000000000E+00  0.12845465985E+02  0.12845465985E+02  0.00000000000E+00 0. -1.
         -2   -1    0    0    0  501 -0.00000000000E+00 -0.00000000000E+00 -0.68330987375E+03  0.68330987375E+03  0.00000000000E+00 0.  1.
          5    1    1    2  502    0 -0.71463751111E+02 -0.21256543362E+02 -0.23655658958E+03  0.24806330005E+03  0.41800000000E+01 0. -1.
         -5    1    1    2    0  502  0.58005381358E+02  0.48197875263E+02 -0.31428785539E+03  0.32323673661E+03  0.41800000000E+01 0.  1.
        -11    1    1    2    0    0  0.16875325795E+02 -0.16368272510E+02 -0.94626467749E+02  0.97503155663E+02  0.00000000000E+00 0.  1.
         11    1    1    2    0    0 -0.34169560418E+01 -0.10573059391E+02 -0.24993495038E+02  0.27352147406E+02  0.00000000000E+00 0. -1.
</event>
<event>
 7    1  0.1620881E-005  0.1699098E+03  0.7561462E-02  0.1177942E+00
          1   -1    0    0  501    0  0.00000000000E+00  0.00000000000E+00  0.11310919442E+03  0.11310919442E+03  0.00000000000E+00 0. -1.
         -1   -1    0    0    0  501 -0.00000000000E+00 -0.00000000000E+00 -0.30050327847E+03  0.30050327847E+03  0.00000000000E+00 0.  1.
         23    2    1    2    0    0  0.21679901372E+02 -0.14636325365E+03 -0.11653936171E+03  0.22610767990E+03  0.12510411640E+03 0.  0.
          5    1    3    3  502    0 -0.49983023327E+02 -0.43795393503E+02 -0.56195963594E+02  0.87130923542E+02  0.41800000000E+01 0.  1.
         -5    1    3    3    0  502  0.71662924699E+02 -0.10256786015E+03 -0.60343398112E+02  0.13897675636E+03  0.41800000000E+01 0.  1.
        -11    1    1    2    0    0 -0.12507310627E+02  0.99918694858E+02  0.18848492002E+01  0.10071609135E+03  0.00000000000E+00 0. -1.
         11    1    1    2    0    0 -0.91725907457E+01  0.46444558791E+02 -0.72739571549E+02  0.86788701634E+02  0.00000000000E+00 0.  1.
</event>
<event>
 7    1  0.2586823E-005  0.1173202E+03  0.7561462E-02  0.1247584E+00
         -1   -1    0    0    0  501 -0.00000000000E+00  0.00000000000E+00  0.47821535368E+02  0.47821535368E+02  0.00000000000E+00 0.  1.
          1   -1    0    0  501    0  0.00000000000E+00 -0.00000000000E+00 -0.46662708517E+03  0.46662708517E+03  0.00000000000E+00 0. -1.
         23    2    1    2    0    0  0.52703665350E+02  0.80887663979E+02 -0.16624706804E+03  0.22935946733E+03  0.12508871690E+03 0.  0.
          5    1    3    3  502    0  0.54000497371E+02  0.57700427705E+02 -0.20548545661E+02  0.81762510984E+02  0.41800000000E+01 0.  1.
         -5    1    3    3    0  502 -0.12968320212E+01  0.23187236274E+02 -0.14569852238E+03  0.14759695634E+03  0.41800000000E+01 0.  1.
        -11    1    1    2    0    0  0.21213123871E+02 -0.44974218511E+02 -0.10533798222E+03  0.11648505249E+03  0.00000000000E+00 0. -1.
         11    1    1    2    0    0 -0.73916789221E+02 -0.35913445468E+02 -0.14722049954E+03  0.16860410072E+03  0.00000000000E+00 0.  1.
</event>
<event>
 7    1  0.1620881E-005  0.1039466E+03  0.7561462E-02  0.1272209E+00
          2   -1    0    0  501    0  0.00000000000E+00  0.00000000000E+00  0.22284334470E+03  0.22284334470E+03  0.00000000000E+00 0. -1.
         -2   -1    0    0    0  501 -0.00000000000E+00 -0.00000000000E+00 -0.56362391395E+02  0.56362391395E+02  0.00000000000E+00 0.  1.
         23    2    1    2    0    0  0.18878844034E+02  0.23515832286E+02  0.76076332478E+02  0.14947692257E+03  0.12508531847E+03 0.  0.
          5    1    3    3  502    0  0.70239591816E+02  0.27255018375E+02  0.56335684353E+02  0.94168030757E+02  0.41800000000E+01 0. -1.
         -5    1    3    3    0  502 -0.51360747782E+02 -0.37391860890E+01  0.19740648125E+02  0.55308891814E+02  0.41800000000E+01 0. -1.
        -11    1    1    2    0    0 -0.43293901875E+02  0.45936446117E+01  0.15737985133E+02  0.46294143111E+02  0.00000000000E+00 0.  1.
         11    1    1    2    0    0  0.24415057841E+02 -0.28109476898E+02  0.74666635691E+02  0.83434670409E+02  0.00000000000E+00 0. -1.
</event>
<event>
 7    1  0.1620881E-005  0.1225865E+03  0.7561462E-02  0.1238890E+00
         -1   -1    0    0    0  501 -0.00000000000E+00  0.00000000000E+00  0.40669054574E+02  0.40669054574E+02  0.00000000000E+00 0.  1.
          1   -1    0    0  501    0  0.00000000000E+00 -0.00000000000E+00 -0.57111545840E+03  0.57111545840E+03  0.00000000000E+00 0. -1.
         23    2    1    2    0    0  0.32775111606E+02  0.95819126482E+02 -0.21893410741E+03  0.27172770453E+03  0.12509312162E+03 0.  0.
          5    1    3    3  502    0 -0.23414214972E+02  0.61735359157E+02 -0.18736081948E+03  0.19869833696E+03  0.41800000000E+01 0.  1.
         -5    1    3    3    0  502  0.56189326578E+02  0.34083767325E+02 -0.31573287929E+02  0.73029367565E+02  0.41800000000E+01 0.  1.
        -11    1    1    2    0    0 -0.25646591744E+02 -0.10771047252E+02 -0.15200681055E+02  0.31698956316E+02  0.00000000000E+00 0.  1.
         11    1    1    2    0    0 -0.71285198622E+01 -0.85048079230E+02 -0.29631161536E+03  0.30835785213E+03  0.00000000000E+00 0. -1.
</event>
<event>
 7    1  0.1620881E-005  0.1217450E+03  0.7561462E-02  0.1240246E+00
         -1   -1    0    0    0  501 -0.00000000000E+00  0.00000000000E+00  0.27820438808E+02  0.27820438808E+02  0.00000000000E+00 0.  1.
          1   -1    0    0  501    0  0.00000000000E+00 -0.00000000000E+00 -0.94427987111E+03  0.94427987111E+03  0.00000000000E+00 0. -1.
         23    2    1    2    0    0  0.11209503117E+03 -0.35026548713E+02 -0.56570757092E+03  0.59115497705E+03  0.12508795296E+03 0.  0.
          5    1    3    3  502    0  0.58278547920E+02 -0.40627137142E+02 -0.10251892856E+03  0.12479806302E+03  0.41800000000E+01 0. -1.
         -5    1    3    3    0  502  0.53816483248E+02  0.56005884291E+01 -0.46318864236E+03  0.46635691403E+03  0.41800000000E+01 0. -1.
        -11    1    1    2    0    0 -0.60177344474E+02  0.12495780216E+02 -0.64273254182E+02  0.88929795425E+02  0.00000000000E+00 0.  1.
         11    1    1    2    0    0 -0.51917686694E+02  0.22530768497E+02 -0.28647860720E+03  0.29201553744E+03  0.00000000000E+00 0. -1.
</event>
<event>
 7    1  0.1620881E-005  0.2272229E+03  0.7561462E-02  0.1128610E+00
          1   -1    0    0  501    0  0.00000000000E+00  0.00000000000E+00  0.40516393992E+03  0.40516393992E+03  0.00000000000E+00 0. -1.
         -1   -1    0    0    0  501 -0.00000000000E+00 -0.00000000000E+00 -0.15020766119E+03  0.15020766119E+03  0.00000000000E+00 0.  1.
         23    2    1    2    0    0 -0.92630146135E+02 -0.18398344436E+03  0.40354254262E+02  0.24434577287E+03  0.12508452788E+03 0.  0.
          5    1    3    3  502    0 -0.11552557488E+03 -0.13392371961E+03  0.58336063513E+02  0.18628550623E+03  0.41800000000E+01 0. -1.
         -5    1    3    3    0  502  0.22895428743E+02 -0.50059724746E+02 -0.17981809251E+02  0.58060266645E+02  0.41800000000E+01 0. -1.
        -11    1    1    2    0    0  0.20086778514E+02  0.13090326856E+03  0.10329797567E+03  0.16795718552E+03  0.00000000000E+00 0.  1.
         11    1    1    2    0    0  0.72543367620E+02  0.53080175800E+02  0.11130404880E+03  0.14306864271E+03  0.00000000000E+00 0. -1.
</event>
<event>
 7    1  0.1620881E-005  0.1009358E+03  0.7561462E-02  0.1278340E+00
          2   -1    0    0  501    0  0.00000000000E+00  0.00000000000E+00  0.14375587945E+03  0.14375587945E+03  0.00000000000E+00 0. -1.
         -2   -1    0    0    0  501 -0.00000000000E+00 -0.00000000000E+00 -0.12242384579E+03  0.12242384579E+03  0.00000000000E+00 0.  1.
         23    2    1    2    0    0 -0.53223062003E+02  0.36287369392E+02 -0.25970257395E+02  0.14307587940E+03  0.12508711160E+03 0.  0.
          5    1    3    3  502    0 -0.51371049359E+02 -0.28209234087E+02  0.21816399248E+02  0.62675140815E+02  0.41800000000E+01 0.  1.
         -5    1    3    3    0  502 -0.18520126447E+01  0.64496603479E+02 -0.47786656643E+02  0.80400738580E+02  0.41800000000E+01 0.  1.
        -11    1    1    2    0    0  0.73698368602E+01 -0.31505204627E+02 -0.22529437815E+02  0.39426741968E+02  0.00000000000E+00 0.  1.
         11    1    1    2    0    0  0.45853225143E+02 -0.47821647651E+01  0.69831728877E+02  0.83677103880E+02  0.00000000000E+00 0. -1.
</event>
<event>
 7    1  0.1620881E-005  0.1093735E+03  0.7561462E-02  0.1261735E+00
         -2   -1    0    0    0  501 -0.00000000000E+00  0.00000000000E+00  0.34911824010E+02  0.34911824010E+02  0.00000000000E+00 0. -1.
          2   -1    0    0  501    0  0.00000000000E+00 -0.00000000000E+00 -0.76122275460E+03  0.76122275460E+03  0.00000000000E+00 0.  1.
         23    2    1    2    0    0  0.70114375300E+02  0.48556221827E+02 -0.18060306603E+03  0.23566670312E+03  0.12509034813E+03 0.  0.
          5    1    3    3  502    0  0.47541327267E+01 -0.96487703906E+01 -0.13756356711E+03  0.13804675999E+03  0.41800000000E+01 0. -1.
         -5    1    3    3    0  502  0.65360242574E+02  0.58204992218E+02 -0.43039498920E+02  0.97619943125E+02  0.41800000000E+01 0. -1.
        -11    1    1    2    0    0 -0.40197743486E+01 -0.53179156796E+02 -0.14881073246E+03  0.15807851024E+03  0.00000000000E+00 0.  1.
         11    1    1    2    0    0 -0.66094600952E+02  0.46229349692E+01 -0.39689713209E+03  0.40238936525E+03  0.00000000000E+00 0. -1.
</event>
<event>
 7    1  0.1620881E-005  0.1074203E+03  0.7561462E-02  0.1265423E+00
          1   -1    0    0  501    0  0.00000000000E+00  0.00000000000E+00  0.29545568188E+03  0.29545568188E+03  0.00000000000E+00 0. -1.
         -1   -1    0    0    0  501 -0.00000000000E+00 -0.00000000000E+00 -0.57035593124E+02  0.57035593124E+02  0.00000000000E+00 0.  1.
         23    2    1    2    0    0 -0.75316950669E+01  0.61944342781E+02  0.93732774629E+02  0.16830156011E+03  0.12508298871E+03 0.  0.
          5    1    3    3  502    0 -0.51456014363E+02  0.48740151741E+02  0.86109449683E+01  0.71518840728E+02  0.41800000000E+01 0. -1.
         -5    1    3    3    0  502  0.43924319296E+02  0.13204191039E+02  0.85121829660E+02  0.96782719384E+02  0.41800000000E+01 0. -1.
        -11    1    1    2    0    0 -0.27437023043E+02 -0.91995690001E+00  0.92834182732E+02  0.96808171337E+02  0.00000000000E+00 0. -1.
         11    1    1    2    0    0  0.34968718109E+02 -0.61024385881E+02  0.51853131396E+02  0.87381543554E+02  0.00000000000E+00 0.  1.
</event>
<event>
 6    1  0.1620881E-005  0.1114909E+03  0.7561462E-02  0.1257834E+00
         -1   -1    0    0    0  501 -0.00000000000E+00  0.00000000000E+00  0.10325826621E+03  0.10325826621E+03  0.00000000000E+00 0.  1.
          1   -1    0    0  501    0  0.00000000000E+00 -0.00000000000E+00 -0.19321997029E+03  0.19321997029E+03  0.00000000000E+00 0. -1.
          5    1    1    2  502    0 -0.14395019031E+02  0.37099115041E+02 -0.12192748457E+02  0.41829372751E+02  0.41800000000E+01 0. -1.
         -5    1    1    2    0  502  0.26467133779E+02 -0.96058985539E+02  0.26457195553E+02  0.10317603147E+03  0.41800000000E+01 0.  1.
        -11    1    1    2    0    0  0.19155141915E+02  0.45251973716E+02 -0.10650386352E+03  0.11729336525E+03  0.00000000000E+00 0. -1.
         11    1    1    2    0    0 -0.31227256663E+02  0.13707896781E+02  0.22777123357E+01  0.34179467028E+02  0.00000000000E+00 0.  1.
</event>
<event>
 7    1  0.1964548E-005  0.3519737E+03  0.7561462E-02  0.1061808E+00
          1   -1    0    0  501    0  0.00000000000E+00  0.00000000000E+00  0.16143217586E+04  0.16143217586E+04  0.00000000000E+00 0. -1.
         -1   -1    0    0    0  501 -0.00000000000E+00 -0.00000000000E+00 -0.87581794339E+02  0.87581794339E+02  0.00000000000E+00 0.  1.
         23    2    1    2    0    0  0.33334814784E+03  0.95520886703E+02  0.55772716590E+03  0.66854493861E+03  0.12509003114E+03 0.  0.
          5    1    3    3  502    0  0.17840801298E+02  0.15888876429E+01  0.11696533049E+03  0.11840261691E+03  0.41800000000E+01 0.  1.
         -5    1    3    3    0  502  0.31550734654E+03  0.93931999060E+02  0.44076183542E+03  0.55014232170E+03  0.41800000000E+01 0. -1.
        -11    1    1    2    0    0 -0.64480573666E+02 -0.54355654121E+02  0.28609556122E+03  0.29826657819E+03  0.00000000000E+00 0.  1.
         11    1    1    2    0    0 -0.26886757417E+03 -0.41165232583E+02  0.68291723714E+03  0.73509203614E+03  0.00000000000E+00 0. -1.
</event>
<event>
 7    1  0.1620881E-005  0.9139924E+02  0.7561462E-02  0.1299498E+00
          2   -1    0    0  501    0  0.00000000000E+00  0.00000000000E+00  0.37109653876E+03  0.37109653876E+03  0.00000000000E+00 0. -1.
         -2   -1    0    0    0  501 -0.00000000000E+00 -0.00000000000E+00 -0.53333368632E+02  0.53333368632E+02  0.00000000000E+00 0.  1.
         23    2    1    2    0    0  0.29168087980E+02 -0.32183768758E+02  0.55366527639E+02  0.14347978616E+03  0.12503769162E+03 0.  0.
          5    1    3    3  502    0  0.63141821582E+02 -0.13208965789E+02 -0.11829212873E+02  0.65717342362E+02  0.41800000000E+01 0.  1.
         -5    1    3    3    0  502 -0.33973733602E+02 -0.18974802969E+02  0.67195740512E+02  0.77762443799E+02  0.41800000000E+01 0.  1.
        -11    1    1    2    0    0 -0.29128439253E+02 -0.14358379066E+02  0.30919141601E+02  0.44839963650E+02  0.00000000000E+00 0.  1.
         11    1    1    2    0    0 -0.39648727241E-01  0.46542147824E+02  0.23147750088E+03  0.23611015758E+03  0.00000000000E+00 0. -1.
</event>
<event>
 7    1  0.1620881E-005  0.1729729E+03  0.7561462E-02  0.1174783E+00
         -3   -1    0    0    0  501 -0.00000000000E+00  0.00000000000E+00  0.89832846155E+03  0.89832846155E+03  0.00000000000E+00 0.  1.
          3   -1    0    0  501    0  0.00000000000E+00 -0.00000000000E+00 -0.60114892728E+02  0.60114892728E+02  0.00000000000E+00 0. -1.
         23    2    1    2    0    0  0.11872388801E+03  0.81469420314E+02  0.72936400662E+03  0.75389162462E+03  0.12509236381E+03 0.  0.
          5    1    3    3  502    0 -0.16799850724E+02  0.13608807682E+02  0.24660035569E+02  0.33060919302E+02  0.41800000000E+01 0.  1.
         -5    1    3    3    0  502  0.13552373873E+03  0.67860612633E+02  0.70470397105E+03  0.72083070532E+03  0.41800000000E+01 0.  1.
        -11    1    1    2    0    0 -0.68580047821E+02  0.86993443330E+01  0.53889064906E+02  0.87652340912E+02  0.00000000000E+00 0. -1.
         11    1    1    2    0    0 -0.50143840184E+02 -0.90168764647E+02  0.54960497289E+02  0.11689938874E+03  0.00000000000E+00 0.  1.
</event>
<event>
 7    1  0.1620881E-005  0.8372323E+02  0.7561462E-02  0.1318806E+00
         -3   -1    0    0    0  501 -0.00000000000E+00  0.00000000000E+00  0.70583384632E+02  0.70583384632E+02  0.00000000000E+00 0.  1.
          3   -1    0    0  501    0  0.00000000000E+00 -0.00000000000E+00 -0.26278813257E+03  0.26278813257E+03  0.00000000000E+00 0. -1.
         23    2    1    2    0    0  0.47282367645E+02  0.58355678814E+02 -0.68838129600E+02  0.16132985789E+03  0.12509047693E+03 0.  0.
          5    1    3    3  502    0  0.22716786505E+02  0.47964911886E+02 -0.10409778769E+03  0.11692094322E+03  0.41800000000E+01 0. -1.
         -5    1    3    3    0  502  0.24565581140E+02  0.10390766927E+02  0.35259658086E+02  0.44408914673E+02  0.41800000000E+01 0. -1.
        -11    1    1    2    0    0 -0.37968504253E+02 -0.11839094512E+02 -0.11773212706E+03  0.12426835968E+03  0.00000000000E+00 0. -1.
         11    1    1    2    0    0 -0.93138633925E+01 -0.46516584302E+02 -0.56344912771E+01  0.47773299639E+02  0.00000000000E+00 0.  1.
</event>
<event>
 7    1  0.1620881E-005  0.8254741E+02  0.7561462E-02  0.1321974E+00
          2   -1    0    0  501    0  0.00000000000E+00  0.00000000000E+00  0.19601369947E+03  0.19601369947E+03  0.00000000000E+00 0. -1.
         -2   -1    0    0    0  501 -0.00000000000E+00 -0.00000000000E+00 -0.66233196548E+02  0.66233196548E+02  0.00000000000E+00 0.  1.
         23    2    1    2    0    0  0.15215626741E+02 -0.10612781868E+02  0.24743411865E+02  0.12197419192E+03  0.11798864618E+03 0.  0.
          5    1    3    3  502    0  0.13507208550E+01  0.33100992933E+02 -0.33784976869E+02  0.47501549891E+02  0.41800000000E+01 0. -1.
         -5    1    3    3    0  502  0.13864905887E+02 -0.43713774802E+02  0.58528388734E+02  0.74472642026E+02  0.41800000000E+01 0.  1.
        -11    1    1    2    0    0  0.34642885591E+02 -0.16604084783E+00  0.70848704647E+02  0.78865049558E+02  0.00000000000E+00 0.  1.
         11    1    1    2    0    0 -0.49858512332E+02  0.10778822716E+02  0.34188386410E+02  0.61407654543E+02  0.00000000000E+00 0. -1.
</event>
<event>
 7    1  0.1620881E-005  0.9126276E+02  0.7561462E-02  0.1299822E+00
          1   -1    0    0  501    0  0.00000000000E+00  0.00000000000E+00  0.57223451609E+02  0.57223451609E+02  0.00000000000E+00 0. -1.
         -1   -1    0    0    0  501 -0.00000000000E+00 -0.00000000000E+00 -0.38589449382E+03  0.38589449382E+03  0.00000000000E+00 0.  1.
         23    2    1    2    0    0 -0.16014762962E+01 -0.50639996466E+02 -0.28336970741E+03  0.31386919004E+03  0.12509397832E+03 0.  0.
          5    1    3    3  502    0  0.71316141236E+01 -0.85870189234E+02 -0.12866529599E+03  0.15490894135E+03  0.41800000000E+01 0. -1.
         -5    1    3    3    0  502 -0.87330904198E+01  0.35230192768E+02 -0.15470441142E+03  0.15896024869E+03  0.41800000000E+01 0. -1.
        -11    1    1    2    0    0 -0.15027779037E+02  0.23686517942E+02  0.33869944109E+02  0.43977930703E+02  0.00000000000E+00 0. -1.
         11    1    1    2    0    0  0.16629255333E+02  0.26953478525E+02 -0.79171278912E+02  0.85270824683E+02  0.00000000000E+00 0.  1.
</event>
<event>
 7    1  0.1620881E-005  0.1182837E+03  0.7561462E-02  0.1245956E+00
         -1   -1    0    0    0  501 -0.00000000000E+00  0.00000000000E+00  0.13547852983E+03  0.13547852983E+03  0.00000000000E+00 0.  1.
          1   -1    0    0  501    0  0.00000000000E+00 -0.00000000000E+00 -0.12390763729E+03  0.12390763729E+03  0.00000000000E+00 0. -1.
         23    2    1    2    0    0 -0.48058048448E+02 -0.48331603165E+02  0.89215976723E+01  0.14273120858E+03  0.12508830126E+03 0.  0.
          5    1    3    3  502    0  0.88315320658E+01 -0.62285656699E+02 -0.32438697555E+02  0.70903035817E+02  0.41800000000E+01 0.  1.
         -5    1    3    3    0  502 -0.56889580514E+02  0.13954053535E+02  0.41360295227E+02  0.71828172762E+02  0.41800000000E+01 0.  1.
        -11    1    1    2    0    0  0.55350461556E+01  0.67801248221E+02 -0.85568361111E+01  0.68562857587E+02  0.00000000000E+00 0.  1.
         11    1    1    2    0    0  0.42523002293E+02 -0.19469645057E+02  0.11206130981E+02  0.48092100954E+02  0.00000000000E+00 0. -1.
</event>
<event>
 7    1  0.1620881E-005  0.2345150E+03  0.7561462E-02  0.1123502E+00
          1   -1    0    0  501    0  0.00000000000E+00  0.00000000000E+00  0.19255337148E+03  0.19255337148E+03  0.00000000000E+00 0. -1.
         -1   -1    0    0    0  501 -0.00000000000E+00 -0.00000000000E+00 -0.37446220412E+03  0.37446220412E+03  0.00000000000E+00 0.  1.
         23    2    1    2    0    0 -0.21323049101E+03 -0.44679185172E+02 -0.21278334371E+03  0.32922181097E+03  0.12508707998E+03 0.  0.
          5    1    3    3  502    0 -0.78879309973E+02  0.40239792182E+02 -0.10358887448E+03  0.13634263358E+03  0.41800000000E+01 0.  1.
         -5    1    3    3    0  502 -0.13435118104E+03 -0.84918977353E+02 -0.10919446923E+03  0.19287917739E+03  0.41800000000E+01 0.  1.
        -11    1    1    2    0    0  0.91020802596E+02 -0.70291712872E+00 -0.27313464049E+02  0.95033183236E+02  0.00000000000E+00 0. -1.
         11    1    1    2    0    0  0.12220968841E+03  0.45382102300E+02  0.58187975115E+02  0.14276058139E+03  0.00000000000E+00 0.  1.
</event>
<event>
 7    1  0.1620881E-005  0.9828866E+02  0.7561462E-02  0.1283936E+00
          1   -1    0    0  501    0  0.00000000000E+00  0.00000000000E+00  0.36041665844E+03  0.36041665844E+03  0.00000000000E+00 0. -1.
         -1   -1    0    0    0  501 -0.00000000000E+00 -0.00000000000E+00 -0.44518474690E+02  0.44518474690E+02  0.00000000000E+00 0.  1.
         23    2    1    2    0    0  0.48028969615E+02 -0.29356559024E+02  0.12255717051E+03  0.18394949699E+03  0.12509423616E+03 0.  0.
          5    1    3    3  502    0 -0.17902129712E+02 -0.97048325729E-01 -0.18113317212E+02  0.25808144587E+02  0.41800000000E+01 0. -1.
         -5    1    3    3    0  502  0.65931099327E+02 -0.29259510698E+02  0.14067048772E+03  0.15814135241E+03  0.41800000000E+01 0. -1.
        -11    1    1    2    0    0 -0.13973339269E+01  0.53439028178E+02  0.11321671510E+03  0.12520266312E+03  0.00000000000E+00 0. -1.
         11    1    1    2    0    0 -0.46631635688E+02 -0.24082469155E+02  0.80124298143E+02  0.95782973019E+02  0.00000000000E+00 0.  1.
</event>
<event>
 7    1  0.1620881E-005  0.1402729E+03  0.7561462E-02  0.1212962E+00
         -2   -1    0    0    0  501 -0.00000000000E+00  0.00000000000E+00  0.22718417745E+03  0.22718417745E+03  0.00000000000E+00 0.  1.
          2   -1    0    0  501    0  0.00000000000E+00 -0.00000000000E+00 -0.22354175742E+03  0.22354175742E+03  0.00000000000E+00 0. -1.
         23    2    1    2    0    0  0.11284113882E+03  0.55598994640E+01  0.16340734885E+03  0.23476242568E+03  0.12508956696E+03 0.  0.
          5    1    3    3  502    0 -0.19437954006E+02  0.25888283541E+02  0.47686132958E+02  0.57788207769E+02  0.41800000000E+01 0.  1.
         -5    1    3    3    0  502  0.13227909283E+03 -0.20328384077E+02  0.11572121589E+03  0.17697421791E+03  0.41800000000E+01 0.  1.
        -11    1    1    2    0    0 -0.37897927857E+02 -0.91157384937E+01 -0.12919523883E+03  0.13494724658E+03  0.00000000000E+00 0. -1.
         11    1    1    2    0    0 -0.74943210962E+02  0.35558390297E+01 -0.30569689990E+02  0.81016262606E+02  0.00000000000E+00 0.  1.
</event>
<event>
 7    1  0.1620881E-005  0.1169014E+03  0.7561462E-02  0.1248298E+00
         -3   -1    0    0    0  501 -0.00000000000E+00  0.00000000000E+00  0.33933869564E+02  0.33933869564E+02  0.00000000000E+00 0.  1.
          3   -1    0    0  501    0  0.00000000000E+00 -0.00000000000E+00 -0.49267787076E+03  0.49267787076E+03  0.00000000000E+00 0. -1.
         23    2    1    2    0    0 -0.23290618299E+02  0.70065466476E+02 -0.23358683535E+03  0.27505028593E+03  0.12505289941E+03 0.  0.
          5    1    3    3  502    0  0.34006592317E+02  0.76671132253E+02 -0.16650204892E+03  0.18648140802E+03  0.41800000000E+01 0. -1.
         -5    1    3    3    0  502 -0.57297210617E+02 -0.66056657768E+01 -0.67084786424E+02  0.88568877911E+02  0.41800000000E+01 0. -1.
        -11    1    1    2    0    0  0.33841378144E+02 -0.16961065526E+02 -0.27942989645E+02  0.47050263429E+02  0.00000000000E+00 0.  1.
         11    1    1    2    0    0 -0.10550759844E+02 -0.53104400950E+02 -0.19721417620E+03  0.20451119096E+03  0.00000000000E+00 0. -1.
</event>
<event>
 7    1  0.1620881E-005  0.7095905E+02  0.7561462E-02  0.1356862E+00
         -1   -1    0    0    0  501 -0.00000000000E+00  0.00000000000E+00  0.74955127565E+03  0.74955127565E+03  0.00000000000E+00 0.  1.
          1   -1    0    0  501    0  0.00000000000E+00 -0.00000000000E+00 -0.28224746705E+02  0.28224746705E+02  0.00000000000E+00 0. -1.
         23    2    1    2    0    0  0.61856776141E+02  0.95419625277E+01  0.59037009730E+03  0.60671348791E+03  0.12508834806E+03 0.  0.
          5    1    3    3  502    0  0.14078406402E+02 -0.17270886745E+02  0.50294028099E+03  0.50345097448E+03  0.41800000000E+01 0.  1.
         -5    1    3    3    0  502  0.47778369739E+02  0.26812849272E+02  0.87429816310E+02  0.10326251344E+03  0.41800000000E+01 0.  1.
        -11    1    1    2    0    0 -0.52491851712E+02 -0.13394813370E+02  0.14440234057E+03  0.15422986573E+03  0.00000000000E+00 0.  1.
         11    1    1    2    0    0 -0.93649244287E+01  0.38528508421E+01 -0.13445908926E+02  0.16832668713E+02  0.00000000000E+00 0. -1.
</event>
<event>
 7    1  0.1620881E-005  0.1097065E+03  0.7561462E-02  0.1261114E+00
          1   -1    0    0  501    0  0.00000000000E+00  0.00000000000E+00  0.43324307295E+03  0.43324307295E+03  0.00000000000E+00 0. -1.
         -1   -1    0    0    0  501 -0.00000000000E+00 -0.00000000000E+00 -0.28895748521E+02  0.28895748521E+02  0.00000000000E+00 0.  1.
         23    2    1    2    0    0  0.48287266252E+01 -0.22601651308E+02  0.19157858624E+03  0.22996066009E+03  0.12508157035E+03 0.  0.
          5    1    3    3  502    0  0.48402443493E+02  0.31011301089E+02  0.78619209728E+02  0.97483074785E+02  0.41800000000E+01 0.  1.
         -5    1    3    3    0  502 -0.43573716867E+02 -0.53612952396E+02  0.11295937651E+03  0.13247758530E+03  0.41800000000E+01 0.  1.
        -11    1    1    2    0    0 -0.18078062812E+02  0.54821602853E+02  0.14248155934E+03  0.15373099637E+03  0.00000000000E+00 0.  1.
         11    1    1    2    0    0  0.13249336187E+02 -0.32219951545E+02  0.70287178856E+02  0.78447165012E+02  0.00000000000E+00 0. -1.
</event>
<event>
 7    1  0.1620881E-005  0.1181139E+03  0.7561462E-02  0.1246241E+00
          1   -1    0    0  501    0  0.00000000000E+00  0.00000000000E+00  0.16338432143E+03  0.16338432143E+03  0.00000000000E+00 0. -1.
         -1   -1    0    0    0  501 -0.00000000000E+00 -0.00000000000E+00 -0.13470753181E+03  0.13470753181E+03  0.00000000000E+00 0.  1.
         23    2    1    2    0    0 -0.70018352034E+02  0.60716235564E+02 -0.20675371642E+02  0.15704407536E+03  0.12508532979E+03 0.  0.
          5    1    3    3  502    0 -0.17133560534E+02 -0.20203914028E+02 -0.49314830972E+02  0.56135389839E+02  0.41800000000E+01 0. -1.
         -5    1    3    3    0  502 -0.52884791500E+02  0.80920149592E+02  0.28639459329E+02  0.10090868552E+03  0.41800000000E+01 0. -1.
        -11    1    1    2    0    0  0.11368596942E+02 -0.52154095702E+02 -0.13083449666E+02  0.54958815035E+02  0.00000000000E+00 0.  1.
         11    1    1    2    0    0  0.58649755092E+02 -0.85621398619E+01  0.62435610931E+02  0.86088962845E+02  0.00000000000E+00 0. -1.
</event>
<event>
 7    1  0.1620881E-005  0.1078457E+03  0.7561462E-02  0.1264612E+00
         -2   -1    0    0    0  501 -0.00000000000E+00  0.00000000000E+00  0.59897535254E+02  0.59897535254E+02  0.00000000000E+00 0.  1.
          2   -1    0    0  501    0  0.00000000000E+00 -0.00000000000E+00 -0.20889226200E+03  0.20889226200E+03  0.00000000000E+00 0. -1.
         23    2    1    2    0    0 -0.25290910461E+02 -0.54771685860E+01 -0.73593849949E+02  0.14741966409E+03  0.12508746173E+03 0.  0.
          5    1    3    3  502    0  0.21876583226E+02  0.49310174708E+02 -0.41608471288E+02  0.68255516307E+02  0.41800000000E+01 0.  1.
         -5    1    3    3    0  502 -0.47167493688E+02 -0.54787343294E+02 -0.31985378661E+02  0.79164147782E+02  0.41800000000E+01 0.  1.
        -11    1    1    2    0    0  0.76497397053E+01  0.45127973960E+02 -0.17483156198E+02  0.48997074422E+02  0.00000000000E+00 0.  1.
         11    1    1    2    0    0  0.17641170756E+02 -0.39650805374E+02 -0.57917720602E+02  0.72373058746E+02  0.00000000000E+00 0. -1.
</event>
<event>
 7    1  0.1620881E-005  0.1967015E+03  0.7561462E-02  0.1152552E+00
         -1   -1    0    0    0  501 -0.00000000000E+00  0.00000000000E+00  0.81445963123E+03  0.81445963123E+03  0.00000000000E+00 0.  1.
          1   -1    0    0  501    0  0.00000000000E+00 -0.00000000000E+00 -0.79252490233E+02  0.79252490233E+02  0.00000000000E+00 0. -1.
         23    2    1    2    0    0  0.11469733923E+03 -0.14047695808E+03  0.62406454741E+03  0.66181019075E+03  0.12508762478E+03 0.  0.
          5    1    3    3  502    0  0.32315329212E+02  0.53662525190E+01  0.24694973035E+03  0.24914798592E+03  0.41800000000E+01 0. -1.
         -5    1    3    3    0  502  0.82382010019E+02 -0.14584321060E+03  0.37711481706E+03  0.41266220484E+03  0.41800000000E+01 0. -1.
        -11    1    1    2    0    0 -0.76160600692E+02  0.41771932736E+02  0.13680628214E+02  0.87934583929E+02  0.00000000000E+00 0. -1.
         11    1    1    2    0    0 -0.38536738538E+02  0.98705025342E+02  0.97461965377E+02  0.14396734678E+03  0.00000000000E+00 0.  1.
</event>
<event>
 7    1  0.1620881E-005  0.1778450E+03  0.7561462E-02  0.1169905E+00
          1   -1    0    0  501    0  0.00000000000E+00  0.00000000000E+00  0.10873772416E+04  0.10873772416E+04  0.00000000000E+00 0. -1.
         -1   -1    0    0    0  501 -0.00000000000E+00 -0.00000000000E+00 -0.29698112401E+02  0.29698112401E+02  0.00000000000E+00 0.  1.
         23    2    1    2    0    0  0.11732222272E+03 -0.87177941179E+02  0.62805435149E+03  0.65686143381E+03  0.12510066919E+03 0.  0.
          5    1    3    3  502    0  0.17847580577E+02  0.32030881056E+02  0.11005164165E+03  0.11607475912E+03  0.41800000000E+01 0. -1.
         -5    1    3    3    0  502  0.99474642142E+02 -0.11920882223E+03  0.51800270984E+03  0.54078667469E+03  0.41800000000E+01 0. -1.
        -11    1    1    2    0    0 -0.76512300496E+02  0.94932637825E+02  0.34568948359E+03  0.36656180505E+03  0.00000000000E+00 0. -1.
         11    1    1    2    0    0 -0.40809922224E+02 -0.77546966467E+01  0.83935294091E+02  0.93652115118E+02  0.00000000000E+00 0.  1.
</event>
<event>
 7    1  0.1620881E-005  0.1119076E+03  0.7561462E-02  0.1257078E+00
         -2   -1    0    0    0  501 -0.00000000000E+00  0.00000000000E+00  0.26779841275E+02  0.26779841275E+02  0.00000000000E+00 0.  1.
          2   -1    0    0  501    0  0.00000000000E+00 -0.00000000000E+00 -0.54043379492E+03  0.54043379492E+03  0.00000000000E+00 0. -1.
         23    2    1    2    0    0  0.34382988694E+02  0.31984747794E+02 -0.25953181619E+03  0.29190563419E+03  0.12508765588E+03 0.  0.
          5    1    3    3  502    0 -0.69346626514E+01 -0.43829099738E+02 -0.62689143288E+02  0.76918662340E+02  0.41800000000E+01 0. -1.
         -5    1    3    3    0  502  0.41317651345E+02  0.75813847532E+02 -0.19684267290E+03  0.21498697185E+03  0.41800000000E+01 0. -1.
        -11    1    1    2    0    0  0.14813330464E+02 -0.40273996614E+02 -0.53540182703E+02  0.68614726747E+02  0.00000000000E+00 0.  1.
         11    1    1    2    0    0 -0.49196319157E+02  0.82892488200E+01 -0.20058195475E+03  0.20669327525E+03  0.00000000000E+00 0. -1.
</event>
<event>
 7    1  0.1620881E-005  0.8531633E+02  0.7561462E-02  0.1314607E+00
          1   -1    0    0  501    0  0.00000000000E+00  0.00000000000E+00  0.56579502631E+03  0.56579502631E+03  0.00000000000E+00 0. -1.
         -1   -1    0    0    0  501 -0.00000000000E+00 -0.00000000000E+00 -0.21053102141E+02  0.21053102141E+02  0.00000000000E+00 0.  1.
         23    2    1    2    0    0  0.15640187949E+02 -0.14856646535E+01  0.27974325689E+03  0.30683902371E+03  0.12508826490E+03 0.  0.
          5    1    3    3  502    0  0.43608683206E+02 -0.26704548190E+02  0.42596217871E+02  0.66684033485E+02  0.41800000000E+01 0. -1.
         -5    1    3    3    0  502 -0.27968495256E+02  0.25218883536E+02  0.23714703902E+03  0.24015499022E+03  0.41800000000E+01 0. -1.
        -11    1    1    2    0    0 -0.14986902217E+02 -0.38567667442E+02  0.19515349091E+03  0.19949174726E+03  0.00000000000E+00 0. -1.
         11    1    1    2    0    0 -0.65328573246E+00  0.40053332096E+02  0.69845176375E+02  0.80517357489E+02  0.00000000000E+00 0.  1.
</event>
<event>
 7    1  0.1620881E-005  0.1053287E+03  0.7561462E-02  0.1269473E+00
          2   -1    0    0  501    0  0.00000000000E+00  0.00000000000E+00  0.47793968234E+02  0.47793968234E+02  0.00000000000E+00 0.  1.
         -2   -1    0    0    0  501 -0.00000000000E+00 -0.00000000000E+00 -0.26563218235E+03  0.26563218235E+03  0.00000000000E+00 0. -1.
         23    2    1    2    0    0 -0.12026059332E+02 -0.29197753629E+02 -0.13023123539E+03  0.18331797141E+03  0.12509264187E+03 0.  0.
          5    1    3    3  502    0  0.26587036663E+02 -0.68552448740E+02 -0.77529425900E+02  0.10693265650E+03  0.41800000000E+01 0. -1.
         -5    1    3    3    0  502 -0.38613095995E+02  0.39354695112E+02 -0.52701809492E+02  0.76385314906E+02  0.41800000000E+01 0. -1.
        -11    1    1    2    0    0  0.38603747459E+02 -0.44289997740E+01 -0.79649617715E+01  0.39664921189E+02  0.00000000000E+00 0.  1.
         11    1    1    2    0    0 -0.26577688127E+02  0.33626753403E+02 -0.79642016956E+02  0.90443257988E+02  0.00000000000E+00 0. -1.
</event>
<event>
 7    1  0.1620881E-005  0.2127822E+03  0.7561462E-02  0.1139382E+00
          2   -1    0    0  501    0  0.00000000000E+00  0.00000000000E+00  0.33807995616E+03  0.33807995616E+03  0.00000000000E+00 0. -1.
         -2   -1    0    0    0  501 -0.00000000000E+00 -0.00000000000E+00 -0.14985533018E+03  0.14985533018E+03  0.00000000000E+00 0.  1.
         23    2    1    2    0    0  0.16560809120E+03  0.78278514368E+02  0.19178009159E+02  0.22263968272E+03  0.12508823527E+03 0.  0.
          5    1    3    3  502    0  0.17992187451E+03  0.91433393808E+02  0.18963974493E+02  0.20275367114E+03  0.41800000000E+01 0. -1.
         -5    1    3    3    0  502 -0.14313783311E+02 -0.13154879440E+02  0.21403466655E+00  0.19886011580E+02  0.41800000000E+01 0. -1.
        -11    1    1    2    0    0 -0.12029937455E+03 -0.97252837692E+02  0.13706432655E+03  0.20668014798E+03  0.00000000000E+00 0.  1.
         11    1    1    2    0    0 -0.45308716652E+02  0.18974323324E+02  0.31982290273E+02  0.58615455653E+02  0.00000000000E+00 0. -1.
</event>
<event>
 7    1  0.1620881E-005  0.8856807E+02  0.7561462E-02  0.1306357E+00
         -2   -1    0    0    0  501 -0.00000000000E+00  0.00000000000E+00  0.45114774018E+02  0.45114774018E+02  0.00000000000E+00 0.  1.
          2   -1    0    0  501    0  0.00000000000E+00 -0.00000000000E+00 -0.41887941302E+03  0.41887941302E+03  0.00000000000E+00 0. -1.
         23    2    1    2    0    0  0.26563190504E+02 -0.13422277815E+02 -0.72995584829E+02  0.14785212318E+03  0.12508450861E+03 0.  0.
          5    1    3    3  502    0  0.59706192875E+02 -0.76863538867E+01 -0.91216777791E+02  0.10937039112E+03  0.41800000000E+01 0.  1.
         -5    1    3    3    0  502 -0.33143002371E+02 -0.57359239286E+01  0.18221192962E+02  0.38481732061E+02  0.41800000000E+01 0.  1.
        -11    1    1    2    0    0  0.92042596480E+01  0.38260419941E+02 -0.22774633061E+03  0.23112111378E+03  0.00000000000E+00 0. -1.
         11    1    1    2    0    0 -0.35767450152E+02 -0.24838142126E+02 -0.73022723556E+02  0.85020950066E+02  0.00000000000E+00 0.  1.
</event>
<event>
 6    1  0.1620881E-005  0.1105516E+03  0.7561462E-02  0.1259552E+00
         -1   -1    0    0    0  501 -0.00000000000E+00  0.00000000000E+00  0.55957694830E+02  0.55957694830E+02  0.00000000000E+00 0.  1.
          1   -1    0    0  501    0  0.00000000000E+00 -0.00000000000E+00 -0.26641689974E+03  0.26641689974E+03  0.00000000000E+00 0. -1.
          5    1    1    2  502    0  0.51895231051E+02 -0.20835875000E+02 -0.10455109534E+03  0.11864085565E+03  0.41800000000E+01 0. -1.
         -5    1    1    2    0  502 -0.67948038767E+02 -0.11002578351E+02 -0.13428257347E+02  0.70255129336E+02  0.41800000000E+01 0.  1.
        -11    1    1    2    0    0 -0.30860398647E+02 -0.10775188835E+02 -0.35436681334E+02  0.48210240438E+02  0.00000000000E+00 0.  1.
         11    1    1    2    0    0  0.46913206364E+02  0.42613642186E+02 -0.57043170892E+02  0.85268369147E+02  0.00000000000E+00 0. -1.
</event>
<event>
 7    1  0.1620881E-005  0.8825073E+02  0.7561462E-02  0.1307144E+00
         -2   -1    0    0    0  501 -0.00000000000E+00  0.00000000000E+00  0.12642730523E+03  0.12642730523E+03  0.00000000000E+00 0.  1.
          2   -1    0    0  501    0  0.00000000000E+00 -0.00000000000E+00 -0.14854441475E+03  0.14854441475E+03  0.00000000000E+00 0. -1.
         23    2    1    2    0    0  0.59254836419E+02  0.31218537924E+02  0.39391272879E+02  0.14725914841E+03  0.12509137325E+03 0.  0.
          5    1    3    3  502    0  0.41645817904E+01 -0.14663075800E+02 -0.38316128373E+02  0.41448131766E+02  0.41800000000E+01 0. -1.
         -5    1    3    3    0  502  0.55090254629E+02  0.45881613724E+02  0.77707401252E+02  0.10581101664E+03  0.41800000000E+01 0. -1.
        -11    1    1    2    0    0 -0.71173028629E+02 -0.24994593520E+02 -0.76594948557E+02  0.10750402715E+03  0.00000000000E+00 0.  1.
         11    1    1    2    0    0  0.11918192210E+02 -0.62239444033E+01  0.15086566155E+02  0.20208544426E+02  0.00000000000E+00 0. -1.
</event>
<event>
 7    1  0.1620881E-005  0.9205796E+02  0.7561462E-02  0.1297943E+00
          2   -1    0    0  501    0  0.00000000000E+00  0.00000000000E+00  0.36940220878E+03  0.36940220878E+03  0.00000000000E+00 0. -1.
         -2   -1    0    0    0  501 -0.00000000000E+00 -0.00000000000E+00 -0.31754003101E+02  0.31754003101E+02  0.00000000000E+00 0.  1.
         23    2    1    2    0    0 -0.89123242755E+01  0.28386989620E+01  0.19962269935E+03  0.23576323226E+03  0.12509033478E+03 0.  0.
          5    1    3    3  502    0 -0.23036618005E+01 -0.45853965704E+02  0.17436175625E+03  0.18035350695E+03  0.41800000000E+01 0.  1.
         -5    1    3    3    0  502 -0.66086624750E+01  0.48692664666E+02  0.25260943097E+02  0.55409725303E+02  0.41800000000E+01 0.  1.
        -11    1    1    2    0    0 -0.19737915435E+02  0.35630279634E+02  0.82581160290E+02  0.92080129058E+02  0.00000000000E+00 0.  1.
         11    1    1    2    0    0  0.28650239710E+02 -0.38468978596E+02  0.55444346039E+02  0.73312850561E+02  0.00000000000E+00 0. -1.
</event>
<event>
 7    1  0.1620881E-005  0.1056765E+03  0.7561462E-02  0.1268793E+00
          4   -1    0    0  501    0  0.00000000000E+00  0.00000000000E+00  0.36281902013E+03  0.36281902013E+03  0.00000000000E+00 0. -1.
         -4   -1    0    0    0  501 -0.00000000000E+00 -0.00000000000E+00 -0.32289906136E+02  0.32289906136E+02  0.00000000000E+00 0.  1.
         23    2    1    2    0    0 -0.20534876755E+01 -0.10652331147E+02  0.18903715273E+03  0.22693799884E+03  0.12509245076E+03 0.  0.
          5    1    3    3  502    0  0.55252959873E+02 -0.27498067099E+02  0.12375859579E+03  0.13835713100E+03  0.41800000000E+01 0. -1.
         -5    1    3    3    0  502 -0.57306447548E+02  0.16845735951E+02  0.65278556942E+02  0.88580867837E+02  0.41800000000E+01 0. -1.
        -11    1    1    2    0    0  0.81983960786E+00  0.50121654887E+02  0.92853320118E+02  0.10552057374E+03  0.00000000000E+00 0. -1.
         11    1    1    2    0    0  0.12336480676E+01 -0.39469323739E+02  0.48638641147E+02  0.62650353683E+02  0.00000000000E+00 0.  1.
</event>
<event>
 7    1  0.1620881E-005  0.9144199E+02  0.7561462E-02  0.1299397E+00
          1   -1    0    0  501    0  0.00000000000E+00  0.00000000000E+00  0.30284581080E+02  0.30284581080E+02  0.00000000000E+00 0. -1.
         -1   -1    0    0    0  501 -0.00000000000E+00 -0.00000000000E+00 -0.48695802404E+03  0.48695802404E+03  0.00000000000E+00 0.  1.
         23    2    1    2    0    0  0.39065369305E+02 -0.87036958650E+01 -0.33841317960E+03  0.36300296189E+03  0.12508322354E+03 0.  0.
          5    1    3    3  502    0 -0.76153430831E+01 -0.30934514515E+02 -0.15006625090E+02  0.35462780984E+02  0.41800000000E+01 0.  1.
         -5    1    3    3    0  502  0.46680712388E+02  0.22230818650E+02 -0.32340655451E+03  0.32754018091E+03  0.41800000000E+01 0.  1.
        -11    1    1    2    0    0 -0.12885024847E+02  0.49088719376E+02 -0.56642426582E+02  0.76053209823E+02  0.00000000000E+00 0. -1.
         11    1    1    2    0    0 -0.26180344458E+02 -0.40385023511E+02 -0.61617836778E+02  0.78186433408E+02  0.00000000000E+00 0.  1.
</event>
<event>
 7    1  0.1620881E-005  0.9994585E+02  0.7561462E-02  0.1280410E+00
         -2   -1    0    0    0  501 -0.00000000000E+00  0.00000000000E+00  0.54461322502E+02  0.54461322502E+02  0.00000000000E+00 0.  1.
          2   -1    0    0  501    0  0.00000000000E+00 -0.00000000000E+00 -0.38427022910E+03  0.38427022910E+03  0.00000000000E+00 0. -1.
         23    2    1    2    0    0 -0.15244308929E+02 -0.91981473526E+02 -0.24274089813E+03  0.28855385633E+03  0.12508878428E+03 0.  0.
          5    1    3    3  502    0 -0.43961489905E+01  0.56765625281E+01 -0.15947624140E+03  0.15969249657E+03  0.41800000000E+01 0. -1.
         -5    1    3    3    0  502 -0.10848159938E+02 -0.97658036054E+02 -0.83264656722E+02  0.12886135976E+03  0.41800000000E+01 0. -1.
        -11    1    1    2    0    0  0.11670003343E+02  0.70551055932E+02 -0.12608005095E+02  0.72612686658E+02  0.00000000000E+00 0.  1.
         11    1    1    2    0    0  0.35743055861E+01  0.21430417594E+02 -0.74460003373E+02  0.77565008612E+02  0.00000000000E+00 0. -1.
</event>
<event>
 7    1  0.1620881E-005  0.1173376E+03  0.7561462E-02  0.1247555E+00
          2   -1    0    0  501    0  0.00000000000E+00  0.00000000000E+00  0.17406963462E+03  0.17406963462E+03  0.00000000000E+00 0. -1.
         -2   -1    0    0    0  501 -0.00000000000E+00 -0.00000000000E+00 -0.10422032394E+03  0.10422032394E+03  0.00000000000E+00 0.  1.
         23    2    1    2    0    0  0.17082805160E+02 -0.74845525887E+02  0.18880774345E+02  0.14797796247E+03  0.12508924318E+03 0.  0.
          5    1    3    3  502    0  0.51524398489E+02 -0.21874877392E+02 -0.33873830463E+02  0.65560526926E+02  0.41800000000E+01 0. -1.
         -5    1    3    3    0  502 -0.34441593328E+02 -0.52970648495E+02  0.52754604808E+02  0.82417435543E+02  0.41800000000E+01 0. -1.
        -11    1    1    2    0    0  0.35255864647E+02  0.30925260672E+02  0.33229750620E+01  0.47014783876E+02  0.00000000000E+00 0.  1.
         11    1    1    2    0    0 -0.52338669807E+02  0.43920265215E+02  0.47645561268E+02  0.83297212212E+02  0.00000000000E+00 0. -1.
</event>
<event>
 7    1  0.1620881E-005  0.1841420E+03  0.7561462E-02  0.1163854E+00
          1   -1    0    0  501    0  0.00000000000E+00  0.00000000000E+00  0.10919540692E+04  0.10919540692E+04  0.00000000000E+00 0. -1.
         -1   -1    0    0    0  501 -0.00000000000E+00 -0.00000000000E+00 -0.41599223256E+02  0.41599223256E+02  0.00000000000E+00 0.  1.
         23    2    1    2    0    0 -0.16806616041E+03  0.63247498864E+01  0.34608386490E+03  0.40461185343E+03  0.12510185313E+03 0.  0.
          5    1    3    3  502    0 -0.73001039963E+02  0.34717809262E+02  0.26287826387E+03  0.27505805229E+03  0.41800000000E+01 0. -1.
         -5    1    3    3    0  502 -0.95065120451E+02 -0.28393059376E+02  0.83205601026E+02  0.12955380114E+03  0.41800000000E+01 0. -1.
        -11    1    1    2    0    0  0.10663368568E+03  0.36993096602E+02  0.42271773575E+03  0.43752658917E+03  0.00000000000E+00 0.  1.
         11    1    1    2    0    0  0.61432474736E+02 -0.43317846488E+02  0.28155324532E+03  0.29141484987E+03  0.00000000000E+00 0. -1.
</event>
<event>
 7    1  0.1620881E-005  0.1034567E+03  0.7561462E-02  0.1273190E+00
         -2   -1    0    0    0  501 -0.00000000000E+00  0.00000000000E+00  0.29062832238E+02  0.29062832238E+02  0.00000000000E+00 0.  1.
          2   -1    0    0  501    0  0.00000000000E+00 -0.00000000000E+00 -0.54331268829E+03  0.54331268829E+03  0.00000000000E+00 0. -1.
         23    2    1    2    0    0  0.49731198449E+01  0.61190040889E+02 -0.25281636217E+03  0.28867437263E+03  0.12509127631E+03 0.  0.
          5    1    3    3  502    0  0.40060498399E+02 -0.21053823875E+02 -0.53621617717E+02  0.70291232158E+02  0.41800000000E+01 0.  1.
         -5    1    3    3    0  502 -0.35087378554E+02  0.82243864764E+02 -0.19919474445E+03  0.21838314047E+03  0.41800000000E+01 0.  1.
        -11    1    1    2    0    0  0.14608996248E+02 -0.42265429974E+02 -0.25032874127E+03  0.25429169874E+03  0.00000000000E+00 0. -1.
         11    1    1    2    0    0 -0.19582116093E+02 -0.18924610915E+02 -0.11104752608E+02  0.29409449153E+02  0.00000000000E+00 0.  1.
</event>
<event>
 7    1  0.1620881E-005  0.9044117E+02  0.7561462E-02  0.1301787E+00
         -4   -1    0    0    0  501 -0.00000000000E+00  0.00000000000E+00  0.18098706661E+03  0.18098706661E+03  0.00000000000E+00 0.  1.
          4   -1    0    0  501    0  0.00000000000E+00 -0.00000000000E+00 -0.68766626841E+02  0.68766626841E+02  0.00000000000E+00 0. -1.
         23    2    1    2    0    0  0.77495678105E+01 -0.14755977895E+02  0.94125448569E+02  0.15743503737E+03  0.12509354995E+03 0.  0.
          5    1    3    3  502    0 -0.51182822184E+01  0.52157127583E+02  0.18942192832E+02  0.55882392932E+02  0.41800000000E+01 0.  1.
         -5    1    3    3    0  502  0.12867850029E+02 -0.66913105477E+02  0.75183255737E+02  0.10155264444E+03  0.41800000000E+01 0.  1.
        -11    1    1    2    0    0  0.23992169953E+02  0.15005606183E+02 -0.25702093369E+02  0.38228131520E+02  0.00000000000E+00 0. -1.
         11    1    1    2    0    0 -0.31741737764E+02 -0.24962828882E+00  0.43797084569E+02  0.54090524561E+02  0.00000000000E+00 0.  1.
</event>
<event>
 7    1  0.1620881E-005  0.1366132E+03  0.7561462E-02  0.1217960E+00
         -2   -1    0    0    0  501 -0.00000000000E+00  0.00000000000E+00  0.31619572268E+02  0.31619572268E+02  0.00000000000E+00 0.  1.
          2   -1    0    0  501    0  0.00000000000E+00 -0.00000000000E+00 -0.85997830572E+03  0.85997830572E+03  0.00000000000E+00 0. -1.
         23    2    1    2    0    0 -0.12746615584E+03 -0.25140868212E+01 -0.41679547864E+03  0.45345283886E+03  0.12508822704E+03 0.  0.
          5    1    3    3  502    0 -0.83317869284E+02 -0.33626629142E+02 -0.11086128580E+03  0.14275963932E+03  0.41800000000E+01 0. -1.
         -5    1    3    3    0  502 -0.44148286553E+02  0.31112542321E+02 -0.30593419284E+03  0.31069319954E+03  0.41800000000E+01 0. -1.
        -11    1    1    2    0    0  0.30297497812E+02  0.93331805607E+01 -0.27646867481E+02  0.42064188029E+02  0.00000000000E+00 0.  1.
         11    1    1    2    0    0  0.97168658025E+02 -0.68190937395E+01 -0.38391638734E+03  0.39608085110E+03  0.00000000000E+00 0. -1.
</event>
<event>
 7    1  0.1620881E-005  0.3304483E+03  0.7561462E-02  0.1070939E+00
         -1   -1    0    0    0  501 -0.00000000000E+00  0.00000000000E+00  0.19197003237E+04  0.19197003237E+04  0.00000000000E+00 0.  1.
          1   -1    0    0  501    0  0.00000000000E+00 -0.00000000000E+00 -0.12335595578E+03  0.12335595578E+03  0.00000000000E+00 0. -1.
         23    2    1    2    0    0 -0.24840527817E+03 -0.19571226441E+03  0.16490275296E+04  0.16826847133E+04  0.11012528503E+03 0.  0.
          5    1    3    3  502    0 -0.10661721338E+03 -0.14796443292E+03  0.10120395145E+04  0.10283492379E+04  0.41800000000E+01 0. -1.
         -5    1    3    3    0  502 -0.14178806479E+03 -0.47747831490E+02  0.63698801501E+03  0.65433547542E+03  0.41800000000E+01 0.  1.
        -11    1    1    2    0    0  0.42656809508E+02  0.85133265082E+02  0.46322646380E+02  0.10589175505E+03  0.00000000000E+00 0.  1.
         11    1    1    2    0    0  0.20574846867E+03  0.11057899933E+03  0.10099419194E+03  0.25447981110E+03  0.00000000000E+00 0. -1.
</event>
<event>
 7    1  0.1620881E-005  0.1401293E+03  0.7561462E-02  0.1213155E+00
         -2   -1    0    0    0  501 -0.00000000000E+00  0.00000000000E+00  0.43070649244E+02  0.43070649244E+02  0.00000000000E+00 0.  1.
          2   -1    0    0  501    0  0.00000000000E+00 -0.00000000000E+00 -0.67772223683E+03  0.67772223683E+03  0.00000000000E+00 0. -1.
         23    2    1    2    0    0 -0.11782940834E+03  0.10414651919E+02 -0.21370682880E+03  0.27442657891E+03  0.12508838512E+03 0.  0.
          5    1    3    3  502    0  0.17459050785E+02  0.18723243640E+02 -0.79546496350E+02  0.83668965502E+02  0.41800000000E+01 0.  1.
         -5    1    3    3    0  502 -0.13528845913E+03 -0.83085917214E+01 -0.13416033245E+03  0.19075761341E+03  0.41800000000E+01 0.  1.
        -11    1    1    2    0    0  0.20066302198E+02 -0.55852767765E+01 -0.85519918832E+01  0.22516402149E+02  0.00000000000E+00 0.  1.
         11    1    1    2    0    0  0.97763106144E+02 -0.48293751421E+01 -0.41239276690E+03  0.42384990502E+03  0.00000000000E+00 0. -1.
</event>
<event>
 7    1  0.1620881E-005  0.1057772E+03  0.7561462E-02  0.1268596E+00
          2   -1    0    0  501    0  0.00000000000E+00  0.00000000000E+00  0.44742773602E+03  0.44742773602E+03  0.00000000000E+00 0. -1.
         -2   -1    0    0    0  501 -0.00000000000E+00 -0.00000000000E+00 -0.42423125536E+02  0.42423125536E+02  0.00000000000E+00 0.  1.
         23    2    1    2    0    0 -0.14148322430E+02  0.80033943312E+02  0.19592799577E+03  0.24625298264E+03  0.12508854791E+03 0.  0.
          5    1    3    3  502    0 -0.30957149768E+02  0.22716533211E+02  0.18027110063E+03  0.18436249110E+03  0.41800000000E+01 0.  1.
         -5    1    3    3    0  502  0.16808827338E+02  0.57317410100E+02  0.15656895149E+02  0.61890491538E+02  0.41800000000E+01 0.  1.
        -11    1    1    2    0    0  0.25883061651E+02  0.57132625061E+01  0.13540001368E+02  0.29764171178E+02  0.00000000000E+00 0.  1.
         11    1    1    2    0    0 -0.11734739221E+02 -0.85747205818E+02  0.19553661334E+03  0.21383370774E+03  0.00000000000E+00 0. -1.
</event>
<event>
 6    1  0.1620881E-005  0.3692183E+03  0.7561462E-02  0.1054992E+00
          2   -1    0    0  501    0  0.00000000000E+00  0.00000000000E+00  0.75448883790E+03  0.75448883790E+03  0.00000000000E+00 0. -1.
         -2   -1    0    0    0  501 -0.00000000000E+00 -0.00000000000E+00 -0.21734955833E+03  0.21734955833E+03  0.00000000000E+00 0.  1.
          5    1    1    2  502    0 -0.34276904186E+03  0.11911802727E+03  0.10118877149E+03  0.37674442312E+03  0.41800000000E+01 0. -1.
         -5    1    1    2    0  502 -0.72823159631E+00 -0.14983198953E+02 -0.75252279352E+01  0.17295318083E+02  0.41800000000E+01 0.  1.
        -11    1    1    2    0    0  0.63655200652E+02 -0.30558976829E+02  0.39564970919E+02  0.80939622922E+02  0.00000000000E+00 0.  1.
         11    1    1    2    0    0  0.27984207280E+03 -0.73575851484E+02  0.40391076509E+03  0.49685903211E+03  0.00000000000E+00 0. -1.
</event>
<event>
 7    1  0.1620881E-005  0.7471880E+02  0.7561462E-02  0.1344744E+00
         -2   -1    0    0    0  501 -0.00000000000E+00  0.00000000000E+00  0.61920372086E+02  0.61920372086E+02  0.00000000000E+00 0.  1.
          2   -1    0    0  501    0  0.00000000000E+00 -0.00000000000E+00 -0.21972085980E+03  0.21972085980E+03  0.00000000000E+00 0. -1.
         23    2    1    2    0    0  0.23505417187E+02 -0.78229415247E+01 -0.72549849153E+02  0.14671061110E+03  0.12508724854E+03 0.  0.
          5    1    3    3  502    0 -0.27856579148E-01  0.23765297544E+02 -0.97136416290E+02  0.10008869024E+03  0.41800000000E+01 0. -1.
         -5    1    3    3    0  502  0.23533273767E+02 -0.31588239069E+02  0.24586567137E+02  0.46621920866E+02  0.41800000000E+01 0. -1.
        -11    1    1    2    0    0  0.27183401537E+02  0.19776726097E+02  0.16087119059E+01  0.33654779278E+02  0.00000000000E+00 0.  1.
         11    1    1    2    0    0 -0.50688818725E+02 -0.11953784572E+02 -0.86859350465E+02  0.10127584151E+03  0.00000000000E+00 0. -1.
</event>
<event>
 7    1  0.1620881E-005  0.1004076E+03  0.7561462E-02  0.1279441E+00
          1   -1    0    0  501    0  0.00000000000E+00  0.00000000000E+00  0.13494794621E+03  0.13494794621E+03  0.00000000000E+00 0. -1.
         -1   -1    0    0    0  501 -0.00000000000E+00 -0.00000000000E+00 -0.11937764388E+03  0.11937764388E+03  0.00000000000E+00 0.  1.
         23    2    1    2    0    0  0.66169753942E+02 -0.21220631864E+02  0.93910953078E+01  0.14340400386E+03  0.12509102326E+03 0.  0.
          5    1    3    3  502    0  0.57774263385E+02 -0.57007876594E+02 -0.32486958453E+02  0.87525072825E+02  0.41800000000E+01 0. -1.
         -5    1    3    3    0  502  0.83954905566E+01  0.35787244730E+02  0.41878053761E+02  0.55878931037E+02  0.41800000000E+01 0. -1.
        -11    1    1    2    0    0  0.13535504236E+01  0.14641319399E+02  0.34424804122E+02  0.37433507334E+02  0.00000000000E+00 0. -1.
         11    1    1    2    0    0 -0.67523304365E+02  0.65793124650E+01 -0.28245597098E+02  0.73488078900E+02  0.00000000000E+00 0.  1.
</event>
<event>
 7    1  0.1620881E-005  0.1711065E+03  0.7561462E-02  0.1176699E+00
          3   -1    0    0  501    0  0.00000000000E+00  0.00000000000E+00  0.41492789135E+03  0.41492789135E+03  0.00000000000E+00 0. -1.
         -3   -1    0    0    0  501 -0.00000000000E+00 -0.00000000000E+00 -0.79628610522E+02  0.79628610522E+02  0.00000000000E+00 0.  1.
         23    2    1    2    0    0 -0.83014324632E+02 -0.11692137841E+03  0.15424681579E+03  0.24495396775E+03  0.12509348229E+03 0.  0.
          5    1    3    3  502    0  0.33088055456E+02 -0.25404243566E+02  0.41439634270E+02  0.58948373119E+02  0.41800000000E+01 0.  1.
         -5    1    3    3    0  502 -0.11610238009E+03 -0.91517134844E+02  0.11280718152E+03  0.18600559463E+03  0.41800000000E+01 0.  1.
        -11    1    1    2    0    0  0.14748349505E+02 -0.23832100275E+01 -0.71390335701E+01  0.16557756596E+02  0.00000000000E+00 0.  1.
         11    1    1    2    0    0  0.68265975127E+02  0.11930458844E+03  0.18819149861E+03  0.23304477752E+03  0.00000000000E+00 0. -1.
</event>
<event>
 7    1  0.1620881E-005  0.9697776E+02  0.7561462E-02  0.1286783E+00
          3   -1    0    0  501    0  0.00000000000E+00  0.00000000000E+00  0.10483975377E+03  0.10483975377E+03  0.00000000000E+00 0. -1.
         -3   -1    0    0    0  501 -0.00000000000E+00 -0.00000000000E+00 -0.19339634737E+03  0.19339634737E+03  0.00000000000E+00 0.  1.
         23    2    1    2    0    0 -0.33581724279E+01  0.11257665130E+02 -0.14312006288E+03  0.19044402123E+03  0.12509020937E+03 0.  0.
          5    1    3    3  502    0 -0.47753972125E+02  0.30401224255E+02 -0.23648837846E+02  0.61493220938E+02  0.41800000000E+01 0.  1.
         -5    1    3    3    0  502  0.44395799697E+02 -0.19143559124E+02 -0.11947122503E+03  0.12895080030E+03  0.41800000000E+01 0.  1.
        -11    1    1    2    0    0  0.17338115166E+02 -0.47100964237E+02  0.14491768077E+02  0.52241003164E+02  0.00000000000E+00 0.  1.
         11    1    1    2    0    0 -0.13979942738E+02  0.35843299107E+02  0.40071701202E+02  0.55551076741E+02  0.00000000000E+00 0. -1.
</event>
<event>
 7    1  0.1620881E-005  0.1265301E+03  0.7561462E-02  0.1232697E+00
         -2   -1    0    0    0  501 -0.00000000000E+00  0.00000000000E+00  0.99201080617E+02  0.99201080617E+02  0.00000000000E+00 0.  1.
          2   -1    0    0  501    0  0.00000000000E+00 -0.00000000000E+00 -0.28163641435E+03  0.28163641435E+03  0.00000000000E+00 0. -1.
         23    2    1    2    0    0  0.80165276731E+02  0.63148195006E+02 -0.10822418394E+02  0.16179593110E+03  0.12508649989E+03 0.  0.
          5    1    3    3  502    0  0.30249829302E+02 -0.27004583416E+02 -0.37368367076E+02  0.55300695803E+02  0.41800000000E+01 0.  1.
         -5    1    3    3    0  502  0.49915447429E+02  0.90152778423E+02  0.26545948682E+02  0.10649523530E+03  0.41800000000E+01 0.  1.
        -11    1    1    2    0    0 -0.32763465408E+02 -0.34671168963E+01 -0.19006256190E+01  0.33001180931E+02  0.00000000000E+00 0.  1.
         11    1    1    2    0    0 -0.47401811323E+02 -0.59681078110E+02 -0.16971228972E+03  0.18604038293E+03  0.00000000000E+00 0. -1.
</event>
<event>
 7    1  0.1620881E-005  0.1152133E+03  0.7561462E-02  0.1251209E+00
          1   -1    0    0  501    0  0.00000000000E+00  0.00000000000E+00  0.10316618406E+04  0.10316618406E+04  0.00000000000E+00 0. -1.
         -1   -1    0    0    0  501 -0.00000000000E+00 -0.00000000000E+00 -0.12947458382E+02  0.12947458382E+02  0.00000000000E+00 0.  1.
         23    2    1    2    0    0  0.32469600219E+02 -0.24795438038E+02  0.59787660845E+03  0.61218105961E+03  0.12506047388E+03 0.  0.
          5    1    3    3  502    0  0.63393598547E+02 -0.57605466677E+02  0.36453951335E+03  0.37449121128E+03  0.41800000000E+01 0.  1.
         -5    1    3    3    0  502 -0.30923998328E+02  0.32810028638E+02  0.23333709510E+03  0.23768984833E+03  0.41800000000E+01 0.  1.
        -11    1    1    2    0    0 -0.62272791278E+02  0.27796330093E+01  0.25665306757E+03  0.26411441457E+03  0.00000000000E+00 0. -1.
         11    1    1    2    0    0  0.29803191059E+02  0.22015805029E+02  0.16418470616E+03  0.16831382476E+03  0.00000000000E+00 0.  1.
</event>
<event>
 7    1  0.1620881E-005  0.1164500E+03  0.7561462E-02  0.1249071E+00
         -1   -1    0    0    0  501 -0.00000000000E+00  0.00000000000E+00  0.45369813114E+02  0.45369813114E+02  0.00000000000E+00 0.  1.
          1   -1    0    0  501    0  0.00000000000E+00 -0.00000000000E+00 -0.37903500809E+03  0.37903500809E+03  0.00000000000E+00 0. -1.
         23    2    1    2    0    0 -0.52876902540E+02  0.23886718076E+02 -0.11146950741E+03  0.17731185846E+03  0.12508997540E+03 0.  0.
          5    1    3    3  502    0 -0.81135446669E+02  0.53046847295E+02 -0.76427699085E+02  0.12351353894E+03  0.41800000000E+01 0.  1.
         -5    1    3    3    0  502  0.28258544129E+02 -0.29160129218E+02 -0.35041808324E+02  0.53798319518E+02  0.41800000000E+01 0.  1.
        -11    1    1    2    0    0  0.43144930107E+02  0.21799973411E+02 -0.53746351719E+02  0.72286887869E+02  0.00000000000E+00 0.  1.
         11    1    1    2    0    0  0.97319724325E+01 -0.45686691488E+02 -0.16844933585E+03  0.17480607488E+03  0.00000000000E+00 0. -1.
</event>
<event>
 7    1  0.1620881E-005  0.1243674E+03  0.7561462E-02  0.1236061E+00
         -2   -1    0    0    0  501 -0.00000000000E+00  0.00000000000E+00  0.18043094880E+03  0.18043094880E+03  0.00000000000E+00 0.  1.
          2   -1    0    0  501    0  0.00000000000E+00 -0.00000000000E+00 -0.15847500438E+03  0.15847500438E+03  0.00000000000E+00 0. -1.
         23    2    1    2    0    0 -0.10467581539E+03 -0.86078094339E+01  0.86923311325E+02  0.18502488678E+03  0.12508967170E+03 0.  0.
          5    1    3    3  502    0 -0.11626759205E+03 -0.28910770668E+02  0.30341951203E+02  0.12366119854E+03  0.41800000000E+01 0.  1.
         -5    1    3    3    0  502  0.11591776664E+02  0.20302961234E+02  0.56581360122E+02  0.61363688239E+02  0.41800000000E+01 0.  1.
        -11    1    1    2    0    0  0.36600427232E+02  0.11149912191E+01  0.22357616069E+02  0.42903350397E+02  0.00000000000E+00 0.  1.
         11    1    1    2    0    0  0.68075388155E+02  0.74928182147E+01 -0.87324982980E+02  0.11097771601E+03  0.00000000000E+00 0. -1.
</event>
<event>
 7    1  0.1620881E-005  0.9856835E+02  0.7561462E-02  0.1283336E+00
          2   -1    0    0  501    0  0.00000000000E+00  0.00000000000E+00  0.56662748444E+03  0.56662748444E+03  0.00000000000E+00 0. -1.
         -2   -1    0    0    0  501 -0.00000000000E+00 -0.00000000000E+00 -0.22349169262E+02  0.22349169262E+02  0.00000000000E+00 0.  1.
         23    2    1    2    0    0  0.20111336542E+02 -0.33281488432E+02  0.30272421707E+03  0.32564942186E+03  0.11354942108E+03 0.  0.
          5    1    3    3  502    0  0.55086395183E+02 -0.39775961112E+02  0.26510684375E+03  0.27370741499E+03  0.41800000000E+01 0. -1.
         -5    1    3    3    0  502 -0.34975058641E+02  0.64944726796E+01  0.37617373324E+02  0.51942006874E+02  0.41800000000E+01 0.  1.
        -11    1    1    2    0    0 -0.51294715952E+02  0.56940742919E+01  0.71067013266E+02  0.87829896625E+02  0.00000000000E+00 0. -1.
         11    1    1    2    0    0  0.31183379410E+02  0.27587414141E+02  0.17048708483E+03  0.17549733521E+03  0.00000000000E+00 0.  1.
</event>
<event>
 7    1  0.1620881E-005  0.1335850E+03  0.7561462E-02  0.1222231E+00
         -2   -1    0    0    0  501 -0.00000000000E+00  0.00000000000E+00  0.24399155907E+03  0.24399155907E+03  0.00000000000E+00 0.  1.
          2   -1    0    0  501    0  0.00000000000E+00 -0.00000000000E+00 -0.89852958767E+02  0.89852958767E+02  0.00000000000E+00 0. -1.
         23    2    1    2    0    0  0.88414991815E+02  0.49091651146E+02  0.89040726497E+02  0.18385508239E+03  0.12508892579E+03 0.  0.
          5    1    3    3  502    0  0.11262550524E+03  0.65045665767E+02  0.81723503769E+02  0.15366081652E+03  0.41800000000E+01 0.  1.
         -5    1    3    3    0  502 -0.24210513424E+02 -0.15954014621E+02  0.73172227282E+01  0.30194265866E+02  0.41800000000E+01 0.  1.
        -11    1    1    2    0    0 -0.77464891576E+02 -0.25188149400E+02  0.84457580717E+02  0.11733854967E+03  0.00000000000E+00 0.  1.
         11    1    1    2    0    0 -0.10950100239E+02 -0.23903501747E+02 -0.19359706909E+02  0.32650885786E+02  0.00000000000E+00 0. -1.
</event>
<event>
 7    1  0.1620881E-005  0.1087862E+03  0.7561462E-02  0.1262834E+00
         -4   -1    0    0    0  501 -0.00000000000E+00  0.00000000000E+00  0.34421560306E+03  0.34421560306E+03  0.00000000000E+00 0.  1.
          4   -1    0    0  501    0  0.00000000000E+00 -0.00000000000E+00 -0.58404031681E+02  0.58404031681E+02  0.00000000000E+00 0. -1.
         23    2    1    2    0    0 -0.35173334279E+02 -0.78170832924E+02  0.19944305210E+03  0.25054529068E+03  0.12509024377E+03 0.  0.
          5    1    3    3  502    0 -0.63804251834E+02 -0.54638034520E+02  0.19576616859E+03  0.21306844566E+03  0.41800000000E+01 0. -1.
         -5    1    3    3    0  502  0.28630917555E+02 -0.23532798404E+02  0.36768835056E+01  0.37476845025E+02  0.41800000000E+01 0. -1.
        -11    1    1    2    0    0  0.30793707778E+02  0.17653613488E+02 -0.11163448431E+02  0.37209207043E+02  0.00000000000E+00 0. -1.
         11    1    1    2    0    0  0.43796265013E+01  0.60517219435E+02  0.97531967713E+02  0.11486513702E+03  0.00000000000E+00 0.  1.
</event>
<event>
 7    1  0.1620881E-005  0.8088077E+02  0.7561462E-02  0.1326570E+00
          2   -1    0    0  501    0  0.00000000000E+00  0.00000000000E+00  0.34150754368E+02  0.34150754368E+02  0.00000000000E+00 0. -1.
         -2   -1    0    0    0  501 -0.00000000000E+00 -0.00000000000E+00 -0.40169185610E+03  0.40169185610E+03  0.00000000000E+00 0.  1.
         23    2    1    2    0    0  0.57772224744E+01  0.21063113560E+02 -0.28287333644E+03  0.31006834736E+03  0.12509206416E+03 0.  0.
          5    1    3    3  502    0  0.42746091266E+02 -0.20567171734E+02 -0.22370104964E+03  0.22871350830E+03  0.41800000000E+01 0.  1.
         -5    1    3    3    0  502 -0.36968868791E+02  0.41630285294E+02 -0.59172286804E+02  0.81354839063E+02  0.41800000000E+01 0.  1.
        -11    1    1    2    0    0  0.22929686727E+02 -0.18547084257E+02 -0.91519487635E+02  0.96153946798E+02  0.00000000000E+00 0.  1.
         11    1    1    2    0    0 -0.28706909201E+02 -0.25160293027E+01  0.68517223383E+01  0.29620316311E+02  0.00000000000E+00 0. -1.
</event>
<event>
 7    1  0.1620881E-005  0.6723678E+02  0.7561462E-02  0.1369750E+00
          4   -1    0    0  501    0  0.00000000000E+00  0.00000000000E+00  0.50015235140E+02  0.50015235140E+02  0.00000000000E+00 0. -1.
         -4   -1    0    0    0  501 -0.00000000000E+00 -0.00000000000E+00 -0.33494002646E+03  0.33494002646E+03  0.00000000000E+00 0.  1.
         23    2    1    2    0    0  0.23051362129E+02  0.39185551417E+02 -0.24018231041E+03  0.27459033438E+03  0.12508172033E+03 0.  0.
          5    1    3    3  502    0 -0.19023203957E+01  0.13622020169E+02  0.12688640893E+02  0.19174260457E+02  0.41800000000E+01 0.  1.
         -5    1    3    3    0  502  0.24953682525E+02  0.25563531248E+02 -0.25287095131E+03  0.25541607392E+03  0.41800000000E+01 0.  1.
        -11    1    1    2    0    0 -0.39743831952E+02  0.18943989071E+01 -0.51954608758E+02  0.65440372070E+02  0.00000000000E+00 0.  1.
         11    1    1    2    0    0  0.16692469823E+02 -0.41079950325E+02  0.72121278535E+01  0.44924555152E+02  0.00000000000E+00 0. -1.
</event>
<event>
 7    1  0.1620881E-005  0.2303526E+03  0.7561462E-02  0.1126392E+00
         -2   -1    0    0    0  501 -0.00000000000E+00  0.00000000000E+00  0.15244846898E+03  0.15244846898E+03  0.00000000000E+00 0.  1.
          2   -1    0    0  501    0  0.00000000000E+00 -0.00000000000E+00 -0.37238898476E+03  0.37238898476E+03  0.00000000000E+00 0. -1.
         23    2    1    2    0    0  0.11468769276E+03  0.17770799163E+03 -0.10841015472E+03  0.26858270957E+03  0.12510201067E+03 0.  0.
          5    1    3    3  502    0  0.33709562264E+02 -0.12797971437E+02 -0.30338415110E+02  0.47307657861E+02  0.41800000000E+01 0.  1.
         -5    1    3    3    0  502  0.80978130497E+02  0.19050596307E+03 -0.78071739607E+02  0.22127505171E+03  0.41800000000E+01 0.  1.
        -11    1    1    2    0    0 -0.58972326846E+02 -0.47460604309E+02  0.41430549408E+00  0.75699510857E+02  0.00000000000E+00 0.  1.
         11    1    1    2    0    0 -0.55715365915E+02 -0.13024738733E+03 -0.11194466655E+03  0.18055523331E+03  0.00000000000E+00 0. -1.
</event>
<event>
 7    1  0.1620881E-005  0.1500593E+03  0.7561462E-02  0.1200400E+00
         -4   -1    0    0    0  501 -0.00000000000E+00  0.00000000000E+00  0.19011286067E+02  0.19011286067E+02  0.00000000000E+00 0. -1.
          4   -1    0    0  501    0  0.00000000000E+00 -0.00000000000E+00 -0.12781825424E+04  0.12781825424E+04  0.00000000000E+00 0.  1.
         23    2    1    2    0    0  0.10213555481E+03 -0.43564463249E+02 -0.62145305520E+03  0.64356787695E+03  0.12508468494E+03 0.  0.
          5    1    3    3  502    0 -0.10376133396E+02 -0.43106314145E+02 -0.91190362992E+02  0.10148385668E+03  0.41800000000E+01 0. -1.
         -5    1    3    3    0  502  0.11251168820E+03 -0.45814910367E+00 -0.53026269221E+03  0.54208402027E+03  0.41800000000E+01 0. -1.
        -11    1    1    2    0    0 -0.83733771663E+02  0.71118896499E+02 -0.47038264205E+03  0.48304148052E+03  0.00000000000E+00 0. -1.
         11    1    1    2    0    0 -0.18401783145E+02 -0.27554433250E+02 -0.16733555905E+03  0.17058447097E+03  0.00000000000E+00 0.  1.
</event>
<event>
 7    1  0.1620881E-005  0.1007354E+03  0.7561462E-02  0.1278757E+00
          1   -1    0    0  501    0  0.00000000000E+00  0.00000000000E+00  0.27749462078E+03  0.27749462078E+03  0.00000000000E+00 0. -1.
         -1   -1    0    0    0  501 -0.00000000000E+00 -0.00000000000E+00 -0.45960414063E+02  0.45960414063E+02  0.00000000000E+00 0.  1.
         23    2    1    2    0    0 -0.33399658474E+02 -0.70073176261E+00  0.10264776396E+03  0.16522703048E+03  0.12508948775E+03 0.  0.
          5    1    3    3  502    0 -0.50136364765E+02  0.52529922760E+02  0.48948775224E+02  0.87672703009E+02  0.41800000000E+01 0.  1.
         -5    1    3    3    0  502  0.16736706291E+02 -0.53230654522E+02  0.53698988741E+02  0.77554327475E+02  0.41800000000E+01 0.  1.
        -11    1    1    2    0    0 -0.52609828630E+01  0.26032075600E+02  0.10058284912E+03  0.10403007468E+03  0.00000000000E+00 0.  1.
         11    1    1    2    0    0  0.38660641337E+02 -0.25331343838E+02  0.28303593635E+02  0.54197929683E+02  0.00000000000E+00 0. -1.
</event>
<event>
 7    1  0.1620881E-005  0.1324868E+03  0.7561462E-02  0.1223812E+00
          3   -1    0    0  501    0  0.00000000000E+00  0.00000000000E+00  0.13903734705E+03  0.13903734705E+03  0.00000000000E+00 0. -1.
         -3   -1    0    0    0  501 -0.00000000000E+00 -0.00000000000E+00 -0.16318649210E+03  0.16318649210E+03  0.00000000000E+00 0.  1.
         23    2    1    2    0    0 -0.68104526076E+02 -0.78445289643E+02 -0.14843284529E+02  0.16329219171E+03  0.12510846031E+03 0.  0.
          5    1    3    3  502    0 -0.77866154154E+02 -0.19187346888E+02 -0.49002305457E+02  0.94074388563E+02  0.41800000000E+01 0.  1.
         -5    1    3    3    0  502  0.97616280785E+01 -0.59257942755E+02  0.34159020928E+02  0.69217803151E+02  0.41800000000E+01 0.  1.
        -11    1    1    2    0    0  0.64126637433E+02  0.21871331661E+02  0.25495105085E+02  0.72391858385E+02  0.00000000000E+00 0. -1.
         11    1    1    2    0    0  0.39778886428E+01  0.56573957983E+02 -0.34800965604E+02  0.66539789051E+02  0.00000000000E+00 0.  1.
</event>
<event>
 7    1  0.1620881E-005  0.1211002E+03  0.7561462E-02  0.1241293E+00
         -2   -1    0    0    0  501 -0.00000000000E+00  0.00000000000E+00  0.64588436769E+02  0.64588436769E+02  0.00000000000E+00 0.  1.
          2   -1    0    0  501    0  0.00000000000E+00 -0.00000000000E+00 -0.26053135238E+03  0.26053135238E+03  0.00000000000E+00 0. -1.
         23    2    1    2    0    0 -0.26832567050E+02  0.52116441213E+02 -0.15526211745E+03  0.20782148115E+03  0.12508929935E+03 0.  0.
          5    1    3    3  502    0 -0.14347347809E+02 -0.38433449924E+02 -0.23681719886E+02  0.47552841334E+02  0.41800000000E+01 0. -1.
         -5    1    3    3    0  502 -0.12485219242E+02  0.90549891137E+02 -0.13158039757E+03  0.16026863981E+03  0.41800000000E+01 0. -1.
        -11    1    1    2    0    0  0.40931641736E+02  0.12913966214E+02 -0.21748366386E+02  0.48116122651E+02  0.00000000000E+00 0. -1.
         11    1    1    2    0    0 -0.14099074685E+02 -0.65030407428E+02 -0.18932431777E+02  0.69182185353E+02  0.00000000000E+00 0.  1.
</event>
<event>
 7    1  0.1620881E-005  0.1645027E+03  0.7561462E-02  0.1183705E+00
          1   -1    0    0  501    0  0.00000000000E+00  0.00000000000E+00  0.29489983036E+03  0.29489983036E+03  0.00000000000E+00 0. -1.
         -1   -1    0    0    0  501 -0.00000000000E+00 -0.00000000000E+00 -0.11307951535E+03  0.11307951535E+03  0.00000000000E+00 0.  1.
         23    2    1    2    0    0  0.74739497375E+02  0.11127980460E+03  0.28800385267E+02  0.18559804159E+03  0.12509190011E+03 0.  0.
          5    1    3    3  502    0 -0.19792397539E+02  0.59139973173E+02 -0.21933176833E+02  0.66240562144E+02  0.41800000000E+01 0.  1.
         -5    1    3    3    0  502  0.94531894914E+02  0.52139831427E+02  0.50733562100E+02  0.11935747945E+03  0.41800000000E+01 0.  1.
        -11    1    1    2    0    0 -0.93504325445E+02 -0.98156082076E+02  0.14399544153E+03  0.19776845681E+03  0.00000000000E+00 0. -1.
         11    1    1    2    0    0  0.18764828070E+02 -0.13123722524E+02  0.90244882022E+01  0.24612847310E+02  0.00000000000E+00 0.  1.
</event>
<event>
 7    1  0.1620881E-005  0.1154890E+03  0.7561462E-02  0.1250730E+00
         -1   -1    0    0    0  501 -0.00000000000E+00  0.00000000000E+00  0.61971603878E+02  0.61971603878E+02  0.00000000000E+00 0.  1.
          1   -1    0    0  501    0  0.00000000000E+00 -0.00000000000E+00 -0.29292362622E+03  0.29292362622E+03  0.00000000000E+00 0. -1.
         23    2    1    2    0    0  0.23662799232E+02  0.74176061539E+02 -0.10824893643E+03  0.18283090981E+03  0.12508914089E+03 0.  0.
          5    1    3    3  502    0 -0.44238355572E+02  0.43049304871E+02 -0.15707461194E+02  0.63831586936E+02  0.41800000000E+01 0.  1.
         -5    1    3    3    0  502  0.67901154804E+02  0.31126756668E+02 -0.92541475239E+02  0.11899932287E+03  0.41800000000E+01 0.  1.
        -11    1    1    2    0    0 -0.39975730098E+02 -0.40652447592E+02 -0.12212450418E+03  0.13477787286E+03  0.00000000000E+00 0. -1.
         11    1    1    2    0    0  0.16312930865E+02 -0.33523613948E+02 -0.57858173707E+00  0.37286447435E+02  0.00000000000E+00 0.  1.
</event>
<event>
 7    1  0.1620881E-005  0.1017745E+03  0.7561462E-02  0.1276608E+00
         -2   -1    0    0    0  501 -0.00000000000E+00  0.00000000000E+00  0.59365544005E+02  0.59365544005E+02  0.00000000000E+00 0. -1.
          2   -1    0    0  501    0  0.00000000000E+00 -0.00000000000E+00 -0.26343194297E+03  0.26343194297E+03  0.00000000000E+00 0.  1.
         23    2    1    2    0    0 -0.20832088939E+02  0.40339613550E+01 -0.38309119671E+02  0.13253557656E+03  0.12509133316E+03 0.  0.
          5    1    3    3  502    0 -0.37358454727E+02  0.57563404645E+02 -0.32537728991E+02  0.76061658553E+02  0.41800000000E+01 0. -1.
         -5    1    3    3    0  502  0.16526365788E+02 -0.53529443290E+02 -0.57713906800E+01  0.56473918011E+02  0.41800000000E+01 0. -1.
        -11    1    1    2    0    0  0.50355350739E+01 -0.39487087937E+02 -0.32262472071E+02  0.51239182579E+02  0.00000000000E+00 0. -1.
         11    1    1    2    0    0  0.15796553865E+02  0.35453126582E+02 -0.13349480722E+03  0.13902272783E+03  0.00000000000E+00 0.  1.
</event>
<event>
 7    1  0.1620881E-005  0.2419570E+03  0.7561462E-02  0.1118496E+00
          2   -1    0    0  501    0  0.00000000000E+00  0.00000000000E+00  0.82932314076E+03  0.82932314076E+03  0.00000000000E+00 0.  1.
         -2   -1    0    0    0  501 -0.00000000000E+00 -0.00000000000E+00 -0.83775554394E+02  0.83775554394E+02  0.00000000000E+00 0. -1.
         23    2    1    2    0    0  0.22408063257E+03 -0.21855761752E+02  0.23937709925E+03  0.35162371626E+03  0.12509211798E+03 0.  0.
          5    1    3    3  502    0  0.54039764350E+02  0.46603971411E+02  0.91235435124E+02  0.11590342232E+03  0.41800000000E+01 0.  1.
         -5    1    3    3    0  502  0.17004086822E+03 -0.68459733162E+02  0.14814166413E+03  0.23572029395E+03  0.41800000000E+01 0.  1.
        -11    1    1    2    0    0 -0.16500248576E+02 -0.96603497443E+01  0.77394745110E+01  0.20627167182E+02  0.00000000000E+00 0. -1.
         11    1    1    2    0    0 -0.20758038399E+03  0.31516111496E+02  0.49843101260E+03  0.54084781170E+03  0.00000000000E+00 0.  1.
</event>
<event>
 7    1  0.1620881E-005  0.7961893E+02  0.7561462E-02  0.1330136E+00
         -2   -1    0    0    0  501 -0.00000000000E+00  0.00000000000E+00  0.67796974980E+02  0.67796974980E+02  0.00000000000E+00 0. -1.
          2   -1    0    0  501    0  0.00000000000E+00 -0.00000000000E+00 -0.30328605018E+03  0.30328605018E+03  0.00000000000E+00 0.  1.
         23    2    1    2    0    0 -0.15356237266E+02 -0.44691674519E+02 -0.22062828740E+02  0.13552548948E+03  0.12508888877E+03 0.  0.
          5    1    3    3  502    0  0.16344901654E+02 -0.25875634373E+02  0.47515482444E+02  0.56673607051E+02  0.41800000000E+01 0. -1.
         -5    1    3    3    0  502 -0.31701138920E+02 -0.18816040146E+02 -0.69578311184E+02  0.78851882430E+02  0.41800000000E+01 0. -1.
        -11    1    1    2    0    0  0.42008507012E+02  0.34591053181E+01 -0.14720833144E+03  0.15312404422E+03  0.00000000000E+00 0.  1.
         11    1    1    2    0    0 -0.26652269746E+02  0.41232569201E+02 -0.66217915020E+02  0.82433491465E+02  0.00000000000E+00 0. -1.
</event>
<event>
 7    1  0.1620881E-005  0.1857260E+03  0.7561462E-02  0.1162374E+00
          2   -1    0    0  501    0  0.00000000000E+00  0.00000000000E+00  0.13110014362E+03  0.13110014362E+03  0.00000000000E+00 0. -1.
         -2   -1    0    0    0  501 -0.00000000000E+00 -0.00000000000E+00 -0.29558534663E+03  0.29558534663E+03  0.00000000000E+00 0.  1.
         23    2    1    2    0    0 -0.14233803672E+03  0.55524097641E+02 -0.14787188524E+03  0.24669261197E+03  0.12509239881E+03 0.  0.
          5    1    3    3  502    0 -0.16401207536E+03  0.60389990218E+02 -0.12951736047E+03  0.21757557502E+03  0.41800000000E+01 0. -1.
         -5    1    3    3    0  502  0.21674038635E+02 -0.48658925778E+01 -0.18354524765E+02  0.29117036949E+02  0.41800000000E+01 0. -1.
        -11    1    1    2    0    0 -0.93861674060E+01 -0.13756687032E+02 -0.15306334928E+02  0.22619249890E+02  0.00000000000E+00 0.  1.
         11    1    1    2    0    0  0.15172420413E+03 -0.41767410608E+02 -0.13069828405E+01  0.15737362839E+03  0.00000000000E+00 0. -1.
</event>
<event>
 7    1  0.1620881E-005  0.6646497E+02  0.7561462E-02  0.1372544E+00
         -2   -1    0    0    0  501 -0.00000000000E+00  0.00000000000E+00  0.33493061738E+02  0.33493061738E+02  0.00000000000E+00 0. -1.
          2   -1    0    0  501    0  0.00000000000E+00 -0.00000000000E+00 -0.40087365088E+03  0.40087365088E+03  0.00000000000E+00 0.  1.
         23    2    1    2    0    0 -0.36095346195E+02 -0.12308699624E+02 -0.17969603166E+03  0.22224373993E+03  0.12508892053E+03 0.  0.
          5    1    3    3  502    0 -0.49871608457E+01 -0.16061734610E+01  0.19337650868E+02  0.20466282212E+02  0.41800000000E+01 0. -1.
         -5    1    3    3    0  502 -0.31108185350E+02 -0.10702526163E+02 -0.19903368253E+03  0.20177745772E+03  0.41800000000E+01 0. -1.
        -11    1    1    2    0    0  0.29777491440E+02 -0.34647784781E+02 -0.56592209040E+02  0.72731328262E+02  0.00000000000E+00 0. -1.
         11    1    1    2    0    0  0.63178547554E+01  0.46956484405E+02 -0.13109234844E+03  0.13939164443E+03  0.00000000000E+00 0.  1.
</event>
<event>
 7    1  0.1620881E-005  0.1176822E+03  0.7561462E-02  0.1246970E+00
         -2   -1    0    0    0  501 -0.00000000000E+00  0.00000000000E+00  0.19635204553E+02  0.19635204553E+02  0.00000000000E+00 0.  1.
          2   -1    0    0  501    0  0.00000000000E+00 -0.00000000000E+00 -0.81966108109E+03  0.81966108109E+03  0.00000000000E+00 0. -1.
         23    2    1    2    0    0  0.37129796511E+02 -0.31431321753E+02 -0.30775581892E+03  0.33574928101E+03  0.12508951133E+03 0.  0.
          5    1    3    3  502    0  0.58243939297E+02  0.32450670204E+02 -0.15370848866E+03  0.16759825282E+03  0.41800000000E+01 0.  1.
         -5    1    3    3    0  502 -0.21114142785E+02 -0.63881991958E+02 -0.15404733026E+03  0.16815102819E+03  0.41800000000E+01 0.  1.
        -11    1    1    2    0    0  0.13849601475E+02 -0.22826184104E+02 -0.73245260100E+02  0.77959696439E+02  0.00000000000E+00 0.  1.
         11    1    1    2    0    0 -0.50979397986E+02  0.54257505857E+02 -0.41902479752E+03  0.42558730819E+03  0.00000000000E+00 0. -1.
</event>
<event>
 7    1  0.1620881E-005  0.9655335E+02  0.7561462E-02  0.1287715E+00
          1   -1    0    0  501    0  0.00000000000E+00  0.00000000000E+00  0.48334692506E+03  0.48334692506E+03  0.00000000000E+00 0. -1.
         -1   -1    0    0    0  501 -0.00000000000E+00 -0.00000000000E+00 -0.31088217568E+02  0.31088217568E+02  0.00000000000E+00 0.  1.
         23    2    1    2    0    0 -0.33147790822E+01 -0.38568514673E+02  0.12873166140E+03  0.17565234518E+03  0.11306364419E+03 0.  0.
          5    1    3    3  502    0  0.33362173085E+02 -0.63735728523E+02  0.97068645995E+02  0.12089281252E+03  0.41800000000E+01 0. -1.
         -5    1    3    3    0  502 -0.36676952167E+02  0.25167213850E+02  0.31663015404E+02  0.54759532666E+02  0.41800000000E+01 0.  1.
        -11    1    1    2    0    0 -0.19457002930E+02 -0.10618654828E+02  0.18195849179E+02  0.28677861160E+02  0.00000000000E+00 0.  1.
         11    1    1    2    0    0  0.22771782012E+02  0.49187169500E+02  0.30533119692E+03  0.31010493629E+03  0.00000000000E+00 0. -1.
</event>
<event>
 7    1  0.1620881E-005  0.1173193E+03  0.7561462E-02  0.1247586E+00
          1   -1    0    0  501    0  0.00000000000E+00  0.00000000000E+00  0.35378990024E+02  0.35378990024E+02  0.00000000000E+00 0. -1.
         -1   -1    0    0    0  501 -0.00000000000E+00 -0.00000000000E+00 -0.91346412168E+03  0.91346412168E+03  0.00000000000E+00 0.  1.
         23    2    1    2    0    0 -0.26592242956E+02  0.73088877224E+02 -0.78248263272E+03  0.79622616408E+03  0.12509157645E+03 0.  0.
          5    1    3    3  502    0  0.31225633199E+02 -0.11539704055E+02 -0.35613817556E+03  0.35771507856E+03  0.41800000000E+01 0.  1.
         -5    1    3    3    0  502 -0.57817876155E+02  0.84628581280E+02 -0.42634445715E+03  0.43851108551E+03  0.41800000000E+01 0.  1.
        -11    1    1    2    0    0  0.63132517447E+01  0.10633037218E+02 -0.56813569839E+02  0.58143790261E+02  0.00000000000E+00 0.  1.
         11    1    1    2    0    0  0.20278991212E+02 -0.83721914442E+02 -0.38788929104E+02  0.94473157370E+02  0.00000000000E+00 0. -1.
</event>
<event>
 7    1  0.1620881E-005  0.2002972E+03  0.7561462E-02  0.1149489E+00
         -1   -1    0    0    0  501 -0.00000000000E+00  0.00000000000E+00  0.15363247556E+03  0.15363247556E+03  0.00000000000E+00 0.  1.
          1   -1    0    0  501    0  0.00000000000E+00 -0.00000000000E+00 -0.32981032821E+03  0.32981032821E+03  0.00000000000E+00 0. -1.
         23    2    1    2    0    0 -0.13190842934E+02 -0.17012612206E+03  0.14096062058E+02  0.21204745337E+03  0.12509407568E+03 0.  0.
          5    1    3    3  502    0  0.51578865155E+02 -0.11502567111E+03  0.14035544965E+02  0.12690844443E+03  0.41800000000E+01 0. -1.
         -5    1    3    3    0  502 -0.64769708089E+02 -0.55100450955E+02  0.60517093576E-01  0.85139008942E+02  0.41800000000E+01 0. -1.
        -11    1    1    2    0    0  0.35995975452E+02  0.16064426552E+03 -0.14301702728E+03  0.21807374988E+03  0.00000000000E+00 0.  1.
         11    1    1    2    0    0 -0.22805132518E+02  0.94818565446E+01 -0.47256887430E+02  0.53321600523E+02  0.00000000000E+00 0. -1.
</event>
<event>
 7    1  0.1620881E-005  0.8188423E+02  0.7561462E-02  0.1323788E+00
         -2   -1    0    0    0  501 -0.00000000000E+00  0.00000000000E+00  0.57278215882E+02  0.57278215882E+02  0.00000000000E+00 0. -1.
          2   -1    0    0  501    0  0.00000000000E+00 -0.00000000000E+00 -0.22974325324E+03  0.22974325324E+03  0.00000000000E+00 0.  1.
         23    2    1    2    0    0  0.19924283635E+02  0.32005974488E+02 -0.10210624646E+03  0.16580268825E+03  0.12507392368E+03 0.  0.
          5    1    3    3  502    0  0.31509577810E+02  0.48852880474E+02 -0.12310052446E+03  0.13620084048E+03  0.41800000000E+01 0.  1.
         -5    1    3    3    0  502 -0.11585294175E+02 -0.16846905986E+02  0.20994278007E+02  0.29601847771E+02  0.41800000000E+01 0.  1.
        -11    1    1    2    0    0 -0.30836842341E+02  0.16447707645E+02  0.17871573283E+00  0.34949533211E+02  0.00000000000E+00 0. -1.
         11    1    1    2    0    0  0.10912558706E+02 -0.48453682132E+02 -0.70537506632E+02  0.86269247659E+02  0.00000000000E+00 0.  1.
</event>
<event>
 7    1  0.1620881E-005  0.2098282E+03  0.7561462E-02  0.1141702E+00
         -1   -1    0    0    0  501 -0.00000000000E+00  0.00000000000E+00  0.11674913070E+03  0.11674913070E+03  0.00000000000E+00 0.  1.
          1   -1    0    0  501    0  0.00000000000E+00 -0.00000000000E+00 -0.43142884175E+03  0.43142884175E+03  0.00000000000E+00 0. -1.
         23    2    1    2    0    0 -0.10295729154E+03 -0.16448208365E+03 -0.12722908038E+03  0.26361077327E+03  0.12509532833E+03 0.  0.
          5    1    3    3  502    0 -0.47137336905E+02 -0.21408287930E+02  0.15194377521E+02  0.54116400756E+02  0.41800000000E+01 0. -1.
         -5    1    3    3    0  502 -0.55819954630E+02 -0.14307379572E+03 -0.14242345790E+03  0.20949437252E+03  0.41800000000E+01 0. -1.
        -11    1    1    2    0    0 -0.10925925992E+02  0.55118574678E+02 -0.50999547628E+02  0.75884036474E+02  0.00000000000E+00 0. -1.
         11    1    1    2    0    0  0.11388321753E+03  0.10936350897E+03 -0.13645108305E+03  0.20868316270E+03  0.00000000000E+00 0.  1.
</event>
<event>
 7    1  0.1620881E-005  0.8580540E+02  0.7561462E-02  0.1313340E+00
         -1   -1    0    0    0  501 -0.00000000000E+00  0.00000000000E+00  0.18204990760E+03  0.18204990760E+03  0.00000000000E+00 0.  1.
          1   -1    0    0  501    0  0.00000000000E+00 -0.00000000000E+00 -0.75353690052E+02  0.75353690052E+02  0.00000000000E+00 0. -1.
         23    2    1    2    0    0  0.27282962526E+02  0.26109134919E+02  0.76164772380E+02  0.15124003210E+03  0.12508568179E+03 0.  0.
          5    1    3    3  502    0  0.48598433433E+02  0.21996870880E+02  0.10324191523E+03  0.11628428751E+03  0.41800000000E+01 0.  1.
         -5    1    3    3    0  502 -0.21315470907E+02  0.41122640390E+01 -0.27077142849E+02  0.34955744598E+02  0.41800000000E+01 0.  1.
        -11    1    1    2    0    0 -0.25056778600E+02 -0.58441336951E+02  0.30296391373E+01  0.63658547987E+02  0.00000000000E+00 0. -1.
         11    1    1    2    0    0 -0.22261839260E+01  0.32332202032E+02  0.27501806035E+02  0.42505017566E+02  0.00000000000E+00 0.  1.
</event>
<event>
 7    1  0.1620881E-005  0.7237645E+02  0.7561462E-02  0.1352193E+00
         -2   -1    0    0    0  501 -0.00000000000E+00  0.00000000000E+00  0.15707823375E+03  0.15707823375E+03  0.00000000000E+00 0.  1.
          2   -1    0    0  501    0  0.00000000000E+00 -0.00000000000E+00 -0.83946402377E+02  0.83946402377E+02  0.00000000000E+00 0. -1.
         23    2    1    2    0    0  0.59936123814E+01 -0.66427566804E+02  0.57815526991E+02  0.15310611133E+03  0.12510116364E+03 0.  0.
          5    1    3    3  502    0  0.54389795664E+01 -0.33773668052E+02  0.96404688040E+02  0.10237958502E+03  0.41800000000E+01 0.  1.
         -5    1    3    3    0  502  0.55463281497E+00 -0.32653898751E+02 -0.38589161050E+02  0.50726526313E+02  0.41800000000E+01 0.  1.
        -11    1    1    2    0    0  0.15682472104E+02  0.41313135623E+02  0.28098203524E+02  0.52366250081E+02  0.00000000000E+00 0.  1.
         11    1    1    2    0    0 -0.21676084486E+02  0.25114431181E+02 -0.12781899137E+02  0.35552274719E+02  0.00000000000E+00 0. -1.
</event>
<event>
 7    1  0.1620881E-005  0.1777012E+03  0.7561462E-02  0.1170047E+00
         -2   -1    0    0    0  501 -0.00000000000E+00  0.00000000000E+00  0.77288011914E+03  0.77288011914E+03  0.00000000000E+00 0.  1.
          2   -1    0    0  501    0  0.00000000000E+00 -0.00000000000E+00 -0.44385771828E+02  0.44385771828E+02  0.00000000000E+00 0. -1.
         23    2    1    2    0    0 -0.13410022633E+03  0.53727882651E+02  0.47313894982E+03  0.51026937867E+03  0.12507924245E+03 0.  0.
          5    1    3    3  502    0  0.40968202882E+01 -0.25221049562E+02  0.31304254810E+02  0.40624057486E+02  0.41800000000E+01 0.  1.
         -5    1    3    3    0  502 -0.13819704662E+03  0.78948932213E+02  0.44183469501E+03  0.46964532118E+03  0.41800000000E+01 0.  1.
        -11    1    1    2    0    0  0.16635709393E+02  0.24176826417E+02  0.48375102828E+02  0.56581059872E+02  0.00000000000E+00 0.  1.
         11    1    1    2    0    0  0.11746451694E+03 -0.77904709069E+02  0.20698029466E+03  0.25041545243E+03  0.00000000000E+00 0. -1.
</event>
<event>
 7    1  0.1620881E-005  0.2178712E+03  0.7561462E-02  0.1135480E+00
         -2   -1    0    0    0  501 -0.00000000000E+00  0.00000000000E+00  0.12500424156E+03  0.12500424156E+03  0.00000000000E+00 0.  1.
          2   -1    0    0  501    0  0.00000000000E+00 -0.00000000000E+00 -0.50771363466E+03  0.50771363466E+03  0.00000000000E+00 0. -1.
         23    2    1    2    0    0 -0.19615628385E+03 -0.51752350258E+02 -0.24544344903E+03  0.34211759860E+03  0.12508545537E+03 0.  0.
          5    1    3    3  502    0 -0.57785810500E+02 -0.64181113804E+02 -0.43031329083E+02  0.96579412646E+02  0.41800000000E+01 0.  1.
         -5    1    3    3    0  502 -0.13837047335E+03  0.12428763546E+02 -0.20241211995E+03  0.24553818595E+03  0.41800000000E+01 0.  1.
        -11    1    1    2    0    0  0.81872303402E+02  0.50115891070E+02 -0.14735076896E+03  0.17586052916E+03  0.00000000000E+00 0. -1.
         11    1    1    2    0    0  0.11428398045E+03  0.16364591876E+01  0.10084824885E+02  0.11473974847E+03  0.00000000000E+00 0.  1.
</event>
<event>
 7    1  0.1620881E-005  0.1324846E+03  0.7561462E-02  0.1223815E+00
         -1   -1    0    0    0  501 -0.00000000000E+00  0.00000000000E+00  0.44647937689E+02  0.44647937689E+02  0.00000000000E+00 0.  1.
          1   -1    0    0  501    0  0.00000000000E+00 -0.00000000000E+00 -0.44527995148E+03  0.44527995148E+03  0.00000000000E+00 0. -1.
         23    2    1    2    0    0 -0.14102636919E+02 -0.85183650810E+02 -0.16315706105E+03  0.22298554572E+03  0.12508872169E+03 0.  0.
          5    1    3    3  502    0 -0.41644838184E+02 -0.10323427297E+03 -0.92031239905E+02  0.14449508359E+03  0.41800000000E+01 0. -1.
         -5    1    3    3    0  502  0.27542201266E+02  0.18050622164E+02 -0.71125821145E+02  0.78490462125E+02  0.41800000000E+01 0. -1.
        -11    1    1    2    0    0 -0.94287716566E+01  0.94573958415E+02 -0.16842650416E+03  0.19339240587E+03  0.00000000000E+00 0.  1.
         11    1    1    2    0    0  0.23531408575E+02 -0.93903076047E+01 -0.69048448583E+02  0.73549937581E+02  0.00000000000E+00 0. -1.
</event>
<event>
 7    1  0.1620881E-005  0.1492277E+03  0.7561462E-02  0.1201425E+00
          1   -1    0    0  501    0  0.00000000000E+00  0.00000000000E+00  0.12422630447E+03  0.12422630447E+03  0.00000000000E+00 0.  1.
         -1   -1    0    0    0  501 -0.00000000000E+00 -0.00000000000E+00 -0.53880363404E+03  0.53880363404E+03  0.00000000000E+00 0. -1.
         23    2    1    2    0    0 -0.41290407491E+02  0.10127871989E+03 -0.47959839484E+03  0.50756679426E+03  0.12508858243E+03 0.  0.
          5    1    3    3  502    0 -0.82386947115E+02  0.39951676358E+02 -0.28599480271E+03  0.30032356730E+03  0.41800000000E+01 0.  1.
         -5    1    3    3    0  502  0.41096539624E+02  0.61327043531E+02 -0.19360359213E+03  0.20724322696E+03  0.41800000000E+01 0.  1.
        -11    1    1    2    0    0  0.42493487980E+02 -0.11317956534E+03  0.72869262096E+02  0.14115679186E+03  0.00000000000E+00 0.  1.
         11    1    1    2    0    0 -0.12030804889E+01  0.11900845447E+02 -0.78481968358E+01  0.14306352386E+02  0.00000000000E+00 0. -1.
</event>
<event>
 6    1  0.1620881E-005  0.2868431E+03  0.7561462E-02  0.1092009E+00
          1   -1    0    0  501    0  0.00000000000E+00  0.00000000000E+00  0.54778277390E+03  0.54778277390E+03  0.00000000000E+00 0. -1.
         -1   -1    0    0    0  501 -0.00000000000E+00 -0.00000000000E+00 -0.25022763407E+03  0.25022763407E+03  0.00000000000E+00 0.  1.
          5    1    1    2  502    0  0.24918464359E+03 -0.76661821416E+02  0.74763926674E+02  0.27125106193E+03  0.41800000000E+01 0. -1.
         -5    1    1    2    0  502 -0.18790669809E+03  0.15523274639E+02 -0.75838625428E+02  0.20327043255E+03  0.41800000000E+01 0.  1.
        -11    1    1    2    0    0  0.22943485858E+02  0.20788021790E+02  0.72535086450E+02  0.78866242205E+02  0.00000000000E+00 0. -1.
         11    1    1    2    0    0 -0.84221431363E+02  0.40350524986E+02  0.22609475213E+03  0.24462267129E+03  0.00000000000E+00 0.  1.
</event>
<event>
 7    1  0.1620881E-005  0.7417265E+02  0.7561462E-02  0.1346452E+00
         -2   -1    0    0    0  501 -0.00000000000E+00  0.00000000000E+00  0.27182343465E+02  0.27182343465E+02  0.00000000000E+00 0.  1.
          2   -1    0    0  501    0  0.00000000000E+00 -0.00000000000E+00 -0.50342615914E+03  0.50342615914E+03  0.00000000000E+00 0. -1.
         23    2    1    2    0    0  0.28808255877E+02  0.32521056248E+02 -0.25330139914E+03  0.28582672146E+03  0.12509109156E+03 0.  0.
          5    1    3    3  502    0  0.32300722044E+02  0.58610027790E+02 -0.57825311642E+02  0.88542142896E+02  0.41800000000E+01 0.  1.
         -5    1    3    3    0  502 -0.34924661666E+01 -0.26088971542E+02 -0.19547608750E+03  0.19728457857E+03  0.41800000000E+01 0.  1.
        -11    1    1    2    0    0  0.71679452232E+01 -0.96139388471E+01  0.49201632779E+01  0.12962070265E+02  0.00000000000E+00 0.  1.
         11    1    1    2    0    0 -0.35976201101E+02 -0.22907117401E+02 -0.22786257981E+03  0.23181971088E+03  0.00000000000E+00 0. -1.
</event>
<event>
 7    1  0.1620881E-005  0.9754323E+02  0.7561462E-02  0.1285549E+00
         -4   -1    0    0    0  501 -0.00000000000E+00  0.00000000000E+00  0.51110984444E+02  0.51110984444E+02  0.00000000000E+00 0. -1.
          4   -1    0    0  501    0  0.00000000000E+00 -0.00000000000E+00 -0.25409102578E+03  0.25409102578E+03  0.00000000000E+00 0.  1.
         23    2    1    2    0    0  0.13072112472E+02  0.12085918185E+02 -0.78931988411E+02  0.14901740884E+03  0.12513584538E+03 0.  0.
          5    1    3    3  502    0 -0.50610158314E+02  0.25061324147E+02 -0.16950777428E+02  0.59112260555E+02  0.41800000000E+01 0.  1.
         -5    1    3    3    0  502  0.63682270786E+02 -0.12975405962E+02 -0.61981210983E+02  0.89905148280E+02  0.41800000000E+01 0.  1.
        -11    1    1    2    0    0  0.18796547834E+02 -0.31014276810E+02 -0.11118505015E+03  0.11695003614E+03  0.00000000000E+00 0.  1.
         11    1    1    2    0    0 -0.31868660306E+02  0.18928358625E+02 -0.12863002778E+02  0.39234565251E+02  0.00000000000E+00 0. -1.
</event>
<event>
 7    1  0.1620881E-005  0.1167784E+03  0.7561462E-02  0.1248508E+00
         -2   -1    0    0    0  501 -0.00000000000E+00  0.00000000000E+00  0.14830129345E+03  0.14830129345E+03  0.00000000000E+00 0.  1.
          2   -1    0    0  501    0  0.00000000000E+00 -0.00000000000E+00 -0.13535541906E+03  0.13535541906E+03  0.00000000000E+00 0. -1.
         23    2    1    2    0    0  0.80740590139E+02  0.40783802684E+02  0.18696566122E+02  0.15549992074E+03  0.12509317451E+03 0.  0.
          5    1    3    3  502    0  0.19954243907E+02 -0.22517582744E+02 -0.39711041552E+02  0.49996525915E+02  0.41800000000E+01 0.  1.
         -5    1    3    3    0  502  0.60786346233E+02  0.63301385428E+02  0.58407607674E+02  0.10550339482E+03  0.41800000000E+01 0.  1.
        -11    1    1    2    0    0  0.43654634260E+01 -0.29088610506E+02 -0.26709007662E+02  0.39731292735E+02  0.00000000000E+00 0. -1.
         11    1    1    2    0    0 -0.85106053565E+02 -0.11695192178E+02  0.20958315926E+02  0.88425499037E+02  0.00000000000E+00 0.  1.
</event>
<event>
 7    1  0.1620881E-005  0.1647276E+03  0.7561462E-02  0.1183460E+00
         -1   -1    0    0    0  501 -0.00000000000E+00  0.00000000000E+00  0.56818355257E+02  0.56818355257E+02  0.00000000000E+00 0.  1.
          1   -1    0    0  501    0  0.00000000000E+00 -0.00000000000E+00 -0.70823293751E+03  0.70823293751E+03  0.00000000000E+00 0. -1.
         23    2    1    2    0    0  0.41248833798E+02  0.15105372337E+03 -0.44285865667E+03  0.48609645241E+03  0.12508907874E+03 0.  0.
          5    1    3    3  502    0  0.56068689733E+00 -0.26635543877E+01 -0.17135802777E+03  0.17143061271E+03  0.41800000000E+01 0.  1.
         -5    1    3    3    0  502  0.40688146901E+02  0.15371727776E+03 -0.27150062890E+03  0.31466583970E+03  0.41800000000E+01 0.  1.
        -11    1    1    2    0    0 -0.54160730912E+02 -0.12780660437E+03 -0.21065871465E+03  0.25227962056E+03  0.00000000000E+00 0. -1.
         11    1    1    2    0    0  0.12911897114E+02 -0.23247119008E+02  0.21027890732E+01  0.26675219796E+02  0.00000000000E+00 0.  1.
</event>
<event>
 7    1  0.1620881E-005  0.8941086E+02  0.7561462E-02  0.1304285E+00
         -2   -1    0    0    0  501 -0.00000000000E+00  0.00000000000E+00  0.78815249788E+02  0.78815249788E+02  0.00000000000E+00 0.  1.
          2   -1    0    0  501    0  0.00000000000E+00 -0.00000000000E+00 -0.25073706729E+03  0.25073706729E+03  0.00000000000E+00 0. -1.
         23    2    1    2    0    0 -0.29990284584E+01  0.25669712634E+01  0.10800496194E+02  0.12561704764E+03  0.12508960159E+03 0.  0.
          5    1    3    3  502    0  0.52094520846E+02 -0.15576473812E+02  0.32572072808E+02  0.63520689272E+02  0.41800000000E+01 0.  1.
         -5    1    3    3    0  502 -0.55093549304E+02  0.18143445075E+02 -0.21771576614E+02  0.62096358367E+02  0.41800000000E+01 0.  1.
        -11    1    1    2    0    0 -0.12509048683E+02 -0.31175681761E+02 -0.16179498901E+03  0.16524532641E+03  0.00000000000E+00 0. -1.
         11    1    1    2    0    0  0.15508077142E+02  0.28608710498E+02 -0.20927324687E+02  0.38689943028E+02  0.00000000000E+00 0.  1.
</event>
<event>
 7    1  0.1620881E-005  0.2685489E+03  0.7561462E-02  0.1102113E+00
         -1   -1    0    0    0  501 -0.00000000000E+00  0.00000000000E+00  0.12984890479E+03  0.12984890479E+03  0.00000000000E+00 0.  1.
          1   -1    0    0  501    0  0.00000000000E+00 -0.00000000000E+00 -0.57446642273E+03  0.57446642273E+03  0.00000000000E+00 0. -1.
         23    2    1    2    0    0 -0.19565304081E+03 -0.15395209285E+03 -0.26882282607E+03  0.38716198562E+03  0.12508929618E+03 0.  0.
          5    1    3    3  502    0 -0.72707385263E+02  0.88539483558E+01 -0.87480633362E+02  0.11417131814E+03  0.41800000000E+01 0. -1.
         -5    1    3    3    0  502 -0.12294565555E+03 -0.16280604121E+03 -0.18134219271E+03  0.27299066748E+03  0.41800000000E+01 0. -1.
        -11    1    1    2    0    0  0.16197407803E+02  0.49398768899E+02 -0.59904469169E+02  0.79316705773E+02  0.00000000000E+00 0. -1.
         11    1    1    2    0    0  0.17945563301E+03  0.10455332396E+03 -0.11589022270E+03  0.23783663613E+03  0.00000000000E+00 0.  1.
</event>
<event>
 7    1  0.1620881E-005  0.1465143E+03  0.7561462E-02  0.1204823E+00
          2   -1    0    0  501    0  0.00000000000E+00  0.00000000000E+00  0.83016081079E+03  0.83016081079E+03  0.00000000000E+00 0.  1.
         -2   -1    0    0    0  501 -0.00000000000E+00 -0.00000000000E+00 -0.34140252839E+02  0.34140252839E+02  0.00000000000E+00 0. -1.
         23    2    1    2    0    0 -0.11994716606E+03 -0.32243325711E+02  0.34117001648E+03  0.38401970049E+03  0.12508875057E+03 0.  0.
          5    1    3    3  502    0 -0.66664258484E+02 -0.67198306772E+02  0.11498787468E+03  0.14899469627E+03  0.41800000000E+01 0.  1.
         -5    1    3    3    0  502 -0.53282907575E+02  0.34954981061E+02  0.22618214180E+03  0.23502500422E+03  0.41800000000E+01 0.  1.
        -11    1    1    2    0    0  0.11973911489E+03  0.19075860067E+02  0.45031544998E+03  0.46635324440E+03  0.00000000000E+00 0.  1.
         11    1    1    2    0    0  0.20805116371E+00  0.13167465644E+02  0.45350914923E+01  0.13928118739E+02  0.00000000000E+00 0. -1.
</event>
<event>
 7    1  0.1620881E-005  0.1149806E+03  0.7561462E-02  0.1251615E+00
          1   -1    0    0  501    0  0.00000000000E+00  0.00000000000E+00  0.49087715991E+03  0.49087715991E+03  0.00000000000E+00 0. -1.
         -1   -1    0    0    0  501 -0.00000000000E+00 -0.00000000000E+00 -0.35000538947E+02  0.35000538947E+02  0.00000000000E+00 0.  1.
         23    2    1    2    0    0  0.59894043954E+02 -0.41950130419E+02  0.24509728489E+03  0.28472282792E+03  0.12508916713E+03 0.  0.
          5    1    3    3  502    0  0.55084507530E+02  0.19797682346E+02  0.19880884408E+03  0.20728888075E+03  0.41800000000E+01 0.  1.
         -5    1    3    3    0  502  0.48095364245E+01 -0.61747812765E+02  0.46288440803E+02  0.77433947167E+02  0.41800000000E+01 0.  1.
        -11    1    1    2    0    0  0.15607755055E+02 -0.90949117168E+01  0.99732264846E+01  0.20634550722E+02  0.00000000000E+00 0.  1.
         11    1    1    2    0    0 -0.75501799009E+02  0.51045042136E+02  0.20080610959E+03  0.22052032022E+03  0.00000000000E+00 0. -1.
</event>
<event>
 7    1  0.1620881E-005  0.7050337E+02  0.7561462E-02  0.1358390E+00
         -2   -1    0    0    0  501 -0.00000000000E+00  0.00000000000E+00  0.28209534317E+02  0.28209534317E+02  0.00000000000E+00 0.  1.
          2   -1    0    0  501    0  0.00000000000E+00 -0.00000000000E+00 -0.51869486358E+03  0.51869486358E+03  0.00000000000E+00 0. -1.
         23    2    1    2    0    0 -0.29719142660E+02  0.28954385342E+02 -0.19823774421E+03  0.23805121237E+03  0.12509433486E+03 0.  0.
          5    1    3    3  502    0  0.17449031491E+02  0.16704937530E+02 -0.18603089866E+03  0.18763925841E+03  0.41800000000E+01 0.  1.
         -5    1    3    3    0  502 -0.47168174152E+02  0.12249447812E+02 -0.12206845541E+02  0.50411953965E+02  0.41800000000E+01 0.  1.
        -11    1    1    2    0    0 -0.13590291483E+02  0.28008871999E+01 -0.24117730315E+01  0.14083949760E+02  0.00000000000E+00 0.  1.
         11    1    1    2    0    0  0.43309434143E+02 -0.31755272542E+02 -0.28983581203E+03  0.29476923576E+03  0.00000000000E+00 0. -1.
</event>
<event>
 7    1  0.1620881E-005  0.1099865E+03  0.7561462E-02  0.1260595E+00
         -1   -1    0    0    0  501 -0.00000000000E+00  0.00000000000E+00  0.45435942117E+02  0.45435942117E+02  0.00000000000E+00 0.  1.
          1   -1    0    0  501    0  0.00000000000E+00 -0.00000000000E+00 -0.46308966733E+03  0.46308966733E+03  0.00000000000E+00 0. -1.
         23    2    1    2    0    0 -0.14031978882E+02 -0.38877916314E+02 -0.72283549484E+02  0.15026938108E+03  0.12509031359E+03 0.  0.
          5    1    3    3  502    0  0.55059341713E+02 -0.22626244508E+02 -0.42089437053E+02  0.73023771211E+02  0.41800000000E+01 0. -1.
         -5    1    3    3    0  502 -0.69091320595E+02 -0.16251671806E+02 -0.30194112431E+02  0.77245609866E+02  0.41800000000E+01 0. -1.
        -11    1    1    2    0    0  0.42817344545E+02  0.26103964445E+01 -0.10425229670E+03  0.11273278375E+03  0.00000000000E+00 0.  1.
         11    1    1    2    0    0 -0.28785365663E+02  0.36267519869E+02 -0.24111787902E+03  0.24552344462E+03  0.00000000000E+00 0. -1.
</event>
<event>
 7    1  0.1620881E-005  0.7591723E+02  0.7561462E-02  0.1341054E+00
         -2   -1    0    0    0  501 -0.00000000000E+00  0.00000000000E+00  0.42549699376E+03  0.42549699376E+03  0.00000000000E+00 0.  1.
          2   -1    0    0  501    0  0.00000000000E+00 -0.00000000000E+00 -0.36188528302E+02  0.36188528302E+02  0.00000000000E+00 0. -1.
         23    2    1    2    0    0 -0.89870887492E+01  0.47884322032E+02  0.28656513633E+03  0.31644921415E+03  0.12508737633E+03 0.  0.
          5    1    3    3  502    0 -0.25164870291E+02  0.33373092337E+02  0.29088370829E+03  0.29390106862E+03  0.41800000000E+01 0.  1.
         -5    1    3    3    0  502  0.16177781541E+02  0.14511229695E+02 -0.43185719645E+01  0.22548145526E+02  0.41800000000E+01 0.  1.
        -11    1    1    2    0    0  0.22008823820E+02  0.12915819758E+02  0.70951744104E+02  0.75401304480E+02  0.00000000000E+00 0.  1.
         11    1    1    2    0    0 -0.13021735071E+02 -0.60800141790E+02  0.31791585029E+02  0.69835003434E+02  0.00000000000E+00 0. -1.
</event>
<event>
 7    1  0.1620881E-005  0.1392119E+03  0.7561462E-02  0.1214393E+00
         -1   -1    0    0    0  501 -0.00000000000E+00  0.00000000000E+00  0.15684789425E+02  0.15684789425E+02  0.00000000000E+00 0.  1.
          1   -1    0    0  501    0  0.00000000000E+00 -0.00000000000E+00 -0.13512837049E+04  0.13512837049E+04  0.00000000000E+00 0. -1.
         23    2    1    2    0    0  0.73538720018E+02  0.60245054812E+02 -0.67108044008E+03  0.68922684423E+03  0.12508907136E+03 0.  0.
          5    1    3    3  502    0  0.10458433090E+02 -0.38349041593E+02 -0.16559064501E+03  0.17034600649E+03  0.41800000000E+01 0.  1.
         -5    1    3    3    0  502  0.63080286929E+02  0.98594096406E+02 -0.50548979508E+03  0.51888083774E+03  0.41800000000E+01 0.  1.
        -11    1    1    2    0    0 -0.88461802818E+02 -0.59056668421E+02 -0.64166982318E+03  0.65042550890E+03  0.00000000000E+00 0. -1.
         11    1    1    2    0    0  0.14923082800E+02 -0.11883863911E+01 -0.22848652244E+02  0.27316141232E+02  0.00000000000E+00 0.  1.
</event>
<event>
 7    1  0.1620881E-005  0.1309712E+03  0.7561462E-02  0.1226022E+00
          1   -1    0    0  501    0  0.00000000000E+00  0.00000000000E+00  0.20649851417E+03  0.20649851417E+03  0.00000000000E+00 0. -1.
         -1   -1    0    0    0  501 -0.00000000000E+00 -0.00000000000E+00 -0.12561479968E+03  0.12561479968E+03  0.00000000000E+00 0.  1.
         23    2    1    2    0    0 -0.74820020700E+02 -0.59054516068E+02 -0.27258454339E+02  0.15961140430E+03  0.12508919092E+03 0.  0.
          5    1    3    3  502    0  0.26613342753E+02 -0.45035135882E+02 -0.22268962226E+02  0.57007127230E+02  0.41800000000E+01 0.  1.
         -5    1    3    3    0  502 -0.10143336345E+03 -0.14019380187E+02 -0.49894921131E+01  0.10260427707E+03  0.41800000000E+01 0.  1.
        -11    1    1    2    0    0  0.98120784104E+01  0.37086279713E+02  0.95245582226E+02  0.10268101070E+03  0.00000000000E+00 0.  1.
         11    1    1    2    0    0  0.65007942290E+02  0.21968236355E+02  0.12896586600E+02  0.69820898843E+02  0.00000000000E+00 0. -1.
</event>
<event>
 7    1  0.1620881E-005  0.8874268E+02  0.7561462E-02  0.1305925E+00
         -1   -1    0    0    0  501 -0.00000000000E+00  0.00000000000E+00  0.36732089247E+02  0.36732089247E+02  0.00000000000E+00 0.  1.
          1   -1    0    0  501    0  0.00000000000E+00 -0.00000000000E+00 -0.41175099269E+03  0.41175099269E+03  0.00000000000E+00 0. -1.
         23    2    1    2    0    0 -0.95693297957E+01  0.40070216489E+02 -0.13509295314E+03  0.18866727977E+03  0.12509213463E+03 0.  0.
          5    1    3    3  502    0 -0.14432792335E+02 -0.19902317026E+02 -0.12506243838E+03  0.12752448240E+03  0.41800000000E+01 0.  1.
         -5    1    3    3    0  502  0.48634625393E+01  0.59972533514E+02 -0.10030514757E+02  0.61142797371E+02  0.41800000000E+01 0.  1.
        -11    1    1    2    0    0 -0.32387583063E+02 -0.38411931740E+02 -0.79998673254E+02  0.94468088575E+02  0.00000000000E+00 0.  1.
         11    1    1    2    0    0  0.41956912858E+02 -0.16582847491E+01 -0.15992727705E+03  0.16534771359E+03  0.00000000000E+00 0. -1.
</event>
<event>
 7    1  0.1620881E-005  0.1701712E+03  0.7561462E-02  0.1177669E+00
          1   -1    0    0  501    0  0.00000000000E+00  0.00000000000E+00  0.32880077755E+03  0.32880077755E+03  0.00000000000E+00 0. -1.
         -1   -1    0    0    0  501 -0.00000000000E+00 -0.00000000000E+00 -0.21771892924E+03  0.21771892924E+03  0.00000000000E+00 0.  1.
         23    2    1    2    0    0  0.15311689224E+03 -0.16043912763E+02 -0.13231612662E+03  0.23844875399E+03  0.12509221035E+03 0.  0.
          5    1    3    3  502    0  0.15035152702E+03 -0.19847273446E+01 -0.15193215359E+03  0.21379984218E+03  0.41800000000E+01 0. -1.
         -5    1    3    3    0  502  0.27653652110E+01 -0.14059185419E+02  0.19616026970E+02  0.24648911811E+02  0.41800000000E+01 0. -1.
        -11    1    1    2    0    0 -0.62622773136E+02  0.48128064704E+02  0.16920983761E+03  0.18673481591E+03  0.00000000000E+00 0. -1.
         11    1    1    2    0    0 -0.90494119099E+02 -0.32084151941E+02  0.74188137314E+02  0.12133613689E+03  0.00000000000E+00 0.  1.
</event>
<event>
 7    1  0.1620881E-005  0.1118981E+03  0.7561462E-02  0.1257095E+00
          2   -1    0    0  501    0  0.00000000000E+00  0.00000000000E+00  0.57227238297E+02  0.57227238297E+02  0.00000000000E+00 0. -1.
         -2   -1    0    0    0  501 -0.00000000000E+00 -0.00000000000E+00 -0.38570373421E+03  0.38570373421E+03  0.00000000000E+00 0.  1.
         23    2    1    2    0    0  0.37255201567E+02 -0.13885366773E+02 -0.31809347573E+03  0.34168335802E+03  0.11825102279E+03 0.  0.
          5    1    3    3  502    0 -0.20029830868E+02  0.39816615466E+02 -0.14053660755E+03  0.14749429634E+03  0.41800000000E+01 0. -1.
         -5    1    3    3    0  502  0.57285032435E+02 -0.53701982239E+02 -0.17755686819E+03  0.19418906168E+03  0.41800000000E+01 0.  1.
        -11    1    1    2    0    0 -0.63547295088E+02 -0.10653220228E+02 -0.10495923498E+02  0.65283338030E+02  0.00000000000E+00 0. -1.
         11    1    1    2    0    0  0.26292093521E+02  0.24538587001E+02  0.11290331763E+00  0.35964276454E+02  0.00000000000E+00 0.  1.
</event>
<event>
 7    1  0.1620881E-005  0.1000680E+03  0.7561462E-02  0.1280153E+00
          1   -1    0    0  501    0  0.00000000000E+00  0.00000000000E+00  0.43939399855E+02  0.43939399855E+02  0.00000000000E+00 0. -1.
         -1   -1    0    0    0  501 -0.00000000000E+00 -0.00000000000E+00 -0.32484914841E+03  0.32484914841E+03  0.00000000000E+00 0.  1.
         23    2    1    2    0    0 -0.34454451491E+02 -0.33817218237E+02 -0.18665939706E+03  0.22982536316E+03  0.12508898258E+03 0.  0.
          5    1    3    3  502    0  0.23469193076E+02  0.20404438375E+02 -0.12604420525E+03  0.12989133230E+03  0.41800000000E+01 0.  1.
         -5    1    3    3    0  502 -0.57923644567E+02 -0.54221656612E+02 -0.60615191817E+02  0.99934030864E+02  0.41800000000E+01 0.  1.
        -11    1    1    2    0    0  0.23851112569E+02 -0.22025253757E+02 -0.70007605413E+02  0.77168984635E+02  0.00000000000E+00 0.  1.
         11    1    1    2    0    0  0.10603338922E+02  0.55842471994E+02 -0.24242746080E+02  0.61794200473E+02  0.00000000000E+00 0. -1.
</event>
<event>
 7    1  0.1620881E-005  0.1114370E+03  0.7561462E-02  0.1257932E+00
         -1   -1    0    0    0  501 -0.00000000000E+00  0.00000000000E+00  0.11954534560E+03  0.11954534560E+03  0.00000000000E+00 0.  1.
          1   -1    0    0  501    0  0.00000000000E+00 -0.00000000000E+00 -0.15742224794E+03  0.15742224794E+03  0.00000000000E+00 0. -1.
         23    2    1    2    0    0  0.41683236218E+02 -0.60934983159E+02  0.24527751510E+02  0.14730660845E+03  0.12508821665E+03 0.  0.
          5    1    3    3  502    0  0.72019022166E+02 -0.80284605099E+02  0.10432494746E+02  0.10843738616E+03  0.41800000000E+01 0. -1.
         -5    1    3    3    0  502 -0.30335785948E+02  0.19349621940E+02  0.14095256763E+02  0.38869222291E+02  0.41800000000E+01 0. -1.
        -11    1    1    2    0    0  0.50364628084E+00  0.19758665515E+02  0.20145665983E+02  0.28222444621E+02  0.00000000000E+00 0.  1.
         11    1    1    2    0    0 -0.42186882499E+02  0.41176317644E+02 -0.82550319829E+02  0.10143854047E+03  0.00000000000E+00 0. -1.
</event>
<event>
 6    1  0.1620881E-005  0.9967744E+02  0.7561462E-02  0.1280976E+00
         -1   -1    0    0    0  501 -0.00000000000E+00  0.00000000000E+00  0.11635615909E+03  0.11635615909E+03  0.00000000000E+00 0.  1.
          1   -1    0    0  501    0  0.00000000000E+00 -0.00000000000E+00 -0.35881821712E+03  0.35881821712E+03  0.00000000000E+00 0. -1.
          5    1    1    2  502    0  0.37544069269E+01  0.25221963768E+02 -0.20685682977E+03  0.20846453763E+03  0.41800000000E+01 0. -1.
         -5    1    1    2    0  502  0.37936389214E+01 -0.78692907659E+02  0.78138260527E+02  0.11104064828E+03  0.41800000000E+01 0.  1.
        -11    1    1    2    0    0 -0.96901228435E+00 -0.20416670411E+02 -0.68942700904E+00  0.20451276857E+02  0.00000000000E+00 0.  1.
         11    1    1    2    0    0 -0.65790335639E+01  0.73887614302E+02 -0.11305406178E+03  0.13521791344E+03  0.00000000000E+00 0. -1.
</event>
<event>
 7    1  0.1620881E-005  0.1081067E+03  0.7561462E-02  0.1264117E+00
         -1   -1    0    0    0  501 -0.00000000000E+00  0.00000000000E+00  0.54771726229E+02  0.54771726229E+02  0.00000000000E+00 0.  1.
          1   -1    0    0  501    0  0.00000000000E+00 -0.00000000000E+00 -0.26548362804E+03  0.26548362804E+03  0.00000000000E+00 0. -1.
         23    2    1    2    0    0 -0.47310147793E+02 -0.16913435470E+02 -0.96448113592E+02  0.16574922742E+03  0.12508498467E+03 0.  0.
          5    1    3    3  502    0 -0.79958043892E+02 -0.40686541660E+02 -0.84774303444E+02  0.12350238208E+03  0.41800000000E+01 0. -1.
         -5    1    3    3    0  502  0.32647896099E+02  0.23773106190E+02 -0.11673810148E+02  0.42246845337E+02  0.41800000000E+01 0. -1.
        -11    1    1    2    0    0  0.58617602027E+02  0.32126936496E+02 -0.11758993395E+03  0.13526106566E+03  0.00000000000E+00 0. -1.
         11    1    1    2    0    0 -0.11307454235E+02 -0.15213501025E+02  0.33261457374E+01  0.19245061189E+02  0.00000000000E+00 0.  1.
</event>
<event>
 7    1  0.1620881E-005  0.1134932E+03  0.7561462E-02  0.1254234E+00
         -2   -1    0    0    0  501 -0.00000000000E+00  0.00000000000E+00  0.32711260075E+02  0.32711260075E+02  0.00000000000E+00 0.  1.
          2   -1    0    0  501    0  0.00000000000E+00 -0.00000000000E+00 -0.45450038274E+03  0.45450038274E+03  0.00000000000E+00 0. -1.
         23    2    1    2    0    0  0.20005668946E+02  0.50325501730E+02 -0.20311761784E+03  0.24461630818E+03  0.12508992220E+03 0.  0.
          5    1    3    3  502    0  0.41342508933E+02  0.84198203818E+02 -0.16085514750E+03  0.18625356761E+03  0.41800000000E+01 0.  1.
         -5    1    3    3    0  502 -0.21336839987E+02 -0.33872702088E+02 -0.42262470342E+02  0.58362740570E+02  0.41800000000E+01 0.  1.
        -11    1    1    2    0    0  0.20245190584E+02 -0.48493582454E+02 -0.64248226239E+02  0.83001987059E+02  0.00000000000E+00 0.  1.
         11    1    1    2    0    0 -0.40250859530E+02 -0.18319192761E+01 -0.15442327859E+03  0.15959334758E+03  0.00000000000E+00 0. -1.
</event>
<event>
 7    1  0.1620881E-005  0.1200279E+03  0.7561462E-02  0.1243051E+00
         -1   -1    0    0    0  501 -0.00000000000E+00  0.00000000000E+00  0.12548018008E+03  0.12548018008E+03  0.00000000000E+00 0.  1.
          1   -1    0    0  501    0  0.00000000000E+00 -0.00000000000E+00 -0.21036659953E+03  0.21036659953E+03  0.00000000000E+00 0. -1.
         23    2    1    2    0    0 -0.67870870169E+02 -0.13502369381E+02  0.56279502173E+02  0.15363377219E+03  0.12508870691E+03 0.  0.
          5    1    3    3  502    0 -0.22179556502E+02 -0.59113932719E+02 -0.63439955492E+01  0.63593305054E+02  0.41800000000E+01 0. -1.
         -5    1    3    3    0  502 -0.45691313667E+02  0.45611563338E+02  0.62623497722E+02  0.90040467134E+02  0.41800000000E+01 0. -1.
        -11    1    1    2    0    0  0.55177747818E+02  0.49367408853E+02 -0.72004655220E+02  0.10327824207E+03  0.00000000000E+00 0.  1.
         11    1    1    2    0    0  0.12693122351E+02 -0.35865039472E+02 -0.69161266406E+02  0.78934765359E+02  0.00000000000E+00 0. -1.
</event>
<event>
 7    1  0.1620881E-005  0.1189447E+03  0.7561462E-02  0.1244848E+00
          2   -1    0    0  501    0  0.00000000000E+00  0.00000000000E+00  0.45341860942E+03  0.45341860942E+03  0.00000000000E+00 0. -1.
         -2   -1    0    0    0  501 -0.00000000000E+00 -0.00000000000E+00 -0.38548352262E+02  0.38548352262E+02  0.00000000000E+00 0.  1.
         23    2    1    2    0    0  0.60095881333E+02  0.43875843363E+02  0.25601806217E+03  0.29449583871E+03  0.12508375706E+03 0.  0.
          5    1    3    3  502    0  0.13429555965E+02  0.72116338221E+02  0.21170931562E+03  0.22409691192E+03  0.41800000000E+01 0. -1.
         -5    1    3    3    0  502  0.46666325368E+02 -0.28240494858E+02  0.44308746550E+02  0.70398926796E+02  0.41800000000E+01 0. -1.
        -11    1    1    2    0    0 -0.46455586763E+02 -0.67788388642E+02  0.83099933066E+02  0.11687166488E+03  0.00000000000E+00 0.  1.
         11    1    1    2    0    0 -0.13640294570E+02  0.23912545278E+02  0.75752261929E+02  0.80599458094E+02  0.00000000000E+00 0. -1.
</event>
<event>
 7    1  0.1620881E-005  0.1195454E+03  0.7561462E-02  0.1243849E+00
         -2   -1    0    0    0  501 -0.00000000000E+00  0.00000000000E+00  0.98094616337E+02  0.98094616337E+02  0.00000000000E+00 0.  1.
          2   -1    0    0  501    0  0.00000000000E+00 -0.00000000000E+00 -0.21257607218E+03  0.21257607218E+03  0.00000000000E+00 0. -1.
         23    2    1    2    0    0 -0.37162599826E+02 -0.17958821070E+02  0.22644120749E+02  0.13365934099E+03  0.12509390533E+03 0.  0.
          5    1    3    3  502    0  0.19426506036E+02  0.41451892523E+02 -0.66305748579E+01  0.46444434041E+02  0.41800000000E+01 0.  1.
         -5    1    3    3    0  502 -0.56589105862E+02 -0.59410713593E+02  0.29274695607E+02  0.87214906953E+02  0.41800000000E+01 0.  1.
        -11    1    1    2    0    0  0.23801809751E+02  0.61222923602E+02 -0.69530995411E+02  0.95652139780E+02  0.00000000000E+00 0. -1.
         11    1    1    2    0    0  0.13360790076E+02 -0.43264102532E+02 -0.67594581178E+02  0.81359207739E+02  0.00000000000E+00 0.  1.
</event>
<event>
 7    1  0.1620881E-005  0.8960217E+02  0.7561462E-02  0.1303818E+00
         -2   -1    0    0    0  501 -0.00000000000E+00  0.00000000000E+00  0.62520603780E+02  0.62520603780E+02  0.00000000000E+00 0.  1.
          2   -1    0    0  501    0  0.00000000000E+00 -0.00000000000E+00 -0.20864625699E+03  0.20864625699E+03  0.00000000000E+00 0. -1.
         23    2    1    2    0    0  0.83239814040E+01  0.34561545957E+02 -0.77926382727E+02  0.15160688418E+03  0.12509331349E+03 0.  0.
          5    1    3    3  502    0  0.59863309492E+02 -0.85153923305E+01 -0.23328470901E+02  0.64944727919E+02  0.41800000000E+01 0.  1.
         -5    1    3    3    0  502 -0.51539328088E+02  0.43076938288E+02 -0.54597911826E+02  0.86662156261E+02  0.41800000000E+01 0.  1.
        -11    1    1    2    0    0 -0.23034433831E+02 -0.18790057060E+02  0.15221226338E+02  0.33396663268E+02  0.00000000000E+00 0.  1.
         11    1    1    2    0    0  0.14710452427E+02 -0.15771488898E+02 -0.83420496826E+02  0.86163313326E+02  0.00000000000E+00 0. -1.
</event>
<event>
 7    1  0.1620881E-005  0.2036410E+03  0.7561462E-02  0.1146703E+00
          2   -1    0    0  501    0  0.00000000000E+00  0.00000000000E+00  0.80958979904E+02  0.80958979904E+02  0.00000000000E+00 0. -1.
         -2   -1    0    0    0  501 -0.00000000000E+00 -0.00000000000E+00 -0.62618338041E+03  0.62618338041E+03  0.00000000000E+00 0.  1.
         23    2    1    2    0    0  0.14594568012E+03 -0.96700609015E+02 -0.42396157827E+03  0.47543840901E+03  0.12508841507E+03 0.  0.
          5    1    3    3  502    0 -0.14966657535E+02 -0.42610417167E+02 -0.90420033664E+02  0.10115781422E+03  0.41800000000E+01 0. -1.
         -5    1    3    3    0  502  0.16091233765E+03 -0.54090191847E+02 -0.33354154460E+03  0.37428059479E+03  0.41800000000E+01 0. -1.
        -11    1    1    2    0    0 -0.14519724959E+03  0.10789428877E+03 -0.12499598084E+03  0.21988045403E+03  0.00000000000E+00 0.  1.
         11    1    1    2    0    0 -0.74843052466E+00 -0.11193679756E+02  0.37331585965E+01  0.11823497276E+02  0.00000000000E+00 0. -1.
</event>
<event>
 7    1  0.1620881E-005  0.7802883E+02  0.7561462E-02  0.1334740E+00
          1   -1    0    0  501    0  0.00000000000E+00  0.00000000000E+00  0.38230521418E+02  0.38230521418E+02  0.00000000000E+00 0. -1.
         -1   -1    0    0    0  501 -0.00000000000E+00 -0.00000000000E+00 -0.41259867084E+03  0.41259867084E+03  0.00000000000E+00 0.  1.
         23    2    1    2    0    0 -0.27582747227E+02 -0.56005314680E+02 -0.22670139535E+03  0.26634310262E+03  0.12509085675E+03 0.  0.
          5    1    3    3  502    0  0.10714750596E+02  0.67765428428E+01 -0.17695706069E+03  0.17745985783E+03  0.41800000000E+01 0.  1.
         -5    1    3    3    0  502 -0.38297497823E+02 -0.62781857523E+02 -0.49744334655E+02  0.88883244787E+02  0.41800000000E+01 0.  1.
        -11    1    1    2    0    0  0.14668801756E+02  0.54028712817E+02 -0.15813017315E+03  0.16774810644E+03  0.00000000000E+00 0. -1.
         11    1    1    2    0    0  0.12913945471E+02  0.19766018629E+01  0.10463419081E+02  0.16737983194E+02  0.00000000000E+00 0.  1.
</event>
<event>
 7    1  0.1620881E-005  0.2256137E+03  0.7561462E-02  0.1129766E+00
         -2   -1    0    0    0  501 -0.00000000000E+00  0.00000000000E+00  0.83453193400E+02  0.83453193400E+02  0.00000000000E+00 0.  1.
          2   -1    0    0  501    0  0.00000000000E+00 -0.00000000000E+00 -0.73652475510E+03  0.73652475510E+03  0.00000000000E+00 0. -1.
         23    2    1    2    0    0  0.28852464551E+02  0.21784667669E+03 -0.38653524184E+03  0.46189451722E+03  0.12508961826E+03 0.  0.
          5    1    3    3  502    0  0.19013787083E+01  0.82489991934E+02 -0.26624493148E+03  0.27876881093E+03  0.41800000000E+01 0. -1.
         -5    1    3    3    0  502  0.26951085843E+02  0.13535668475E+03 -0.12029031036E+03  0.18312570629E+03  0.41800000000E+01 0. -1.
        -11    1    1    2    0    0  0.22874714800E+02 -0.83346418575E+02 -0.14844707453E+03  0.17177430542E+03  0.00000000000E+00 0.  1.
         11    1    1    2    0    0 -0.51727179351E+02 -0.13450025811E+03 -0.11808924532E+03  0.18630912585E+03  0.00000000000E+00 0. -1.
</event>
<event>
 7    1  0.1620881E-005  0.1052089E+03  0.7561462E-02  0.1269709E+00
          2   -1    0    0  501    0  0.00000000000E+00  0.00000000000E+00  0.45277573919E+02  0.45277573919E+02  0.00000000000E+00 0. -1.
         -2   -1    0    0    0  501 -0.00000000000E+00 -0.00000000000E+00 -0.32894522422E+03  0.32894522422E+03  0.00000000000E+00 0.  1.
         23    2    1    2    0    0 -0.42662554178E+02  0.94518765809E+01 -0.17245383227E+03  0.21747928099E+03  0.12508989527E+03 0.  0.
          5    1    3    3  502    0 -0.31868446600E+02  0.58032278476E+02 -0.14732768994E+03  0.16157432920E+03  0.41800000000E+01 0. -1.
         -5    1    3    3    0  502 -0.10794107579E+02 -0.48580401895E+02 -0.25126142329E+02  0.55904951793E+02  0.41800000000E+01 0. -1.
        -11    1    1    2    0    0  0.64289627732E+01 -0.43765891490E+02 -0.12235353183E+02  0.45896499733E+02  0.00000000000E+00 0. -1.
         11    1    1    2    0    0  0.36233591405E+02  0.34314014909E+02 -0.98978464851E+02  0.11084701741E+03  0.00000000000E+00 0.  1.
</event>
<event>
 7    1  0.1620881E-005  0.1147939E+03  0.7561462E-02  0.1251941E+00
         -1   -1    0    0    0  501 -0.00000000000E+00  0.00000000000E+00  0.60553920295E+02  0.60553920295E+02  0.00000000000E+00 0.  1.
          1   -1    0    0  501    0  0.00000000000E+00 -0.00000000000E+00 -0.31602226745E+03  0.31602226745E+03  0.00000000000E+00 0. -1.
         23    2    1    2    0    0  0.69767160218E+02 -0.16381418241E+02 -0.77141112600E+02  0.16350472973E+03  0.12508891991E+03 0.  0.
          5    1    3    3  502    0  0.31271330965E+02 -0.59251555830E+02  0.35573869073E-02  0.67127605508E+02  0.41800000000E+01 0. -1.
         -5    1    3    3    0  502  0.38495829254E+02  0.42870137588E+02 -0.77144669987E+02  0.96377124226E+02  0.41800000000E+01 0. -1.
        -11    1    1    2    0    0 -0.54006269909E+02 -0.25660217916E+02 -0.52843344218E+02  0.79796885911E+02  0.00000000000E+00 0.  1.
         11    1    1    2    0    0 -0.15760890310E+02  0.42041636157E+02 -0.12548389034E+03  0.13327457210E+03  0.00000000000E+00 0. -1.
</event>
<event>
 7    1  0.1620881E-005  0.6879367E+02  0.7561462E-02  0.1364244E+00
         -1   -1    0    0    0  501 -0.00000000000E+00  0.00000000000E+00  0.18856039650E+03  0.18856039650E+03  0.00000000000E+00 0.  1.
          1   -1    0    0  501    0  0.00000000000E+00 -0.00000000000E+00 -0.59645652009E+02  0.59645652009E+02  0.00000000000E+00 0. -1.
         23    2    1    2    0    0  0.25144713168E+02  0.24620493425E+02  0.79890110479E+02  0.14256213149E+03  0.11270805777E+03 0.  0.
          5    1    3    3  502    0  0.47873038305E+00  0.19031911407E+02 -0.26629927869E+02  0.33001034725E+02  0.41800000000E+01 0. -1.
         -5    1    3    3    0  502  0.24665982785E+02  0.55885820175E+01  0.10652003835E+03  0.10956109677E+03  0.41800000000E+01 0.  1.
        -11    1    1    2    0    0 -0.33472958395E+01 -0.54983154143E+02  0.37090237624E+02  0.66408112125E+02  0.00000000000E+00 0.  1.
         11    1    1    2    0    0 -0.21797417328E+02  0.30362660719E+02  0.11934396385E+02  0.39235804887E+02  0.00000000000E+00 0. -1.
</event>
<event>
 7    1  0.1620881E-005  0.1906534E+03  0.7561462E-02  0.1157873E+00
         -2   -1    0    0    0  501 -0.00000000000E+00  0.00000000000E+00  0.15844396029E+03  0.15844396029E+03  0.00000000000E+00 0.  1.
          2   -1    0    0  501    0  0.00000000000E+00 -0.00000000000E+00 -0.26264416740E+03  0.26264416740E+03  0.00000000000E+00 0. -1.
         23    2    1    2    0    0 -0.10142212421E+03 -0.12473828687E+03  0.10800946191E+02  0.20398727974E+03  0.12509221545E+03 0.  0.
          5    1    3    3  502    0 -0.26205884549E+02 -0.11930468716E+03 -0.17222791107E+02  0.12342792916E+03  0.41800000000E+01 0. -1.
         -5    1    3    3    0  502 -0.75216239657E+02 -0.54335997173E+01  0.28023737298E+02  0.80559350582E+02  0.41800000000E+01 0. -1.
        -11    1    1    2    0    0  0.10921954757E+02  0.83316557159E+02 -0.61264799522E+02  0.10399189129E+03  0.00000000000E+00 0. -1.
         11    1    1    2    0    0  0.90500169448E+02  0.41421729714E+02 -0.53736353779E+02  0.11310895668E+03  0.00000000000E+00 0.  1.
</event>
<event>
 7    1  0.1620881E-005  0.1913854E+03  0.7561462E-02  0.1157218E+00
          4   -1    0    0  501    0  0.00000000000E+00  0.00000000000E+00  0.26860401698E+03  0.26860401698E+03  0.00000000000E+00 0. -1.
         -4   -1    0    0    0  501 -0.00000000000E+00 -0.00000000000E+00 -0.15688017220E+03  0.15688017220E+03  0.00000000000E+00 0.  1.
         23    2    1    2    0    0  0.14685877701E+03 -0.83882158243E+02  0.15414251202E+02  0.21092322933E+03  0.12508913893E+03 0.  0.
          5    1    3    3  502    0  0.35886146277E+01 -0.65022076620E+02  0.11787296466E+02  0.66311095308E+02  0.41800000000E+01 0.  1.
         -5    1    3    3    0  502  0.14327016238E+03 -0.18860081623E+02  0.36269547358E+01  0.14461213403E+03  0.41800000000E+01 0.  1.
        -11    1    1    2    0    0 -0.60503781920E+02  0.55351557123E+02  0.92386389116E+02  0.12353035010E+03  0.00000000000E+00 0. -1.
         11    1    1    2    0    0 -0.86354995087E+02  0.28530601121E+02  0.39232044586E+01  0.91030609742E+02  0.00000000000E+00 0.  1.
</event>
<event>
 7    1  0.1620881E-005  0.8272287E+02  0.7561462E-02  0.1321497E+00
          1   -1    0    0  501    0  0.00000000000E+00  0.00000000000E+00  0.22463518655E+03  0.22463518655E+03  0.00000000000E+00 0. -1.
         -1   -1    0    0    0  501 -0.00000000000E+00 -0.00000000000E+00 -0.99542204921E+02  0.99542204921E+02  0.00000000000E+00 0.  1.
         23    2    1    2    0    0 -0.37821003308E+02 -0.61491960260E+02 -0.19323489611E+02  0.14571385729E+03  0.12508973374E+03 0.  0.
          5    1    3    3  502    0 -0.46565375717E+02 -0.29808200680E+02 -0.67431316419E+02  0.87300159665E+02  0.41800000000E+01 0.  1.
         -5    1    3    3    0  502  0.87443724089E+01 -0.31683759580E+02  0.48107826809E+02  0.58413697625E+02  0.41800000000E+01 0.  1.
        -11    1    1    2    0    0  0.10768108760E+02  0.42422078127E+02  0.17223193091E+02  0.47034277491E+02  0.00000000000E+00 0.  1.
         11    1    1    2    0    0  0.27052894548E+02  0.19069882133E+02  0.12719327815E+03  0.13142925669E+03  0.00000000000E+00 0. -1.
</event>
<event>
 7    1  0.1620881E-005  0.9354048E+02  0.7561462E-02  0.1294498E+00
          1   -1    0    0  501    0  0.00000000000E+00  0.00000000000E+00  0.38165535098E+03  0.38165535098E+03  0.00000000000E+00 0. -1.
         -1   -1    0    0    0  501 -0.00000000000E+00 -0.00000000000E+00 -0.40271650863E+02  0.40271650863E+02  0.00000000000E+00 0.  1.
         23    2    1    2    0    0  0.22342294672E+02  0.22679843049E+02  0.97272668794E+02  0.15973179718E+03  0.12263246521E+03 0.  0.
          5    1    3    3  502    0  0.65939668166E+01 -0.33320771730E+02 -0.11671267934E+02  0.36158610624E+02  0.41800000000E+01 0. -1.
         -5    1    3    3    0  502  0.15748327855E+02  0.56000614780E+02  0.10894393673E+03  0.12357318656E+03  0.41800000000E+01 0.  1.
        -11    1    1    2    0    0 -0.52319077593E+02 -0.34106364154E+02  0.14109360188E+03  0.15429819976E+03  0.00000000000E+00 0.  1.
         11    1    1    2    0    0  0.29976782921E+02  0.11426521105E+02  0.10301742944E+03  0.10789700491E+03  0.00000000000E+00 0. -1.
</event>
<event>
 7    1  0.1620881E-005  0.1205438E+03  0.7561462E-02  0.1242203E+00
         -4   -1    0    0    0  501 -0.00000000000E+00  0.00000000000E+00  0.10269285811E+03  0.10269285811E+03  0.00000000000E+00 0.  1.
          4   -1    0    0  501    0  0.00000000000E+00 -0.00000000000E+00 -0.22134750204E+03  0.22134750204E+03  0.00000000000E+00 0. -1.
         23    2    1    2    0    0 -0.51779072552E+02 -0.74035165669E+02 -0.79408664255E+01  0.15450387019E+03  0.12508441323E+03 0.  0.
          5    1    3    3  502    0  0.69090641551E+01  0.90806104855E+01  0.40104909557E+02  0.41905474880E+02  0.41800000000E+01 0. -1.
         -5    1    3    3    0  502 -0.58688136708E+02 -0.83115776155E+02 -0.48045775983E+02  0.11259839531E+03  0.41800000000E+01 0. -1.
        -11    1    1    2    0    0  0.61128712493E+02  0.94626727379E+01 -0.65899645885E+02  0.90382658703E+02  0.00000000000E+00 0.  1.
         11    1    1    2    0    0 -0.93496399405E+01  0.64572492931E+02 -0.44814131626E+02  0.79153831264E+02  0.00000000000E+00 0. -1.
</event>
<event>
 7    1  0.1620881E-005  0.6431834E+02  0.7561462E-02  0.1380554E+00
         -1   -1    0    0    0  501 -0.00000000000E+00  0.00000000000E+00  0.41256160376E+02  0.41256160376E+02  0.00000000000E+00 0.  1.
          1   -1    0    0  501    0  0.00000000000E+00 -0.00000000000E+00 -0.33854697821E+03  0.33854697821E+03  0.00000000000E+00 0. -1.
         23    2    1    2    0    0 -0.31305293269E+02 -0.97718510220E+00 -0.98223551519E+02  0.16210012072E+03  0.12509039446E+03 0.  0.
          5    1    3    3  502    0  0.16836912220E+02 -0.60477429884E+01  0.24201835812E+02  0.30385161923E+02  0.41800000000E+01 0.  1.
         -5    1    3    3    0  502 -0.48142205490E+02  0.50705578862E+01 -0.12242538733E+03  0.13171495879E+03  0.41800000000E+01 0.  1.
        -11    1    1    2    0    0  0.44658455891E+02  0.97349672131E+01 -0.19623140236E+03  0.20148426872E+03  0.00000000000E+00 0. -1.
         11    1    1    2    0    0 -0.13353162622E+02 -0.87577821109E+01 -0.28358639493E+01  0.16218749145E+02  0.00000000000E+00 0.  1.
</event>
<event>
 7    1  0.1620881E-005  0.1180191E+03  0.7561462E-02  0.1246401E+00
         -1   -1    0    0    0  501 -0.00000000000E+00  0.00000000000E+00  0.58814414271E+02  0.58814414271E+02  0.00000000000E+00 0.  1.
          1   -1    0    0  501    0  0.00000000000E+00 -0.00000000000E+00 -0.39165189074E+03  0.39165189074E+03  0.00000000000E+00 0. -1.
         23    2    1    2    0    0  0.83400029065E+02  0.40341200138E+02 -0.99478135111E+02  0.18472802454E+03  0.12508223858E+03 0.  0.
          5    1    3    3  502    0  0.87512746069E+02 -0.13989594531E+02 -0.94863125017E+02  0.12988716013E+03  0.41800000000E+01 0. -1.
         -5    1    3    3    0  502 -0.41127170036E+01  0.54330794669E+02 -0.46150100941E+01  0.54840864405E+02  0.41800000000E+01 0. -1.
        -11    1    1    2    0    0 -0.90478024027E+01 -0.51315100889E+01  0.64303024196E+01  0.12228814878E+02  0.00000000000E+00 0.  1.
         11    1    1    2    0    0 -0.74352226663E+02 -0.35209690049E+02 -0.23978964378E+03  0.25350946560E+03  0.00000000000E+00 0. -1.
</event>
<event>
 7    1  0.1620881E-005  0.1361798E+03  0.7561462E-02  0.1218564E+00
         -1   -1    0    0    0  501 -0.00000000000E+00  0.00000000000E+00  0.34519168265E+02  0.34519168265E+02  0.00000000000E+00 0.  1.
          1   -1    0    0  501    0  0.00000000000E+00 -0.00000000000E+00 -0.68093217568E+03  0.68093217568E+03  0.00000000000E+00 0. -1.
         23    2    1    2    0    0  0.84587937463E+02 -0.52964261799E+02 -0.25454924826E+03  0.30067134110E+03  0.12509038082E+03 0.  0.
          5    1    3    3  502    0  0.10186860491E+03 -0.22269617899E+02 -0.24113392894E+03  0.26274739320E+03  0.41800000000E+01 0. -1.
         -5    1    3    3    0  502 -0.17280667445E+02 -0.30694643900E+02 -0.13415319321E+02  0.37923947895E+02  0.41800000000E+01 0. -1.
        -11    1    1    2    0    0  0.18347471664E+02  0.10823428840E+02 -0.34887550017E+02  0.40876857444E+02  0.00000000000E+00 0.  1.
         11    1    1    2    0    0 -0.10293540913E+03  0.42140832959E+02 -0.35697620914E+03  0.37390314541E+03  0.00000000000E+00 0. -1.
</event>
<event>
 7    1  0.1620881E-005  0.1278737E+03  0.7561462E-02  0.1230645E+00
          1   -1    0    0  501    0  0.00000000000E+00  0.00000000000E+00  0.19663815783E+03  0.19663815783E+03  0.00000000000E+00 0. -1.
         -1   -1    0    0    0  501 -0.00000000000E+00 -0.00000000000E+00 -0.85071111329E+02  0.85071111329E+02  0.00000000000E+00 0.  1.
         23    2    1    2    0    0 -0.51475163395E+02 -0.36546658393E+02  0.68055149026E+02  0.15576318510E+03  0.12508123696E+03 0.  0.
          5    1    3    3  502    0  0.27856335180E+02 -0.51541276645E+02  0.22002477627E+02  0.62722085660E+02  0.41800000000E+01 0. -1.
         -5    1    3    3    0  502 -0.79331498575E+02  0.14994618252E+02  0.46052671399E+02  0.93041099443E+02  0.41800000000E+01 0. -1.
        -11    1    1    2    0    0 -0.22062020104E+02  0.36476812603E+02  0.49632349324E+01  0.42917645435E+02  0.00000000000E+00 0. -1.
         11    1    1    2    0    0  0.73537183498E+02  0.69845789812E-01  0.38548662539E+02  0.83028438615E+02  0.00000000000E+00 0.  1.
</event>
<event>
 7    1  0.1620881E-005  0.8327093E+02  0.7561462E-02  0.1320017E+00
          1   -1    0    0  501    0  0.00000000000E+00  0.00000000000E+00  0.26011827104E+03  0.26011827104E+03  0.00000000000E+00 0. -1.
         -1   -1    0    0    0  501 -0.00000000000E+00 -0.00000000000E+00 -0.40914052976E+02  0.40914052976E+02  0.00000000000E+00 0.  1.
         23    2    1    2    0    0  0.63572863509E+01 -0.29483152796E+01  0.10609519820E+03  0.15599425551E+03  0.11414424654E+03 0.  0.
          5    1    3    3  502    0  0.10641024934E+02  0.53905035978E+02  0.37275290289E+02  0.66527467873E+02  0.41800000000E+01 0. -1.
         -5    1    3    3    0  502 -0.42837385831E+01 -0.56853351257E+02  0.68819907906E+02  0.89466787635E+02  0.41800000000E+01 0.  1.
        -11    1    1    2    0    0 -0.17416476166E+02  0.24492406011E+02  0.11674371748E+03  0.12055001935E+03  0.00000000000E+00 0. -1.
         11    1    1    2    0    0  0.11059189815E+02 -0.21544090731E+02 -0.36346976120E+01  0.24488049157E+02  0.00000000000E+00 0.  1.
</event>
<event>
 7    1  0.1620881E-005  0.8056059E+02  0.7561462E-02  0.1327468E+00
         -1   -1    0    0    0  501 -0.00000000000E+00  0.00000000000E+00  0.32435895158E+03  0.32435895158E+03  0.00000000000E+00 0.  1.
          1   -1    0    0  501    0  0.00000000000E+00 -0.00000000000E+00 -0.50622459538E+02  0.50622459538E+02  0.00000000000E+00 0. -1.
         23    2    1    2    0    0 -0.18110741497E+02  0.66340510057E+02  0.20272529550E+03  0.24248182770E+03  0.11388954781E+03 0.  0.
          5    1    3    3  502    0 -0.28582810139E+01  0.74419714557E+02  0.21032849679E+03  0.22316364544E+03  0.41800000000E+01 0. -1.
         -5    1    3    3    0  502 -0.15252460483E+02 -0.80792044998E+01 -0.76032012910E+01  0.19318182265E+02  0.41800000000E+01 0.  1.
        -11    1    1    2    0    0  0.86070697618E+01 -0.30493287217E+02 -0.17739085683E+02  0.36312496142E+02  0.00000000000E+00 0. -1.
         11    1    1    2    0    0  0.95036717352E+01 -0.35847222840E+02  0.88750282230E+02  0.96187087271E+02  0.00000000000E+00 0.  1.
</event>
<event>
 7    1  0.1620881E-005  0.1328615E+03  0.7561462E-02  0.1223270E+00
          2   -1    0    0  501    0  0.00000000000E+00  0.00000000000E+00  0.30268337227E+03  0.30268337227E+03  0.00000000000E+00 0. -1.
         -2   -1    0    0    0  501 -0.00000000000E+00 -0.00000000000E+00 -0.82564056940E+02  0.82564056940E+02  0.00000000000E+00 0.  1.
         23    2    1    2    0    0  0.70340677287E+02 -0.66987196855E+02  0.41399611950E+02  0.16369431410E+03  0.12508719030E+03 0.  0.
          5    1    3    3  502    0  0.64786938748E+02  0.46669711769E+01 -0.21032691680E+02  0.68403030427E+02  0.41800000000E+01 0.  1.
         -5    1    3    3    0  502  0.55537385386E+01 -0.71654168032E+02  0.62432303630E+02  0.95291283676E+02  0.41800000000E+01 0.  1.
        -11    1    1    2    0    0 -0.58209686386E+02  0.87333710845E+02  0.16004168768E+03  0.19138674571E+03  0.00000000000E+00 0. -1.
         11    1    1    2    0    0 -0.12130990901E+02 -0.20346513990E+02  0.18678015695E+02  0.30166369388E+02  0.00000000000E+00 0.  1.
</event>
<event>
 7    1  0.1620881E-005  0.1044861E+03  0.7561462E-02  0.1271135E+00
         -2   -1    0    0    0  501 -0.00000000000E+00  0.00000000000E+00  0.21727531165E+02  0.21727531165E+02  0.00000000000E+00 0. -1.
          2   -1    0    0  501    0  0.00000000000E+00 -0.00000000000E+00 -0.59759189662E+03  0.59759189662E+03  0.00000000000E+00 0.  1.
         23    2    1    2    0    0  0.16758300672E+02 -0.15789907190E+02 -0.24437983074E+03  0.27549840886E+03  0.12509080622E+03 0.  0.
          5    1    3    3  502    0  0.10013576322E+02 -0.67031366909E+02 -0.18274698496E+03  0.19495488907E+03  0.41800000000E+01 0. -1.
         -5    1    3    3    0  502  0.67447243494E+01  0.51241459719E+02 -0.61632845782E+02  0.80543519788E+02  0.41800000000E+01 0. -1.
        -11    1    1    2    0    0  0.19202571080E+02  0.41016707492E+02 -0.20445282380E+03  0.20940884936E+03  0.00000000000E+00 0.  1.
         11    1    1    2    0    0 -0.35960871752E+02 -0.25226800302E+02 -0.12703171092E+03  0.13441216957E+03  0.00000000000E+00 0. -1.
</event>
<event>
 7    1  0.1620881E-005  0.5608423E+02  0.7561462E-02  0.1415040E+00
          3   -1    0    0  501    0  0.00000000000E+00  0.00000000000E+00  0.93018113526E+02  0.93018113526E+02  0.00000000000E+00 0. -1.
         -3   -1    0    0    0  501 -0.00000000000E+00 -0.00000000000E+00 -0.12381013739E+03  0.12381013739E+03  0.00000000000E+00 0.  1.
         23    2    1    2    0    0 -0.55404461158E+01 -0.27360640200E+02 -0.18045556771E+02  0.12943285305E+03  0.12509164702E+03 0.  0.
          5    1    3    3  502    0 -0.23196786203E+02 -0.17060709490E+02  0.50225380224E+02  0.58044981843E+02  0.41800000000E+01 0.  1.
         -5    1    3    3    0  502  0.17656340088E+02 -0.10299930709E+02 -0.68270936995E+02  0.71387871211E+02  0.41800000000E+01 0.  1.
        -11    1    1    2    0    0  0.27857636889E+02  0.28510177098E+02  0.22417047333E+02  0.45731850414E+02  0.00000000000E+00 0. -1.
         11    1    1    2    0    0 -0.22317190773E+02 -0.11495368981E+01 -0.35163514429E+02  0.41663547450E+02  0.00000000000E+00 0.  1.
</event>
<event>
 7    1  0.1620881E-005  0.1146872E+03  0.7561462E-02  0.1252128E+00
          3   -1    0    0  501    0  0.00000000000E+00  0.00000000000E+00  0.26917372038E+02  0.26917372038E+02  0.00000000000E+00 0. -1.
         -3   -1    0    0    0  501 -0.00000000000E+00 -0.00000000000E+00 -0.76503143247E+03  0.76503143247E+03  0.00000000000E+00 0.  1.
         23    2    1    2    0    0  0.73025897336E+02  0.48835286055E+02 -0.50656990342E+03  0.52912653526E+03  0.12507660220E+03 0.  0.
          5    1    3    3  502    0 -0.19540143750E+02 -0.68210061480E+01 -0.15220763025E+02  0.26028587547E+02  0.41800000000E+01 0.  1.
         -5    1    3    3    0  502  0.92566041086E+02  0.55656292203E+02 -0.49134914040E+03  0.50309794772E+03  0.41800000000E+01 0.  1.
        -11    1    1    2    0    0 -0.43931322685E+02 -0.71482442328E+00 -0.18403478592E+03  0.18920696213E+03  0.00000000000E+00 0.  1.
         11    1    1    2    0    0 -0.29094574650E+02 -0.48120461632E+02 -0.47509371086E+02  0.73615307123E+02  0.00000000000E+00 0. -1.
</event>
<event>
 7    1  0.1620881E-005  0.1657372E+03  0.7561462E-02  0.1182368E+00
          1   -1    0    0  501    0  0.00000000000E+00  0.00000000000E+00  0.71538607793E+02  0.71538607793E+02  0.00000000000E+00 0. -1.
         -1   -1    0    0    0  501 -0.00000000000E+00 -0.00000000000E+00 -0.55797848345E+03  0.55797848345E+03  0.00000000000E+00 0.  1.
         23    2    1    2    0    0  0.98303797773E+02 -0.95188430259E+02 -0.40459558110E+03  0.44505007887E+03  0.12509002575E+03 0.  0.
          5    1    3    3  502    0 -0.25084182319E+02  0.55793516602E+01 -0.56750192562E+02  0.62437185422E+02  0.41800000000E+01 0.  1.
         -5    1    3    3    0  502  0.12338798009E+03 -0.10076778192E+03 -0.34784538854E+03  0.38261289345E+03  0.41800000000E+01 0.  1.
        -11    1    1    2    0    0  0.60130107085E+01  0.86700869419E+01 -0.41854261969E+02  0.43163711036E+02  0.00000000000E+00 0.  1.
         11    1    1    2    0    0 -0.10431680848E+03  0.86518343317E+02 -0.39990032584E+02  0.14130330134E+03  0.00000000000E+00 0. -1.
</event>
<event>
 7    1  0.1620881E-005  0.1093076E+03  0.7561462E-02  0.1261857E+00
          2   -1    0    0  501    0  0.00000000000E+00  0.00000000000E+00  0.18405891335E+03  0.18405891335E+03  0.00000000000E+00 0. -1.
         -2   -1    0    0    0  501 -0.00000000000E+00 -0.00000000000E+00 -0.77120587354E+02  0.77120587354E+02  0.00000000000E+00 0.  1.
         23    2    1    2    0    0  0.88386641536E+01  0.47342100039E+02  0.47406681888E+02  0.14217178866E+03  0.12508408206E+03 0.  0.
          5    1    3    3  502    0  0.23187252808E+02 -0.39123466425E+02  0.22766623422E+02  0.51030244561E+02  0.41800000000E+01 0.  1.
         -5    1    3    3    0  502 -0.14348588654E+02  0.86465566465E+02  0.24640058467E+02  0.91141544104E+02  0.41800000000E+01 0.  1.
        -11    1    1    2    0    0  0.13624117753E+02 -0.58535622114E+02  0.66427328639E+01  0.60466201640E+02  0.00000000000E+00 0.  1.
         11    1    1    2    0    0 -0.22462781907E+02  0.11193522075E+02  0.52888911247E+02  0.58541510404E+02  0.00000000000E+00 0. -1.
</event>
<event>
 7    1  0.1620881E-005  0.7789991E+02  0.7561462E-02  0.1335119E+00
         -3   -1    0    0    0  501 -0.00000000000E+00  0.00000000000E+00  0.49439972047E+02  0.49439972047E+02  0.00000000000E+00 0. -1.
          3   -1    0    0  501    0  0.00000000000E+00 -0.00000000000E+00 -0.25213549849E+03  0.25213549849E+03  0.00000000000E+00 0.  1.
         23    2    1    2    0    0  0.26117705742E+02  0.29009664699E+01 -0.11603464344E+03  0.17262080705E+03  0.12507339600E+03 0.  0.
          5    1    3    3  502    0 -0.30692579617E+02 -0.22443029565E+01  0.11285243112E+02  0.33043917010E+02  0.41800000000E+01 0.  1.
         -5    1    3    3    0  502  0.56810285359E+02  0.51452694264E+01 -0.12731988655E+03  0.13957689004E+03  0.41800000000E+01 0.  1.
        -11    1    1    2    0    0 -0.96753701919E+01 -0.32378836890E+02  0.22340794493E+01  0.33867284769E+02  0.00000000000E+00 0. -1.
         11    1    1    2    0    0 -0.16442335550E+02  0.29477870420E+02 -0.88894962446E+02  0.95087378716E+02  0.00000000000E+00 0.  1.
</event>
<event>
 7    1  0.1620881E-005  0.1181950E+03  0.7561462E-02  0.1246105E+00
          2   -1    0    0  501    0  0.00000000000E+00  0.00000000000E+00  0.34502356150E+03  0.34502356150E+03  0.00000000000E+00 0. -1.
         -2   -1    0    0    0  501 -0.00000000000E+00 -0.00000000000E+00 -0.51734663814E+02  0.51734663814E+02  0.00000000000E+00 0.  1.
         23    2    1    2    0    0  0.59577776148E+02  0.20405314537E+02  0.94836812533E+02  0.16913725720E+03  0.12508997758E+03 0.  0.
          5    1    3    3  502    0 -0.18290566767E+02 -0.29708247051E+02  0.61121569326E+02  0.70501371706E+02  0.41800000000E+01 0. -1.
         -5    1    3    3    0  502  0.77868342916E+02  0.50113561588E+02  0.33715243207E+02  0.98635885498E+02  0.41800000000E+01 0. -1.
        -11    1    1    2    0    0 -0.50948437644E+02  0.28852123782E+02  0.80816277074E+02  0.99797089062E+02  0.00000000000E+00 0.  1.
         11    1    1    2    0    0 -0.86293385042E+01 -0.49257438319E+02  0.11763580808E+03  0.12782387905E+03  0.00000000000E+00 0. -1.
</event>
<event>
 7    1  0.1620881E-005  0.1112941E+03  0.7561462E-02  0.1258192E+00
          2   -1    0    0  501    0  0.00000000000E+00  0.00000000000E+00  0.76017987002E+03  0.76017987002E+03  0.00000000000E+00 0. -1.
         -2   -1    0    0    0  501 -0.00000000000E+00 -0.00000000000E+00 -0.21913979909E+02  0.21913979909E+02  0.00000000000E+00 0.  1.
         23    2    1    2    0    0 -0.96917271679E+01 -0.64098199718E+02  0.32658905705E+03  0.35568270096E+03  0.12508901951E+03 0.  0.
          5    1    3    3  502    0  0.47794445233E+02 -0.90174787848E+00  0.67336947448E+02  0.82685301209E+02  0.41800000000E+01 0.  1.
         -5    1    3    3    0  502 -0.57486172401E+02 -0.63196451840E+02  0.25925210960E+03  0.27299739976E+03  0.41800000000E+01 0.  1.
        -11    1    1    2    0    0  0.21702934518E+02 -0.20873089155E+01  0.22009660518E+02  0.30980629130E+02  0.00000000000E+00 0.  1.
         11    1    1    2    0    0 -0.12011207350E+02  0.66185508634E+02  0.38966717255E+03  0.39543051984E+03  0.00000000000E+00 0. -1.
</event>
<event>
 7    1  0.1620881E-005  0.1541565E+03  0.7561462E-02  0.1195457E+00
         -1   -1    0    0    0  501 -0.00000000000E+00  0.00000000000E+00  0.82874428809E+02  0.82874428809E+02  0.00000000000E+00 0.  1.
          1   -1    0    0  501    0  0.00000000000E+00 -0.00000000000E+00 -0.41592007171E+03  0.41592007171E+03  0.00000000000E+00 0. -1.
         23    2    1    2    0    0  0.11424278667E+02  0.11853160007E+03 -0.52039302447E+02  0.18037662864E+03  0.12508950716E+03 0.  0.
          5    1    3    3  502    0 -0.46778836554E+02  0.35869638998E+02 -0.52714815384E+02  0.79191001460E+02  0.41800000000E+01 0. -1.
         -5    1    3    3    0  502  0.58203115221E+02  0.82661961076E+02  0.67551293706E+00  0.10118562718E+03  0.41800000000E+01 0. -1.
        -11    1    1    2    0    0  0.70103848935E+01 -0.12738861043E+03 -0.25666481758E+03  0.28662489799E+03  0.00000000000E+00 0. -1.
         11    1    1    2    0    0 -0.18434663561E+02  0.88570103525E+01 -0.24341522868E+02  0.31792973886E+02  0.00000000000E+00 0.  1.
</event>
<event>
 7    1  0.1620881E-005  0.8579271E+02  0.7561462E-02  0.1313372E+00
          1   -1    0    0  501    0  0.00000000000E+00  0.00000000000E+00  0.40207580163E+03  0.40207580163E+03  0.00000000000E+00 0. -1.
         -1   -1    0    0    0  501 -0.00000000000E+00 -0.00000000000E+00 -0.32959615392E+02  0.32959615392E+02  0.00000000000E+00 0.  1.
         23    2    1    2    0    0 -0.38108782165E+02 -0.14998541594E+02  0.20390428571E+03  0.24268519665E+03  0.12506762737E+03 0.  0.
          5    1    3    3  502    0  0.13864135368E+01 -0.35168627098E+02  0.19379355927E+03  0.19700804677E+03  0.41800000000E+01 0.  1.
         -5    1    3    3    0  502 -0.39495195702E+02  0.20170085504E+02  0.10110726439E+02  0.45677149888E+02  0.41800000000E+01 0.  1.
        -11    1    1    2    0    0  0.24747752263E+02  0.49093625279E+02  0.62158162034E+02  0.82983567003E+02  0.00000000000E+00 0.  1.
         11    1    1    2    0    0  0.13361029901E+02 -0.34095083685E+02  0.10305373849E+03  0.10936665336E+03  0.00000000000E+00 0. -1.
</event>
<event>
 7    1  0.1620881E-005  0.1078762E+03  0.7561462E-02  0.1264554E+00
          1   -1    0    0  501    0  0.00000000000E+00  0.00000000000E+00  0.20129298868E+03  0.20129298868E+03  0.00000000000E+00 0. -1.
         -1   -1    0    0    0  501 -0.00000000000E+00 -0.00000000000E+00 -0.10259210890E+03  0.10259210890E+03  0.00000000000E+00 0.  1.
         23    2    1    2    0    0  0.71440846557E+02  0.35218199661E+02  0.71457783457E+01  0.14847083883E+03  0.12509361171E+03 0.  0.
          5    1    3    3  502    0  0.53979072496E+02 -0.27730023486E+02  0.42375291915E+02  0.74133880480E+02  0.41800000000E+01 0. -1.
         -5    1    3    3    0  502  0.17461774060E+02  0.62948223147E+02 -0.35229513570E+02  0.74336958352E+02  0.41800000000E+01 0. -1.
        -11    1    1    2    0    0 -0.31036404139E+02  0.61484184424E+01 -0.14357274146E+02  0.34744679479E+02  0.00000000000E+00 0.  1.
         11    1    1    2    0    0 -0.40404442417E+02 -0.41366618103E+02  0.10591237558E+03  0.12066957927E+03  0.00000000000E+00 0. -1.
</event>
<event>
 7    1  0.1620881E-005  0.1529078E+03  0.7561462E-02  0.1196945E+00
          1   -1    0    0  501    0  0.00000000000E+00  0.00000000000E+00  0.62227292997E+03  0.62227292997E+03  0.00000000000E+00 0. -1.
         -1   -1    0    0    0  501 -0.00000000000E+00 -0.00000000000E+00 -0.40023140278E+02  0.40023140278E+02  0.00000000000E+00 0.  1.
         23    2    1    2    0    0 -0.10285830293E+03  0.42038867196E+02  0.24711870156E+03  0.29843418073E+03  0.12509280846E+03 0.  0.
          5    1    3    3  502    0 -0.11652870822E+03 -0.59252146007E+01  0.16194039827E+03  0.19964020887E+03  0.41800000000E+01 0. -1.
         -5    1    3    3    0  502  0.13670405286E+02  0.47964081796E+02  0.85178303295E+02  0.98793971858E+02  0.41800000000E+01 0. -1.
        -11    1    1    2    0    0 -0.52636055731E+01 -0.29729840415E+02  0.46956668752E+02  0.55825600713E+02  0.00000000000E+00 0.  1.
         11    1    1    2    0    0  0.10812190850E+03 -0.12309026781E+02  0.28817441938E+03  0.30803628881E+03  0.00000000000E+00 0. -1.
</event>
<event>
 7    1  0.4467576E-005  0.1124502E+03  0.7561462E-02  0.1256099E+00
         -1   -1    0    0    0  501 -0.00000000000E+00  0.00000000000E+00  0.34965175817E+02  0.34965175817E+02  0.00000000000E+00 0.  1.
          1   -1    0    0  501    0  0.00000000000E+00 -0.00000000000E+00 -0.60689083845E+03  0.60689083845E+03  0.00000000000E+00 0. -1.
         23    2    1    2    0    0 -0.14630448534E+02 -0.85090306840E+02 -0.21267531037E+03  0.26140549235E+03  0.12509050102E+03 0.  0.
          5    1    3    3  502    0 -0.36143147123E+02 -0.55192638796E+01 -0.40190662279E+01  0.37019111970E+02  0.41800000000E+01 0. -1.
         -5    1    3    3    0  502  0.21512698589E+02 -0.79571042961E+02 -0.20865624414E+03  0.22438638038E+03  0.41800000000E+01 0. -1.
        -11    1    1    2    0    0  0.38128265810E+02  0.43909927624E+02 -0.29456041150E+03  0.30024603648E+03  0.00000000000E+00 0. -1.
         11    1    1    2    0    0 -0.23497817276E+02  0.41180379216E+02 -0.64689940762E+02  0.80204485441E+02  0.00000000000E+00 0.  1.
</event>
<event>
 7    1  0.1620881E-005  0.9869763E+02  0.7561462E-02  0.1283059E+00
          2   -1    0    0  501    0  0.00000000000E+00  0.00000000000E+00  0.76427009492E+03  0.76427009492E+03  0.00000000000E+00 0. -1.
         -2   -1    0    0    0  501 -0.00000000000E+00 -0.00000000000E+00 -0.19982946235E+02  0.19982946235E+02  0.00000000000E+00 0.  1.
         23    2    1    2    0    0  0.57699567347E+02 -0.16468769705E+02  0.41501823043E+03  0.43759304574E+03  0.12508829537E+03 0.  0.
          5    1    3    3  502    0 -0.80425459757E+01  0.14668760260E+02  0.10649210440E+01  0.17276039192E+02  0.41800000000E+01 0. -1.
         -5    1    3    3    0  502  0.65742113323E+02 -0.31137529965E+02  0.41395330939E+03  0.42031700654E+03  0.41800000000E+01 0. -1.
        -11    1    1    2    0    0  0.17401147216E+02 -0.17663980166E+02  0.56784484356E+02  0.61962035016E+02  0.00000000000E+00 0.  1.
         11    1    1    2    0    0 -0.75100714563E+02  0.34132749872E+02  0.27248443390E+03  0.28469796040E+03  0.00000000000E+00 0. -1.
</event>
<event>
 7    1  0.1620881E-005  0.9639682E+02  0.7561462E-02  0.1288061E+00
         -2   -1    0    0    0  501 -0.00000000000E+00  0.00000000000E+00  0.52846431364E+03  0.52846431364E+03  0.00000000000E+00 0.  1.
          2   -1    0    0  501    0  0.00000000000E+00 -0.00000000000E+00 -0.30979667647E+02  0.30979667647E+02  0.00000000000E+00 0. -1.
         23    2    1    2    0    0 -0.10385816232E+02  0.40594677043E+02  0.38729776173E+03  0.40914906326E+03  0.12509039428E+03 0.  0.
          5    1    3    3  502    0  0.11748980622E+02 -0.37193423667E+02  0.21772392593E+03  0.22122967621E+03  0.41800000000E+01 0.  1.
         -5    1    3    3    0  502 -0.22134796853E+02  0.77788100710E+02  0.16957383580E+03  0.18791938706E+03  0.41800000000E+01 0.  1.
        -11    1    1    2    0    0 -0.22536500055E+02 -0.30930304208E+02  0.10948007710E+03  0.11597613908E+03  0.00000000000E+00 0.  1.
         11    1    1    2    0    0  0.32922316287E+02 -0.96643728352E+01  0.70680715585E+00  0.34318778946E+02  0.00000000000E+00 0. -1.
</event>
<event>
 7    1  0.1620881E-005  0.1062692E+03  0.7561462E-02  0.1267639E+00
          3   -1    0    0  501    0  0.00000000000E+00  0.00000000000E+00  0.28763784080E+02  0.28763784080E+02  0.00000000000E+00 0. -1.
         -3   -1    0    0    0  501 -0.00000000000E+00 -0.00000000000E+00 -0.44772507883E+03  0.44772507883E+03  0.00000000000E+00 0.  1.
         23    2    1    2    0    0  0.72933559407E+02 -0.13320919706E+02 -0.28378131705E+03  0.31886702096E+03  0.12509032801E+03 0.  0.
          5    1    3    3  502    0  0.54794452176E+02  0.45896130436E+02 -0.87813193282E+02  0.11330276295E+03  0.41800000000E+01 0. -1.
         -5    1    3    3    0  502  0.18139107231E+02 -0.59217050142E+02 -0.19596812377E+03  0.20556425801E+03  0.41800000000E+01 0. -1.
        -11    1    1    2    0    0 -0.65649810816E+02  0.23432318023E+01 -0.12407189892E+03  0.14038954554E+03  0.00000000000E+00 0.  1.
         11    1    1    2    0    0 -0.72837485911E+01  0.10977687904E+02 -0.11108078783E+02  0.17232296408E+02  0.00000000000E+00 0. -1.
</event>
<event>
 7    1  0.1620881E-005  0.1220166E+03  0.7561462E-02  0.1239807E+00
         -1   -1    0    0    0  501 -0.00000000000E+00  0.00000000000E+00  0.23657264493E+02  0.23657264493E+02  0.00000000000E+00 0.  1.
          1   -1    0    0  501    0  0.00000000000E+00 -0.00000000000E+00 -0.82100579471E+03  0.82100579471E+03  0.00000000000E+00 0. -1.
         23    2    1    2    0    0 -0.33894277536E+02 -0.45252688725E+02 -0.23557532713E+03  0.27265400648E+03  0.12509134506E+03 0.  0.
          5    1    3    3  502    0  0.12485336005E+02  0.38547512781E+02 -0.58378628551E+02  0.71185188264E+02  0.41800000000E+01 0. -1.
         -5    1    3    3    0  502 -0.46379613541E+02 -0.83800201506E+02 -0.17719669858E+03  0.20146881821E+03  0.41800000000E+01 0. -1.
        -11    1    1    2    0    0 -0.29806062637E+02  0.29225770943E+02 -0.19790238102E+03  0.20225701340E+03  0.00000000000E+00 0.  1.
         11    1    1    2    0    0  0.63700340173E+02  0.16026917782E+02 -0.36387082207E+03  0.36975203933E+03  0.00000000000E+00 0. -1.
</event>
<event>
 7    1  0.1620881E-005  0.9491906E+02  0.7561462E-02  0.1291358E+00
          2   -1    0    0  501    0  0.00000000000E+00  0.00000000000E+00  0.75831736895E+03  0.75831736895E+03  0.00000000000E+00 0. -1.
         -2   -1    0    0    0  501 -0.00000000000E+00 -0.00000000000E+00 -0.24312669119E+02  0.24312669119E+02  0.00000000000E+00 0.  1.
         23    2    1    2    0    0 -0.54412182776E+02  0.30080779155E+02  0.25325165086E+03  0.28920330848E+03  0.12504645563E+03 0.  0.
          5    1    3    3  502    0 -0.43291240597E+02 -0.79612873457E+01  0.24441398408E+03  0.24838112171E+03  0.41800000000E+01 0.  1.
         -5    1    3    3    0  502 -0.11120942179E+02  0.38042066501E+02  0.88376667763E+01  0.40822186769E+02  0.41800000000E+01 0.  1.
        -11    1    1    2    0    0 -0.19661322714E+02 -0.24601610527E+02  0.82502095238E+02  0.88308564534E+02  0.00000000000E+00 0. -1.
         11    1    1    2    0    0  0.74073505490E+02 -0.54791686278E+01  0.39825095374E+03  0.40511816505E+03  0.00000000000E+00 0.  1.
</event>
<event>
 7    1  0.1620881E-005  0.9063260E+02  0.7561462E-02  0.1301327E+00
         -1   -1    0    0    0  501 -0.00000000000E+00  0.00000000000E+00  0.79751035235E+03  0.79751035235E+03  0.00000000000E+00 0.  1.
          1   -1    0    0  501    0  0.00000000000E+00 -0.00000000000E+00 -0.18824065146E+02  0.18824065146E+02  0.00000000000E+00 0. -1.
         23    2    1    2    0    0 -0.10610943253E+02  0.18096654103E+02  0.62113411842E+03  0.63231286621E+03  0.11649844081E+03 0.  0.
          5    1    3    3  502    0 -0.15921738106E+02  0.52477239297E+02  0.55270587394E+03  0.55543552090E+03  0.41800000000E+01 0.  1.
         -5    1    3    3    0  502  0.53107948537E+01 -0.34380585194E+02  0.68428244476E+02  0.76877345313E+02  0.41800000000E+01 0. -1.
        -11    1    1    2    0    0 -0.26205657158E+02 -0.40420530346E+02  0.10874641091E+03  0.11893837744E+03  0.00000000000E+00 0.  1.
         11    1    1    2    0    0  0.36816600411E+02  0.22323876244E+02  0.48805757872E+02  0.65083173845E+02  0.00000000000E+00 0. -1.
</event>
<event>
 7    1  0.1620881E-005  0.1486149E+03  0.7561462E-02  0.1202185E+00
         -1   -1    0    0    0  501 -0.00000000000E+00  0.00000000000E+00  0.18893942206E+03  0.18893942206E+03  0.00000000000E+00 0.  1.
          1   -1    0    0  501    0  0.00000000000E+00 -0.00000000000E+00 -0.12903990949E+03  0.12903990949E+03  0.00000000000E+00 0. -1.
         23    2    1    2    0    0 -0.10148774311E+03 -0.30876823299E+02 -0.33940528271E+01  0.16391972147E+03  0.12492003552E+03 0.  0.
          5    1    3    3  502    0 -0.48131741431E+02  0.48231623620E+02 -0.43156584113E+01  0.68403591702E+02  0.41800000000E+01 0. -1.
         -5    1    3    3    0  502 -0.53356001679E+02 -0.79108446919E+02  0.92160558425E+00  0.95516129769E+02  0.41800000000E+01 0. -1.
        -11    1    1    2    0    0  0.55229574488E+02  0.57786611174E+02  0.60898826772E+02  0.10049012604E+03  0.00000000000E+00 0.  1.
         11    1    1    2    0    0  0.46258168622E+02 -0.26909787875E+02  0.23947386277E+01  0.53569484045E+02  0.00000000000E+00 0. -1.
</event>
<event>
 7    1  0.1620881E-005  0.1538763E+03  0.7561462E-02  0.1195789E+00
         -2   -1    0    0    0  501 -0.00000000000E+00  0.00000000000E+00  0.33623813049E+02  0.33623813049E+02  0.00000000000E+00 0. -1.
          2   -1    0    0  501    0  0.00000000000E+00 -0.00000000000E+00 -0.97580609996E+03  0.97580609996E+03  0.00000000000E+00 0.  1.
         23    2    1    2    0    0  0.96185755137E+02  0.10301117933E+03 -0.41261673723E+03  0.45361202680E+03  0.12509315109E+03 0.  0.
          5    1    3    3  502    0  0.82691879908E+01  0.73330714104E+02 -0.82920730018E+02  0.11108146996E+03  0.41800000000E+01 0.  1.
         -5    1    3    3    0  502  0.87916567146E+02  0.29680465228E+02 -0.32969600722E+03  0.34253055684E+03  0.41800000000E+01 0.  1.
        -11    1    1    2    0    0 -0.66665271807E+02 -0.72865972277E+02 -0.48294479719E+03  0.49293953535E+03  0.00000000000E+00 0.  1.
         11    1    1    2    0    0 -0.29520483330E+02 -0.30145207054E+02 -0.46620752491E+02  0.62878350863E+02  0.00000000000E+00 0. -1.
</event>
<event>
 6    1  0.1620881E-005  0.1674540E+03  0.7561462E-02  0.1180529E+00
          2   -1    0    0  501    0  0.00000000000E+00  0.00000000000E+00  0.56720667955E+02  0.56720667955E+02  0.00000000000E+00 0. -1.
         -2   -1    0    0    0  501 -0.00000000000E+00 -0.00000000000E+00 -0.95765011405E+03  0.95765011405E+03  0.00000000000E+00 0.  1.
          5    1    1    2  502    0  0.36072717716E+02  0.22657704775E+02 -0.50024761858E+02  0.65837388679E+02  0.41800000000E+01 0. -1.
         -5    1    1    2    0  502 -0.45650281003E+02  0.12992383343E+03 -0.70884813653E+03  0.72211308236E+03  0.41800000000E+01 0.  1.
        -11    1    1    2    0    0 -0.67073859935E+01 -0.36231727992E+02 -0.91273320093E+02  0.98430412480E+02  0.00000000000E+00 0.  1.
         11    1    1    2    0    0  0.16284949280E+02 -0.11634981021E+03 -0.50783227616E+02  0.12798989849E+03  0.00000000000E+00 0. -1.
</event>
<event>
 7    1  0.1620881E-005  0.6135955E+02  0.7561462E-02  0.1392213E+00
          1   -1    0    0  501    0  0.00000000000E+00  0.00000000000E+00  0.38334966129E+03  0.38334966129E+03  0.00000000000E+00 0. -1.
         -1   -1    0    0    0  501 -0.00000000000E+00 -0.00000000000E+00 -0.31069091885E+02  0.31069091885E+02  0.00000000000E+00 0.  1.
         23    2    1    2    0    0  0.40761599183E+01 -0.20004632159E+02  0.19745290761E+03  0.23463477298E+03  0.12509606542E+03 0.  0.
          5    1    3    3  502    0  0.10337498932E+02  0.21364924158E+01 -0.16157765313E+02  0.19747766049E+02  0.41800000000E+01 0. -1.
         -5    1    3    3    0  502 -0.62613390133E+01 -0.22141124575E+02  0.21361067292E+03  0.21488700693E+03  0.41800000000E+01 0. -1.
        -11    1    1    2    0    0  0.13146668817E+01 -0.33840138899E+02  0.84595848312E+02  0.91122669525E+02  0.00000000000E+00 0.  1.
         11    1    1    2    0    0 -0.53908268000E+01  0.53844771058E+02  0.70231813485E+02  0.88661310668E+02  0.00000000000E+00 0. -1.
</event>
<event>
 7    1  0.1620881E-005  0.1769726E+03  0.7561462E-02  0.1170766E+00
          2   -1    0    0  501    0  0.00000000000E+00  0.00000000000E+00  0.64143428457E+03  0.64143428457E+03  0.00000000000E+00 0. -1.
         -2   -1    0    0    0  501 -0.00000000000E+00 -0.00000000000E+00 -0.77073519512E+02  0.77073519512E+02  0.00000000000E+00 0.  1.
         23    2    1    2    0    0  0.16503223834E+03 -0.59305347073E+02  0.14216456167E+03  0.25234416514E+03  0.11275660159E+03 0.  0.
          5    1    3    3  502    0  0.40884131191E+02 -0.19418312436E+02  0.10845417264E+03  0.11759406025E+03  0.41800000000E+01 0. -1.
         -5    1    3    3    0  502  0.12414810714E+03 -0.39887034636E+02  0.33710389025E+02  0.13475010489E+03  0.41800000000E+01 0.  1.
        -11    1    1    2    0    0 -0.39395806016E+02  0.72213159333E+00  0.28094792598E+02  0.48392854605E+02  0.00000000000E+00 0.  1.
         11    1    1    2    0    0 -0.12563643232E+03  0.58583215479E+02  0.39410141079E+03  0.41777078434E+03  0.00000000000E+00 0. -1.
</event>
<event>
 7    1  0.1620881E-005  0.2611797E+03  0.7561462E-02  0.1106437E+00
         -2   -1    0    0    0  501 -0.00000000000E+00  0.00000000000E+00  0.12070796673E+03  0.12070796673E+03  0.00000000000E+00 0.  1.
          2   -1    0    0  501    0  0.00000000000E+00 -0.00000000000E+00 -0.60589423837E+03  0.60589423837E+03  0.00000000000E+00 0. -1.
         23    2    1    2    0    0 -0.18814899069E+03  0.15370225978E+03 -0.18149913182E+03  0.32804557636E+03  0.12509011936E+03 0.  0.
          5    1    3    3  502    0  0.33229975509E+01 -0.11012930661E+02 -0.32596534836E+02  0.34818578917E+02  0.41800000000E+01 0.  1.
         -5    1    3    3    0  502 -0.19147198824E+03  0.16471519044E+03 -0.14890259699E+03  0.29322699745E+03  0.41800000000E+01 0.  1.
        -11    1    1    2    0    0  0.10420399302E+03 -0.13666044960E+03 -0.21521308038E+03  0.27541100307E+03  0.00000000000E+00 0.  1.
         11    1    1    2    0    0  0.83944997672E+02 -0.17041810178E+02 -0.88474059440E+02  0.12314562567E+03  0.00000000000E+00 0. -1.
</event>
<event>
 6    1  0.1620881E-005  0.1549862E+03  0.7561462E-02  0.1194476E+00
         -4   -1    0    0    0  501 -0.00000000000E+00  0.00000000000E+00  0.51500698557E+03  0.51500698557E+03  0.00000000000E+00 0.  1.
          4   -1    0    0  501    0  0.00000000000E+00 -0.00000000000E+00 -0.13596925311E+03  0.13596925311E+03  0.00000000000E+00 0. -1.
          5    1    1    2  502    0  0.29897128202E+02  0.40901593494E+02 -0.81956324900E+02  0.96442159952E+02  0.41800000000E+01 0. -1.
         -5    1    1    2    0  502  0.10835233338E+02 -0.14217709782E+03  0.33271632301E+03  0.36200739416E+03  0.41800000000E+01 0.  1.
        -11    1    1    2    0    0 -0.47624023802E+02  0.71394541481E+02  0.32181652522E+02  0.91656352510E+02  0.00000000000E+00 0.  1.
         11    1    1    2    0    0  0.68916622617E+01  0.29880962847E+02  0.96096081817E+02  0.10087033206E+03  0.00000000000E+00 0. -1.
</event>
<event>
 7    1  0.1620881E-005  0.9366403E+02  0.7561462E-02  0.1294214E+00
         -1   -1    0    0    0  501 -0.00000000000E+00  0.00000000000E+00  0.69090709094E+03  0.69090709094E+03  0.00000000000E+00 0.  1.
          1   -1    0    0  501    0  0.00000000000E+00 -0.00000000000E+00 -0.24807613941E+02  0.24807613941E+02  0.00000000000E+00 0. -1.
         23    2    1    2    0    0 -0.56316513342E+01 -0.50350232598E+02  0.52155031118E+03  0.53873028317E+03  0.12509488198E+03 0.  0.
          5    1    3    3  502    0 -0.58178265634E+02 -0.57163155380E+02  0.30360820802E+03  0.31440062548E+03  0.41800000000E+01 0.  1.
         -5    1    3    3    0  502  0.52546614300E+02  0.68129227826E+01  0.21794210315E+03  0.22432965769E+03  0.41800000000E+01 0.  1.
        -11    1    1    2    0    0 -0.39161222489E+01  0.26980423995E+02  0.14889302827E+03  0.15136846818E+03  0.00000000000E+00 0.  1.
         11    1    1    2    0    0  0.95477735831E+01  0.23369808603E+02 -0.43438624428E+01  0.25615953534E+02  0.00000000000E+00 0. -1.
</event>
<event>
 7    1  0.1620881E-005  0.1336572E+03  0.7561462E-02  0.1222128E+00
         -2   -1    0    0    0  501 -0.00000000000E+00  0.00000000000E+00  0.31066021738E+03  0.31066021738E+03  0.00000000000E+00 0.  1.
          2   -1    0    0  501    0  0.00000000000E+00 -0.00000000000E+00 -0.66011950916E+02  0.66011950916E+02  0.00000000000E+00 0. -1.
         23    2    1    2    0    0  0.48884844599E+02  0.75056397938E+02  0.17208423081E+03  0.23083122631E+03  0.12508749594E+03 0.  0.
          5    1    3    3  502    0  0.82781809008E+02  0.21232041611E+02  0.12543783269E+03  0.15184119917E+03  0.41800000000E+01 0.  1.
         -5    1    3    3    0  502 -0.33896964409E+02  0.53824356327E+02  0.46646398121E+02  0.78990027141E+02  0.41800000000E+01 0.  1.
        -11    1    1    2    0    0 -0.33289039989E+02 -0.90273367471E+02  0.77444488943E+02  0.12351149714E+03  0.00000000000E+00 0.  1.
         11    1    1    2    0    0 -0.15595804610E+02  0.15216969533E+02 -0.48804532875E+01  0.22329444854E+02  0.00000000000E+00 0. -1.
</event>
<event>
 7    1  0.1620881E-005  0.9334171E+02  0.7561462E-02  0.1294955E+00
          2   -1    0    0  501    0  0.00000000000E+00  0.00000000000E+00  0.39964607813E+02  0.39964607813E+02  0.00000000000E+00 0. -1.
         -2   -1    0    0    0  501 -0.00000000000E+00 -0.00000000000E+00 -0.35141404226E+03  0.35141404226E+03  0.00000000000E+00 0.  1.
         23    2    1    2    0    0 -0.41691679362E+01 -0.11637032653E+02 -0.24073692890E+03  0.27157816469E+03  0.12509047971E+03 0.  0.
          5    1    3    3  502    0  0.39789747625E+02 -0.21802020529E+02 -0.26726886149E+02  0.52823772664E+02  0.41800000000E+01 0.  1.
         -5    1    3    3    0  502 -0.43958915562E+02  0.10164987876E+02 -0.21401004275E+03  0.21875439203E+03  0.41800000000E+01 0.  1.
        -11    1    1    2    0    0 -0.24841546130E+02 -0.33771082886E+02 -0.22945391668E+02  0.47792043817E+02  0.00000000000E+00 0.  1.
         11    1    1    2    0    0  0.29010714067E+02  0.45408115540E+02 -0.47767113889E+02  0.72008441566E+02  0.00000000000E+00 0. -1.
</event>
<event>
 7    1  0.1620881E-005  0.1067835E+03  0.7561462E-02  0.1266645E+00
          2   -1    0    0  501    0  0.00000000000E+00  0.00000000000E+00  0.52544028179E+03  0.52544028179E+03  0.00000000000E+00 0.  1.
         -2   -1    0    0    0  501 -0.00000000000E+00 -0.00000000000E+00 -0.30722726231E+02  0.30722726231E+02  0.00000000000E+00 0. -1.
         23    2    1    2    0    0 -0.65627830363E+02 -0.57858219772E+01  0.29403553439E+03  0.32625907011E+03  0.12509035730E+03 0.  0.
          5    1    3    3  502    0 -0.10327272642E+03 -0.42646492340E+01  0.21232135311E+03  0.23618059328E+03  0.41800000000E+01 0.  1.
         -5    1    3    3    0  502  0.37644896057E+02 -0.15211727432E+01  0.81714181274E+02  0.90078476824E+02  0.41800000000E+01 0.  1.
        -11    1    1    2    0    0  0.36386587844E+02  0.17915182168E+02  0.17782451944E+02  0.44284908537E+02  0.00000000000E+00 0. -1.
         11    1    1    2    0    0  0.29241242520E+02 -0.12129360191E+02  0.18289956923E+03  0.18561902938E+03  0.00000000000E+00 0.  1.
</event>
<event>
 7    1  0.1620881E-005  0.1859280E+03  0.7561462E-02  0.1162186E+00
         -1   -1    0    0    0  501 -0.00000000000E+00  0.00000000000E+00  0.33668326249E+02  0.33668326249E+02  0.00000000000E+00 0.  1.
          1   -1    0    0  501    0  0.00000000000E+00 -0.00000000000E+00 -0.10941402486E+04  0.10941402486E+04  0.00000000000E+00 0. -1.
         23    2    1    2    0    0  0.15163140143E+03 -0.42330190425E+02 -0.51330507516E+03  0.55128362864E+03  0.12509041572E+03 0.  0.
          5    1    3    3  502    0 -0.10228386605E+02  0.15590417694E+02 -0.15470879788E+02  0.24586612980E+02  0.41800000000E+01 0. -1.
         -5    1    3    3    0  502  0.16185978804E+03 -0.57920608119E+02 -0.49783419537E+03  0.52669701566E+03  0.41800000000E+01 0. -1.
        -11    1    1    2    0    0 -0.98726582167E+02 -0.18203583456E+02 -0.33116518749E+03  0.34604723649E+03  0.00000000000E+00 0.  1.
         11    1    1    2    0    0 -0.52904819264E+02  0.60533773881E+02 -0.21600165970E+03  0.23047770971E+03  0.00000000000E+00 0. -1.
</event>
<event>
 7    1  0.1620881E-005  0.1313665E+03  0.7561462E-02  0.1225442E+00
         -1   -1    0    0    0  501 -0.00000000000E+00  0.00000000000E+00  0.22747079136E+02  0.22747079136E+02  0.00000000000E+00 0.  1.
          1   -1    0    0  501    0  0.00000000000E+00 -0.00000000000E+00 -0.12082499613E+04  0.12082499613E+04  0.00000000000E+00 0. -1.
         23    2    1    2    0    0 -0.11313019821E+03  0.16764546081E+02 -0.44826314012E+03  0.47923462905E+03  0.12508595099E+03 0.  0.
          5    1    3    3  502    0 -0.12967726095E+02  0.10050940419E+02 -0.29796605608E+03  0.29844668920E+03  0.41800000000E+01 0. -1.
         -5    1    3    3    0  502 -0.10016247211E+03  0.67136056622E+01 -0.15029708405E+03  0.18078793985E+03  0.41800000000E+01 0. -1.
        -11    1    1    2    0    0  0.12675701683E+03 -0.25288171880E+02 -0.68564939237E+03  0.69772625163E+03  0.00000000000E+00 0. -1.
         11    1    1    2    0    0 -0.13626818618E+02  0.85236257995E+01 -0.51590349644E+02  0.54036159734E+02  0.00000000000E+00 0.  1.
</event>
<event>
 7    1  0.1620881E-005  0.1025489E+03  0.7561462E-02  0.1275025E+00
          4   -1    0    0  501    0  0.00000000000E+00  0.00000000000E+00  0.32975926096E+02  0.32975926096E+02  0.00000000000E+00 0. -1.
         -4   -1    0    0    0  501 -0.00000000000E+00 -0.00000000000E+00 -0.48744611297E+03  0.48744611297E+03  0.00000000000E+00 0.  1.
         23    2    1    2    0    0  0.24454784280E+02 -0.59722577908E+02 -0.27530992419E+03  0.30920523356E+03  0.12508996490E+03 0.  0.
          5    1    3    3  502    0 -0.21975774701E+02 -0.51495428081E+02 -0.39392886043E+02  0.68585608240E+02  0.41800000000E+01 0.  1.
         -5    1    3    3    0  502  0.46430558981E+02 -0.82271498271E+01 -0.23591703815E+03  0.24061962532E+03  0.41800000000E+01 0.  1.
        -11    1    1    2    0    0 -0.45434464333E+02  0.65627292189E+02 -0.16954630669E+03  0.18739579008E+03  0.00000000000E+00 0.  1.
         11    1    1    2    0    0  0.20979680054E+02 -0.59047142810E+01 -0.96139559974E+01  0.23821015424E+02  0.00000000000E+00 0. -1.
</event>
<event>
 7    1  0.1620881E-005  0.1821381E+03  0.7561462E-02  0.1165750E+00
          2   -1    0    0  501    0  0.00000000000E+00  0.00000000000E+00  0.48878105488E+03  0.48878105488E+03  0.00000000000E+00 0.  1.
         -2   -1    0    0    0  501 -0.00000000000E+00 -0.00000000000E+00 -0.75469290077E+02  0.75469290077E+02  0.00000000000E+00 0. -1.
         23    2    1    2    0    0 -0.33271907492E+01 -0.15101453002E+03  0.28250860157E+03  0.34391270423E+03  0.12509348381E+03 0.  0.
          5    1    3    3  502    0 -0.11147975962E+02  0.20252782182E+02  0.47394101325E+02  0.52897313681E+02  0.41800000000E+01 0. -1.
         -5    1    3    3    0  502  0.78207852128E+01 -0.17126731220E+03  0.23511450025E+03  0.29101539055E+03  0.41800000000E+01 0. -1.
        -11    1    1    2    0    0  0.31679537027E+02  0.13050138250E+03  0.73222111927E+02  0.15295646955E+03  0.00000000000E+00 0.  1.
         11    1    1    2    0    0 -0.28352346278E+02  0.20513147514E+02  0.57581051302E+02  0.67381171179E+02  0.00000000000E+00 0. -1.
</event>
<event>
 7    1  0.1620881E-005  0.1428715E+03  0.7561462E-02  0.1209517E+00
          2   -1    0    0  501    0  0.00000000000E+00  0.00000000000E+00  0.40074293492E+03  0.40074293492E+03  0.00000000000E+00 0. -1.
         -2   -1    0    0    0  501 -0.00000000000E+00 -0.00000000000E+00 -0.81099309189E+02  0.81099309189E+02  0.00000000000E+00 0.  1.
         23    2    1    2    0    0 -0.90328967979E+02  0.24324405225E+02  0.23142082414E+02  0.15790456931E+03  0.12508915975E+03 0.  0.
          5    1    3    3  502    0 -0.91956268648E+02  0.66268412961E+02  0.10713361410E+02  0.11392851449E+03  0.41800000000E+01 0.  1.
         -5    1    3    3    0  502  0.16273006690E+01 -0.41944007737E+02  0.12428721004E+02  0.43976054828E+02  0.41800000000E+01 0.  1.
        -11    1    1    2    0    0  0.39374595435E+02 -0.57239886898E+02  0.16979634849E+03  0.18345997760E+03  0.00000000000E+00 0. -1.
         11    1    1    2    0    0  0.50954372544E+02  0.32915481673E+02  0.12670519483E+03  0.14047769720E+03  0.00000000000E+00 0.  1.
</event>
<event>
 7    1  0.1620881E-005  0.2997651E+03  0.7561462E-02  0.1085358E+00
         -3   -1    0    0    0  501 -0.00000000000E+00  0.00000000000E+00  0.43222392672E+03  0.43222392672E+03  0.00000000000E+00 0.  1.
          3   -1    0    0  501    0  0.00000000000E+00 -0.00000000000E+00 -0.24020961404E+03  0.24020961404E+03  0.00000000000E+00 0. -1.
         23    2    1    2    0    0 -0.16929442642E+03 -0.23972655801E+03  0.17664768843E+03  0.36466707579E+03  0.12509294507E+03 0.  0.
          5    1    3    3  502    0 -0.14121025078E+03 -0.12906769708E+03  0.57981395497E+02  0.19994529246E+03  0.41800000000E+01 0. -1.
         -5    1    3    3    0  502 -0.28084175641E+02 -0.11065886092E+03  0.11866629293E+03  0.16472178332E+03  0.41800000000E+01 0. -1.
        -11    1    1    2    0    0  0.12797771074E+03  0.19280726910E+03  0.49336261735E+02  0.23661573106E+03  0.00000000000E+00 0.  1.
         11    1    1    2    0    0  0.41316715679E+02  0.46919288905E+02 -0.33969637480E+02  0.71150733913E+02  0.00000000000E+00 0. -1.
</event>
<event>
 7    1  0.1620881E-005  0.1454892E+03  0.7561462E-02  0.1206128E+00
         -3   -1    0    0    0  501 -0.00000000000E+00  0.00000000000E+00  0.19454981557E+03  0.19454981557E+03  0.00000000000E+00 0.  1.
          3   -1    0    0  501    0  0.00000000000E+00 -0.00000000000E+00 -0.14066768959E+03  0.14066768959E+03  0.00000000000E+00 0. -1.
         23    2    1    2    0    0  0.95057793667E+02  0.58149087930E+02  0.85817091008E+02  0.18822612539E+03  0.12508877090E+03 0.  0.
          5    1    3    3  502    0  0.12326006385E+03  0.47295217413E+02  0.50140171047E+02  0.14128478362E+03  0.41800000000E+01 0.  1.
         -5    1    3    3    0  502 -0.28202270184E+02  0.10853870517E+02  0.35676919961E+02  0.46941341764E+02  0.41800000000E+01 0.  1.
        -11    1    1    2    0    0 -0.28301365085E+02 -0.54640333190E+02  0.17355493450E+02  0.63935486466E+02  0.00000000000E+00 0. -1.
         11    1    1    2    0    0 -0.66756428583E+02 -0.35087547403E+01 -0.49290458475E+02  0.83055893310E+02  0.00000000000E+00 0.  1.
</event>
<event>
 7    1  0.1760452E-005  0.2023527E+03  0.7561462E-02  0.1147769E+00
          1   -1    0    0  501    0  0.00000000000E+00  0.00000000000E+00  0.31433425495E+03  0.31433425495E+03  0.00000000000E+00 0. -1.
         -1   -1    0    0    0  501 -0.00000000000E+00 -0.00000000000E+00 -0.16676431712E+03  0.16676431712E+03  0.00000000000E+00 0.  1.
         23    2    1    2    0    0  0.71818378029E+02 -0.18498839857E+03  0.38568491115E+02  0.23772603367E+03  0.12509017367E+03 0.  0.
          5    1    3    3  502    0  0.46180365997E+02 -0.61401793588E+02  0.73801838847E+02  0.10661608826E+03  0.41800000000E+01 0. -1.
         -5    1    3    3    0  502  0.25638012033E+02 -0.12358660498E+03 -0.35233347732E+02  0.13110994540E+03  0.41800000000E+01 0. -1.
        -11    1    1    2    0    0 -0.74207410791E+02  0.15998220909E+03  0.56522606401E+02  0.18519139309E+03  0.00000000000E+00 0.  1.
         11    1    1    2    0    0  0.23890327616E+01  0.25006189476E+02  0.52478840308E+02  0.58181145311E+02  0.00000000000E+00 0. -1.
</event>
<event>
 7    1  0.1620881E-005  0.1162821E+03  0.7561462E-02  0.1249359E+00
          1   -1    0    0  501    0  0.00000000000E+00  0.00000000000E+00  0.40753851025E+03  0.40753851025E+03  0.00000000000E+00 0. -1.
         -1   -1    0    0    0  501 -0.00000000000E+00 -0.00000000000E+00 -0.34188642046E+02  0.34188642046E+02  0.00000000000E+00 0.  1.
         23    2    1    2    0    0 -0.41374330649E+02  0.34781546477E+01  0.17365126436E+03  0.21800432508E+03  0.12508873388E+03 0.  0.
          5    1    3    3  502    0 -0.52023453411E+02 -0.52859619534E+02  0.10013220668E+03  0.12467762548E+03  0.41800000000E+01 0. -1.
         -5    1    3    3    0  502  0.10649122763E+02  0.56337774182E+02  0.73519057678E+02  0.93326699594E+02  0.41800000000E+01 0. -1.
        -11    1    1    2    0    0  0.70187758667E+02  0.60427741116E+01  0.14321047717E+03  0.15959974110E+03  0.00000000000E+00 0.  1.
         11    1    1    2    0    0 -0.28813428018E+02 -0.95209287592E+01  0.56488126668E+02  0.64123086116E+02  0.00000000000E+00 0. -1.
</event>
<event>
 7    1  0.1620881E-005  0.1092353E+03  0.7561462E-02  0.1261993E+00
          3   -1    0    0  501    0  0.00000000000E+00  0.00000000000E+00  0.94758980074E+01  0.94758980074E+01  0.00000000000E+00 0. -1.
         -3   -1    0    0    0  501 -0.00000000000E+00 -0.00000000000E+00 -0.20843721801E+04  0.20843721801E+04  0.00000000000E+00 0.  1.
         23    2    1    2    0    0  0.75294119791E+01  0.50542080482E+02 -0.16626907009E+04  0.16678751973E+04  0.12106243445E+03 0.  0.
          5    1    3    3  502    0 -0.23271879244E+02  0.70406277000E+02 -0.14577682222E+04  0.14596589623E+04  0.41800000000E+01 0.  1.
         -5    1    3    3    0  502  0.30801291223E+02 -0.19864196518E+02 -0.20492247868E+03  0.20821623499E+03  0.41800000000E+01 0. -1.
        -11    1    1    2    0    0  0.20849406158E+02 -0.69910468241E+02 -0.28908326618E+03  0.29814645075E+03  0.00000000000E+00 0. -1.
         11    1    1    2    0    0 -0.28378818138E+02  0.19368387759E+02 -0.12312231505E+03  0.12782643008E+03  0.00000000000E+00 0.  1.
</event>
<event>
 7    1  0.1620881E-005  0.1131847E+03  0.7561462E-02  0.1254784E+00
          1   -1    0    0  501    0  0.00000000000E+00  0.00000000000E+00  0.27641900848E+03  0.27641900848E+03  0.00000000000E+00 0. -1.
         -1   -1    0    0    0  501 -0.00000000000E+00 -0.00000000000E+00 -0.63803793948E+02  0.63803793948E+02  0.00000000000E+00 0.  1.
         23    2    1    2    0    0 -0.73766600072E+02  0.24323809256E+02  0.11339029952E+03  0.18584918503E+03  0.12509756419E+03 0.  0.
          5    1    3    3  502    0 -0.58778489221E+02  0.72825450022E+02  0.56115434822E+02  0.10920105948E+03  0.41800000000E+01 0.  1.
         -5    1    3    3    0  502 -0.14988110850E+02 -0.48501640766E+02  0.57274864698E+02  0.76648125548E+02  0.41800000000E+01 0.  1.
        -11    1    1    2    0    0  0.37724441343E+02 -0.25762669474E+02  0.10798851201E+03  0.11725343210E+03  0.00000000000E+00 0. -1.
         11    1    1    2    0    0  0.36042158729E+02  0.14388602180E+01 -0.87635969976E+01  0.37120185302E+02  0.00000000000E+00 0.  1.
</event>
<event>
 7    1  0.1620881E-005  0.9451571E+02  0.7561462E-02  0.1292271E+00
          1   -1    0    0  501    0  0.00000000000E+00  0.00000000000E+00  0.26518744089E+02  0.26518744089E+02  0.00000000000E+00 0. -1.
         -1   -1    0    0    0  501 -0.00000000000E+00 -0.00000000000E+00 -0.46309003304E+03  0.46309003304E+03  0.00000000000E+00 0.  1.
         23    2    1    2    0    0 -0.74752014780E+01  0.24526566297E+01 -0.33368148289E+03  0.35193821848E+03  0.11160324116E+03 0.  0.
          5    1    3    3  502    0 -0.41366939221E+02 -0.30288723592E+02 -0.89618346063E+02  0.10333223499E+03  0.41800000000E+01 0. -1.
         -5    1    3    3    0  502  0.33891737743E+02  0.32741380221E+02 -0.24406313683E+03  0.24860598349E+03  0.41800000000E+01 0.  1.
        -11    1    1    2    0    0 -0.86512000301E+01  0.42058972756E+02 -0.60046909861E+02  0.73820267103E+02  0.00000000000E+00 0.  1.
         11    1    1    2    0    0  0.16126401508E+02 -0.44511629385E+02 -0.42842896197E+02  0.63850291547E+02  0.00000000000E+00 0. -1.
</event>
<event>
 7    1  0.1620881E-005  0.9019163E+02  0.7561462E-02  0.1302388E+00
         -2   -1    0    0    0  501 -0.00000000000E+00  0.00000000000E+00  0.39387847727E+02  0.39387847727E+02  0.00000000000E+00 0. -1.
          2   -1    0    0  501    0  0.00000000000E+00 -0.00000000000E+00 -0.31733971817E+03  0.31733971817E+03  0.00000000000E+00 0.  1.
         23    2    1    2    0    0 -0.32221232912E+01  0.17297932441E+02 -0.12963440562E+03  0.18099627306E+03  0.12507985928E+03 0.  0.
          5    1    3    3  502    0  0.68163359309E+01  0.54550692640E+02 -0.13103727041E+03  0.14216356474E+03  0.41800000000E+01 0. -1.
         -5    1    3    3    0  502 -0.10038459222E+02 -0.37252760199E+02  0.14028647911E+01  0.38832708322E+02  0.41800000000E+01 0. -1.
        -11    1    1    2    0    0  0.21753040781E+02  0.29186018488E+02 -0.29664138984E+02  0.46957210310E+02  0.00000000000E+00 0.  1.
         11    1    1    2    0    0 -0.18530917490E+02 -0.46483950929E+02 -0.11865332583E+03  0.12877408252E+03  0.00000000000E+00 0. -1.
</event>
<event>
 7    1  0.1620881E-005  0.1083741E+03  0.7561462E-02  0.1263611E+00
          1   -1    0    0  501    0  0.00000000000E+00  0.00000000000E+00  0.13850363342E+03  0.13850363342E+03  0.00000000000E+00 0. -1.
         -1   -1    0    0    0  501 -0.00000000000E+00 -0.00000000000E+00 -0.12991874822E+03  0.12991874822E+03  0.00000000000E+00 0.  1.
         23    2    1    2    0    0 -0.37624771619E+02  0.78143501556E+02 -0.18189877500E+02  0.14279751831E+03  0.11197423506E+03 0.  0.
          5    1    3    3  502    0  0.95113209123E+01  0.40221665812E+01  0.37224037147E+02  0.38855429364E+02  0.41800000000E+01 0. -1.
         -5    1    3    3    0  502 -0.47136092531E+02  0.74121334975E+02 -0.55413914648E+02  0.10394208894E+03  0.41800000000E+01 0.  1.
        -11    1    1    2    0    0  0.46015347794E+02 -0.91198437151E+02  0.35102587456E+02  0.10801277155E+03  0.00000000000E+00 0. -1.
         11    1    1    2    0    0 -0.83905761745E+01  0.13054935594E+02 -0.83278247499E+01  0.17612091783E+02  0.00000000000E+00 0.  1.
</event>
<event>
 7    1  0.1620881E-005  0.1510459E+03  0.7561462E-02  0.1199194E+00
          1   -1    0    0  501    0  0.00000000000E+00  0.00000000000E+00  0.88650335999E+03  0.88650335999E+03  0.00000000000E+00 0. -1.
         -1   -1    0    0    0  501 -0.00000000000E+00 -0.00000000000E+00 -0.29029865337E+02  0.29029865337E+02  0.00000000000E+00 0.  1.
         23    2    1    2    0    0 -0.11072154167E+03  0.49913057668E+01  0.35010162711E+03  0.38794120547E+03  0.12507220585E+03 0.  0.
          5    1    3    3  502    0  0.90645692975E+01  0.33307775788E+02  0.14137772147E+03  0.14559088870E+03  0.41800000000E+01 0.  1.
         -5    1    3    3    0  502 -0.11978611097E+03 -0.28316470021E+02  0.20872390564E+03  0.24235031677E+03  0.41800000000E+01 0.  1.
        -11    1    1    2    0    0  0.31546753295E+02  0.41666749646E+02  0.16333880303E+03  0.17149600650E+03  0.00000000000E+00 0.  1.
         11    1    1    2    0    0  0.79174788373E+02 -0.46658055413E+02  0.34403306451E+03  0.35609601336E+03  0.00000000000E+00 0. -1.
</event>
<event>
 7    1  0.1620881E-005  0.1764488E+03  0.7561462E-02  0.1171285E+00
          2   -1    0    0  501    0  0.00000000000E+00  0.00000000000E+00  0.16828868318E+04  0.16828868318E+04  0.00000000000E+00 0. -1.
         -2   -1    0    0    0  501 -0.00000000000E+00 -0.00000000000E+00 -0.20180418619E+02  0.20180418619E+02  0.00000000000E+00 0.  1.
         23    2    1    2    0    0  0.66796351488E+02 -0.13168643039E+03  0.86965856584E+03  0.89092832663E+03  0.12507675056E+03 0.  0.
          5    1    3    3  502    0  0.36623094098E+02  0.61131158323E+01  0.36502928041E+03  0.36693660102E+03  0.41800000000E+01 0.  1.
         -5    1    3    3    0  502  0.30173257390E+02 -0.13779954622E+03  0.50462928543E+03  0.52399172561E+03  0.41800000000E+01 0.  1.
        -11    1    1    2    0    0  0.22587865755E+02  0.13816521113E+02  0.97278312319E+02  0.10081754799E+03  0.00000000000E+00 0.  1.
         11    1    1    2    0    0 -0.89384217243E+02  0.11786990928E+03  0.69576953503E+03  0.71132137581E+03  0.00000000000E+00 0. -1.
</event>
<event>
 7    1  0.1620881E-005  0.1881873E+03  0.7561462E-02  0.1160107E+00
          2   -1    0    0  501    0  0.00000000000E+00  0.00000000000E+00  0.28500552759E+03  0.28500552759E+03  0.00000000000E+00 0. -1.
         -2   -1    0    0    0  501 -0.00000000000E+00 -0.00000000000E+00 -0.22334360708E+03  0.22334360708E+03  0.00000000000E+00 0.  1.
         23    2    1    2    0    0 -0.25097303272E+02 -0.16769914634E+03 -0.12074243212E+03  0.24285810839E+03  0.12509375517E+03 0.  0.
          5    1    3    3  502    0  0.16107937639E+02 -0.46772293378E+01  0.17898986659E+02  0.24883493578E+02  0.41800000000E+01 0. -1.
         -5    1    3    3    0  502 -0.41205240911E+02 -0.16302191700E+03 -0.13864141878E+03  0.21797461481E+03  0.41800000000E+01 0. -1.
        -11    1    1    2    0    0  0.52173026500E+02  0.58516148376E+02  0.94121135016E+02  0.12249470344E+03  0.00000000000E+00 0.  1.
         11    1    1    2    0    0 -0.27075723228E+02  0.10918299796E+03  0.88283217615E+02  0.14299632284E+03  0.00000000000E+00 0. -1.
</event>
<event>
 7    1  0.1620881E-005  0.1175995E+03  0.7561462E-02  0.1247111E+00
         -1   -1    0    0    0  501 -0.00000000000E+00  0.00000000000E+00  0.16476947599E+03  0.16476947599E+03  0.00000000000E+00 0.  1.
          1   -1    0    0  501    0  0.00000000000E+00 -0.00000000000E+00 -0.13259547429E+03  0.13259547429E+03  0.00000000000E+00 0. -1.
         23    2    1    2    0    0  0.32733470917E+02  0.86249684731E+02  0.56050766653E+02  0.16522683454E+03  0.12509088766E+03 0.  0.
          5    1    3    3  502    0 -0.28225514415E+02  0.19743336610E+02 -0.25880699860E+02  0.43286972979E+02  0.41800000000E+01 0.  1.
         -5    1    3    3    0  502  0.60958985332E+02  0.66506348121E+02  0.81931466513E+02  0.12193986156E+03  0.41800000000E+01 0.  1.
        -11    1    1    2    0    0 -0.17497703685E+02  0.45811251416E+01  0.22623596459E+02  0.28965211177E+02  0.00000000000E+00 0.  1.
         11    1    1    2    0    0 -0.15235767232E+02 -0.90830809872E+02 -0.46500361413E+02  0.10317290457E+03  0.00000000000E+00 0. -1.
</event>
<event>
 7    1  0.1620881E-005  0.1653315E+03  0.7561462E-02  0.1182806E+00
          1   -1    0    0  501    0  0.00000000000E+00  0.00000000000E+00  0.84260218945E+03  0.84260218945E+03  0.00000000000E+00 0. -1.
         -1   -1    0    0    0  501 -0.00000000000E+00 -0.00000000000E+00 -0.36981957613E+02  0.36981957613E+02  0.00000000000E+00 0.  1.
         23    2    1    2    0    0  0.35124938949E+02 -0.12452034137E+03  0.29763427886E+03  0.34780887901E+03  0.12508307485E+03 0.  0.
          5    1    3    3  502    0  0.80941001814E+02 -0.68797356526E+02  0.19791231126E+03  0.22465813448E+03  0.41800000000E+01 0. -1.
         -5    1    3    3    0  502 -0.45816062865E+02 -0.55722984839E+02  0.99721967600E+02  0.12315074453E+03  0.41800000000E+01 0. -1.
        -11    1    1    2    0    0 -0.18048878206E+02 -0.70799358352E+01  0.30077936608E+02  0.35785049483E+02  0.00000000000E+00 0.  1.
         11    1    1    2    0    0 -0.17076060743E+02  0.13160027720E+03  0.47790801637E+03  0.49599021858E+03  0.00000000000E+00 0. -1.
</event>
<event>
 7    1  0.1620881E-005  0.1437179E+03  0.7561462E-02  0.1208412E+00
          1   -1    0    0  501    0  0.00000000000E+00  0.00000000000E+00  0.66537133336E+03  0.66537133336E+03  0.00000000000E+00 0. -1.
         -1   -1    0    0    0  501 -0.00000000000E+00 -0.00000000000E+00 -0.39225657880E+02  0.39225657880E+02  0.00000000000E+00 0.  1.
         23    2    1    2    0    0  0.11218193349E+03 -0.29980360970E+01  0.42154963462E+03  0.45381064919E+03  0.12508491696E+03 0.  0.
          5    1    3    3  502    0 -0.16178536978E+01  0.32468863623E+02  0.29771376552E+02  0.44279248157E+02  0.41800000000E+01 0. -1.
         -5    1    3    3    0  502  0.11379978719E+03 -0.35466899720E+02  0.39177825807E+03  0.40953140104E+03  0.41800000000E+01 0. -1.
        -11    1    1    2    0    0 -0.10282025740E+03 -0.25041832075E+02  0.19075867977E+03  0.21814667679E+03  0.00000000000E+00 0.  1.
         11    1    1    2    0    0 -0.93616760901E+01  0.28039868172E+02  0.13837361091E+02  0.32639665260E+02  0.00000000000E+00 0. -1.
</event>
<event>
 7    1  0.1620881E-005  0.1125012E+03  0.7561462E-02  0.1256007E+00
          4   -1    0    0  501    0  0.00000000000E+00  0.00000000000E+00  0.60688815133E+02  0.60688815133E+02  0.00000000000E+00 0. -1.
         -4   -1    0    0    0  501 -0.00000000000E+00 -0.00000000000E+00 -0.30745629986E+03  0.30745629986E+03  0.00000000000E+00 0.  1.
         23    2    1    2    0    0  0.48884041166E+02 -0.24395943273E+02 -0.21769700283E+03  0.25695261129E+03  0.12509135813E+03 0.  0.
          5    1    3    3  502    0  0.66320491558E+02  0.33546628825E+02 -0.13804242109E+03  0.15683420012E+03  0.41800000000E+01 0. -1.
         -5    1    3    3    0  502 -0.17436450392E+02 -0.57942572098E+02 -0.79654581739E+02  0.10011841117E+03  0.41800000000E+01 0. -1.
        -11    1    1    2    0    0 -0.67410310539E+02  0.23399899150E+02 -0.46957825103E+02  0.85420972750E+02  0.00000000000E+00 0.  1.
         11    1    1    2    0    0  0.18526269373E+02  0.99604412354E+00  0.17887343204E+02  0.25771530954E+02  0.00000000000E+00 0. -1.
</event>
<event>
 6    1  0.1620881E-005  0.8737020E+02  0.7561462E-02  0.1309348E+00
          2   -1    0    0  501    0  0.00000000000E+00  0.00000000000E+00  0.48409923720E+02  0.48409923720E+02  0.00000000000E+00 0. -1.
         -2   -1    0    0    0  501 -0.00000000000E+00 -0.00000000000E+00 -0.42361952712E+03  0.42361952712E+03  0.00000000000E+00 0.  1.
          5    1    1    2  502    0 -0.47524573416E+01 -0.37816740752E+02  0.99836519080E+01  0.39621174103E+02  0.41800000000E+01 0. -1.
         -5    1    1    2    0  502 -0.29091331035E+02 -0.89408026579E+01 -0.28062581084E+03  0.28230225221E+03  0.41800000000E+01 0.  1.
        -11    1    1    2    0    0 -0.22644247640E+02 -0.10750911507E+02 -0.13444853440E+02  0.28444826128E+02  0.00000000000E+00 0.  1.
         11    1    1    2    0    0  0.56488036016E+02  0.57508454917E+02 -0.91122591026E+02  0.12166119840E+03  0.00000000000E+00 0. -1.
</event>
<event>
 7    1  0.1620881E-005  0.1097179E+03  0.7561462E-02  0.1261093E+00
          2   -1    0    0  501    0  0.00000000000E+00  0.00000000000E+00  0.53673833917E+03  0.53673833917E+03  0.00000000000E+00 0. -1.
         -2   -1    0    0    0  501 -0.00000000000E+00 -0.00000000000E+00 -0.36107507298E+02  0.36107507298E+02  0.00000000000E+00 0.  1.
         23    2    1    2    0    0  0.67972696505E+02  0.27177813988E+01  0.12523321398E+03  0.18018980353E+03  0.11026029932E+03 0.  0.
          5    1    3    3  502    0 -0.27083481173E+02 -0.11521161340E+02  0.13227353280E+02  0.32537476636E+02  0.41800000000E+01 0. -1.
         -5    1    3    3    0  502  0.95056177678E+02  0.14238942739E+02  0.11200586070E+03  0.14765232689E+03  0.41800000000E+01 0.  1.
        -11    1    1    2    0    0 -0.50460220002E+02  0.28319314857E+02  0.32952830682E+03  0.33457005603E+03  0.00000000000E+00 0. -1.
         11    1    1    2    0    0 -0.17512476503E+02 -0.31037096256E+02  0.45869311074E+02  0.58085986913E+02  0.00000000000E+00 0.  1.
</event>
<event>
 7    1  0.1620881E-005  0.1126220E+03  0.7561462E-02  0.1255790E+00
         -3   -1    0    0    0  501 -0.00000000000E+00  0.00000000000E+00  0.49120335941E+02  0.49120335941E+02  0.00000000000E+00 0.  1.
          3   -1    0    0  501    0  0.00000000000E+00 -0.00000000000E+00 -0.31251180511E+03  0.31251180511E+03  0.00000000000E+00 0. -1.
         23    2    1    2    0    0  0.36223476567E+02 -0.30742354451E+02 -0.90126623644E+02  0.16133017046E+03  0.12508949996E+03 0.  0.
          5    1    3    3  502    0 -0.25793009277E+02 -0.58892993694E+02 -0.33270982842E+02  0.72512721181E+02  0.41800000000E+01 0. -1.
         -5    1    3    3    0  502  0.62016485843E+02  0.28150639244E+02 -0.56855640802E+02  0.88817449283E+02  0.41800000000E+01 0. -1.
        -11    1    1    2    0    0  0.22722184083E+02 -0.55071884559E+01 -0.84930237911E+02  0.88089568542E+02  0.00000000000E+00 0. -1.
         11    1    1    2    0    0 -0.58945660649E+02  0.36249542907E+02 -0.88334607615E+02  0.11221240205E+03  0.00000000000E+00 0.  1.
</event>
<event>
 7    1  0.1620881E-005  0.9356950E+02  0.7561462E-02  0.1294431E+00
         -1   -1    0    0    0  501 -0.00000000000E+00  0.00000000000E+00  0.76427573666E+02  0.76427573666E+02  0.00000000000E+00 0.  1.
          1   -1    0    0  501    0  0.00000000000E+00 -0.00000000000E+00 -0.21150776427E+03  0.21150776427E+03  0.00000000000E+00 0. -1.
         23    2    1    2    0    0  0.48093244179E+02 -0.40614578657E+02 -0.54604161106E+02  0.15030298355E+03  0.12508744269E+03 0.  0.
          5    1    3    3  502    0  0.53706012554E+02  0.11045913572E+02  0.20664120328E+02  0.58743733794E+02  0.41800000000E+01 0.  1.
         -5    1    3    3    0  502 -0.56127683750E+01 -0.51660492229E+02 -0.75268281434E+02  0.91559249758E+02  0.41800000000E+01 0.  1.
        -11    1    1    2    0    0  0.94382051726E+01  0.13357859362E+02  0.15452973011E+02  0.22501255487E+02  0.00000000000E+00 0.  1.
         11    1    1    2    0    0 -0.57531449352E+02  0.27256719296E+02 -0.95929002512E+02  0.11513109890E+03  0.00000000000E+00 0. -1.
</event>
<event>
 6    1  0.1620881E-005  0.1286831E+03  0.7561462E-02  0.1229423E+00
          1   -1    0    0  501    0  0.00000000000E+00  0.00000000000E+00  0.53994583020E+03  0.53994583020E+03  0.00000000000E+00 0. -1.
         -1   -1    0    0    0  501 -0.00000000000E+00 -0.00000000000E+00 -0.41005855694E+02  0.41005855694E+02  0.00000000000E+00 0.  1.
          5    1    1    2  502    0 -0.81644818021E+02  0.70311004737E+02  0.19852008188E+03  0.22591416292E+03  0.41800000000E+01 0. -1.
         -5    1    1    2    0  502  0.63857138944E+02 -0.41946375471E+02  0.64571927645E+02  0.10012112089E+03  0.41800000000E+01 0.  1.
        -11    1    1    2    0    0  0.34117461888E+02  0.63083471920E+01  0.31042300055E+02  0.46555567257E+02  0.00000000000E+00 0. -1.
         11    1    1    2    0    0 -0.16329782811E+02 -0.34672976458E+02  0.20480566492E+03  0.20836083482E+03  0.00000000000E+00 0.  1.
</event>
<event>
 7    1  0.1620881E-005  0.9747736E+02  0.7561462E-02  0.1285692E+00
         -1   -1    0    0    0  501 -0.00000000000E+00  0.00000000000E+00  0.24798996775E+03  0.24798996775E+03  0.00000000000E+00 0.  1.
          1   -1    0    0  501    0  0.00000000000E+00 -0.00000000000E+00 -0.59428355706E+02  0.59428355706E+02  0.00000000000E+00 0. -1.
         23    2    1    2    0    0  0.26388705771E+02 -0.26204202765E+02  0.15343939564E+03  0.20142931752E+03  0.12508835992E+03 0.  0.
          5    1    3    3  502    0 -0.32378457304E+02 -0.10683325534E+02 -0.20679626523E+01  0.34412887286E+02  0.41800000000E+01 0. -1.
         -5    1    3    3    0  502  0.58767163074E+02 -0.15520877231E+02  0.15550735829E+03  0.16701643024E+03  0.41800000000E+01 0. -1.
        -11    1    1    2    0    0 -0.59562860567E+02  0.29263563370E+02  0.19333900549E+02  0.69122284471E+02  0.00000000000E+00 0. -1.
         11    1    1    2    0    0  0.33174154797E+02 -0.30593606054E+01  0.15788315854E+02  0.36866721461E+02  0.00000000000E+00 0.  1.
</event>
<event>
 7    1  0.1620881E-005  0.1439556E+03  0.7561462E-02  0.1208103E+00
          2   -1    0    0  501    0  0.00000000000E+00  0.00000000000E+00  0.45673241544E+03  0.45673241544E+03  0.00000000000E+00 0.  1.
         -2   -1    0    0    0  501 -0.00000000000E+00 -0.00000000000E+00 -0.56779194769E+02  0.56779194769E+02  0.00000000000E+00 0. -1.
         23    2    1    2    0    0  0.11303592715E+03  0.34999937361E+02  0.21306463822E+03  0.27394565061E+03  0.12509021939E+03 0.  0.
          5    1    3    3  502    0  0.14595550086E+02  0.63567885087E+02  0.54544255928E+02  0.85126108519E+02  0.41800000000E+01 0. -1.
         -5    1    3    3    0  502  0.98440377060E+02 -0.28567947726E+02  0.15852038230E+03  0.18881954209E+03  0.41800000000E+01 0. -1.
        -11    1    1    2    0    0 -0.41322585826E+02 -0.22892522966E+02  0.15148187751E+03  0.15867697666E+03  0.00000000000E+00 0.  1.
         11    1    1    2    0    0 -0.71713341320E+02 -0.12107414395E+02  0.35406704938E+02  0.80888982940E+02  0.00000000000E+00 0. -1.
</event>
<event>
 7    1  0.1620881E-005  0.5168799E+02  0.7561462E-02  0.1436444E+00
         -1   -1    0    0    0  501 -0.00000000000E+00  0.00000000000E+00  0.12479387729E+03  0.12479387729E+03  0.00000000000E+00 0.  1.
          1   -1    0    0  501    0  0.00000000000E+00 -0.00000000000E+00 -0.12779864537E+03  0.12779864537E+03  0.00000000000E+00 0. -1.
         23    2    1    2    0    0  0.18867895538E+02 -0.18320701212E+02  0.66242361740E+02  0.14396984931E+03  0.12509045305E+03 0.  0.
          5    1    3    3  502    0  0.46262125351E+01 -0.74748209442E+01 -0.37432736844E+02  0.38677603057E+02  0.41800000000E+01 0.  1.
         -5    1    3    3    0  502  0.14241683003E+02 -0.10845880267E+02  0.10367509858E+03  0.10529224625E+03  0.41800000000E+01 0.  1.
        -11    1    1    2    0    0  0.21401109757E+02 -0.12287839571E+02 -0.47573788736E+02  0.53593505902E+02  0.00000000000E+00 0. -1.
         11    1    1    2    0    0 -0.40269005296E+02  0.30608540782E+02 -0.21673341083E+02  0.55029167448E+02  0.00000000000E+00 0.  1.
</event>
<event>
 7    1  0.1620881E-005  0.1019154E+03  0.7561462E-02  0.1276319E+00
         -1   -1    0    0    0  501 -0.00000000000E+00  0.00000000000E+00  0.12039355191E+04  0.12039355191E+04  0.00000000000E+00 0.  1.
          1   -1    0    0  501    0  0.00000000000E+00 -0.00000000000E+00 -0.13979125108E+02  0.13979125108E+02  0.00000000000E+00 0. -1.
         23    2    1    2    0    0  0.51335987914E+02  0.49794050500E+02  0.72221622216E+03  0.73644970408E+03  0.12508822476E+03 0.  0.
          5    1    3    3  502    0 -0.93169771690E+01  0.44970770919E+02  0.88396253700E+02  0.99702288684E+02  0.41800000000E+01 0.  1.
         -5    1    3    3    0  502  0.60652965083E+02  0.48232795811E+01  0.63381996846E+03  0.63674741540E+03  0.41800000000E+01 0.  1.
        -11    1    1    2    0    0 -0.30828886039E+02 -0.64502301693E+02  0.43102097454E+03  0.43690965614E+03  0.00000000000E+00 0.  1.
         11    1    1    2    0    0 -0.20507101874E+02  0.14708251193E+02  0.36719197272E+02  0.44555283960E+02  0.00000000000E+00 0. -1.
</event>
<event>
 7    1  0.1620881E-005  0.1478624E+03  0.7561462E-02  0.1203125E+00
          1   -1    0    0  501    0  0.00000000000E+00  0.00000000000E+00  0.17641891579E+03  0.17641891579E+03  0.00000000000E+00 0. -1.
         -1   -1    0    0    0  501 -0.00000000000E+00 -0.00000000000E+00 -0.19097375434E+03  0.19097375434E+03  0.00000000000E+00 0.  1.
         23    2    1    2    0    0  0.10026295369E+03  0.75690159410E+02 -0.85615111028E+02  0.19687146880E+03  0.12508704120E+03 0.  0.
          5    1    3    3  502    0  0.40262817989E+02 -0.23695172038E+02  0.81205561488E+01  0.47602221823E+02  0.41800000000E+01 0.  1.
         -5    1    3    3    0  502  0.60000135705E+02  0.99385331448E+02 -0.93735667177E+02  0.14926924698E+03  0.41800000000E+01 0.  1.
        -11    1    1    2    0    0 -0.57996739376E+02 -0.17207884546E+02  0.77227748999E+02  0.98101265457E+02  0.00000000000E+00 0. -1.
         11    1    1    2    0    0 -0.42266214318E+02 -0.58482274864E+02 -0.61674765163E+01  0.72419935878E+02  0.00000000000E+00 0.  1.
</event>
<event>
 7    1  0.1620881E-005  0.7233629E+02  0.7561462E-02  0.1352324E+00
          1   -1    0    0  501    0  0.00000000000E+00  0.00000000000E+00  0.20577533696E+03  0.20577533696E+03  0.00000000000E+00 0. -1.
         -1   -1    0    0    0  501 -0.00000000000E+00 -0.00000000000E+00 -0.14178191192E+03  0.14178191192E+03  0.00000000000E+00 0.  1.
         23    2    1    2    0    0 -0.30779607302E+02  0.15710655549E+00 -0.24109908055E+02  0.13105659548E+03  0.12508850724E+03 0.  0.
          5    1    3    3  502    0 -0.27068188238E+02  0.32270781235E+02 -0.65737239113E+02  0.78185338410E+02  0.41800000000E+01 0.  1.
         -5    1    3    3    0  502 -0.37114190637E+01 -0.32113674680E+02  0.41627331058E+02  0.52871257068E+02  0.41800000000E+01 0.  1.
        -11    1    1    2    0    0  0.31768687061E+02 -0.27723854616E+02  0.14621562305E+03  0.15217381514E+03  0.00000000000E+00 0. -1.
         11    1    1    2    0    0 -0.98907975859E+00  0.27566748061E+02 -0.58112289947E+02  0.64326838258E+02  0.00000000000E+00 0.  1.
</event>
<event>
 6    1  0.1620881E-005  0.1043839E+03  0.7561462E-02  0.1271338E+00
         -2   -1    0    0    0  501 -0.00000000000E+00  0.00000000000E+00  0.65837187355E+02  0.65837187355E+02  0.00000000000E+00 0.  1.
          2   -1    0    0  501    0  0.00000000000E+00 -0.00000000000E+00 -0.50348004368E+03  0.50348004368E+03  0.00000000000E+00 0. -1.
          5    1    1    2  502    0 -0.34852367576E+02 -0.16531100796E+02 -0.28273914208E+03  0.28538896209E+03  0.41800000000E+01 0. -1.
         -5    1    1    2    0  502  0.60921834772E+02  0.48887068905E+02  0.22848242438E+02  0.81491901688E+02  0.41800000000E+01 0.  1.
        -11    1    1    2    0    0 -0.55648556464E+02 -0.26306335213E+02 -0.85372684801E+02  0.10524865994E+03  0.00000000000E+00 0.  1.
         11    1    1    2    0    0  0.29579089267E+02 -0.60496328958E+01 -0.92379271883E+02  0.97187707318E+02  0.00000000000E+00 0. -1.
</event>
<event>
 7    1  0.1620881E-005  0.1086794E+03  0.7561462E-02  0.1263035E+00
          2   -1    0    0  501    0  0.00000000000E+00  0.00000000000E+00  0.57690306533E+02  0.57690306533E+02  0.00000000000E+00 0. -1.
         -2   -1    0    0    0  501 -0.00000000000E+00 -0.00000000000E+00 -0.23573379244E+03  0.23573379244E+03  0.00000000000E+00 0.  1.
         23    2    1    2    0    0 -0.28586093164E+02  0.32306294206E+02 -0.95828060521E+02  0.16337846628E+03  0.12509454302E+03 0.  0.
          5    1    3    3  502    0  0.18118681856E+02  0.59544125257E+02 -0.11975993946E+02  0.63519180692E+02  0.41800000000E+01 0. -1.
         -5    1    3    3    0  502 -0.46704775020E+02 -0.27237831051E+02 -0.83852066576E+02  0.99859285592E+02  0.41800000000E+01 0. -1.
        -11    1    1    2    0    0 -0.33075073836E+02 -0.55628428541E+01 -0.26552501754E+02  0.42777810594E+02  0.00000000000E+00 0.  1.
         11    1    1    2    0    0  0.61661167000E+02 -0.26743451352E+02 -0.55662923635E+02  0.87267822098E+02  0.00000000000E+00 0. -1.
</event>
<event>
 7    1  0.1620881E-005  0.1231851E+03  0.7561462E-02  0.1237933E+00
         -1   -1    0    0    0  501 -0.00000000000E+00  0.00000000000E+00  0.71080826611E+03  0.71080826611E+03  0.00000000000E+00 0.  1.
          1   -1    0    0  501    0  0.00000000000E+00 -0.00000000000E+00 -0.45372916913E+02  0.45372916913E+02  0.00000000000E+00 0. -1.
         23    2    1    2    0    0  0.96178847035E+02  0.21614718329E+02  0.56856394859E+03  0.59044880806E+03  0.12508902681E+03 0.  0.
          5    1    3    3  502    0  0.28688990258E+02 -0.20761474307E+02  0.42254343733E+03  0.42404542895E+03  0.41800000000E+01 0.  1.
         -5    1    3    3    0  502  0.67489856777E+02  0.42376192635E+02  0.14602051126E+03  0.16640337911E+03  0.41800000000E+01 0.  1.
        -11    1    1    2    0    0 -0.86322150768E+02 -0.50762380927E+02  0.88993327384E+02  0.13397068840E+03  0.00000000000E+00 0.  1.
         11    1    1    2    0    0 -0.98566962667E+01  0.29147662599E+02  0.78780732218E+01  0.31761686573E+02  0.00000000000E+00 0. -1.
</event>
<event>
 7    1  0.1620881E-005  0.9994766E+02  0.7561462E-02  0.1280406E+00
          1   -1    0    0  501    0  0.00000000000E+00  0.00000000000E+00  0.11503080924E+03  0.11503080924E+03  0.00000000000E+00 0. -1.
         -1   -1    0    0    0  501 -0.00000000000E+00 -0.00000000000E+00 -0.92427752899E+02  0.92427752899E+02  0.00000000000E+00 0.  1.
         23    2    1    2    0    0  0.15203452488E+02 -0.87984738727E+01  0.33863387606E+02  0.11809599474E+03  0.11176482830E+03 0.  0.
          5    1    3    3  502    0 -0.48163527363E+02  0.33782003034E+01  0.13629531915E+02  0.50342567927E+02  0.41800000000E+01 0. -1.
         -5    1    3    3    0  502  0.63366979850E+02 -0.12176674176E+02  0.20233855691E+02  0.67753426817E+02  0.41800000000E+01 0.  1.
        -11    1    1    2    0    0 -0.42995362405E+02 -0.19408526678E+02 -0.15218161437E+02  0.49566970189E+02  0.00000000000E+00 0. -1.
         11    1    1    2    0    0  0.27791909918E+02  0.28207000551E+02  0.39578301675E+01  0.39795597201E+02  0.00000000000E+00 0.  1.
</event>
<event>
 7    1  0.1620881E-005  0.1586762E+03  0.7561462E-02  0.1190199E+00
         -1   -1    0    0    0  501 -0.00000000000E+00  0.00000000000E+00  0.89622141071E+02  0.89622141071E+02  0.00000000000E+00 0.  1.
          1   -1    0    0  501    0  0.00000000000E+00 -0.00000000000E+00 -0.36925018486E+03  0.36925018486E+03  0.00000000000E+00 0. -1.
         23    2    1    2    0    0 -0.51156980180E+01  0.11327093303E+03 -0.35131388946E+02  0.17244708022E+03  0.12508919359E+03 0.  0.
          5    1    3    3  502    0 -0.58020154572E+01  0.14060882984E+03 -0.25040567162E+02  0.14300003083E+03  0.41800000000E+01 0. -1.
         -5    1    3    3    0  502  0.68631743919E+00 -0.27337896812E+02 -0.10090821784E+02  0.29447049394E+02  0.41800000000E+01 0. -1.
        -11    1    1    2    0    0  0.46220378965E+02 -0.91197043966E+02 -0.15923608098E+03  0.18923359571E+03  0.00000000000E+00 0.  1.
         11    1    1    2    0    0 -0.41104680947E+02 -0.22073889064E+02 -0.85260573862E+02  0.97191649999E+02  0.00000000000E+00 0. -1.
</event>
<event>
 7    1  0.1620881E-005  0.1004552E+03  0.7561462E-02  0.1279342E+00
          2   -1    0    0  501    0  0.00000000000E+00  0.00000000000E+00  0.68473613539E+03  0.68473613539E+03  0.00000000000E+00 0.  1.
         -2   -1    0    0    0  501 -0.00000000000E+00 -0.00000000000E+00 -0.19425359803E+02  0.19425359803E+02  0.00000000000E+00 0. -1.
         23    2    1    2    0    0  0.17492763075E+02 -0.13989547575E+02  0.32892097694E+03  0.35262065222E+03  0.12510240244E+03 0.  0.
          5    1    3    3  502    0  0.18985359136E+02 -0.54616250771E+02  0.29149731023E+03  0.29720621289E+03  0.41800000000E+01 0. -1.
         -5    1    3    3    0  502 -0.14925960617E+01  0.40626703197E+02  0.37423666714E+02  0.55414439328E+02  0.41800000000E+01 0. -1.
        -11    1    1    2    0    0 -0.54489912688E+02  0.29487732241E+02  0.20784076353E+03  0.21687890613E+03  0.00000000000E+00 0.  1.
         11    1    1    2    0    0  0.36997149613E+02 -0.15498184667E+02  0.12854903511E+03  0.13466193685E+03  0.00000000000E+00 0. -1.
</event>
<event>
 7    1  0.3067159E-005  0.1762869E+03  0.7561462E-02  0.1171446E+00
          1   -1    0    0  501    0  0.00000000000E+00  0.00000000000E+00  0.10192890712E+04  0.10192890712E+04  0.00000000000E+00 0. -1.
         -1   -1    0    0    0  501 -0.00000000000E+00 -0.00000000000E+00 -0.42656214017E+02  0.42656214017E+02  0.00000000000E+00 0.  1.
         23    2    1    2    0    0  0.12396992660E+03  0.12482642351E+03  0.44552413335E+03  0.49506481858E+03  0.12508893834E+03 0.  0.
          5    1    3    3  502    0  0.11346445721E+03  0.11429162291E+03  0.24058220071E+03  0.28954106068E+03  0.41800000000E+01 0. -1.
         -5    1    3    3    0  502  0.10505469382E+02  0.10534800600E+02  0.20494193263E+03  0.20552375790E+03  0.41800000000E+01 0. -1.
        -11    1    1    2    0    0 -0.95359340802E+02 -0.92580928416E+02  0.48854015688E+03  0.50629647152E+03  0.00000000000E+00 0. -1.
         11    1    1    2    0    0 -0.28610585794E+02 -0.32245495095E+02  0.42568566990E+02  0.60583995155E+02  0.00000000000E+00 0.  1.
</event>
<event>
 7    1  0.1620881E-005  0.1206310E+03  0.7561462E-02  0.1242060E+00
          3   -1    0    0  501    0  0.00000000000E+00  0.00000000000E+00  0.29939478067E+03  0.29939478067E+03  0.00000000000E+00 0. -1.
         -3   -1    0    0    0  501 -0.00000000000E+00 -0.00000000000E+00 -0.87954858257E+02  0.87954858257E+02  0.00000000000E+00 0.  1.
         23    2    1    2    0    0 -0.69351317552E+02  0.76080470306E+02  0.39155125924E+02  0.16667075625E+03  0.12509266123E+03 0.  0.
          5    1    3    3  502    0 -0.64118129611E+02  0.60765249757E+01  0.65140652943E+02  0.91699704288E+02  0.41800000000E+01 0. -1.
         -5    1    3    3    0  502 -0.52331879403E+01  0.70003945331E+02 -0.25985527019E+02  0.74971051962E+02  0.41800000000E+01 0. -1.
        -11    1    1    2    0    0  0.19736742171E+02 -0.41399131618E+02  0.92742371192E+01  0.46791436870E+02  0.00000000000E+00 0.  1.
         11    1    1    2    0    0  0.49614575381E+02 -0.34681338689E+02  0.16301055937E+03  0.17388744581E+03  0.00000000000E+00 0. -1.
</event>
<event>
 7    1  0.1620881E-005  0.9245593E+02  0.7561462E-02  0.1297011E+00
          1   -1    0    0  501    0  0.00000000000E+00  0.00000000000E+00  0.68146941020E+02  0.68146941020E+02  0.00000000000E+00 0. -1.
         -1   -1    0    0    0  501 -0.00000000000E+00 -0.00000000000E+00 -0.18693767017E+03  0.18693767017E+03  0.00000000000E+00 0.  1.
         23    2    1    2    0    0 -0.99833521564E+01  0.20730491531E+02 -0.89495417671E+02  0.15551979880E+03  0.12509019719E+03 0.  0.
          5    1    3    3  502    0  0.55831828106E+01 -0.39280467948E+02  0.72400775459E+01  0.40546494489E+02  0.41800000000E+01 0.  1.
         -5    1    3    3    0  502 -0.15566534967E+02  0.60010959479E+02 -0.96735495217E+02  0.11497330431E+03  0.41800000000E+01 0.  1.
        -11    1    1    2    0    0  0.41525696448E+02  0.54571255273E+01 -0.39225366771E+02  0.57382864018E+02  0.00000000000E+00 0.  1.
         11    1    1    2    0    0 -0.31542344292E+02 -0.26187617058E+02  0.99300552938E+01  0.42181948375E+02  0.00000000000E+00 0. -1.
</event>
<event>
 7    1  0.1620881E-005  0.1035878E+03  0.7561462E-02  0.1272927E+00
          1   -1    0    0  501    0  0.00000000000E+00  0.00000000000E+00  0.22791916886E+03  0.22791916886E+03  0.00000000000E+00 0. -1.
         -1   -1    0    0    0  501 -0.00000000000E+00 -0.00000000000E+00 -0.10001738787E+03  0.10001738787E+03  0.00000000000E+00 0.  1.
         23    2    1    2    0    0  0.56961221865E+01  0.97605196989E+02  0.32792284937E+02  0.16185760358E+03  0.12475307450E+03 0.  0.
          5    1    3    3  502    0  0.12353037343E+02  0.67588533276E+01  0.63857772049E+02  0.65525316336E+02  0.41800000000E+01 0.  1.
         -5    1    3    3    0  502 -0.66569151561E+01  0.90846343662E+02 -0.31065487112E+02  0.96332287244E+02  0.41800000000E+01 0.  1.
        -11    1    1    2    0    0 -0.16123032666E+02 -0.68890403010E+02  0.49961387636E+01  0.70928141183E+02  0.00000000000E+00 0.  1.
         11    1    1    2    0    0  0.10426910479E+02 -0.28714793979E+02  0.90113357288E+02  0.95150811963E+02  0.00000000000E+00 0. -1.
</event>
<event>
 7    1  0.1620881E-005  0.1424678E+03  0.7561462E-02  0.1210046E+00
         -1   -1    0    0    0  501 -0.00000000000E+00  0.00000000000E+00  0.11626045629E+03  0.11626045629E+03  0.00000000000E+00 0.  1.
          1   -1    0    0  501    0  0.00000000000E+00 -0.00000000000E+00 -0.30567583298E+03  0.30567583298E+03  0.00000000000E+00 0. -1.
         23    2    1    2    0    0  0.10587343057E+03  0.77155712298E+02 -0.96522912654E+01  0.18138909142E+03  0.12508656410E+03 0.  0.
          5    1    3    3  502    0  0.11183115344E+03  0.76109671562E+02 -0.47044112502E+02  0.14328122664E+03  0.41800000000E+01 0.  1.
         -5    1    3    3    0  502 -0.59577228700E+01  0.10460407359E+01  0.37391821237E+02  0.38107864784E+02  0.41800000000E+01 0.  1.
        -11    1    1    2    0    0 -0.40048258249E+02  0.10021763600E+01 -0.82497284978E+01  0.40901410324E+02  0.00000000000E+00 0.  1.
         11    1    1    2    0    0 -0.65825172321E+02 -0.78157888658E+02 -0.17151335693E+03  0.19964578753E+03  0.00000000000E+00 0. -1.
</event>
<event>
 6    1  0.1620881E-005  0.1902469E+03  0.7561462E-02  0.1158239E+00
          1   -1    0    0  501    0  0.00000000000E+00  0.00000000000E+00  0.68009707102E+03  0.68009707102E+03  0.00000000000E+00 0. -1.
         -1   -1    0    0    0  501 -0.00000000000E+00 -0.00000000000E+00 -0.11911811714E+03  0.11911811714E+03  0.00000000000E+00 0.  1.
          5    1    1    2  502    0  0.18800074233E+01  0.13875249833E+02 -0.38512531020E+02  0.41191557768E+02  0.41800000000E+01 0. -1.
         -5    1    1    2    0  502  0.14565072808E+03 -0.10037347846E+03  0.63526371838E+02  0.18799479271E+03  0.41800000000E+01 0.  1.
        -11    1    1    2    0    0 -0.63314689758E+02 -0.63029432829E+01  0.24693199955E+03  0.25499782241E+03  0.00000000000E+00 0.  1.
         11    1    1    2    0    0 -0.84216045741E+02  0.92801171915E+02  0.28903311351E+03  0.31503101526E+03  0.00000000000E+00 0. -1.
</event>
<event>
 6    1  0.1620881E-005  0.1423226E+03  0.7561462E-02  0.1210237E+00
         -1   -1    0    0    0  501 -0.00000000000E+00  0.00000000000E+00  0.14507353423E+03  0.14507353423E+03  0.00000000000E+00 0.  1.
          1   -1    0    0  501    0  0.00000000000E+00 -0.00000000000E+00 -0.23312039627E+03  0.23312039627E+03  0.00000000000E+00 0. -1.
          5    1    1    2  502    0  0.11223572288E+03 -0.55418159668E+01  0.57594432862E+02  0.12634144337E+03  0.41800000000E+01 0. -1.
         -5    1    1    2    0  502 -0.41271843588E+02  0.41073723079E+02  0.56766483180E+01  0.58652472556E+02  0.41800000000E+01 0.  1.
        -11    1    1    2    0    0  0.16078183629E+02  0.62713790143E+01 -0.51363091864E+01  0.18006106065E+02  0.00000000000E+00 0.  1.
         11    1    1    2    0    0 -0.87042062923E+02 -0.41803286127E+02 -0.14618163404E+03  0.17519390851E+03  0.00000000000E+00 0. -1.
</event>
<event>
 7    1  0.1620881E-005  0.2170144E+03  0.7561462E-02  0.1136129E+00
          1   -1    0    0  501    0  0.00000000000E+00  0.00000000000E+00  0.20576761096E+03  0.20576761096E+03  0.00000000000E+00 0. -1.
         -1   -1    0    0    0  501 -0.00000000000E+00 -0.00000000000E+00 -0.26359007738E+03  0.26359007738E+03  0.00000000000E+00 0.  1.
         23    2    1    2    0    0 -0.15014161365E+02 -0.19958134968E+03 -0.78328032535E+02  0.24867849059E+03  0.12509025069E+03 0.  0.
          5    1    3    3  502    0 -0.18490135420E+01  0.16453968355E+02 -0.16016040649E+02  0.23412344688E+02  0.41800000000E+01 0.  1.
         -5    1    3    3    0  502 -0.13165147823E+02 -0.21603531803E+03 -0.62311991887E+02  0.22526614590E+03  0.41800000000E+01 0.  1.
        -11    1    1    2    0    0  0.30105442642E+00  0.78869562910E+02  0.52734344615E+02  0.94875759229E+02  0.00000000000E+00 0. -1.
         11    1    1    2    0    0  0.14713106939E+02  0.12071178677E+03 -0.32228778492E+02  0.12580343852E+03  0.00000000000E+00 0.  1.
</event>
<event>
 7    1  0.1620881E-005  0.1063632E+03  0.7561462E-02  0.1267457E+00
          1   -1    0    0  501    0  0.00000000000E+00  0.00000000000E+00  0.86851370686E+02  0.86851370686E+02  0.00000000000E+00 0. -1.
         -1   -1    0    0    0  501 -0.00000000000E+00 -0.00000000000E+00 -0.20037541663E+03  0.20037541663E+03  0.00000000000E+00 0.  1.
         23    2    1    2    0    0  0.66368463843E+02  0.12805821483E+02 -0.98780314682E+02  0.17313025751E+03  0.12509106059E+03 0.  0.
          5    1    3    3  502    0 -0.29186328451E+02 -0.25359481585E+02 -0.22031878590E+02  0.44696992616E+02  0.41800000000E+01 0. -1.
         -5    1    3    3    0  502  0.95554792294E+02  0.38165303068E+02 -0.76748436092E+02  0.12843326489E+03  0.41800000000E+01 0. -1.
        -11    1    1    2    0    0 -0.14283398438E+02  0.59841704859E+01 -0.47363997932E+02  0.49831456606E+02  0.00000000000E+00 0.  1.
         11    1    1    2    0    0 -0.52085065405E+02 -0.18789991969E+02  0.32620266667E+02  0.64265073204E+02  0.00000000000E+00 0. -1.
</event>
<event>
 7    1  0.1620881E-005  0.1627313E+03  0.7561462E-02  0.1185647E+00
         -1   -1    0    0    0  501 -0.00000000000E+00  0.00000000000E+00  0.11545622387E+03  0.11545622387E+03  0.00000000000E+00 0.  1.
          1   -1    0    0  501    0  0.00000000000E+00 -0.00000000000E+00 -0.30052447578E+03  0.30052447578E+03  0.00000000000E+00 0. -1.
         23    2    1    2    0    0  0.13192792893E+03 -0.52372721173E+02 -0.14805692156E+03  0.24023970799E+03  0.12508551043E+03 0.  0.
          5    1    3    3  502    0  0.59785053774E+02 -0.65514922867E+02 -0.17587685824E+02  0.90516610994E+02  0.41800000000E+01 0. -1.
         -5    1    3    3    0  502  0.72142875151E+02  0.13142201694E+02 -0.13046923574E+03  0.14972309700E+03  0.41800000000E+01 0. -1.
        -11    1    1    2    0    0 -0.11105372898E+03  0.46700382514E+01  0.11939974663E+01  0.11115829077E+03  0.00000000000E+00 0.  1.
         11    1    1    2    0    0 -0.20874199947E+02  0.47702682922E+02 -0.38205327812E+02  0.64582700892E+02  0.00000000000E+00 0. -1.
</event>
<event>
 6    1  0.1620881E-005  0.1119902E+03  0.7561462E-02  0.1256928E+00
         -1   -1    0    0    0  501 -0.00000000000E+00  0.00000000000E+00  0.78894411278E+02  0.78894411278E+02  0.00000000000E+00 0.  1.
          1   -1    0    0  501    0  0.00000000000E+00 -0.00000000000E+00 -0.19605660465E+03  0.19605660465E+03  0.00000000000E+00 0. -1.
          5    1    1    2  502    0 -0.24570348538E+02 -0.49421848370E+02 -0.36776347621E+02  0.66454445058E+02  0.41800000000E+01 0. -1.
         -5    1    1    2    0  502  0.62842884264E+01  0.88917586273E+02 -0.17689239559E+02  0.90973683150E+02  0.41800000000E+01 0.  1.
        -11    1    1    2    0    0 -0.21350806528E+02 -0.32884906593E+02 -0.66459128020E+02  0.77162748254E+02  0.00000000000E+00 0. -1.
         11    1    1    2    0    0  0.39636866639E+02 -0.66108313099E+01  0.37625218233E+01  0.40360139470E+02  0.00000000000E+00 0.  1.
</event>
<event>
 6    1  0.1620881E-005  0.1192208E+03  0.7561462E-02  0.1244388E+00
          1   -1    0    0  501    0  0.00000000000E+00  0.00000000000E+00  0.13604454043E+03  0.13604454043E+03  0.00000000000E+00 0. -1.
         -1   -1    0    0    0  501 -0.00000000000E+00 -0.00000000000E+00 -0.11369086470E+03  0.11369086470E+03  0.00000000000E+00 0.  1.
          5    1    1    2  502    0  0.60883006176E+02 -0.31703088077E+01  0.32925010157E+02  0.69414119549E+02  0.41800000000E+01 0. -1.
         -5    1    1    2    0  502 -0.74694494492E+02  0.52148182880E+02 -0.13262375119E+02  0.92152392693E+02  0.41800000000E+01 0.  1.
        -11    1    1    2    0    0 -0.24563170885E+02 -0.83925894736E+00  0.92444082543E+01  0.26258575808E+02  0.00000000000E+00 0.  1.
         11    1    1    2    0    0  0.38374659201E+02 -0.48138615125E+02 -0.65533675621E+01  0.61910317083E+02  0.00000000000E+00 0. -1.
</event>
<event>
 7    1  0.1620881E-005  0.9420458E+02  0.7561462E-02  0.1292978E+00
         -1   -1    0    0    0  501 -0.00000000000E+00  0.00000000000E+00  0.65292963905E+02  0.65292963905E+02  0.00000000000E+00 0. -1.
          1   -1    0    0  501    0  0.00000000000E+00 -0.00000000000E+00 -0.17271830005E+03  0.17271830005E+03  0.00000000000E+00 0.  1.
         23    2    1    2    0    0 -0.37085239518E+01 -0.10200035773E+02 -0.58463610956E+02  0.13850445060E+03  0.12509074766E+03 0.  0.
          5    1    3    3  502    0 -0.59286955801E+02  0.15539764428E+01 -0.38298659528E+01  0.59577665649E+02  0.41800000000E+01 0. -1.
         -5    1    3    3    0  502  0.55578431849E+02 -0.11754012216E+02 -0.54633745003E+02  0.78926784953E+02  0.41800000000E+01 0. -1.
        -11    1    1    2    0    0 -0.24056158128E+02 -0.19771025153E+02 -0.49695614329E+02  0.58645087288E+02  0.00000000000E+00 0.  1.
         11    1    1    2    0    0  0.27764682080E+02  0.29971060926E+02  0.73388913665E+00  0.40861726068E+02  0.00000000000E+00 0. -1.
</event>
<event>
 7    1  0.1620881E-005  0.1408200E+03  0.7561462E-02  0.1212230E+00
          1   -1    0    0  501    0  0.00000000000E+00  0.00000000000E+00  0.26391039303E+03  0.26391039303E+03  0.00000000000E+00 0. -1.
         -1   -1    0    0    0  501 -0.00000000000E+00 -0.00000000000E+00 -0.15646009749E+03  0.15646009749E+03  0.00000000000E+00 0.  1.
         23    2    1    2    0    0  0.96400865677E+02 -0.30676877253E+01 -0.75536889016E+02  0.17509451089E+03  0.12509887501E+03 0.  0.
          5    1    3    3  502    0 -0.19143915280E+01  0.19980494473E+02  0.25139501612E+02  0.32439975271E+02  0.41800000000E+01 0.  1.
         -5    1    3    3    0  502  0.98315257205E+02 -0.23048182198E+02 -0.10067639063E+03  0.14265453562E+03  0.41800000000E+01 0.  1.
        -11    1    1    2    0    0 -0.47105722474E+02 -0.62359256017E+02  0.65059636447E+02  0.10168766983E+03  0.00000000000E+00 0. -1.
         11    1    1    2    0    0 -0.49295143203E+02  0.65426943743E+02  0.11792754810E+03  0.14358830980E+03  0.00000000000E+00 0.  1.
</event>
<event>
 7    1  0.1620881E-005  0.1699063E+03  0.7561462E-02  0.1177946E+00
         -2   -1    0    0    0  501 -0.00000000000E+00  0.00000000000E+00  0.26813883548E+02  0.26813883548E+02  0.00000000000E+00 0.  1.
          2   -1    0    0  501    0  0.00000000000E+00 -0.00000000000E+00 -0.13412398353E+04  0.13412398353E+04  0.00000000000E+00 0. -1.
         23    2    1    2    0    0  0.12798887225E+03 -0.85076560603E+02 -0.76588047947E+03  0.79110149081E+03  0.12509791103E+03 0.  0.
          5    1    3    3  502    0  0.12588916672E+03 -0.90611750028E+02 -0.76802624518E+03  0.78354346224E+03  0.41800000000E+01 0. -1.
         -5    1    3    3    0  502  0.20997055336E+01  0.55351894256E+01  0.21457657101E+01  0.75580285649E+01  0.41800000000E+01 0. -1.
        -11    1    1    2    0    0 -0.67072144807E+02 -0.65298533989E+01 -0.24446506960E+03  0.25358328385E+03  0.00000000000E+00 0. -1.
         11    1    1    2    0    0 -0.60916727447E+02  0.91606414002E+02 -0.30408040269E+03  0.32336894419E+03  0.00000000000E+00 0.  1.
</event>
<event>
 7    1  0.1620881E-005  0.1681106E+03  0.7561462E-02  0.1179833E+00
          2   -1    0    0  501    0  0.00000000000E+00  0.00000000000E+00  0.14636952244E+04  0.14636952244E+04  0.00000000000E+00 0. -1.
         -2   -1    0    0    0  501 -0.00000000000E+00 -0.00000000000E+00 -0.28563810698E+02  0.28563810698E+02  0.00000000000E+00 0.  1.
         23    2    1    2    0    0  0.11972086282E+03 -0.11534437554E+03  0.57395206950E+03  0.61049366365E+03  0.12507647786E+03 0.  0.
          5    1    3    3  502    0  0.71982766407E+02 -0.64968633584E+02  0.13613615028E+03  0.16719140475E+03  0.41800000000E+01 0. -1.
         -5    1    3    3    0  502  0.47738096417E+02 -0.50375741960E+02  0.43781591922E+03  0.44330225890E+03  0.41800000000E+01 0. -1.
        -11    1    1    2    0    0 -0.10351671210E+03  0.80242300923E+02  0.78981638068E+03  0.80060255541E+03  0.00000000000E+00 0. -1.
         11    1    1    2    0    0 -0.16204150721E+02  0.35102074621E+02  0.71362963520E+02  0.81162816029E+02  0.00000000000E+00 0.  1.
</event>
<event>
 6    1  0.1620881E-005  0.2148170E+03  0.7561462E-02  0.1137807E+00
          1   -1    0    0  501    0  0.00000000000E+00  0.00000000000E+00  0.72706287795E+03  0.72706287795E+03  0.00000000000E+00 0. -1.
         -1   -1    0    0    0  501 -0.00000000000E+00 -0.00000000000E+00 -0.82416806863E+02  0.82416806863E+02  0.00000000000E+00 0.  1.
          5    1    1    2  502    0  0.19240974781E+02 -0.84579759890E+01  0.43331449127E+02  0.48340866271E+02  0.41800000000E+01 0. -1.
         -5    1    1    2    0  502 -0.11878182566E+03  0.16656468075E+03  0.12064360355E+03  0.23754003127E+03  0.41800000000E+01 0.  1.
        -11    1    1    2    0    0  0.35655163894E+02 -0.29374710316E+01  0.50777773345E+02  0.62115229326E+02  0.00000000000E+00 0.  1.
         11    1    1    2    0    0  0.63885686983E+02 -0.15516923373E+03  0.42989324507E+03  0.46148355794E+03  0.00000000000E+00 0. -1.
</event>
<event>
 7    1  0.1620881E-005  0.1550447E+03  0.7561462E-02  0.1194408E+00
         -1   -1    0    0    0  501 -0.00000000000E+00  0.00000000000E+00  0.75886512131E+03  0.75886512131E+03  0.00000000000E+00 0.  1.
          1   -1    0    0  501    0  0.00000000000E+00 -0.00000000000E+00 -0.47788589647E+02  0.47788589647E+02  0.00000000000E+00 0. -1.
         23    2    1    2    0    0 -0.13824034762E+03  0.18256493693E+02  0.50091244758E+03  0.53479395115E+03  0.12509035447E+03 0.  0.
          5    1    3    3  502    0 -0.11634766179E+03  0.11904197791E+02  0.19090311551E+03  0.22391953965E+03  0.41800000000E+01 0. -1.
         -5    1    3    3    0  502 -0.21892685836E+02  0.63522959026E+01  0.31000933207E+03  0.31087441150E+03  0.41800000000E+01 0. -1.
        -11    1    1    2    0    0  0.10057646785E+03  0.33379785519E+02  0.15298267510E+03  0.18610087278E+03  0.00000000000E+00 0.  1.
         11    1    1    2    0    0  0.37663879772E+02 -0.51636279213E+02  0.57181408981E+02  0.85758887023E+02  0.00000000000E+00 0. -1.
</event>
<event>
 7    1  0.1620881E-005  0.7822293E+02  0.7561462E-02  0.1334171E+00
         -3   -1    0    0    0  501 -0.00000000000E+00  0.00000000000E+00  0.48119066872E+03  0.48119066872E+03  0.00000000000E+00 0.  1.
          3   -1    0    0  501    0  0.00000000000E+00 -0.00000000000E+00 -0.36394284489E+02  0.36394284489E+02  0.00000000000E+00 0. -1.
         23    2    1    2    0    0  0.61639307113E+02 -0.14455751998E+02  0.33141853988E+03  0.35985275727E+03  0.12508950951E+03 0.  0.
          5    1    3    3  502    0  0.60787848978E+02 -0.16713292944E+02  0.34222973974E+03  0.34801316629E+03  0.41800000000E+01 0.  1.
         -5    1    3    3    0  502  0.85145813468E+00  0.22575409461E+01 -0.10811199864E+02  0.11839590980E+02  0.41800000000E+01 0.  1.
        -11    1    1    2    0    0 -0.70883070572E+02 -0.46588966325E+00  0.38180133081E+02  0.80513038131E+02  0.00000000000E+00 0. -1.
         11    1    1    2    0    0  0.92437634599E+01  0.14921641662E+02  0.75197711270E+02  0.77219157810E+02  0.00000000000E+00 0.  1.
</event>
<event>
 7    1  0.1620881E-005  0.9063201E+02  0.7561462E-02  0.1301328E+00
         -2   -1    0    0    0  501 -0.00000000000E+00  0.00000000000E+00  0.50134359835E+02  0.50134359835E+02  0.00000000000E+00 0.  1.
          2   -1    0    0  501    0  0.00000000000E+00 -0.00000000000E+00 -0.30601460623E+03  0.30601460623E+03  0.00000000000E+00 0. -1.
         23    2    1    2    0    0  0.83759821623E+01 -0.50003223919E+02 -0.96792921324E+02  0.16609327893E+03  0.12509048008E+03 0.  0.
          5    1    3    3  502    0  0.37972084476E+02 -0.38867410681E+02  0.93207849004E+01  0.55289277836E+02  0.41800000000E+01 0. -1.
         -5    1    3    3    0  502 -0.29596102314E+02 -0.11135813238E+02 -0.10611370622E+03  0.11080400109E+03  0.41800000000E+01 0. -1.
        -11    1    1    2    0    0  0.26907538617E+02 -0.70240964550E+01 -0.16123574528E+02  0.32145345246E+02  0.00000000000E+00 0.  1.
         11    1    1    2    0    0 -0.35283520779E+02  0.57027320374E+02 -0.14296375054E+03  0.15791034189E+03  0.00000000000E+00 0. -1.
</event>
<event>
 7    1  0.1620881E-005  0.9627521E+02  0.7561462E-02  0.1288330E+00
          2   -1    0    0  501    0  0.00000000000E+00  0.00000000000E+00  0.40867899986E+03  0.40867899986E+03  0.00000000000E+00 0. -1.
         -2   -1    0    0    0  501 -0.00000000000E+00 -0.00000000000E+00 -0.54473602903E+02  0.54473602903E+02  0.00000000000E+00 0.  1.
         23    2    1    2    0    0 -0.26599859307E+02  0.28423247820E+02  0.44602374526E+02  0.13836783819E+03  0.12506339712E+03 0.  0.
          5    1    3    3  502    0  0.15138593741E+02 -0.39560348139E+02  0.39908303955E+02  0.58346750465E+02  0.41800000000E+01 0.  1.
         -5    1    3    3    0  502 -0.41738453048E+02  0.67983595958E+02  0.46940705714E+01  0.80021087725E+02  0.41800000000E+01 0.  1.
        -11    1    1    2    0    0 -0.17895064289E+02 -0.11871052373E+01  0.97224710155E+01  0.20400220278E+02  0.00000000000E+00 0.  1.
         11    1    1    2    0    0  0.44494923596E+02 -0.27236142582E+02  0.29988055141E+03  0.30438454429E+03  0.00000000000E+00 0. -1.
</event>
<event>
 7    1  0.1620881E-005  0.1107760E+03  0.7561462E-02  0.1259140E+00
          1   -1    0    0  501    0  0.00000000000E+00  0.00000000000E+00  0.46106152553E+03  0.46106152553E+03  0.00000000000E+00 0. -1.
         -1   -1    0    0    0  501 -0.00000000000E+00 -0.00000000000E+00 -0.44317159380E+02  0.44317159380E+02  0.00000000000E+00 0.  1.
         23    2    1    2    0    0  0.41716875207E+02 -0.61869523224E+02  0.13182986660E+03  0.19645419275E+03  0.12508797120E+03 0.  0.
          5    1    3    3  502    0  0.58730840426E+02 -0.14984634448E+01  0.11830244322E+03  0.13215331052E+03  0.41800000000E+01 0.  1.
         -5    1    3    3    0  502 -0.17013965219E+02 -0.60371059780E+02  0.13527423376E+02  0.64300882223E+02  0.41800000000E+01 0.  1.
        -11    1    1    2    0    0 -0.19574096448E+02 -0.11807196855E+02  0.12917038929E+02  0.26256523837E+02  0.00000000000E+00 0.  1.
         11    1    1    2    0    0 -0.22142778759E+02  0.73676720080E+02  0.27199746062E+03  0.28266796833E+03  0.00000000000E+00 0. -1.
</event>
<event>
 7    1  0.1620881E-005  0.1155320E+03  0.7561462E-02  0.1250655E+00
         -2   -1    0    0    0  501 -0.00000000000E+00  0.00000000000E+00  0.43877225602E+03  0.43877225602E+03  0.00000000000E+00 0.  1.
          2   -1    0    0  501    0  0.00000000000E+00 -0.00000000000E+00 -0.71313205875E+02  0.71313205875E+02  0.00000000000E+00 0. -1.
         23    2    1    2    0    0  0.25316301511E+02  0.57112451427E+02  0.37725347376E+03  0.40232928600E+03  0.12508366671E+03 0.  0.
          5    1    3    3  502    0  0.30793226614E+02 -0.33366254249E+02  0.17145034921E+03  0.17740976403E+03  0.41800000000E+01 0. -1.
         -5    1    3    3    0  502 -0.54769251026E+01  0.90478705675E+02  0.20580312456E+03  0.22491952198E+03  0.41800000000E+01 0. -1.
        -11    1    1    2    0    0 -0.38539423605E+02 -0.25922836608E+01 -0.29170280763E+02  0.48403640216E+02  0.00000000000E+00 0. -1.
         11    1    1    2    0    0  0.13223122094E+02 -0.54520167766E+02  0.19375857142E+02  0.59352535676E+02  0.00000000000E+00 0.  1.
</event>
<event>
 7    1  0.1620881E-005  0.1228575E+03  0.7561462E-02  0.1238456E+00
          1   -1    0    0  501    0  0.00000000000E+00  0.00000000000E+00  0.27189996784E+02  0.27189996784E+02  0.00000000000E+00 0. -1.
         -1   -1    0    0    0  501 -0.00000000000E+00 -0.00000000000E+00 -0.92265475522E+03  0.92265475522E+03  0.00000000000E+00 0.  1.
         23    2    1    2    0    0 -0.35169364961E+02  0.63159798414E+02 -0.74888369650E+03  0.76269283348E+03  0.12509005947E+03 0.  0.
          5    1    3    3  502    0  0.40230802754E+02  0.29685580504E+02 -0.15068861656E+03  0.15882154369E+03  0.41800000000E+01 0. -1.
         -5    1    3    3    0  502 -0.75400167715E+02  0.33474217910E+02 -0.59819507994E+03  0.60387128978E+03  0.41800000000E+01 0. -1.
        -11    1    1    2    0    0  0.24084352719E+02  0.18601414002E+02 -0.61592562173E+02  0.68700162764E+02  0.00000000000E+00 0.  1.
         11    1    1    2    0    0  0.11085012242E+02 -0.81761212416E+02 -0.84988499758E+02  0.11845175576E+03  0.00000000000E+00 0. -1.
</event>
<event>
 7    1  0.1620881E-005  0.9044455E+02  0.7561462E-02  0.1301779E+00
          1   -1    0    0  501    0  0.00000000000E+00  0.00000000000E+00  0.11640117868E+03  0.11640117868E+03  0.00000000000E+00 0. -1.
         -1   -1    0    0    0  501 -0.00000000000E+00 -0.00000000000E+00 -0.13966226401E+03  0.13966226401E+03  0.00000000000E+00 0.  1.
         23    2    1    2    0    0  0.55530608212E+02  0.18386973392E+02 -0.48145045338E+02  0.14624388694E+03  0.12509036669E+03 0.  0.
          5    1    3    3  502    0  0.58794522615E+02  0.45153109245E+01 -0.86695290765E+02  0.10493202449E+03  0.41800000000E+01 0. -1.
         -5    1    3    3    0  502 -0.32639144031E+01  0.13871662467E+02  0.38550245426E+02  0.41311862452E+02  0.41800000000E+01 0. -1.
        -11    1    1    2    0    0 -0.19117950335E+02 -0.53209132623E+02  0.11648021952E+02  0.57726806900E+02  0.00000000000E+00 0.  1.
         11    1    1    2    0    0 -0.36412657877E+02  0.34822159231E+02  0.13235938054E+02  0.52092748855E+02  0.00000000000E+00 0. -1.
</event>
<event>
 7    1  0.1620881E-005  0.1574480E+03  0.7561462E-02  0.1191608E+00
         -4   -1    0    0    0  501 -0.00000000000E+00  0.00000000000E+00  0.76776127579E+02  0.76776127579E+02  0.00000000000E+00 0.  1.
          4   -1    0    0  501    0  0.00000000000E+00 -0.00000000000E+00 -0.40982958668E+03  0.40982958668E+03  0.00000000000E+00 0. -1.
         23    2    1    2    0    0  0.12052819451E+03 -0.12736648055E+02 -0.91778192141E+02  0.19687634930E+03  0.12509113672E+03 0.  0.
          5    1    3    3  502    0  0.13087680557E+03 -0.42337239075E+02 -0.91463639720E+02  0.16523997652E+03  0.41800000000E+01 0.  1.
         -5    1    3    3    0  502 -0.10348611061E+02  0.29600591020E+02 -0.31455242059E+00  0.31636372783E+02  0.41800000000E+01 0.  1.
        -11    1    1    2    0    0 -0.10543715963E+03  0.41381008488E+02 -0.12345942858E+03  0.16754585342E+03  0.00000000000E+00 0.  1.
         11    1    1    2    0    0 -0.15091034882E+02 -0.28644360433E+02 -0.11781583838E+03  0.12218351154E+03  0.00000000000E+00 0. -1.
</event>
<event>
 7    1  0.1620881E-005  0.1123042E+03  0.7561462E-02  0.1256361E+00
         -2   -1    0    0    0  501 -0.00000000000E+00  0.00000000000E+00  0.38849244729E+02  0.38849244729E+02  0.00000000000E+00 0.  1.
          2   -1    0    0  501    0  0.00000000000E+00 -0.00000000000E+00 -0.34747908621E+03  0.34747908621E+03  0.00000000000E+00 0. -1.
         23    2    1    2    0    0 -0.41118242003E+02  0.13451583039E+02 -0.16473936847E+03  0.21131882785E+03  0.12507970486E+03 0.  0.
          5    1    3    3  502    0  0.43395803197E+02  0.10877829406E+02 -0.37685399477E+02  0.58644561908E+02  0.41800000000E+01 0. -1.
         -5    1    3    3    0  502 -0.84514045199E+02  0.25737536328E+01 -0.12705396899E+03  0.15267426594E+03  0.41800000000E+01 0. -1.
        -11    1    1    2    0    0  0.55152276141E+02 -0.37836730073E+02 -0.74423707435E+02  0.10006138083E+03  0.00000000000E+00 0.  1.
         11    1    1    2    0    0 -0.14034034138E+02  0.24385147033E+02 -0.69466765575E+02  0.74948122255E+02  0.00000000000E+00 0. -1.
</event>
<event>
 7    1  0.1620881E-005  0.2211241E+03  0.7561462E-02  0.1133048E+00
         -1   -1    0    0    0  501 -0.00000000000E+00  0.00000000000E+00  0.98170620173E+02  0.98170620173E+02  0.00000000000E+00 0.  1.
          1   -1    0    0  501    0  0.00000000000E+00 -0.00000000000E+00 -0.60440549202E+03  0.60440549202E+03  0.00000000000E+00 0. -1.
         23    2    1    2    0    0  0.20844105935E+03 -0.61810614458E+02 -0.23655073740E+03  0.34477806643E+03  0.12508971356E+03 0.  0.
          5    1    3    3  502    0  0.60297508915E+02 -0.12791813441E+02 -0.15878570364E+03  0.17038131397E+03  0.41800000000E+01 0.  1.
         -5    1    3    3    0  502  0.14814355044E+03 -0.49018801017E+02 -0.77765033766E+02  0.17439675245E+03  0.41800000000E+01 0.  1.
        -11    1    1    2    0    0 -0.73271664817E+02  0.49954004224E+02 -0.56677850325E+02  0.10524503846E+03  0.00000000000E+00 0.  1.
         11    1    1    2    0    0 -0.13516939453E+03  0.11856610234E+02 -0.21300628412E+03  0.25255300731E+03  0.00000000000E+00 0. -1.
</event>
<event>
 7    1  0.1620881E-005  0.1783798E+03  0.7561462E-02  0.1169380E+00
          2   -1    0    0  501    0  0.00000000000E+00  0.00000000000E+00  0.17222541780E+03  0.17222541780E+03  0.00000000000E+00 0. -1.
         -2   -1    0    0    0  501 -0.00000000000E+00 -0.00000000000E+00 -0.24029942246E+03  0.24029942246E+03  0.00000000000E+00 0.  1.
         23    2    1    2    0    0 -0.21101673421E+02 -0.16027999225E+03 -0.93523244554E+02  0.22480013138E+03  0.12511412894E+03 0.  0.
          5    1    3    3  502    0  0.42661733822E+02 -0.87927055743E+02 -0.81887735224E+02  0.12757062454E+03  0.41800000000E+01 0.  1.
         -5    1    3    3    0  502 -0.63763407243E+02 -0.72352936507E+02 -0.11635509330E+02  0.97229506847E+02  0.41800000000E+01 0.  1.
        -11    1    1    2    0    0  0.10247571871E+02  0.12680854059E+03 -0.21527981305E+02  0.12903051063E+03  0.00000000000E+00 0.  1.
         11    1    1    2    0    0  0.10854101550E+02  0.33471451662E+02  0.46977221194E+02  0.58694198248E+02  0.00000000000E+00 0. -1.
</event>
<event>
 7    1  0.1620881E-005  0.1178895E+03  0.7561462E-02  0.1246620E+00
         -4   -1    0    0    0  501 -0.00000000000E+00  0.00000000000E+00  0.43327662943E+03  0.43327662943E+03  0.00000000000E+00 0. -1.
          4   -1    0    0  501    0  0.00000000000E+00 -0.00000000000E+00 -0.42322839183E+02  0.42322839183E+02  0.00000000000E+00 0.  1.
         23    2    1    2    0    0 -0.76374628645E+01 -0.60014547773E+02  0.30820492834E+03  0.33807953318E+03  0.12508963233E+03 0.  0.
          5    1    3    3  502    0  0.50021383240E+02  0.64991930016E+01  0.12153636507E+03  0.13165461908E+03  0.41800000000E+01 0.  1.
         -5    1    3    3    0  502 -0.57658846105E+02 -0.66513740775E+02  0.18666856327E+03  0.20642491410E+03  0.41800000000E+01 0.  1.
        -11    1    1    2    0    0  0.38017248386E+02  0.54046836419E+02  0.22539661657E+02  0.69816961043E+02  0.00000000000E+00 0.  1.
         11    1    1    2    0    0 -0.30379785521E+02  0.59677113546E+01  0.60209200250E+02  0.67702974394E+02  0.00000000000E+00 0. -1.
</event>
<event>
 7    1  0.1620881E-005  0.9401230E+02  0.7561462E-02  0.1293416E+00
          2   -1    0    0  501    0  0.00000000000E+00  0.00000000000E+00  0.24314534510E+03  0.24314534510E+03  0.00000000000E+00 0. -1.
         -2   -1    0    0    0  501 -0.00000000000E+00 -0.00000000000E+00 -0.54558413223E+02  0.54558413223E+02  0.00000000000E+00 0.  1.
         23    2    1    2    0    0 -0.23692639019E+01 -0.13834488714E+02  0.59729701681E+02  0.13931750603E+03  0.12507887005E+03 0.  0.
          5    1    3    3  502    0 -0.32716726459E+02 -0.45104944667E+02  0.74491843478E+02  0.93120069632E+02  0.41800000000E+01 0. -1.
         -5    1    3    3    0  502  0.30347462557E+02  0.31270455953E+02 -0.14762141797E+02  0.46197436396E+02  0.41800000000E+01 0. -1.
        -11    1    1    2    0    0  0.34112537056E+02  0.36046462446E+02  0.93878243139E+02  0.10618915752E+03  0.00000000000E+00 0. -1.
         11    1    1    2    0    0 -0.31743273154E+02 -0.22211973732E+02  0.34978987053E+02  0.52197094774E+02  0.00000000000E+00 0.  1.
</event>
<event>
 7    1  0.1620881E-005  0.1682273E+03  0.7561462E-02  0.1179709E+00
         -3   -1    0    0    0  501 -0.00000000000E+00  0.00000000000E+00  0.55151155592E+02  0.55151155592E+02  0.00000000000E+00 0.  1.
          3   -1    0    0  501    0  0.00000000000E+00 -0.00000000000E+00 -0.72842752529E+03  0.72842752529E+03  0.00000000000E+00 0. -1.
         23    2    1    2    0    0 -0.13723796593E+03 -0.95170585538E+02 -0.37205734277E+03  0.42657481845E+03  0.12509080616E+03 0.  0.
          5    1    3    3  502    0 -0.23115475137E+02 -0.17970083301E+02 -0.21740118419E+03  0.21940372917E+03  0.41800000000E+01 0.  1.
         -5    1    3    3    0  502 -0.11412249079E+03 -0.77200502237E+02 -0.15465615857E+03  0.20717108928E+03  0.41800000000E+01 0.  1.
        -11    1    1    2    0    0  0.78397992338E+02  0.69758614468E+02 -0.26107604906E+03  0.28137734964E+03  0.00000000000E+00 0. -1.
         11    1    1    2    0    0  0.58839973587E+02  0.25411971071E+02 -0.40142977872E+02  0.75626512798E+02  0.00000000000E+00 0.  1.
</event>
<event>
 7    1  0.1620881E-005  0.1298829E+03  0.7561462E-02  0.1227630E+00
         -2   -1    0    0    0  501 -0.00000000000E+00  0.00000000000E+00  0.15445966918E+03  0.15445966918E+03  0.00000000000E+00 0.  1.
          2   -1    0    0  501    0  0.00000000000E+00 -0.00000000000E+00 -0.15902734044E+03  0.15902734044E+03  0.00000000000E+00 0. -1.
         23    2    1    2    0    0  0.39878148948E+02  0.71658216245E+02  0.72974906116E+02  0.16642745640E+03  0.12509034576E+03 0.  0.
          5    1    3    3  502    0  0.16156804141E+02 -0.31488782716E+02  0.43984035214E+02  0.56609659164E+02  0.41800000000E+01 0.  1.
         -5    1    3    3    0  502  0.23721344807E+02  0.10314699896E+03  0.28990870902E+02  0.10981779724E+03  0.41800000000E+01 0.  1.
        -11    1    1    2    0    0 -0.54267221389E+02 -0.10367393822E+02 -0.60301224181E+02  0.81784178236E+02  0.00000000000E+00 0. -1.
         11    1    1    2    0    0  0.14389072441E+02 -0.61290822423E+02 -0.17241353194E+02  0.65275374981E+02  0.00000000000E+00 0.  1.
</event>
<event>
 7    1  0.1620881E-005  0.1828435E+03  0.7561462E-02  0.1165079E+00
         -4   -1    0    0    0  501 -0.00000000000E+00  0.00000000000E+00  0.58904602512E+03  0.58904602512E+03  0.00000000000E+00 0. -1.
          4   -1    0    0  501    0  0.00000000000E+00 -0.00000000000E+00 -0.77951706212E+02  0.77951706212E+02  0.00000000000E+00 0.  1.
         23    2    1    2    0    0  0.15253229710E+03  0.27849050262E+02  0.42166940944E+03  0.46636303314E+03  0.12509083324E+03 0.  0.
          5    1    3    3  502    0  0.69410686311E+02  0.75709475936E+02  0.23309665702E+03  0.25475731988E+03  0.41800000000E+01 0.  1.
         -5    1    3    3    0  502  0.83121610787E+02 -0.47860425674E+02  0.18857275243E+03  0.21160571326E+03  0.41800000000E+01 0.  1.
        -11    1    1    2    0    0 -0.12785970302E+02 -0.23871661405E+02  0.47506254067E+02  0.54682551424E+02  0.00000000000E+00 0. -1.
         11    1    1    2    0    0 -0.13974632680E+03 -0.39773888573E+01  0.41918655393E+02  0.14595214676E+03  0.00000000000E+00 0.  1.
</event>
<event>
 7    1  0.1620881E-005  0.1093515E+03  0.7561462E-02  0.1261776E+00
         -1   -1    0    0    0  501 -0.00000000000E+00  0.00000000000E+00  0.12665306474E+03  0.12665306474E+03  0.00000000000E+00 0.  1.
          1   -1    0    0  501    0  0.00000000000E+00 -0.00000000000E+00 -0.14164934412E+03  0.14164934412E+03  0.00000000000E+00 0. -1.
         23    2    1    2    0    0  0.12974381917E+02 -0.74514832714E+02  0.11738622661E+02  0.14665442887E+03  0.12509568884E+03 0.  0.
          5    1    3    3  502    0 -0.30817515839E+02 -0.79650183657E+02 -0.25026504809E+02  0.89093598996E+02  0.41800000000E+01 0.  1.
         -5    1    3    3    0  502  0.43791897756E+02  0.51353509430E+01  0.36765127470E+02  0.57560829878E+02  0.41800000000E+01 0.  1.
        -11    1    1    2    0    0 -0.20642841031E+01  0.77553947465E+02 -0.52383364835E+02  0.93610325006E+02  0.00000000000E+00 0. -1.
         11    1    1    2    0    0 -0.10910097814E+02 -0.30391147510E+01  0.25648462797E+02  0.28037654978E+02  0.00000000000E+00 0.  1.
</event>
<event>
 7    1  0.1620881E-005  0.8431614E+02  0.7561462E-02  0.1317231E+00
         -2   -1    0    0    0  501 -0.00000000000E+00  0.00000000000E+00  0.80891242534E+02  0.80891242534E+02  0.00000000000E+00 0.  1.
          2   -1    0    0  501    0  0.00000000000E+00 -0.00000000000E+00 -0.18816795950E+03  0.18816795950E+03  0.00000000000E+00 0. -1.
         23    2    1    2    0    0 -0.46769166025E+02 -0.17681928537E+02 -0.48565401264E+02  0.14319863979E+03  0.12508895535E+03 0.  0.
          5    1    3    3  502    0 -0.62467329354E+01 -0.24672814361E+02  0.38776139524E+02  0.46570707931E+02  0.41800000000E+01 0. -1.
         -5    1    3    3    0  502 -0.40522433089E+02  0.69908858246E+01 -0.87341540787E+02  0.96627931858E+02  0.41800000000E+01 0. -1.
        -11    1    1    2    0    0 -0.14397200167E+02  0.35075830345E+02  0.19640818005E+01  0.37966443925E+02  0.00000000000E+00 0. -1.
         11    1    1    2    0    0  0.61166366191E+02 -0.17393901808E+02 -0.60675397504E+02  0.87894118321E+02  0.00000000000E+00 0.  1.
</event>
<event>
 7    1  0.1620881E-005  0.8141312E+02  0.7561462E-02  0.1325088E+00
         -1   -1    0    0    0  501 -0.00000000000E+00  0.00000000000E+00  0.10364617557E+04  0.10364617557E+04  0.00000000000E+00 0.  1.
          1   -1    0    0  501    0  0.00000000000E+00 -0.00000000000E+00 -0.16542703245E+02  0.16542703245E+02  0.00000000000E+00 0. -1.
         23    2    1    2    0    0 -0.49179082812E+02  0.52349028494E+01  0.78076404118E+03  0.79226649303E+03  0.12509085332E+03 0.  0.
          5    1    3    3  502    0 -0.18277085391E+01  0.10645665240E+02  0.16663902018E+01  0.11701280409E+02  0.41800000000E+01 0. -1.
         -5    1    3    3    0  502 -0.47351374272E+02 -0.54107623908E+01  0.77909765098E+03  0.78056521262E+03  0.41800000000E+01 0. -1.
        -11    1    1    2    0    0  0.75317715104E+02  0.46387914732E+01  0.16302927874E+03  0.17964638132E+03  0.00000000000E+00 0.  1.
         11    1    1    2    0    0 -0.26138632292E+02 -0.98736943226E+01  0.76125732504E+02  0.81091584564E+02  0.00000000000E+00 0. -1.
</event>
<event>
 7    1  0.1620881E-005  0.1309718E+03  0.7561462E-02  0.1226021E+00
          2   -1    0    0  501    0  0.00000000000E+00  0.00000000000E+00  0.40342740971E+03  0.40342740971E+03  0.00000000000E+00 0. -1.
         -2   -1    0    0    0  501 -0.00000000000E+00 -0.00000000000E+00 -0.71156052477E+02  0.71156052477E+02  0.00000000000E+00 0.  1.
         23    2    1    2    0    0  0.99054635680E+02  0.59267701507E+02  0.10017468128E+03  0.19750226846E+03  0.12509075899E+03 0.  0.
          5    1    3    3  502    0  0.98698130656E+02  0.78452387845E+02  0.37174647901E+02  0.13151245188E+03  0.41800000000E+01 0. -1.
         -5    1    3    3    0  502  0.35650502381E+00 -0.19184686338E+02  0.63000033383E+02  0.65989816578E+02  0.41800000000E+01 0. -1.
        -11    1    1    2    0    0 -0.45176495715E+02 -0.19570341841E+02  0.19384038108E+03  0.19999501839E+03  0.00000000000E+00 0. -1.
         11    1    1    2    0    0 -0.53878139965E+02 -0.39697359667E+02  0.38256294871E+02  0.77086175335E+02  0.00000000000E+00 0.  1.
</event>
<event>
 7    1  0.1620881E-005  0.1404537E+03  0.7561462E-02  0.1212720E+00
          2   -1    0    0  501    0  0.00000000000E+00  0.00000000000E+00  0.33311807996E+02  0.33311807996E+02  0.00000000000E+00 0. -1.
         -2   -1    0    0    0  501 -0.00000000000E+00 -0.00000000000E+00 -0.72479484122E+03  0.72479484122E+03  0.00000000000E+00 0.  1.
         23    2    1    2    0    0  0.20939732666E+02 -0.10333813198E+03 -0.44433944869E+03  0.47349885373E+03  0.12508547835E+03 0.  0.
          5    1    3    3  502    0  0.73631784602E+02 -0.61217413536E+02 -0.25016211147E+03  0.26789506498E+03  0.41800000000E+01 0.  1.
         -5    1    3    3    0  502 -0.52692051936E+02 -0.42120718442E+02 -0.19417733722E+03  0.20560378875E+03  0.41800000000E+01 0.  1.
        -11    1    1    2    0    0 -0.33603509326E+02  0.37188307458E+02 -0.18931224188E+03  0.19583485639E+03  0.00000000000E+00 0.  1.
         11    1    1    2    0    0  0.12663776660E+02  0.66149824520E+02 -0.57831342656E+02  0.88772939101E+02  0.00000000000E+00 0. -1.
</event>
<event>
 7    1  0.1620881E-005  0.1596527E+03  0.7561462E-02  0.1189089E+00
         -4   -1    0    0    0  501 -0.00000000000E+00  0.00000000000E+00  0.88406770532E+03  0.88406770532E+03  0.00000000000E+00 0.  1.
          4   -1    0    0  501    0  0.00000000000E+00 -0.00000000000E+00 -0.36241195441E+02  0.36241195441E+02  0.00000000000E+00 0. -1.
         23    2    1    2    0    0 -0.10743952992E+03  0.97183021872E+02  0.50951495939E+03  0.54427993806E+03  0.12508942723E+03 0.  0.
          5    1    3    3  502    0  0.99366104924E+01  0.20271325691E+02  0.23336361789E+03  0.23449032694E+03  0.41800000000E+01 0. -1.
         -5    1    3    3    0  502 -0.11737614041E+03  0.76911696181E+02  0.27615134149E+03  0.30978961111E+03  0.41800000000E+01 0. -1.
        -11    1    1    2    0    0  0.38762905317E+02 -0.23089822758E+01  0.40953940393E+02  0.56436862612E+02  0.00000000000E+00 0. -1.
         11    1    1    2    0    0  0.68676624600E+02 -0.94874039597E+02  0.29735761010E+03  0.31959210009E+03  0.00000000000E+00 0.  1.
</event>
<event>
 7    1  0.1620881E-005  0.1598248E+03  0.7561462E-02  0.1188895E+00
         -1   -1    0    0    0  501 -0.00000000000E+00  0.00000000000E+00  0.59363206224E+02  0.59363206224E+02  0.00000000000E+00 0.  1.
          1   -1    0    0  501    0  0.00000000000E+00 -0.00000000000E+00 -0.47022750091E+03  0.47022750091E+03  0.00000000000E+00 0. -1.
         23    2    1    2    0    0 -0.78849322364E+02 -0.95429173670E+02 -0.17872360187E+03  0.25082520292E+03  0.12508882336E+03 0.  0.
          5    1    3    3  502    0  0.19069106706E+02  0.14919447799E+02 -0.96516857631E+01  0.26397882326E+02  0.41800000000E+01 0. -1.
         -5    1    3    3    0  502 -0.97918429070E+02 -0.11034862147E+03 -0.16907191611E+03  0.22442732059E+03  0.41800000000E+01 0. -1.
        -11    1    1    2    0    0  0.43706162462E+02 -0.21676264127E+01 -0.11080507709E+03  0.11913308671E+03  0.00000000000E+00 0. -1.
         11    1    1    2    0    0  0.35143159902E+02  0.97596800082E+02 -0.12133561574E+03  0.15963241751E+03  0.00000000000E+00 0.  1.
</event>
<event>
 7    1  0.1620881E-005  0.8324660E+02  0.7561462E-02  0.1320083E+00
         -1   -1    0    0    0  501 -0.00000000000E+00  0.00000000000E+00  0.37780191971E+02  0.37780191971E+02  0.00000000000E+00 0.  1.
          1   -1    0    0  501    0  0.00000000000E+00 -0.00000000000E+00 -0.48372059725E+03  0.48372059725E+03  0.00000000000E+00 0. -1.
         23    2    1    2    0    0  0.63079681004E+02  0.30718186167E+02 -0.15839380757E+03  0.21368039731E+03  0.12509220920E+03 0.  0.
          5    1    3    3  502    0  0.51557020038E+02 -0.43919513674E+01 -0.16752802872E+03  0.17538679642E+03  0.41800000000E+01 0. -1.
         -5    1    3    3    0  502  0.11522660966E+02  0.35110137534E+02  0.91342211487E+01  0.38293600893E+02  0.41800000000E+01 0. -1.
        -11    1    1    2    0    0 -0.13226503480E+02  0.69195155370E+01 -0.14653435613E+01  0.14998910671E+02  0.00000000000E+00 0.  1.
         11    1    1    2    0    0 -0.49853177524E+02 -0.37637701704E+02 -0.28608125415E+03  0.29282148124E+03  0.00000000000E+00 0. -1.
</event>
<event>
 7    1  0.1620881E-005  0.9812585E+02  0.7561462E-02  0.1284287E+00
         -2   -1    0    0    0  501 -0.00000000000E+00  0.00000000000E+00  0.25089496429E+02  0.25089496429E+02  0.00000000000E+00 0.  1.
          2   -1    0    0  501    0  0.00000000000E+00 -0.00000000000E+00 -0.52332117198E+03  0.52332117198E+03  0.00000000000E+00 0. -1.
         23    2    1    2    0    0  0.27453036744E+02  0.46554761233E+01 -0.22888281927E+03  0.26231637501E+03  0.12508874032E+03 0.  0.
          5    1    3    3  502    0 -0.31399491173E+02  0.21754275209E+02 -0.17565313496E+02  0.42251499074E+02  0.41800000000E+01 0.  1.
         -5    1    3    3    0  502  0.58852527918E+02 -0.17098799086E+02 -0.21131750577E+03  0.22006487593E+03  0.41800000000E+01 0.  1.
        -11    1    1    2    0    0  0.75003666786E+01  0.39429011344E+02 -0.11654407909E+03  0.12326161125E+03  0.00000000000E+00 0.  1.
         11    1    1    2    0    0 -0.34953403423E+02 -0.44084487467E+02 -0.15280477719E+03  0.16283268216E+03  0.00000000000E+00 0. -1.
</event>
<event>
 6    1  0.1620881E-005  0.1174642E+03  0.7561462E-02  0.1247340E+00
          2   -1    0    0  501    0  0.00000000000E+00  0.00000000000E+00  0.47456220076E+02  0.47456220076E+02  0.00000000000E+00 0.  1.
         -2   -1    0    0    0  501 -0.00000000000E+00 -0.00000000000E+00 -0.31164530026E+03  0.31164530026E+03  0.00000000000E+00 0. -1.
          5    1    1    2  502    0 -0.81880040036E+02 -0.31797327751E+02 -0.14493501992E+03  0.16952593727E+03  0.41800000000E+01 0. -1.
         -5    1    1    2    0  502  0.40215591804E+02  0.28669909227E+02 -0.36136509577E+02  0.61339850372E+02  0.41800000000E+01 0.  1.
        -11    1    1    2    0    0  0.49007640025E+02 -0.33956593493E+02 -0.46576754709E+02  0.75658397430E+02  0.00000000000E+00 0.  1.
         11    1    1    2    0    0 -0.73431917925E+01  0.37084012016E+02 -0.36540795984E+02  0.52577335270E+02  0.00000000000E+00 0. -1.
</event>
<event>
 7    1  0.1620881E-005  0.3296752E+03  0.7561462E-02  0.1071281E+00
          3   -1    0    0  501    0  0.00000000000E+00  0.00000000000E+00  0.20544972673E+03  0.20544972673E+03  0.00000000000E+00 0. -1.
         -3   -1    0    0    0  501 -0.00000000000E+00 -0.00000000000E+00 -0.54995201011E+03  0.54995201011E+03  0.00000000000E+00 0.  1.
         23    2    1    2    0    0 -0.31745775920E+03 -0.15721842843E+01 -0.13877117316E+03  0.36835772058E+03  0.12509225065E+03 0.  0.
          5    1    3    3  502    0 -0.32568410677E+03  0.47485846024E+01 -0.12126788062E+03  0.34758604364E+03  0.41800000000E+01 0.  1.
         -5    1    3    3    0  502  0.82263475718E+01 -0.63207688867E+01 -0.17503292532E+02  0.20771676946E+02  0.41800000000E+01 0.  1.
        -11    1    1    2    0    0  0.22210494642E+03 -0.24806241813E+02 -0.17371032693E+03  0.28305694575E+03  0.00000000000E+00 0.  1.
         11    1    1    2    0    0  0.95352812777E+02  0.26378426098E+02 -0.32020783292E+02  0.10398707050E+03  0.00000000000E+00 0. -1.
</event>
<event>
 7    1  0.1620881E-005  0.1141799E+03  0.7561462E-02  0.1253019E+00
          1   -1    0    0  501    0  0.00000000000E+00  0.00000000000E+00  0.91198707420E+02  0.91198707420E+02  0.00000000000E+00 0. -1.
         -1   -1    0    0    0  501 -0.00000000000E+00 -0.00000000000E+00 -0.16426988103E+03  0.16426988103E+03  0.00000000000E+00 0.  1.
         23    2    1    2    0    0  0.26657163968E+02  0.25099830559E+02 -0.86261217921E+02  0.15629692080E+03  0.12508846409E+03 0.  0.
          5    1    3    3  502    0 -0.13628067896E+02  0.69027403609E+02 -0.49784388419E+02  0.86292898977E+02  0.41800000000E+01 0. -1.
         -5    1    3    3    0  502  0.40285231863E+02 -0.43927573051E+02 -0.36476829502E+02  0.70004021820E+02  0.41800000000E+01 0. -1.
        -11    1    1    2    0    0 -0.33088486306E+02 -0.56824663383E+02  0.61371436354E+01  0.66042068612E+02  0.00000000000E+00 0.  1.
         11    1    1    2    0    0  0.64313223379E+01  0.31724832824E+02  0.70529006742E+01  0.33129599042E+02  0.00000000000E+00 0. -1.
</event>
<event>
 7    1  0.1620881E-005  0.1192713E+03  0.7561462E-02  0.1244304E+00
         -1   -1    0    0    0  501 -0.00000000000E+00  0.00000000000E+00  0.31393309156E+02  0.31393309156E+02  0.00000000000E+00 0.  1.
          1   -1    0    0  501    0  0.00000000000E+00 -0.00000000000E+00 -0.67922604560E+03  0.67922604560E+03  0.00000000000E+00 0. -1.
         23    2    1    2    0    0  0.20111237766E+01  0.89418703735E+02 -0.26766746401E+03  0.30869535989E+03  0.12508878740E+03 0.  0.
          5    1    3    3  502    0  0.51712512998E+02  0.79073939280E+02 -0.12190845943E+03  0.15429198538E+03  0.41800000000E+01 0. -1.
         -5    1    3    3    0  502 -0.49701389221E+02  0.10344764455E+02 -0.14575900458E+03  0.15440337451E+03  0.41800000000E+01 0. -1.
        -11    1    1    2    0    0 -0.10637088857E+02 -0.77985360592E+02 -0.37951103187E+03  0.38758674827E+03  0.00000000000E+00 0. -1.
         11    1    1    2    0    0  0.86259650802E+01 -0.11433343143E+02 -0.65424055790E+00  0.14337246587E+02  0.00000000000E+00 0.  1.
</event>
<event>
 7    1  0.1620881E-005  0.1110790E+03  0.7561462E-02  0.1258585E+00
          1   -1    0    0  501    0  0.00000000000E+00  0.00000000000E+00  0.95197396406E+02  0.95197396406E+02  0.00000000000E+00 0. -1.
         -1   -1    0    0    0  501 -0.00000000000E+00 -0.00000000000E+00 -0.21079093619E+03  0.21079093619E+03  0.00000000000E+00 0.  1.
         23    2    1    2    0    0 -0.81905272831E+02 -0.31620210810E+02 -0.88336991133E+02  0.17651888400E+03  0.12508869237E+03 0.  0.
          5    1    3    3  502    0 -0.22920489565E+02 -0.30723578748E+02  0.26885006333E+02  0.47005990028E+02  0.41800000000E+01 0.  1.
         -5    1    3    3    0  502 -0.58984783266E+02 -0.89663206238E+00 -0.11522199747E+03  0.12951289398E+03  0.41800000000E+01 0.  1.
        -11    1    1    2    0    0 -0.89020785957E+00  0.41112564095E+02 -0.20249590800E+02  0.45837553645E+02  0.00000000000E+00 0. -1.
         11    1    1    2    0    0  0.82795480691E+02 -0.94923532852E+01 -0.70069578476E+01  0.83631894944E+02  0.00000000000E+00 0.  1.
</event>
<event>
 7    1  0.1620881E-005  0.1336930E+03  0.7561462E-02  0.1222077E+00
         -1   -1    0    0    0  501 -0.00000000000E+00  0.00000000000E+00  0.39465721474E+03  0.39465721474E+03  0.00000000000E+00 0.  1.
          1   -1    0    0  501    0  0.00000000000E+00 -0.00000000000E+00 -0.55497413745E+02  0.55497413745E+02  0.00000000000E+00 0. -1.
         23    2    1    2    0    0  0.19711179851E+02  0.80553954163E+02  0.26811485946E+03  0.30729262562E+03  0.12516273308E+03 0.  0.
          5    1    3    3  502    0  0.64102580129E+02  0.83420378312E+02  0.19491323275E+03  0.22153270864E+03  0.41800000000E+01 0.  1.
         -5    1    3    3    0  502 -0.44391400279E+02 -0.28664241485E+01  0.73201626710E+02  0.85759916973E+02  0.41800000000E+01 0.  1.
        -11    1    1    2    0    0  0.59455690153E+01 -0.89911699314E+02  0.72292596814E+02  0.11552351717E+03  0.00000000000E+00 0.  1.
         11    1    1    2    0    0 -0.25656748866E+02  0.93577451511E+01 -0.12476552827E+01  0.27338485700E+02  0.00000000000E+00 0. -1.
</event>
<event>
 7    1  0.1620881E-005  0.1367205E+03  0.7561462E-02  0.1217811E+00
         -4   -1    0    0    0  501 -0.00000000000E+00  0.00000000000E+00  0.22467063787E+02  0.22467063787E+02  0.00000000000E+00 0.  1.
          4   -1    0    0  501    0  0.00000000000E+00 -0.00000000000E+00 -0.13029956739E+04  0.13029956739E+04  0.00000000000E+00 0. -1.
         23    2    1    2    0    0  0.63488311371E+02 -0.98571230403E+02 -0.44671103929E+03  0.47848251066E+03  0.12509079597E+03 0.  0.
          5    1    3    3  502    0  0.48379732287E+01  0.46143629989E+01 -0.23965266280E+03  0.23978233779E+03  0.41800000000E+01 0. -1.
         -5    1    3    3    0  502  0.58650338142E+02 -0.10318559340E+03 -0.20705837649E+03  0.23870017286E+03  0.41800000000E+01 0. -1.
        -11    1    1    2    0    0 -0.60417907056E+02  0.11509372166E+03 -0.77431304916E+03  0.78514813020E+03  0.00000000000E+00 0.  1.
         11    1    1    2    0    0 -0.30704043145E+01 -0.16522491256E+02 -0.59504521637E+02  0.61832096804E+02  0.00000000000E+00 0. -1.
</event>
<event>
 7    1  0.1620881E-005  0.3144636E+03  0.7561462E-02  0.1078226E+00
          2   -1    0    0  501    0  0.00000000000E+00  0.00000000000E+00  0.20126181293E+04  0.20126181293E+04  0.00000000000E+00 0. -1.
         -2   -1    0    0    0  501 -0.00000000000E+00 -0.00000000000E+00 -0.55177848266E+02  0.55177848266E+02  0.00000000000E+00 0.  1.
         23    2    1    2    0    0  0.31182722477E+03 -0.21350996890E+02  0.11121692642E+04  0.11620068468E+04  0.12508939495E+03 0.  0.
          5    1    3    3  502    0  0.69724040237E+02  0.11046599694E+02  0.46342537432E+03  0.46878995202E+03  0.41800000000E+01 0.  1.
         -5    1    3    3    0  502  0.24210318453E+03 -0.32397596584E+02  0.64874388985E+03  0.69321689481E+03  0.41800000000E+01 0.  1.
        -11    1    1    2    0    0 -0.15858187418E+03  0.25459187961E+02  0.31190212700E+03  0.35082662085E+03  0.00000000000E+00 0.  1.
         11    1    1    2    0    0 -0.15324535059E+03 -0.41081910711E+01  0.53336888986E+03  0.55496250989E+03  0.00000000000E+00 0. -1.
</event>
<event>
 7    1  0.1620881E-005  0.1124398E+03  0.7561462E-02  0.1256117E+00
          2   -1    0    0  501    0  0.00000000000E+00  0.00000000000E+00  0.76753774722E+03  0.76753774722E+03  0.00000000000E+00 0. -1.
         -2   -1    0    0    0  501 -0.00000000000E+00 -0.00000000000E+00 -0.16605779313E+02  0.16605779313E+02  0.00000000000E+00 0.  1.
         23    2    1    2    0    0  0.10269578600E+02 -0.29651990605E+02  0.41813079965E+03  0.43756575913E+03  0.12508286515E+03 0.  0.
          5    1    3    3  502    0 -0.25129581700E+02  0.41877344329E+02  0.15496153579E+03  0.16252925219E+03  0.41800000000E+01 0.  1.
         -5    1    3    3    0  502  0.35399160300E+02 -0.71529334934E+02  0.26316926386E+03  0.27503650694E+03  0.41800000000E+01 0.  1.
        -11    1    1    2    0    0  0.47683058422E+01 -0.32066731726E+02  0.92271119617E+02  0.97800672490E+02  0.00000000000E+00 0.  1.
         11    1    1    2    0    0 -0.15037884442E+02  0.61718722331E+02  0.24053004864E+03  0.24877709492E+03  0.00000000000E+00 0. -1.
</event>
<event>
 7    1  0.1620881E-005  0.1826860E+03  0.7561462E-02  0.1165229E+00
         -2   -1    0    0    0  501 -0.00000000000E+00  0.00000000000E+00  0.10483396189E+03  0.10483396189E+03  0.00000000000E+00 0. -1.
          2   -1    0    0  501    0  0.00000000000E+00 -0.00000000000E+00 -0.39416106361E+03  0.39416106361E+03  0.00000000000E+00 0.  1.
         23    2    1    2    0    0  0.57272729964E+02 -0.14461568744E+03 -0.62489855333E+02  0.20919092191E+03  0.12514790105E+03 0.  0.
          5    1    3    3  502    0  0.96788536620E+02 -0.10528332747E+03 -0.52457903881E+02  0.15238734837E+03  0.41800000000E+01 0.  1.
         -5    1    3    3    0  502 -0.39515806656E+02 -0.39332359973E+02 -0.10031951452E+02  0.56803573537E+02  0.41800000000E+01 0.  1.
        -11    1    1    2    0    0 -0.37918586382E+02  0.25466464509E+02 -0.19031805460E+02  0.49483023623E+02  0.00000000000E+00 0. -1.
         11    1    1    2    0    0 -0.19354143582E+02  0.11914922293E+03 -0.20780544093E+03  0.24032107997E+03  0.00000000000E+00 0.  1.
</event>
<event>
 7    1  0.1620881E-005  0.1037382E+03  0.7561462E-02  0.1272626E+00
         -2   -1    0    0    0  501 -0.00000000000E+00  0.00000000000E+00  0.52831644936E+02  0.52831644936E+02  0.00000000000E+00 0.  1.
          2   -1    0    0  501    0  0.00000000000E+00 -0.00000000000E+00 -0.27547902949E+03  0.27547902949E+03  0.00000000000E+00 0. -1.
         23    2    1    2    0    0  0.39181543902E+02 -0.88462128251E+01 -0.72462367170E+02  0.15003979190E+03  0.12509074959E+03 0.  0.
          5    1    3    3  502    0  0.83266094801E+02  0.15416075763E+01 -0.60462731912E+02  0.10299919149E+03  0.41800000000E+01 0.  1.
         -5    1    3    3    0  502 -0.44084550899E+02 -0.10387820401E+02 -0.11999635258E+02  0.47040600411E+02  0.41800000000E+01 0.  1.
        -11    1    1    2    0    0 -0.58599037319E+02  0.82804081619E+01 -0.53905897247E+02  0.80051596437E+02  0.00000000000E+00 0.  1.
         11    1    1    2    0    0  0.19417493417E+02  0.56580466320E+00 -0.96279120135E+02  0.98219286087E+02  0.00000000000E+00 0. -1.
</event>
<event>
 7    1  0.1620881E-005  0.1586852E+03  0.7561462E-02  0.1190189E+00
          1   -1    0    0  501    0  0.00000000000E+00  0.00000000000E+00  0.98589256053E+03  0.98589256053E+03  0.00000000000E+00 0. -1.
         -1   -1    0    0    0  501 -0.00000000000E+00 -0.00000000000E+00 -0.31751454829E+02  0.31751454829E+02  0.00000000000E+00 0.  1.
         23    2    1    2    0    0 -0.30895192630E+02 -0.11754768147E+03  0.30899222922E+03  0.35481909128E+03  0.12509364281E+03 0.  0.
          5    1    3    3  502    0  0.42477123306E+02 -0.47881864203E+02  0.68328741819E+02  0.93719092412E+02  0.41800000000E+01 0. -1.
         -5    1    3    3    0  502 -0.73372315936E+02 -0.69665817262E+02  0.24066348740E+03  0.26109999887E+03  0.41800000000E+01 0. -1.
        -11    1    1    2    0    0  0.37302426777E+02  0.32039809149E+01  0.14935957670E+03  0.15398058218E+03  0.00000000000E+00 0.  1.
         11    1    1    2    0    0 -0.64072341467E+01  0.11434370055E+03  0.49578929978E+03  0.50884434190E+03  0.00000000000E+00 0. -1.
</event>
<event>
 7    1  0.1620881E-005  0.1348638E+03  0.7561462E-02  0.1220412E+00
          3   -1    0    0  501    0  0.00000000000E+00  0.00000000000E+00  0.80677591916E+02  0.80677591916E+02  0.00000000000E+00 0. -1.
         -3   -1    0    0    0  501 -0.00000000000E+00 -0.00000000000E+00 -0.23686696117E+03  0.23686696117E+03  0.00000000000E+00 0.  1.
         23    2    1    2    0    0 -0.18386735394E+02 -0.65968799248E+02 -0.10491811620E+03  0.17704434033E+03  0.12508770052E+03 0.  0.
          5    1    3    3  502    0 -0.54367424997E+02  0.12265721892E+02 -0.48608440947E+02  0.74071031893E+02  0.41800000000E+01 0. -1.
         -5    1    3    3    0  502  0.35980689602E+02 -0.78234521140E+02 -0.56309675255E+02  0.10297330843E+03  0.41800000000E+01 0. -1.
        -11    1    1    2    0    0  0.63244105377E+02  0.47581688729E+02 -0.16515287687E+02  0.80849172504E+02  0.00000000000E+00 0.  1.
         11    1    1    2    0    0 -0.44857369983E+02  0.18387110519E+02 -0.34755965363E+02  0.59651040253E+02  0.00000000000E+00 0. -1.
</event>
<event>
 7    1  0.1620881E-005  0.7812196E+02  0.7561462E-02  0.1334467E+00
         -4   -1    0    0    0  501 -0.00000000000E+00  0.00000000000E+00  0.11283743873E+03  0.11283743873E+03  0.00000000000E+00 0.  1.
          4   -1    0    0  501    0  0.00000000000E+00 -0.00000000000E+00 -0.11558547571E+03  0.11558547571E+03  0.00000000000E+00 0. -1.
         23    2    1    2    0    0  0.37498013348E+01  0.34319110898E+02  0.74229758423E+01  0.12997813142E+03  0.12508937483E+03 0.  0.
          5    1    3    3  502    0  0.77589350127E+01 -0.24828380335E+02 -0.44068762430E+02  0.51343721766E+02  0.41800000000E+01 0. -1.
         -5    1    3    3    0  502 -0.40091336779E+01  0.59147491233E+02  0.51491738273E+02  0.78634409658E+02  0.41800000000E+01 0. -1.
        -11    1    1    2    0    0 -0.27288674220E+02  0.18078413022E+01  0.29234332456E+02  0.40032314760E+02  0.00000000000E+00 0.  1.
         11    1    1    2    0    0  0.23538872885E+02 -0.36126952200E+02 -0.39405345270E+02  0.58412468256E+02  0.00000000000E+00 0. -1.
</event>
<event>
 7    1  0.1620881E-005  0.1751097E+03  0.7561462E-02  0.1172622E+00
          2   -1    0    0  501    0  0.00000000000E+00  0.00000000000E+00  0.68721559757E+03  0.68721559757E+03  0.00000000000E+00 0. -1.
         -2   -1    0    0    0  501 -0.00000000000E+00 -0.00000000000E+00 -0.62018357277E+02  0.62018357277E+02  0.00000000000E+00 0.  1.
         23    2    1    2    0    0  0.56853092696E+02  0.16300860080E+03  0.25431109554E+03  0.33185152164E+03  0.12508885249E+03 0.  0.
          5    1    3    3  502    0  0.35534177293E+02  0.13102000513E+03  0.25944406129E+03  0.29284400769E+03  0.41800000000E+01 0.  1.
         -5    1    3    3    0  502  0.21318915403E+02  0.31988595673E+02 -0.51329657547E+01  0.39007513950E+02  0.41800000000E+01 0.  1.
        -11    1    1    2    0    0 -0.80378523011E+00 -0.45859593523E+02  0.36352451350E+02  0.58525627788E+02  0.00000000000E+00 0.  1.
         11    1    1    2    0    0 -0.56049307466E+02 -0.11714900728E+03  0.33453369340E+03  0.35885680542E+03  0.00000000000E+00 0. -1.
</event>
<event>
 7    1  0.1620881E-005  0.1022677E+03  0.7561462E-02  0.1275598E+00
          2   -1    0    0  501    0  0.00000000000E+00  0.00000000000E+00  0.48501806837E+03  0.48501806837E+03  0.00000000000E+00 0. -1.
         -2   -1    0    0    0  501 -0.00000000000E+00 -0.00000000000E+00 -0.32018172828E+02  0.32018172828E+02  0.00000000000E+00 0.  1.
         23    2    1    2    0    0  0.50910711058E+02 -0.14953896891E+02  0.18955821579E+03  0.23322922914E+03  0.12509211255E+03 0.  0.
          5    1    3    3  502    0  0.78209251143E+02 -0.71704013916E+01  0.55810644088E+02  0.96438591933E+02  0.41800000000E+01 0. -1.
         -5    1    3    3    0  502 -0.27298540085E+02 -0.77834954998E+01  0.13374757170E+03  0.13679063721E+03  0.41800000000E+01 0. -1.
        -11    1    1    2    0    0 -0.48870561404E+02 -0.26565947841E+02  0.20276416373E+03  0.21025552894E+03  0.00000000000E+00 0. -1.
         11    1    1    2    0    0 -0.20401496543E+01  0.41519844733E+02  0.60677516018E+02  0.73551483108E+02  0.00000000000E+00 0.  1.
</event>
<event>
 7    1  0.1620881E-005  0.1063043E+03  0.7561462E-02  0.1267571E+00
          1   -1    0    0  501    0  0.00000000000E+00  0.00000000000E+00  0.15815082605E+03  0.15815082605E+03  0.00000000000E+00 0. -1.
         -1   -1    0    0    0  501 -0.00000000000E+00 -0.00000000000E+00 -0.11640239696E+03  0.11640239696E+03  0.00000000000E+00 0.  1.
         23    2    1    2    0    0 -0.36952421744E+02 -0.53986693031E+02 -0.26086601125E+02  0.14355171942E+03  0.12508613389E+03 0.  0.
          5    1    3    3  502    0 -0.63260572627E+02 -0.41590968746E+02  0.28951255973E+02  0.81162530473E+02  0.41800000000E+01 0. -1.
         -5    1    3    3    0  502  0.26308150883E+02 -0.12395724286E+02 -0.55037857098E+02  0.62389188947E+02  0.41800000000E+01 0. -1.
        -11    1    1    2    0    0  0.60334024130E+02  0.15370542711E+02  0.57366793419E+02  0.84660480970E+02  0.00000000000E+00 0. -1.
         11    1    1    2    0    0 -0.23381602385E+02  0.38616150321E+02  0.10468236794E+02  0.46341022618E+02  0.00000000000E+00 0.  1.
</event>
<event>
 7    1  0.1620881E-005  0.1986724E+03  0.7561462E-02  0.1150864E+00
          2   -1    0    0  501    0  0.00000000000E+00  0.00000000000E+00  0.14836572390E+04  0.14836572390E+04  0.00000000000E+00 0. -1.
         -2   -1    0    0    0  501 -0.00000000000E+00 -0.00000000000E+00 -0.29670688331E+02  0.29670688331E+02  0.00000000000E+00 0.  1.
         23    2    1    2    0    0 -0.16946859483E+03  0.57634700538E+02  0.71123895707E+03  0.74400962418E+03  0.12509237977E+03 0.  0.
          5    1    3    3  502    0 -0.51421593004E+02 -0.39844830235E+02  0.20563759327E+03  0.21572223550E+03  0.41800000000E+01 0.  1.
         -5    1    3    3    0  502 -0.11804700183E+03  0.97479530773E+02  0.50560136380E+03  0.52828738868E+03  0.41800000000E+01 0.  1.
        -11    1    1    2    0    0  0.28635421427E+02 -0.90790650970E+01  0.35279090707E+02  0.46336066130E+02  0.00000000000E+00 0.  1.
         11    1    1    2    0    0  0.14083317341E+03 -0.48555635441E+02  0.70746850288E+03  0.72298223701E+03  0.00000000000E+00 0. -1.
</event>
<event>
 6    1  0.1620881E-005  0.9531422E+02  0.7561462E-02  0.1290470E+00
         -2   -1    0    0    0  501 -0.00000000000E+00  0.00000000000E+00  0.12713893312E+03  0.12713893312E+03  0.00000000000E+00 0.  1.
          2   -1    0    0  501    0  0.00000000000E+00 -0.00000000000E+00 -0.10660467147E+03  0.10660467147E+03  0.00000000000E+00 0. -1.
          5    1    1    2  502    0 -0.57655886192E+02 -0.63373707324E+01 -0.30528274637E+02  0.65679612002E+02  0.41800000000E+01 0. -1.
         -5    1    1    2    0  502  0.45682955157E+02 -0.11029179364E+02  0.57028623931E+02  0.74015616844E+02  0.41800000000E+01 0.  1.
        -11    1    1    2    0    0 -0.35115115262E+02  0.28041540749E-01 -0.21919165030E+02  0.41394708620E+02  0.00000000000E+00 0.  1.
         11    1    1    2    0    0  0.47088046296E+02  0.17338508555E+02  0.15953077384E+02  0.52653667118E+02  0.00000000000E+00 0. -1.
</event>
<event>
 7    1  0.1620881E-005  0.2073560E+03  0.7561462E-02  0.1143677E+00
         -2   -1    0    0    0  501 -0.00000000000E+00  0.00000000000E+00  0.73514833066E+02  0.73514833066E+02  0.00000000000E+00 0.  1.
          2   -1    0    0  501    0  0.00000000000E+00 -0.00000000000E+00 -0.86340545438E+03  0.86340545438E+03  0.00000000000E+00 0. -1.
         23    2    1    2    0    0  0.79241328644E+02 -0.16753755550E+03 -0.16158229418E+03  0.27587116792E+03  0.12509213738E+03 0.  0.
          5    1    3    3  502    0  0.92369071734E+02 -0.66569374279E+02 -0.12095859095E+03  0.16616852930E+03  0.41800000000E+01 0. -1.
         -5    1    3    3    0  502 -0.13127743090E+02 -0.10096818122E+03 -0.40623703222E+02  0.10970263862E+03  0.41800000000E+01 0. -1.
        -11    1    1    2    0    0 -0.92585243818E+02  0.13491434283E+03 -0.43933332192E+03  0.46881518216E+03  0.00000000000E+00 0.  1.
         11    1    1    2    0    0  0.13343915174E+02  0.32623212665E+02 -0.18897500522E+03  0.19223393736E+03  0.00000000000E+00 0. -1.
</event>
<event>
 7    1  0.1620881E-005  0.1175997E+03  0.7561462E-02  0.1247110E+00
          2   -1    0    0  501    0  0.00000000000E+00  0.00000000000E+00  0.32316070605E+03  0.32316070605E+03  0.00000000000E+00 0. -1.
         -2   -1    0    0    0  501 -0.00000000000E+00 -0.00000000000E+00 -0.69352376923E+02  0.69352376923E+02  0.00000000000E+00 0.  1.
         23    2    1    2    0    0 -0.25331575516E+02  0.98296174601E+02  0.11400204797E+03  0.19735147921E+03  0.12508921914E+03 0.  0.
          5    1    3    3  502    0  0.22851087680E+02  0.72847385831E+02  0.12008704381E+03  0.14236321267E+03  0.41800000000E+01 0. -1.
         -5    1    3    3    0  502 -0.48182663196E+02  0.25448788770E+02 -0.60849958411E+01  0.54988266538E+02  0.41800000000E+01 0. -1.
        -11    1    1    2    0    0  0.11594871510E+02 -0.11933557394E+02 -0.11622610471E+02  0.20296204364E+02  0.00000000000E+00 0.  1.
         11    1    1    2    0    0  0.13736704006E+02 -0.86362617208E+02  0.15142889163E+03  0.17486539940E+03  0.00000000000E+00 0. -1.
</event>
<event>
 7    1  0.1620881E-005  0.1489652E+03  0.7561462E-02  0.1201750E+00
         -2   -1    0    0    0  501 -0.00000000000E+00  0.00000000000E+00  0.43559896906E+03  0.43559896906E+03  0.00000000000E+00 0.  1.
          2   -1    0    0  501    0  0.00000000000E+00 -0.00000000000E+00 -0.58901472726E+02  0.58901472726E+02  0.00000000000E+00 0. -1.
         23    2    1    2    0    0 -0.97783058223E+02 -0.61610113784E+02  0.23690305033E+03  0.29176675226E+03  0.12508976726E+03 0.  0.
          5    1    3    3  502    0  0.19135509692E+02 -0.42783503954E+02  0.10122429814E+03  0.11162628219E+03  0.41800000000E+01 0.  1.
         -5    1    3    3    0  502 -0.11691856791E+03 -0.18826609830E+02  0.13567875219E+03  0.18014047007E+03  0.41800000000E+01 0.  1.
        -11    1    1    2    0    0  0.10102130078E+02  0.41109393442E+02  0.79474504483E+01  0.43072000533E+02  0.00000000000E+00 0. -1.
         11    1    1    2    0    0  0.87680928144E+02  0.20500720342E+02  0.13184699555E+03  0.15966168899E+03  0.00000000000E+00 0.  1.
</event>
<event>
 7    1  0.1620881E-005  0.1011660E+03  0.7561462E-02  0.1277863E+00
          2   -1    0    0  501    0  0.00000000000E+00  0.00000000000E+00  0.33719582159E+03  0.33719582159E+03  0.00000000000E+00 0. -1.
         -2   -1    0    0    0  501 -0.00000000000E+00 -0.00000000000E+00 -0.42937115817E+02  0.42937115817E+02  0.00000000000E+00 0.  1.
         23    2    1    2    0    0  0.22668108887E+02  0.16737948317E+02  0.97302218039E+02  0.16095654213E+03  0.12508111266E+03 0.  0.
          5    1    3    3  502    0  0.54909080658E+02 -0.20125893309E+02  0.82062150141E+01  0.59201968591E+02  0.41800000000E+01 0. -1.
         -5    1    3    3    0  502 -0.32240971772E+02  0.36863841626E+02  0.89096003025E+02  0.10175457353E+03  0.41800000000E+01 0. -1.
        -11    1    1    2    0    0  0.27512191017E+02 -0.31903583946E+02  0.10795836907E+03  0.11588687922E+03  0.00000000000E+00 0. -1.
         11    1    1    2    0    0 -0.50180299904E+02  0.15165635628E+02  0.88998118667E+02  0.10328951606E+03  0.00000000000E+00 0.  1.
</event>
<event>
 7    1  0.1620881E-005  0.1831643E+03  0.7561462E-02  0.1164775E+00
          2   -1    0    0  501    0  0.00000000000E+00  0.00000000000E+00  0.10295155287E+03  0.10295155287E+03  0.00000000000E+00 0. -1.
         -2   -1    0    0    0  501 -0.00000000000E+00 -0.00000000000E+00 -0.49355256266E+03  0.49355256266E+03  0.00000000000E+00 0.  1.
         23    2    1    2    0    0  0.17774806181E+03  0.11751030499E+02 -0.31712567768E+03  0.38464185669E+03  0.12509277469E+03 0.  0.
          5    1    3    3  502    0  0.10320819237E+03  0.31826619442E+02 -0.77892775222E+02  0.13322770549E+03  0.41800000000E+01 0. -1.
         -5    1    3    3    0  502  0.74539869441E+02 -0.20075588943E+02 -0.23923290246E+03  0.25141415121E+03  0.41800000000E+01 0. -1.
        -11    1    1    2    0    0 -0.15481245141E+03  0.74821737729E+00 -0.91772173050E+02  0.17997107181E+03  0.00000000000E+00 0.  1.
         11    1    1    2    0    0 -0.22935610396E+02 -0.12499247877E+02  0.18296840946E+02  0.31891187033E+02  0.00000000000E+00 0. -1.
</event>
<event>
 7    1  0.1620881E-005  0.1049637E+03  0.7561462E-02  0.1270191E+00
          3   -1    0    0  501    0  0.00000000000E+00  0.00000000000E+00  0.71392104842E+02  0.71392104842E+02  0.00000000000E+00 0. -1.
         -3   -1    0    0    0  501 -0.00000000000E+00 -0.00000000000E+00 -0.31885961549E+03  0.31885961549E+03  0.00000000000E+00 0.  1.
         23    2    1    2    0    0  0.51125802024E+02 -0.34342293998E+02 -0.24044335509E+03  0.27794519631E+03  0.12508910566E+03 0.  0.
          5    1    3    3  502    0 -0.36340151369E+02 -0.27270195875E+02 -0.12365355845E+03  0.13180267486E+03  0.41800000000E+01 0. -1.
         -5    1    3    3    0  502  0.87465953393E+02 -0.70720981225E+01 -0.11678979664E+03  0.14614252144E+03  0.41800000000E+01 0. -1.
        -11    1    1    2    0    0  0.77205876193E+01  0.10323118721E+02 -0.39058347576E+02  0.41130630540E+02  0.00000000000E+00 0.  1.
         11    1    1    2    0    0 -0.58846389643E+02  0.24019175277E+02  0.32034192015E+02  0.71175893483E+02  0.00000000000E+00 0. -1.
</event>
<event>
 7    1  0.1620881E-005  0.9097275E+02  0.7561462E-02  0.1300513E+00
          4   -1    0    0  501    0  0.00000000000E+00  0.00000000000E+00  0.13967547727E+03  0.13967547727E+03  0.00000000000E+00 0. -1.
         -4   -1    0    0    0  501 -0.00000000000E+00 -0.00000000000E+00 -0.87570245301E+02  0.87570245301E+02  0.00000000000E+00 0.  1.
         23    2    1    2    0    0 -0.81772395244E+01  0.13024045633E+02  0.67198679735E+01  0.12621553346E+03  0.12509480905E+03 0.  0.
          5    1    3    3  502    0 -0.48220076620E+02  0.17889165174E+02  0.46461250202E+02  0.69435712643E+02  0.41800000000E+01 0.  1.
         -5    1    3    3    0  502  0.40042837096E+02 -0.48651195411E+01 -0.39741382229E+02  0.56779820819E+02  0.41800000000E+01 0.  1.
        -11    1    1    2    0    0 -0.40075892949E+02 -0.11210410329E+01  0.25414737495E+02  0.47468334820E+02  0.00000000000E+00 0.  1.
         11    1    1    2    0    0  0.48253132473E+02 -0.11903004600E+02  0.19970626499E+02  0.53561854287E+02  0.00000000000E+00 0. -1.
</event>
<event>
 7    1  0.1620881E-005  0.7262481E+02  0.7561462E-02  0.1351388E+00
         -1   -1    0    0    0  501 -0.00000000000E+00  0.00000000000E+00  0.76056364818E+02  0.76056364818E+02  0.00000000000E+00 0.  1.
          1   -1    0    0  501    0  0.00000000000E+00 -0.00000000000E+00 -0.18445081477E+03  0.18445081477E+03  0.00000000000E+00 0. -1.
         23    2    1    2    0    0  0.21344915988E+02  0.40366742060E+02 -0.44278768087E+02  0.14030101132E+03  0.12505472871E+03 0.  0.
          5    1    3    3  502    0  0.12841784256E+02 -0.21188539151E+02 -0.68893906202E+02  0.73332859797E+02  0.41800000000E+01 0. -1.
         -5    1    3    3    0  502  0.85031317320E+01  0.61555281211E+02  0.24615138115E+02  0.66968151525E+02  0.41800000000E+01 0. -1.
        -11    1    1    2    0    0 -0.16577688943E+02  0.61088393209E+00  0.20319835137E+02  0.26231443915E+02  0.00000000000E+00 0.  1.
         11    1    1    2    0    0 -0.47672270444E+01 -0.40977625992E+02 -0.84435517007E+02  0.93974724356E+02  0.00000000000E+00 0. -1.
</event>
<event>
 6    1  0.1620881E-005  0.1260316E+03  0.7561462E-02  0.1233466E+00
          2   -1    0    0  501    0  0.00000000000E+00  0.00000000000E+00  0.90758956586E+03  0.90758956586E+03  0.00000000000E+00 0. -1.
         -2   -1    0    0    0  501 -0.00000000000E+00 -0.00000000000E+00 -0.22100148783E+02  0.22100148783E+02  0.00000000000E+00 0.  1.
          5    1    1    2  502    0 -0.38844161042E+02 -0.31011224593E+02  0.54253327135E+02  0.73698445052E+02  0.41800000000E+01 0. -1.
         -5    1    1    2    0  502  0.88483824925E+02 -0.13697323255E+02  0.31602433455E+03  0.32849026830E+03  0.41800000000E+01 0.  1.
        -11    1    1    2    0    0 -0.65117388867E+02 -0.12513486602E+00  0.32554397212E+03  0.33199272247E+03  0.00000000000E+00 0. -1.
         11    1    1    2    0    0  0.15477724984E+02  0.44833682714E+02  0.18966778326E+03  0.19550827881E+03  0.00000000000E+00 0.  1.
</event>
<event>
 6    1  0.1620881E-005  0.1046585E+03  0.7561462E-02  0.1270794E+00
          1   -1    0    0  501    0  0.00000000000E+00  0.00000000000E+00  0.30741834469E+03  0.30741834469E+03  0.00000000000E+00 0. -1.
         -1   -1    0    0    0  501 -0.00000000000E+00 -0.00000000000E+00 -0.57890443740E+02  0.57890443740E+02  0.00000000000E+00 0.  1.
          5    1    1    2  502    0  0.47426167912E+02 -0.15957088796E+02  0.38998639416E+02  0.63578584146E+02  0.41800000000E+01 0. -1.
         -5    1    1    2    0  502 -0.94728137246E+02  0.91862061578E+01  0.42480540151E+02  0.10430663958E+03  0.41800000000E+01 0.  1.
        -11    1    1    2    0    0  0.13800929861E+02 -0.17633591864E+02 -0.19199176192E+01  0.22474325590E+02  0.00000000000E+00 0.  1.
         11    1    1    2    0    0  0.33501039473E+02  0.24404474502E+02  0.16996863901E+03  0.17494923912E+03  0.00000000000E+00 0. -1.
</event>
<event>
 7    1  0.1620881E-005  0.1283326E+03  0.7561462E-02  0.1229951E+00
          2   -1    0    0  501    0  0.00000000000E+00  0.00000000000E+00  0.49483776337E+03  0.49483776337E+03  0.00000000000E+00 0.  1.
         -2   -1    0    0    0  501 -0.00000000000E+00 -0.00000000000E+00 -0.42112467438E+02  0.42112467438E+02  0.00000000000E+00 0. -1.
         23    2    1    2    0    0  0.88305813603E+02  0.13260042645E+02  0.18577340347E+03  0.24110839887E+03  0.12509099536E+03 0.  0.
          5    1    3    3  502    0  0.81337469376E+02 -0.30572917444E+02  0.54943745724E+02  0.10289205411E+03  0.41800000000E+01 0. -1.
         -5    1    3    3    0  502  0.69683442268E+01  0.43832960088E+02  0.13082965775E+03  0.13821634476E+03  0.41800000000E+01 0. -1.
        -11    1    1    2    0    0 -0.91852170775E+02  0.18026635649E+02  0.17221850760E+03  0.19601274252E+03  0.00000000000E+00 0. -1.
         11    1    1    2    0    0  0.35463571725E+01 -0.31286678294E+02  0.94733384866E+02  0.99829089428E+02  0.00000000000E+00 0.  1.
</event>
<event>
 7    1  0.1620881E-005  0.1570242E+03  0.7561462E-02  0.1192098E+00
         -2   -1    0    0    0  501 -0.00000000000E+00  0.00000000000E+00  0.79747878450E+02  0.79747878450E+02  0.00000000000E+00 0. -1.
          2   -1    0    0  501    0  0.00000000000E+00 -0.00000000000E+00 -0.40321317974E+03  0.40321317974E+03  0.00000000000E+00 0.  1.
         23    2    1    2    0    0  0.83148699875E+02 -0.10386534400E+03 -0.10198391478E+03  0.20916243286E+03  0.12508592435E+03 0.  0.
          5    1    3    3  502    0  0.10067695975E+03 -0.10899628324E+03 -0.11377515405E+03  0.18702485948E+03  0.41800000000E+01 0.  1.
         -5    1    3    3    0  502 -0.17528259877E+02  0.51309392371E+01  0.11791239269E+02  0.22137573383E+02  0.41800000000E+01 0.  1.
        -11    1    1    2    0    0 -0.53264115690E+02  0.10416082482E+03 -0.21252864940E+03  0.24260043335E+03  0.00000000000E+00 0.  1.
         11    1    1    2    0    0 -0.29884584185E+02 -0.29548082043E+00 -0.89527371096E+01  0.31198191976E+02  0.00000000000E+00 0. -1.
</event>
<event>
 7    1  0.1676351E-005  0.3516989E+03  0.7561462E-02  0.1061920E+00
          2   -1    0    0  501    0  0.00000000000E+00  0.00000000000E+00  0.25991854991E+04  0.25991854991E+04  0.00000000000E+00 0.  1.
         -2   -1    0    0    0  501 -0.00000000000E+00 -0.00000000000E+00 -0.50713981453E+02  0.50713981453E+02  0.00000000000E+00 0. -1.
         23    2    1    2    0    0 -0.30438203345E+03  0.14839064963E+03  0.15533286702E+04  0.15947243246E+04  0.12508999417E+03 0.  0.
          5    1    3    3  502    0 -0.28024336573E+03  0.88391314746E+02  0.13358573193E+04  0.13678017468E+04  0.41800000000E+01 0. -1.
         -5    1    3    3    0  502 -0.24138667727E+02  0.59999334887E+02  0.21747135081E+03  0.22692257774E+03  0.41800000000E+01 0. -1.
        -11    1    1    2    0    0  0.19817355801E+03 -0.61538116012E+02  0.69172949275E+03  0.72218376467E+03  0.00000000000E+00 0.  1.
         11    1    1    2    0    0  0.10620847545E+03 -0.86852533621E+02  0.30341335471E+03  0.33299139128E+03  0.00000000000E+00 0. -1.
</event>
<event>
 7    1  0.1620881E-005  0.1054168E+03  0.7561462E-02  0.1269301E+00
          2   -1    0    0  501    0  0.00000000000E+00  0.00000000000E+00  0.21943171099E+03  0.21943171099E+03  0.00000000000E+00 0.  1.
         -2   -1    0    0    0  501 -0.00000000000E+00 -0.00000000000E+00 -0.60136736582E+02  0.60136736582E+02  0.00000000000E+00 0. -1.
         23    2    1    2    0    0  0.59177499829E+01  0.26020206021E+02  0.54862722847E+02  0.13917225101E+03  0.12508767408E+03 0.  0.
          5    1    3    3  502    0 -0.95600133231E+01  0.69765589323E+02  0.59590279407E+02  0.92342325659E+02  0.41800000000E+01 0.  1.
         -5    1    3    3    0  502  0.15477763306E+02 -0.43745383302E+02 -0.47275565597E+01  0.46829925349E+02  0.41800000000E+01 0.  1.
        -11    1    1    2    0    0  0.21011444294E+02  0.27013161394E+02  0.41787488944E+02  0.54012830995E+02  0.00000000000E+00 0.  1.
         11    1    1    2    0    0 -0.26929194277E+02 -0.53033367416E+02  0.62644762621E+02  0.86383365573E+02  0.00000000000E+00 0. -1.
</event>
<event>
 7    1  0.1620881E-005  0.1657273E+03  0.7561462E-02  0.1182378E+00
         -2   -1    0    0    0  501 -0.00000000000E+00  0.00000000000E+00  0.30360692657E+02  0.30360692657E+02  0.00000000000E+00 0.  1.
          2   -1    0    0  501    0  0.00000000000E+00 -0.00000000000E+00 -0.10035191751E+04  0.10035191751E+04  0.00000000000E+00 0. -1.
         23    2    1    2    0    0 -0.13493858884E+03 -0.40713437654E+02 -0.53111424193E+03  0.56355304639E+03  0.12507474306E+03 0.  0.
          5    1    3    3  502    0 -0.24552382390E+02  0.32795515219E+02 -0.51595035989E+02  0.66014282077E+02  0.41800000000E+01 0.  1.
         -5    1    3    3    0  502 -0.11038620645E+03 -0.73508952873E+02 -0.47951920594E+03  0.49753876431E+03  0.41800000000E+01 0.  1.
        -11    1    1    2    0    0  0.79327607152E+01 -0.16484956044E+02 -0.27699048414E+02  0.33195176628E+02  0.00000000000E+00 0.  1.
         11    1    1    2    0    0  0.12700582812E+03  0.57198393698E+02 -0.41434519215E+03  0.43713164479E+03  0.00000000000E+00 0. -1.
</event>
<event>
 7    1  0.1620881E-005  0.1671934E+03  0.7561462E-02  0.1180807E+00
          1   -1    0    0  501    0  0.00000000000E+00  0.00000000000E+00  0.37706032821E+03  0.37706032821E+03  0.00000000000E+00 0. -1.
         -1   -1    0    0    0  501 -0.00000000000E+00 -0.00000000000E+00 -0.92343205456E+02  0.92343205456E+02  0.00000000000E+00 0.  1.
         23    2    1    2    0    0 -0.13095168596E+03 -0.29863111635E+02  0.64937478658E+02  0.19469104356E+03  0.12509027465E+03 0.  0.
          5    1    3    3  502    0 -0.34980306643E+02 -0.67835260874E+02  0.47334035894E+02  0.89906772963E+02  0.41800000000E+01 0. -1.
         -5    1    3    3    0  502 -0.95971379321E+02  0.37972149238E+02  0.17603442763E+02  0.10478427059E+03  0.41800000000E+01 0. -1.
        -11    1    1    2    0    0  0.26309124627E+02  0.41740075882E+02  0.30210219786E+02  0.57853792899E+02  0.00000000000E+00 0. -1.
         11    1    1    2    0    0  0.10464256134E+03 -0.11876964246E+02  0.18956942431E+03  0.21685869721E+03  0.00000000000E+00 0.  1.
</event>
<event>
 7    1  0.1620881E-005  0.1582135E+03  0.7561462E-02  0.1190729E+00
          1   -1    0    0  501    0  0.00000000000E+00  0.00000000000E+00  0.64601074069E+03  0.64601074069E+03  0.00000000000E+00 0. -1.
         -1   -1    0    0    0  501 -0.00000000000E+00 -0.00000000000E+00 -0.46427675527E+02  0.46427675527E+02  0.00000000000E+00 0.  1.
         23    2    1    2    0    0  0.12588047194E+03  0.16447428121E+02  0.22955973848E+03  0.29062261477E+03  0.12508964617E+03 0.  0.
          5    1    3    3  502    0  0.18054944622E+02 -0.39676322582E+02  0.11690343617E+03  0.12483620223E+03  0.41800000000E+01 0.  1.
         -5    1    3    3    0  502  0.10782552731E+03  0.56123750703E+02  0.11265630231E+03  0.16578641255E+03  0.41800000000E+01 0.  1.
        -11    1    1    2    0    0 -0.93000870883E+01 -0.32063426087E+02  0.44056223670E+02  0.55276629387E+02  0.00000000000E+00 0. -1.
         11    1    1    2    0    0 -0.11658038485E+03  0.15615997966E+02  0.32596710301E+03  0.34653917205E+03  0.00000000000E+00 0.  1.
</event>
<event>
 7    1  0.1620881E-005  0.9672637E+02  0.7561462E-02  0.1287335E+00
         -1   -1    0    0    0  501 -0.00000000000E+00  0.00000000000E+00  0.25336323224E+03  0.25336323224E+03  0.00000000000E+00 0.  1.
          1   -1    0    0  501    0  0.00000000000E+00 -0.00000000000E+00 -0.57268102843E+02  0.57268102843E+02  0.00000000000E+00 0. -1.
         23    2    1    2    0    0  0.30721509308E+02 -0.34481669711E+02  0.14631712702E+03  0.19796216760E+03  0.12509005341E+03 0.  0.
          5    1    3    3  502    0  0.37849628871E+02  0.16721912137E+02 -0.11855136044E+01  0.41606424909E+02  0.41800000000E+01 0.  1.
         -5    1    3    3    0  502 -0.71281195633E+01 -0.51203581848E+02  0.14750264062E+03  0.15635574269E+03  0.41800000000E+01 0.  1.
        -11    1    1    2    0    0  0.28331555618E+02 -0.52612654824E+01  0.22023731023E+02  0.36268480619E+02  0.00000000000E+00 0.  1.
         11    1    1    2    0    0 -0.59053064926E+02  0.39742935194E+02  0.27754271360E+02  0.76400686867E+02  0.00000000000E+00 0. -1.
</event>
<event>
 7    1  0.1620881E-005  0.9505225E+02  0.7561462E-02  0.1291058E+00
          2   -1    0    0  501    0  0.00000000000E+00  0.00000000000E+00  0.69012340588E+03  0.69012340588E+03  0.00000000000E+00 0. -1.
         -2   -1    0    0    0  501 -0.00000000000E+00 -0.00000000000E+00 -0.28702910994E+02  0.28702910994E+02  0.00000000000E+00 0.  1.
         23    2    1    2    0    0  0.80374772944E+02 -0.20413149009E+02  0.28790183131E+03  0.32466818053E+03  0.12508062280E+03 0.  0.
          5    1    3    3  502    0  0.34917685975E+02 -0.71243838105E+00  0.26929418470E+03  0.27158163170E+03  0.41800000000E+01 0. -1.
         -5    1    3    3    0  502  0.45457086969E+02 -0.19700710628E+02  0.18607646609E+02  0.53086548835E+02  0.41800000000E+01 0. -1.
        -11    1    1    2    0    0 -0.35014767985E+02  0.42246382252E+02  0.84257057745E+02  0.10054870745E+03  0.00000000000E+00 0.  1.
         11    1    1    2    0    0 -0.45360004959E+02 -0.21833233243E+02  0.28926160584E+03  0.29360942889E+03  0.00000000000E+00 0. -1.
</event>
<event>
 7    1  0.1620881E-005  0.1360942E+03  0.7561462E-02  0.1218683E+00
          2   -1    0    0  501    0  0.00000000000E+00  0.00000000000E+00  0.22920304030E+03  0.22920304030E+03  0.00000000000E+00 0. -1.
         -2   -1    0    0    0  501 -0.00000000000E+00 -0.00000000000E+00 -0.11735854491E+03  0.11735854491E+03  0.00000000000E+00 0.  1.
         23    2    1    2    0    0  0.43069818482E+02  0.11358694520E+03  0.49261420203E+02  0.18119116989E+03  0.12508616687E+03 0.  0.
          5    1    3    3  502    0  0.14469977065E+02  0.12436268628E+02 -0.39164353093E+02  0.43764825680E+02  0.41800000000E+01 0.  1.
         -5    1    3    3    0  502  0.28599841418E+02  0.10115067658E+03  0.88425773296E+02  0.13742634421E+03  0.41800000000E+01 0.  1.
        -11    1    1    2    0    0  0.31744669984E+01 -0.98878939646E+02  0.62168095286E+02  0.11684174775E+03  0.00000000000E+00 0. -1.
         11    1    1    2    0    0 -0.46244285481E+02 -0.14708005559E+02  0.41497990935E+00  0.48528667563E+02  0.00000000000E+00 0.  1.
</event>
<event>
 7    1  0.1620881E-005  0.1085404E+03  0.7561462E-02  0.1263297E+00
          2   -1    0    0  501    0  0.00000000000E+00  0.00000000000E+00  0.40404098354E+02  0.40404098354E+02  0.00000000000E+00 0. -1.
         -2   -1    0    0    0  501 -0.00000000000E+00 -0.00000000000E+00 -0.32119688012E+03  0.32119688012E+03  0.00000000000E+00 0.  1.
         23    2    1    2    0    0 -0.26987191862E+02 -0.12265421233E+02 -0.16825595614E+03  0.21174558267E+03  0.12508947166E+03 0.  0.
          5    1    3    3  502    0  0.22889874580E+01 -0.64225754537E+02 -0.11438297832E+03  0.13126738033E+03  0.41800000000E+01 0. -1.
         -5    1    3    3    0  502 -0.29276179320E+02  0.51960333304E+02 -0.53872977821E+02  0.80478202341E+02  0.41800000000E+01 0. -1.
        -11    1    1    2    0    0 -0.14961426025E+02 -0.29887359761E+02 -0.67279460681E+02  0.75124059873E+02  0.00000000000E+00 0.  1.
         11    1    1    2    0    0  0.41948617887E+02  0.42152780994E+02 -0.45257364943E+02  0.74731335929E+02  0.00000000000E+00 0. -1.
</event>
<event>
 7    1  0.1620881E-005  0.1074544E+03  0.7561462E-02  0.1265358E+00
          3   -1    0    0  501    0  0.00000000000E+00  0.00000000000E+00  0.75799867959E+03  0.75799867959E+03  0.00000000000E+00 0. -1.
         -3   -1    0    0    0  501 -0.00000000000E+00 -0.00000000000E+00 -0.16597618999E+02  0.16597618999E+02  0.00000000000E+00 0.  1.
         23    2    1    2    0    0 -0.24149420388E+02 -0.13606319476E+02  0.43053998240E+03  0.44919947975E+03  0.12508864750E+03 0.  0.
          5    1    3    3  502    0 -0.73189500369E+02 -0.32042871910E+00  0.19796719589E+03  0.21110492341E+03  0.41800000000E+01 0.  1.
         -5    1    3    3    0  502  0.49040079980E+02 -0.13285890757E+02  0.23257278651E+03  0.23809455635E+03  0.41800000000E+01 0.  1.
        -11    1    1    2    0    0  0.34047692321E+02  0.45725816432E+02  0.13823578414E+03  0.14953002260E+03  0.00000000000E+00 0.  1.
         11    1    1    2    0    0 -0.98982719324E+01 -0.32119496956E+02  0.17262529406E+03  0.17586679624E+03  0.00000000000E+00 0. -1.
</event>
<event>
 7    1  0.1620881E-005  0.8950084E+02  0.7561462E-02  0.1304065E+00
          2   -1    0    0  501    0  0.00000000000E+00  0.00000000000E+00  0.50650685942E+03  0.50650685942E+03  0.00000000000E+00 0. -1.
         -2   -1    0    0    0  501 -0.00000000000E+00 -0.00000000000E+00 -0.37827442288E+02  0.37827442288E+02  0.00000000000E+00 0.  1.
         23    2    1    2    0    0 -0.61563081517E+02 -0.16122580805E+02  0.14345895646E+03  0.20069405585E+03  0.12509069209E+03 0.  0.
          5    1    3    3  502    0  0.76849709881E+01 -0.11628438154E+02 -0.19031150390E+02  0.23956970555E+02  0.41800000000E+01 0. -1.
         -5    1    3    3    0  502 -0.69248052506E+02 -0.44941426506E+01  0.16249010685E+03  0.17673708530E+03  0.41800000000E+01 0. -1.
        -11    1    1    2    0    0  0.47174905757E+02 -0.23552129287E+02  0.87159187224E+02  0.10186706261E+03  0.00000000000E+00 0.  1.
         11    1    1    2    0    0  0.14388175760E+02  0.39674710092E+02  0.23806127345E+03  0.24177318325E+03  0.00000000000E+00 0. -1.
</event>
<event>
 7    1  0.1620881E-005  0.1271755E+03  0.7561462E-02  0.1231708E+00
         -2   -1    0    0    0  501 -0.00000000000E+00  0.00000000000E+00  0.50878813108E+03  0.50878813108E+03  0.00000000000E+00 0.  1.
          2   -1    0    0  501    0  0.00000000000E+00 -0.00000000000E+00 -0.35329422301E+02  0.35329422301E+02  0.00000000000E+00 0. -1.
         23    2    1    2    0    0  0.25535123564E+02  0.67211782408E+02  0.28645846422E+03  0.32074212705E+03  0.12509034378E+03 0.  0.
          5    1    3    3  502    0 -0.40081723368E+02  0.67186218341E+02  0.14760940573E+03  0.16711236203E+03  0.41800000000E+01 0. -1.
         -5    1    3    3    0  502  0.65616846932E+02  0.25564066716E-01  0.13884905849E+03  0.15362976501E+03  0.41800000000E+01 0. -1.
        -11    1    1    2    0    0 -0.33341324956E+02 -0.84742479818E+02  0.10422315588E+03  0.13840302763E+03  0.00000000000E+00 0.  1.
         11    1    1    2    0    0  0.78062013916E+01  0.17530697410E+02  0.82777088682E+02  0.84972398710E+02  0.00000000000E+00 0. -1.
</event>
<event>
 7    1  0.1620881E-005  0.2505652E+03  0.7561462E-02  0.1112948E+00
         -1   -1    0    0    0  501 -0.00000000000E+00  0.00000000000E+00  0.17509691357E+03  0.17509691357E+03  0.00000000000E+00 0.  1.
          1   -1    0    0  501    0  0.00000000000E+00 -0.00000000000E+00 -0.40106981764E+03  0.40106981764E+03  0.00000000000E+00 0. -1.
         23    2    1    2    0    0 -0.88754654297E+02 -0.22353759015E+03 -0.96285735768E+02  0.28768678546E+03  0.12508517395E+03 0.  0.
          5    1    3    3  502    0 -0.68104343148E+02 -0.62486731294E+02 -0.83722109187E+02  0.12477843207E+03  0.41800000000E+01 0.  1.
         -5    1    3    3    0  502 -0.20650311149E+02 -0.16105085886E+03 -0.12563626580E+02  0.16290835338E+03  0.41800000000E+01 0.  1.
        -11    1    1    2    0    0  0.37318539007E+02  0.16072205388E+03 -0.12528501976E+03  0.20717284603E+03  0.00000000000E+00 0.  1.
         11    1    1    2    0    0  0.51436115290E+02  0.62815536273E+02 -0.44021485391E+01  0.81307099721E+02  0.00000000000E+00 0. -1.
</event>
<event>
 7    1  0.1620881E-005  0.2553361E+03  0.7561462E-02  0.1109978E+00
          1   -1    0    0  501    0  0.00000000000E+00  0.00000000000E+00  0.10686690640E+03  0.10686690640E+03  0.00000000000E+00 0. -1.
         -1   -1    0    0    0  501 -0.00000000000E+00 -0.00000000000E+00 -0.67691108692E+03  0.67691108692E+03  0.00000000000E+00 0.  1.
         23    2    1    2    0    0  0.15718341075E+03 -0.17977338414E+03 -0.37675611017E+03  0.46326819843E+03  0.12508862003E+03 0.  0.
          5    1    3    3  502    0  0.15158112089E+03 -0.84992633351E+02 -0.25932057891E+03  0.31219420075E+03  0.41800000000E+01 0.  1.
         -5    1    3    3    0  502  0.56022898592E+01 -0.94780750791E+02 -0.11743553126E+03  0.15107399768E+03  0.41800000000E+01 0.  1.
        -11    1    1    2    0    0 -0.21752607731E+02  0.48659561755E+02 -0.41228517652E+01  0.53459580993E+02  0.00000000000E+00 0. -1.
         11    1    1    2    0    0 -0.13543080302E+03  0.13111382239E+03 -0.18916521858E+03  0.26705021390E+03  0.00000000000E+00 0.  1.
</event>
<event>
 7    1  0.1620881E-005  0.1021686E+03  0.7561462E-02  0.1275801E+00
          1   -1    0    0  501    0  0.00000000000E+00  0.00000000000E+00  0.38909616245E+03  0.38909616245E+03  0.00000000000E+00 0. -1.
         -1   -1    0    0    0  501 -0.00000000000E+00 -0.00000000000E+00 -0.44170947377E+02  0.44170947377E+02  0.00000000000E+00 0.  1.
         23    2    1    2    0    0 -0.14386326243E+02 -0.50940897906E+02  0.10696078229E+03  0.17288915800E+03  0.12509240801E+03 0.  0.
          5    1    3    3  502    0  0.36098912566E+02 -0.26305341518E+02  0.10757568526E+03  0.11655514978E+03  0.41800000000E+01 0.  1.
         -5    1    3    3    0  502 -0.50485238809E+02 -0.24635556388E+02 -0.61490297017E+00  0.56334008218E+02  0.41800000000E+01 0.  1.
        -11    1    1    2    0    0  0.23061468531E+02  0.74527189674E+02  0.15251458247E+03  0.17130916846E+03  0.00000000000E+00 0.  1.
         11    1    1    2    0    0 -0.86751422874E+01 -0.23586291768E+02  0.85449850308E+02  0.89068783368E+02  0.00000000000E+00 0. -1.
</event>
<event>
 7    1  0.1620881E-005  0.2034020E+03  0.7561462E-02  0.1146900E+00
         -2   -1    0    0    0  501 -0.00000000000E+00  0.00000000000E+00  0.13061225145E+03  0.13061225145E+03  0.00000000000E+00 0.  1.
          2   -1    0    0  501    0  0.00000000000E+00 -0.00000000000E+00 -0.36150235835E+03  0.36150235835E+03  0.00000000000E+00 0. -1.
         23    2    1    2    0    0  0.99334510478E+02  0.15450183464E+03 -0.76380525443E+02  0.23498861919E+03  0.12508998603E+03 0.  0.
          5    1    3    3  502    0  0.95983094500E+02  0.35055012142E+02 -0.28265872837E+02  0.10610391262E+03  0.41800000000E+01 0.  1.
         -5    1    3    3    0  502  0.33514159779E+01  0.11944682249E+03 -0.48114652607E+02  0.12888470657E+03  0.41800000000E+01 0.  1.
        -11    1    1    2    0    0 -0.60261754109E+02 -0.73592204983E+02 -0.23009004688E+02  0.97860645508E+02  0.00000000000E+00 0.  1.
         11    1    1    2    0    0 -0.39072756369E+02 -0.80909629654E+02 -0.13150057677E+03  0.15926534510E+03  0.00000000000E+00 0. -1.
</event>
<event>
 7    1  0.1620881E-005  0.7564822E+02  0.7561462E-02  0.1341875E+00
          4   -1    0    0  501    0  0.00000000000E+00  0.00000000000E+00  0.67299923700E+02  0.67299923700E+02  0.00000000000E+00 0. -1.
         -4   -1    0    0    0  501 -0.00000000000E+00 -0.00000000000E+00 -0.19747521082E+03  0.19747521082E+03  0.00000000000E+00 0.  1.
         23    2    1    2    0    0 -0.23284220989E+02 -0.21986599999E+02 -0.10432107252E+03  0.16600183392E+03  0.12509259436E+03 0.  0.
          5    1    3    3  502    0  0.10128052593E+02  0.59933298751E+01 -0.11913134048E+03  0.11978416480E+03  0.41800000000E+01 0. -1.
         -5    1    3    3    0  502 -0.33412273583E+02 -0.27979929874E+02  0.14810267956E+02  0.46217669118E+02  0.41800000000E+01 0. -1.
        -11    1    1    2    0    0 -0.31791969934E+02 -0.73421554607E+01 -0.51691955786E+01  0.33035695573E+02  0.00000000000E+00 0. -1.
         11    1    1    2    0    0  0.55076190923E+02  0.29328755460E+02 -0.20685019022E+02  0.65737605033E+02  0.00000000000E+00 0.  1.
</event>
<event>
 7    1  0.1620881E-005  0.8642792E+02  0.7561462E-02  0.1311740E+00
         -1   -1    0    0    0  501 -0.00000000000E+00  0.00000000000E+00  0.28426268294E+02  0.28426268294E+02  0.00000000000E+00 0.  1.
          1   -1    0    0  501    0  0.00000000000E+00 -0.00000000000E+00 -0.45900036887E+03  0.45900036887E+03  0.00000000000E+00 0. -1.
         23    2    1    2    0    0  0.29758054605E+02  0.10438604233E+02 -0.20215851204E+03  0.23981077657E+03  0.12508652324E+03 0.  0.
          5    1    3    3  502    0  0.51237273038E+02  0.18910701432E+02 -0.23476132377E+02  0.59594244423E+02  0.41800000000E+01 0.  1.
         -5    1    3    3    0  502 -0.21479218433E+02 -0.84720971996E+01 -0.17868237967E+03  0.18021653214E+03  0.41800000000E+01 0.  1.
        -11    1    1    2    0    0 -0.56863828425E+02  0.13508766789E+02 -0.12328471365E+03  0.13643717376E+03  0.00000000000E+00 0. -1.
         11    1    1    2    0    0  0.27105773820E+02 -0.23947371022E+02 -0.10513087489E+03  0.11117868685E+03  0.00000000000E+00 0.  1.
</event>
<event>
 7    1  0.1620881E-005  0.1245260E+03  0.7561462E-02  0.1235812E+00
         -1   -1    0    0    0  501 -0.00000000000E+00  0.00000000000E+00  0.90054353816E+02  0.90054353816E+02  0.00000000000E+00 0.  1.
          1   -1    0    0  501    0  0.00000000000E+00 -0.00000000000E+00 -0.23118326620E+03  0.23118326620E+03  0.00000000000E+00 0. -1.
         23    2    1    2    0    0 -0.93643694171E+02  0.89302374831E+01 -0.92289183750E+02  0.18169739134E+03  0.12509099881E+03 0.  0.
          5    1    3    3  502    0 -0.64581377089E+02 -0.48037354162E+02 -0.85096722356E+02  0.11720608439E+03  0.41800000000E+01 0.  1.
         -5    1    3    3    0  502 -0.29062317082E+02  0.56967591645E+02 -0.71924613935E+01  0.64491306956E+02  0.41800000000E+01 0.  1.
        -11    1    1    2    0    0  0.72924672819E+02 -0.26103178981E+02  0.67804926144E+01  0.77751906336E+02  0.00000000000E+00 0.  1.
         11    1    1    2    0    0  0.20719021352E+02  0.17172941498E+02 -0.55620221244E+02  0.61788322333E+02  0.00000000000E+00 0. -1.
</event>
<event>
 7    1  0.1620881E-005  0.1367751E+03  0.7561462E-02  0.1217735E+00
          2   -1    0    0  501    0  0.00000000000E+00  0.00000000000E+00  0.15842565149E+03  0.15842565149E+03  0.00000000000E+00 0. -1.
         -2   -1    0    0    0  501 -0.00000000000E+00 -0.00000000000E+00 -0.36389080057E+03  0.36389080057E+03  0.00000000000E+00 0.  1.
         23    2    1    2    0    0 -0.95719804225E+02 -0.62293513200E+02 -0.30403468359E+03  0.34803751219E+03  0.12510099261E+03 0.  0.
          5    1    3    3  502    0 -0.23351693527E+02 -0.61715941233E+02 -0.47379986665E+02  0.81341837509E+02  0.41800000000E+01 0. -1.
         -5    1    3    3    0  502 -0.72368110698E+02 -0.57757196737E+00 -0.25665469693E+03  0.26669567468E+03  0.41800000000E+01 0. -1.
        -11    1    1    2    0    0  0.79190133363E+02  0.96653390595E+01  0.27654034189E+02  0.84434836461E+02  0.00000000000E+00 0.  1.
         11    1    1    2    0    0  0.16529670862E+02  0.52628174141E+02  0.70915500328E+02  0.89844103418E+02  0.00000000000E+00 0. -1.
</event>
<event>
 7    1  0.1620881E-005  0.1189404E+03  0.7561462E-02  0.1244855E+00
         -1   -1    0    0    0  501 -0.00000000000E+00  0.00000000000E+00  0.32061110496E+03  0.32061110496E+03  0.00000000000E+00 0.  1.
          1   -1    0    0  501    0  0.00000000000E+00 -0.00000000000E+00 -0.71569932515E+02  0.71569932515E+02  0.00000000000E+00 0. -1.
         23    2    1    2    0    0  0.89375131698E+01  0.92526774367E+02  0.20156447447E+03  0.25478825482E+03  0.12509090418E+03 0.  0.
          5    1    3    3  502    0  0.35305916741E+02 -0.94478172175E+01  0.10710440062E+03  0.11324572415E+03  0.41800000000E+01 0.  1.
         -5    1    3    3    0  502 -0.26368403571E+02  0.10197459158E+03  0.94460073853E+02  0.14154253067E+03  0.41800000000E+01 0.  1.
        -11    1    1    2    0    0 -0.16255623543E+02 -0.73973445456E+02 -0.10146988257E+02  0.76415164072E+02  0.00000000000E+00 0. -1.
         11    1    1    2    0    0  0.73181103735E+01 -0.18553328911E+02  0.57623686234E+02  0.60977618585E+02  0.00000000000E+00 0.  1.
</event>
<event>
 7    1  0.1620881E-005  0.1080570E+03  0.7561462E-02  0.1264211E+00
          2   -1    0    0  501    0  0.00000000000E+00  0.00000000000E+00  0.69153049206E+02  0.69153049206E+02  0.00000000000E+00 0.  1.
         -2   -1    0    0    0  501 -0.00000000000E+00 -0.00000000000E+00 -0.29168958986E+03  0.29168958986E+03  0.00000000000E+00 0. -1.
         23    2    1    2    0    0 -0.35677433227E+02  0.80982024487E+02 -0.15120838362E+03  0.21527075805E+03  0.12508619614E+03 0.  0.
          5    1    3    3  502    0 -0.12392485296E+02  0.41310946360E+02 -0.16211919626E+03  0.16781023264E+03  0.41800000000E+01 0.  1.
         -5    1    3    3    0  502 -0.23284947931E+02  0.39671078127E+02  0.10910812644E+02  0.47460525413E+02  0.41800000000E+01 0.  1.
        -11    1    1    2    0    0 -0.24404662770E+02 -0.56810859562E+02 -0.39897786308E+02  0.73585967965E+02  0.00000000000E+00 0. -1.
         11    1    1    2    0    0  0.60082095997E+02 -0.24171164925E+02 -0.31430370721E+02  0.71985913045E+02  0.00000000000E+00 0.  1.
</event>
<event>
 7    1  0.1620881E-005  0.1053714E+03  0.7561462E-02  0.1269390E+00
         -1   -1    0    0    0  501 -0.00000000000E+00  0.00000000000E+00  0.34843159874E+02  0.34843159874E+02  0.00000000000E+00 0.  1.
          1   -1    0    0  501    0  0.00000000000E+00 -0.00000000000E+00 -0.45702189687E+03  0.45702189687E+03  0.00000000000E+00 0. -1.
         23    2    1    2    0    0  0.25516271218E+02 -0.55414028792E+01 -0.12039795817E+03  0.17557719823E+03  0.12509954822E+03 0.  0.
          5    1    3    3  502    0  0.69240243333E+02  0.25603260229E+02 -0.68568006460E+02  0.10084037952E+03  0.41800000000E+01 0.  1.
         -5    1    3    3    0  502 -0.43723972115E+02 -0.31144663109E+02 -0.51829951706E+02  0.74736818714E+02  0.41800000000E+01 0.  1.
        -11    1    1    2    0    0 -0.12298686371E+02 -0.36695000050E+02 -0.67016833761E+02  0.77388866916E+02  0.00000000000E+00 0.  1.
         11    1    1    2    0    0 -0.13217584847E+02  0.42236402929E+02 -0.23476394507E+03  0.23889899160E+03  0.00000000000E+00 0. -1.
</event>
<event>
 7    1  0.1620881E-005  0.9358731E+02  0.7561462E-02  0.1294390E+00
         -1   -1    0    0    0  501 -0.00000000000E+00  0.00000000000E+00  0.27755947824E+03  0.27755947824E+03  0.00000000000E+00 0.  1.
          1   -1    0    0  501    0  0.00000000000E+00 -0.00000000000E+00 -0.80768927561E+02  0.80768927561E+02  0.00000000000E+00 0. -1.
         23    2    1    2    0    0 -0.43356356581E+02  0.10803870114E+02  0.23154045442E+03  0.26697306598E+03  0.12516844116E+03 0.  0.
          5    1    3    3  502    0 -0.69623326456E+02 -0.12957167676E+02  0.21727032395E+03  0.22855888049E+03  0.41800000000E+01 0.  1.
         -5    1    3    3    0  502  0.26266969875E+02  0.23761037790E+02  0.14270130462E+02  0.38414185487E+02  0.41800000000E+01 0.  1.
        -11    1    1    2    0    0 -0.16884378778E+02 -0.11313728387E+02  0.25747870106E+01  0.20486879335E+02  0.00000000000E+00 0.  1.
         11    1    1    2    0    0  0.60240735358E+02  0.50985827312E+00 -0.37324690749E+02  0.70868460485E+02  0.00000000000E+00 0. -1.
</event>
<event>
 7    1  0.1620881E-005  0.1050341E+03  0.7561462E-02  0.1270053E+00
          2   -1    0    0  501    0  0.00000000000E+00  0.00000000000E+00  0.15891131990E+03  0.15891131990E+03  0.00000000000E+00 0. -1.
         -2   -1    0    0    0  501 -0.00000000000E+00 -0.00000000000E+00 -0.80806147229E+02  0.80806147229E+02  0.00000000000E+00 0.  1.
         23    2    1    2    0    0 -0.10002635483E+02  0.32516533834E+02  0.35355018175E+02  0.13436750162E+03  0.12508905025E+03 0.  0.
          5    1    3    3  502    0  0.24596606490E+02  0.71605243118E+02  0.11031631495E+02  0.76625538734E+02  0.41800000000E+01 0. -1.
         -5    1    3    3    0  502 -0.34599241973E+02 -0.39088709283E+02  0.24323386680E+02  0.57741962888E+02  0.41800000000E+01 0. -1.
        -11    1    1    2    0    0  0.25153106536E+02 -0.51660294446E+02  0.15734440272E+01  0.57479914029E+02  0.00000000000E+00 0.  1.
         11    1    1    2    0    0 -0.15150471053E+02  0.19143760612E+02  0.41176710471E+02  0.47870051480E+02  0.00000000000E+00 0. -1.
</event>
<event>
 6    1  0.1620881E-005  0.1098568E+03  0.7561462E-02  0.1260835E+00
          2   -1    0    0  501    0  0.00000000000E+00  0.00000000000E+00  0.73941420838E+02  0.73941420838E+02  0.00000000000E+00 0. -1.
         -2   -1    0    0    0  501 -0.00000000000E+00 -0.00000000000E+00 -0.48063203837E+03  0.48063203837E+03  0.00000000000E+00 0.  1.
          5    1    1    2  502    0  0.63687104523E+02 -0.35342536245E+02 -0.46701162857E+02  0.86623398473E+02  0.41800000000E+01 0. -1.
         -5    1    1    2    0  502  0.10092507027E+02 -0.38439148430E+02 -0.32388362170E+03  0.32633954653E+03  0.41800000000E+01 0.  1.
        -11    1    1    2    0    0 -0.50735722968E+02  0.64229785635E+02  0.16402293766E+02  0.83478225836E+02  0.00000000000E+00 0. -1.
         11    1    1    2    0    0 -0.23043888581E+02  0.95518990401E+01 -0.52508126746E+02  0.58132288365E+02  0.00000000000E+00 0.  1.
</event>
<event>
 7    1  0.1620881E-005  0.1287773E+03  0.7561462E-02  0.1229281E+00
          2   -1    0    0  501    0  0.00000000000E+00  0.00000000000E+00  0.74097435995E+03  0.74097435995E+03  0.00000000000E+00 0.  1.
         -2   -1    0    0    0  501 -0.00000000000E+00 -0.00000000000E+00 -0.32318082653E+02  0.32318082653E+02  0.00000000000E+00 0. -1.
         23    2    1    2    0    0 -0.11150346016E+03 -0.52939602846E+02  0.39001951722E+03  0.42778378463E+03  0.12509244344E+03 0.  0.
          5    1    3    3  502    0 -0.62937089076E+02 -0.22070175474E+02  0.51460742249E+02  0.84343643623E+02  0.41800000000E+01 0. -1.
         -5    1    3    3    0  502 -0.48566371080E+02 -0.30869427371E+02  0.33855877497E+03  0.34344014100E+03  0.41800000000E+01 0. -1.
        -11    1    1    2    0    0  0.72930109034E+02  0.59224763152E+02  0.23889940495E+03  0.25670858782E+03  0.00000000000E+00 0. -1.
         11    1    1    2    0    0  0.38573351122E+02 -0.62851603065E+01  0.79737355135E+02  0.88800070162E+02  0.00000000000E+00 0.  1.
</event>
<event>
 7    1  0.1620881E-005  0.1792065E+03  0.7561462E-02  0.1168573E+00
          3   -1    0    0  501    0  0.00000000000E+00  0.00000000000E+00  0.30397091877E+03  0.30397091877E+03  0.00000000000E+00 0. -1.
         -3   -1    0    0    0  501 -0.00000000000E+00 -0.00000000000E+00 -0.13620056890E+03  0.13620056890E+03  0.00000000000E+00 0.  1.
         23    2    1    2    0    0 -0.97865233825E+02  0.12702296665E+03  0.21258559932E+02  0.20448138202E+03  0.12509305006E+03 0.  0.
          5    1    3    3  502    0 -0.56336649924E+02  0.11892936544E+03  0.62057631054E+02  0.14555629173E+03  0.41800000000E+01 0. -1.
         -5    1    3    3    0  502 -0.41528583901E+02  0.80936012045E+01 -0.40799071122E+02  0.58925090290E+02  0.41800000000E+01 0. -1.
        -11    1    1    2    0    0  0.26141712277E+02 -0.10645593013E+03  0.94595409800E+02  0.14479138695E+03  0.00000000000E+00 0.  1.
         11    1    1    2    0    0  0.71723521548E+02 -0.20567036517E+02  0.51916380137E+02  0.90898718697E+02  0.00000000000E+00 0. -1.
</event>
<event>
 7    1  0.1620881E-005  0.1229531E+03  0.7561462E-02  0.1238303E+00
          1   -1    0    0  501    0  0.00000000000E+00  0.00000000000E+00  0.16062829557E+03  0.16062829557E+03  0.00000000000E+00 0. -1.
         -1   -1    0    0    0  501 -0.00000000000E+00 -0.00000000000E+00 -0.13266198895E+03  0.13266198895E+03  0.00000000000E+00 0.  1.
         23    2    1    2    0    0 -0.83620095344E+02  0.20491764325E+02 -0.30477447446E+02  0.15488146594E+03  0.12508861235E+03 0.  0.
          5    1    3    3  502    0 -0.64867471142E+02 -0.43384876551E+02 -0.39508148687E+02  0.87569415542E+02  0.41800000000E+01 0. -1.
         -5    1    3    3    0  502 -0.18752624201E+02  0.63876640875E+02  0.90307012416E+01  0.67312050399E+02  0.41800000000E+01 0. -1.
        -11    1    1    2    0    0  0.80492388421E+02 -0.17152225313E+00  0.44298402052E+01  0.80614375255E+02  0.00000000000E+00 0.  1.
         11    1    1    2    0    0  0.31277069228E+01 -0.20320242072E+02  0.54013913863E+02  0.57794443325E+02  0.00000000000E+00 0. -1.
</event>
<event>
 7    1  0.1620881E-005  0.1298055E+03  0.7561462E-02  0.1227745E+00
          1   -1    0    0  501    0  0.00000000000E+00  0.00000000000E+00  0.11104205728E+03  0.11104205728E+03  0.00000000000E+00 0. -1.
         -1   -1    0    0    0  501 -0.00000000000E+00 -0.00000000000E+00 -0.29322998940E+03  0.29322998940E+03  0.00000000000E+00 0.  1.
         23    2    1    2    0    0 -0.63402971508E+02 -0.10125303456E+03 -0.18173441468E+03  0.25089307029E+03  0.12509125244E+03 0.  0.
          5    1    3    3  502    0 -0.48908931747E+02 -0.14093241857E+02 -0.14741907740E+03  0.15601461423E+03  0.41800000000E+01 0.  1.
         -5    1    3    3    0  502 -0.14494039760E+02 -0.87159792701E+02 -0.34315337281E+02  0.94878456063E+02  0.41800000000E+01 0.  1.
        -11    1    1    2    0    0  0.84724844505E+01  0.22715210414E+02  0.42048015540E+02  0.48536577833E+02  0.00000000000E+00 0. -1.
         11    1    1    2    0    0  0.54930487057E+02  0.78537824144E+02 -0.42501532970E+02  0.10484239855E+03  0.00000000000E+00 0.  1.
</event>
<event>
 7    1  0.1620881E-005  0.1985400E+03  0.7561462E-02  0.1150977E+00
         -1   -1    0    0    0  501 -0.00000000000E+00  0.00000000000E+00  0.12150400052E+03  0.12150400052E+03  0.00000000000E+00 0.  1.
          1   -1    0    0  501    0  0.00000000000E+00 -0.00000000000E+00 -0.43116540746E+03  0.43116540746E+03  0.00000000000E+00 0. -1.
         23    2    1    2    0    0 -0.18507765520E+03  0.32846444669E+02 -0.72270039383E+02  0.23707131257E+03  0.12508885350E+03 0.  0.
          5    1    3    3  502    0 -0.17336566986E+03  0.27282995043E+02 -0.12749371677E+02  0.17601146605E+03  0.41800000000E+01 0. -1.
         -5    1    3    3    0  502 -0.11711985341E+02  0.55634496262E+01 -0.59520667705E+02  0.61059846515E+02  0.41800000000E+01 0. -1.
        -11    1    1    2    0    0  0.46619324862E+02  0.30433762444E+02 -0.60447568741E+02  0.82179583315E+02  0.00000000000E+00 0. -1.
         11    1    1    2    0    0  0.13845833034E+03 -0.63280207113E+02 -0.17694379881E+03  0.23341851210E+03  0.00000000000E+00 0.  1.
</event>
<event>
 7    1  0.1620881E-005  0.1053578E+03  0.7561462E-02  0.1269416E+00
          1   -1    0    0  501    0  0.00000000000E+00  0.00000000000E+00  0.10713101749E+03  0.10713101749E+03  0.00000000000E+00 0. -1.
         -1   -1    0    0    0  501 -0.00000000000E+00 -0.00000000000E+00 -0.17207393622E+03  0.17207393622E+03  0.00000000000E+00 0.  1.
         23    2    1    2    0    0  0.63116864660E+02  0.55510450217E+02 -0.42498513261E+02  0.15123869775E+03  0.11832950343E+03 0.  0.
          5    1    3    3  502    0  0.81911155270E+01  0.16009618487E+02  0.40243588029E+02  0.44276642094E+02  0.41800000000E+01 0. -1.
         -5    1    3    3    0  502  0.54925749133E+02  0.39500831730E+02 -0.82742101290E+02  0.10696205566E+03  0.41800000000E+01 0.  1.
        -11    1    1    2    0    0 -0.58422478758E+02 -0.80263750044E+02 -0.97441053305E+01  0.99751707675E+02  0.00000000000E+00 0. -1.
         11    1    1    2    0    0 -0.46943859019E+01  0.24753299827E+02 -0.12700300130E+02  0.28214548281E+02  0.00000000000E+00 0.  1.
</event>
<event>
 7    1  0.1620881E-005  0.1214275E+03  0.7561462E-02  0.1240761E+00
         -1   -1    0    0    0  501 -0.00000000000E+00  0.00000000000E+00  0.21567857642E+02  0.21567857642E+02  0.00000000000E+00 0.  1.
          1   -1    0    0  501    0  0.00000000000E+00 -0.00000000000E+00 -0.84158663346E+03  0.84158663346E+03  0.00000000000E+00 0. -1.
         23    2    1    2    0    0 -0.21831132897E+02 -0.59462633793E+02 -0.28109492565E+03  0.31412877961E+03  0.12510047870E+03 0.  0.
          5    1    3    3  502    0  0.18678399203E+02 -0.87466839996E+02 -0.20054161451E+03  0.21962181642E+03  0.41800000000E+01 0. -1.
         -5    1    3    3    0  502 -0.40509532101E+02  0.28004206202E+02 -0.80553311138E+02  0.94506963189E+02  0.41800000000E+01 0. -1.
        -11    1    1    2    0    0  0.49630439929E+02  0.15710706135E+02 -0.23333917678E+03  0.23907567479E+03  0.00000000000E+00 0. -1.
         11    1    1    2    0    0 -0.27799307032E+02  0.43751927658E+02 -0.30558467339E+03  0.30995003671E+03  0.00000000000E+00 0.  1.
</event>
<event>
 7    1  0.1620881E-005  0.1009246E+03  0.7561462E-02  0.1278364E+00
          1   -1    0    0  501    0  0.00000000000E+00  0.00000000000E+00  0.39615824653E+03  0.39615824653E+03  0.00000000000E+00 0. -1.
         -1   -1    0    0    0  501 -0.00000000000E+00 -0.00000000000E+00 -0.31962315608E+02  0.31962315608E+02  0.00000000000E+00 0.  1.
         23    2    1    2    0    0  0.10575798183E+02 -0.93691899456E+01  0.15186563102E+03  0.19725638214E+03  0.12508909299E+03 0.  0.
          5    1    3    3  502    0 -0.19870828960E+01 -0.66631351377E+02  0.73746993900E+02  0.99497623057E+02  0.41800000000E+01 0. -1.
         -5    1    3    3    0  502  0.12562881079E+02  0.57262161431E+02  0.78118637116E+02  0.97758759084E+02  0.41800000000E+01 0. -1.
        -11    1    1    2    0    0  0.45802233512E+01  0.40976246209E+02  0.50074137109E+02  0.64864862649E+02  0.00000000000E+00 0.  1.
         11    1    1    2    0    0 -0.15156021535E+02 -0.31607056264E+02  0.16225616280E+03  0.16599931735E+03  0.00000000000E+00 0. -1.
</event>
<event>
 7    1  0.1620881E-005  0.2387334E+03  0.7561462E-02  0.1120639E+00
         -2   -1    0    0    0  501 -0.00000000000E+00  0.00000000000E+00  0.19335714235E+03  0.19335714235E+03  0.00000000000E+00 0.  1.
          2   -1    0    0  501    0  0.00000000000E+00 -0.00000000000E+00 -0.35443460365E+03  0.35443460365E+03  0.00000000000E+00 0. -1.
         23    2    1    2    0    0 -0.19325833783E+03 -0.89016855389E+02  0.26681451148E+02  0.24826157658E+03  0.12509646232E+03 0.  0.
          5    1    3    3  502    0 -0.13101380178E+03 -0.11703004039E+03  0.35615989778E+02  0.17929477889E+03  0.41800000000E+01 0.  1.
         -5    1    3    3    0  502 -0.62244536055E+02  0.28013185000E+02 -0.89345386303E+01  0.68966797686E+02  0.41800000000E+01 0.  1.
        -11    1    1    2    0    0  0.41681411651E+02  0.68798766688E+02 -0.66479581916E+02  0.10435585842E+03  0.00000000000E+00 0.  1.
         11    1    1    2    0    0  0.15157692618E+03  0.20218088700E+02 -0.12127933053E+03  0.19517431101E+03  0.00000000000E+00 0. -1.
</event>
<event>
 7    1  0.1620881E-005  0.8532865E+02  0.7561462E-02  0.1314575E+00
         -2   -1    0    0    0  501 -0.00000000000E+00  0.00000000000E+00  0.56986131557E+02  0.56986131557E+02  0.00000000000E+00 0.  1.
          2   -1    0    0  501    0  0.00000000000E+00 -0.00000000000E+00 -0.27284765284E+03  0.27284765284E+03  0.00000000000E+00 0. -1.
         23    2    1    2    0    0 -0.23139986197E+02 -0.54057531806E+02 -0.97050075906E+02  0.16889560346E+03  0.12509728985E+03 0.  0.
          5    1    3    3  502    0 -0.46414102728E+02 -0.21225596411E+02 -0.11404205904E+03  0.12501143350E+03  0.41800000000E+01 0. -1.
         -5    1    3    3    0  502  0.23274116532E+02 -0.32831935395E+02  0.16991983137E+02  0.43884169960E+02  0.41800000000E+01 0. -1.
        -11    1    1    2    0    0  0.15679542308E+02 -0.72173141915E+01  0.86570885172E+01  0.19310174849E+02  0.00000000000E+00 0.  1.
         11    1    1    2    0    0  0.74604438890E+01  0.61274845997E+02 -0.12746853389E+03  0.14162800609E+03  0.00000000000E+00 0. -1.
</event>
<event>
 7    1  0.1620881E-005  0.7968259E+02  0.7561462E-02  0.1329955E+00
         -3   -1    0    0    0  501 -0.00000000000E+00  0.00000000000E+00  0.10340923506E+03  0.10340923506E+03  0.00000000000E+00 0.  1.
          3   -1    0    0  501    0  0.00000000000E+00 -0.00000000000E+00 -0.12714258519E+03  0.12714258519E+03  0.00000000000E+00 0. -1.
         23    2    1    2    0    0 -0.28885466652E+02  0.28073585963E+01  0.61449898456E+01  0.12856233673E+03  0.12509301371E+03 0.  0.
          5    1    3    3  502    0  0.25106532133E+02 -0.21527922703E+00  0.51768543708E+02  0.57687423400E+02  0.41800000000E+01 0. -1.
         -5    1    3    3    0  502 -0.53991998785E+02  0.30226378233E+01 -0.45623553862E+02  0.70874913328E+02  0.41800000000E+01 0. -1.
        -11    1    1    2    0    0  0.27588780646E+01 -0.36743002638E+02 -0.43537110822E+02  0.57036301333E+02  0.00000000000E+00 0. -1.
         11    1    1    2    0    0  0.26126588588E+02  0.33935644042E+02  0.13658770854E+02  0.44953182190E+02  0.00000000000E+00 0.  1.
</event>
<event>
 7    1  0.1620881E-005  0.1105119E+03  0.7561462E-02  0.1259625E+00
         -1   -1    0    0    0  501 -0.00000000000E+00  0.00000000000E+00  0.15441927600E+03  0.15441927600E+03  0.00000000000E+00 0.  1.
          1   -1    0    0  501    0  0.00000000000E+00 -0.00000000000E+00 -0.17132312655E+03  0.17132312655E+03  0.00000000000E+00 0. -1.
         23    2    1    2    0    0  0.95795410668E+02  0.10531690754E+02  0.63208103796E+02  0.17008919126E+03  0.12508953347E+03 0.  0.
          5    1    3    3  502    0 -0.10897934696E+02  0.67502676597E+00  0.61753118306E+02  0.62850144489E+02  0.41800000000E+01 0.  1.
         -5    1    3    3    0  502  0.10669334536E+03  0.98566639879E+01  0.14549854895E+01  0.10723904677E+03  0.41800000000E+01 0.  1.
        -11    1    1    2    0    0 -0.40649947965E+02 -0.21335976590E+02 -0.87660513763E+02  0.98954574628E+02  0.00000000000E+00 0. -1.
         11    1    1    2    0    0 -0.55145462703E+02  0.10804285836E+02  0.75485594197E+01  0.56698636654E+02  0.00000000000E+00 0.  1.
</event>
<event>
 7    1  0.1620881E-005  0.8708231E+02  0.7561462E-02  0.1310075E+00
         -1   -1    0    0    0  501 -0.00000000000E+00  0.00000000000E+00  0.58951794844E+03  0.58951794844E+03  0.00000000000E+00 0.  1.
          1   -1    0    0  501    0  0.00000000000E+00 -0.00000000000E+00 -0.26138140168E+02  0.26138140168E+02  0.00000000000E+00 0. -1.
         23    2    1    2    0    0 -0.15988159215E+02 -0.32772044200E+02  0.27940771288E+03  0.30829473773E+03  0.12508935678E+03 0.  0.
          5    1    3    3  502    0  0.21887480827E+02  0.33323810422E+01 -0.14462308179E+01  0.22577213378E+02  0.41800000000E+01 0.  1.
         -5    1    3    3    0  502 -0.37875640042E+02 -0.36104425242E+02  0.28085394370E+03  0.28571752435E+03  0.41800000000E+01 0.  1.
        -11    1    1    2    0    0  0.39785411810E+02 -0.17542967121E+02  0.47368902159E+02  0.64299670139E+02  0.00000000000E+00 0. -1.
         11    1    1    2    0    0 -0.23797252595E+02  0.50315011321E+02  0.23660319324E+03  0.24306168074E+03  0.00000000000E+00 0.  1.
</event>
<event>
 7    1  0.1620881E-005  0.2528106E+03  0.7561462E-02  0.1111541E+00
         -2   -1    0    0    0  501 -0.00000000000E+00  0.00000000000E+00  0.48084347209E+02  0.48084347209E+02  0.00000000000E+00 0. -1.
          2   -1    0    0  501    0  0.00000000000E+00 -0.00000000000E+00 -0.15214886408E+04  0.15214886408E+04  0.00000000000E+00 0.  1.
         23    2    1    2    0    0  0.24296472667E+03 -0.63447800685E+01 -0.62585265542E+03  0.68294298683E+03  0.12508981705E+03 0.  0.
          5    1    3    3  502    0  0.75863848229E+02 -0.44588032755E+02 -0.12033768369E+03  0.14913767683E+03  0.41800000000E+01 0.  1.
         -5    1    3    3    0  502  0.16710087844E+03  0.38243252686E+02 -0.50551497172E+03  0.53380531001E+03  0.41800000000E+01 0.  1.
        -11    1    1    2    0    0 -0.20691750977E+03 -0.84451825186E+01 -0.79298688860E+03  0.81958183390E+03  0.00000000000E+00 0.  1.
         11    1    1    2    0    0 -0.36047216900E+02  0.14789962587E+02 -0.54564749560E+02  0.67048167269E+02  0.00000000000E+00 0. -1.
</event>
<event>
 7    1  0.1620881E-005  0.1419339E+03  0.7561462E-02  0.1210750E+00
         -3   -1    0    0    0  501 -0.00000000000E+00  0.00000000000E+00  0.98799416682E+02  0.98799416682E+02  0.00000000000E+00 0.  1.
          3   -1    0    0  501    0  0.00000000000E+00 -0.00000000000E+00 -0.27069611505E+03  0.27069611505E+03  0.00000000000E+00 0. -1.
         23    2    1    2    0    0 -0.62150865930E+02 -0.32938358297E+02 -0.16037164116E+02  0.14440483770E+03  0.12509157020E+03 0.  0.
          5    1    3    3  502    0 -0.43517355787E+02 -0.74542181082E+02 -0.37064105972E+02  0.94029343115E+02  0.41800000000E+01 0.  1.
         -5    1    3    3    0  502 -0.18633510143E+02  0.41603822785E+02  0.21026941856E+02  0.50375494582E+02  0.41800000000E+01 0.  1.
        -11    1    1    2    0    0  0.10468129763E+03  0.30677098179E+02 -0.71034153815E+02  0.13017338221E+03  0.00000000000E+00 0. -1.
         11    1    1    2    0    0 -0.42530431704E+02  0.22612601186E+01 -0.84825380432E+02  0.94917311823E+02  0.00000000000E+00 0.  1.
</event>
<event>
 7    1  0.1620881E-005  0.9207127E+02  0.7561462E-02  0.1297912E+00
         -2   -1    0    0    0  501 -0.00000000000E+00  0.00000000000E+00  0.63549122952E+03  0.63549122952E+03  0.00000000000E+00 0.  1.
          2   -1    0    0  501    0  0.00000000000E+00 -0.00000000000E+00 -0.38637188561E+02  0.38637188561E+02  0.00000000000E+00 0. -1.
         23    2    1    2    0    0  0.49216624782E+02 -0.27434638376E+02  0.51050730440E+03  0.52862007827E+03  0.12508614537E+03 0.  0.
          5    1    3    3  502    0 -0.22642599474E+02 -0.22799393832E+02  0.35092243330E+02  0.47764396908E+02  0.41800000000E+01 0.  1.
         -5    1    3    3    0  502  0.71859224256E+02 -0.46352445441E+01  0.47541506107E+03  0.48085568136E+03  0.41800000000E+01 0.  1.
        -11    1    1    2    0    0 -0.47716934649E+02  0.42843051804E+02  0.10390416408E+03  0.12210040235E+03  0.00000000000E+00 0.  1.
         11    1    1    2    0    0 -0.14996901324E+01 -0.15408413428E+02 -0.17557427526E+02  0.23407937461E+02  0.00000000000E+00 0. -1.
</event>
<event>
 7    1  0.1620881E-005  0.1271351E+03  0.7561462E-02  0.1231770E+00
         -1   -1    0    0    0  501 -0.00000000000E+00  0.00000000000E+00  0.53415647142E+02  0.53415647142E+02  0.00000000000E+00 0.  1.
          1   -1    0    0  501    0  0.00000000000E+00 -0.00000000000E+00 -0.43513987904E+03  0.43513987904E+03  0.00000000000E+00 0. -1.
         23    2    1    2    0    0  0.96414115438E+02 -0.19549711542E+02 -0.14824406059E+03  0.21748852587E+03  0.12508830684E+03 0.  0.
          5    1    3    3  502    0  0.36937897736E+02 -0.66651538561E+02 -0.42737462633E+02  0.87468845848E+02  0.41800000000E+01 0. -1.
         -5    1    3    3    0  502  0.59476217702E+02  0.47101827019E+02 -0.10550659796E+03  0.13001968002E+03  0.41800000000E+01 0. -1.
        -11    1    1    2    0    0 -0.35313235514E+02  0.20556244095E+02 -0.13928146899E+02  0.43169167815E+02  0.00000000000E+00 0.  1.
         11    1    1    2    0    0 -0.61100879924E+02 -0.10065325537E+01 -0.21955202441E+03  0.22789783250E+03  0.00000000000E+00 0. -1.
</event>
<event>
 7    1  0.1620881E-005  0.1346783E+03  0.7561462E-02  0.1220675E+00
          1   -1    0    0  501    0  0.00000000000E+00  0.00000000000E+00  0.77016575737E+02  0.77016575737E+02  0.00000000000E+00 0. -1.
         -1   -1    0    0    0  501 -0.00000000000E+00 -0.00000000000E+00 -0.34796554739E+03  0.34796554739E+03  0.00000000000E+00 0.  1.
         23    2    1    2    0    0  0.71586289959E+02  0.95586736720E+02 -0.11604066596E+03  0.20826488146E+03  0.12508958209E+03 0.  0.
          5    1    3    3  502    0  0.63466405434E+02  0.60175069103E+02 -0.10136426857E+01  0.87564395914E+02  0.41800000000E+01 0.  1.
         -5    1    3    3    0  502  0.81198845242E+01  0.35411667617E+02 -0.11502702327E+03  0.12070048554E+03  0.41800000000E+01 0.  1.
        -11    1    1    2    0    0 -0.89940541421E+02 -0.71233065945E+02 -0.92943457185E+02  0.14765478966E+03  0.00000000000E+00 0. -1.
         11    1    1    2    0    0  0.18354251462E+02 -0.24353670775E+02 -0.61964848513E+02  0.69062452014E+02  0.00000000000E+00 0.  1.
</event>
<event>
 7    1  0.1620881E-005  0.9702915E+02  0.7561462E-02  0.1286670E+00
         -3   -1    0    0    0  501 -0.00000000000E+00  0.00000000000E+00  0.45871263274E+02  0.45871263274E+02  0.00000000000E+00 0.  1.
          3   -1    0    0  501    0  0.00000000000E+00 -0.00000000000E+00 -0.37342072184E+03  0.37342072184E+03  0.00000000000E+00 0. -1.
         23    2    1    2    0    0  0.75537255587E+02  0.11395043138E+02 -0.22136457253E+03  0.26549851769E+03  0.12510581496E+03 0.  0.
          5    1    3    3  502    0  0.78180170882E+02  0.27902296941E+01 -0.48056719057E+02  0.91906719816E+02  0.41800000000E+01 0.  1.
         -5    1    3    3    0  502 -0.26429152948E+01  0.86048134443E+01 -0.17330785347E+03  0.17359179787E+03  0.41800000000E+01 0.  1.
        -11    1    1    2    0    0 -0.17912480050E+02  0.29930219169E+02 -0.59255330200E+02  0.68759502022E+02  0.00000000000E+00 0. -1.
         11    1    1    2    0    0 -0.57624775536E+02 -0.41325262308E+02 -0.46929555837E+02  0.85033965399E+02  0.00000000000E+00 0.  1.
</event>
<event>
 6    1  0.1620881E-005  0.7498776E+02  0.7561462E-02  0.1343909E+00
         -1   -1    0    0    0  501 -0.00000000000E+00  0.00000000000E+00  0.18840026334E+03  0.18840026334E+03  0.00000000000E+00 0.  1.
          1   -1    0    0  501    0  0.00000000000E+00 -0.00000000000E+00 -0.85627315428E+02  0.85627315428E+02  0.00000000000E+00 0. -1.
          5    1    1    2  502    0 -0.41948768104E+02  0.40566593032E+02 -0.14117324079E+02  0.60184041529E+02  0.41800000000E+01 0. -1.
         -5    1    1    2    0  502 -0.61071464074E+01 -0.42294275854E+02  0.10136567894E+03  0.11008440523E+03  0.41800000000E+01 0.  1.
        -11    1    1    2    0    0  0.17632675807E+02 -0.25328016410E+01  0.52644101022E+02  0.55576323310E+02  0.00000000000E+00 0.  1.
         11    1    1    2    0    0  0.30423238704E+02  0.42604844634E+01 -0.37119507978E+02  0.48182808694E+02  0.00000000000E+00 0. -1.
</event>
<event>
 7    1  0.1620881E-005  0.7946370E+02  0.7561462E-02  0.1330580E+00
         -1   -1    0    0    0  501 -0.00000000000E+00  0.00000000000E+00  0.13506094063E+03  0.13506094063E+03  0.00000000000E+00 0.  1.
          1   -1    0    0  501    0  0.00000000000E+00 -0.00000000000E+00 -0.17523729704E+03  0.17523729704E+03  0.00000000000E+00 0. -1.
         23    2    1    2    0    0  0.43805598038E+02  0.21702270479E+02  0.75979810339E+02  0.15430765827E+03  0.12509197759E+03 0.  0.
          5    1    3    3  502    0  0.68120782496E+02 -0.80164323368E+01 -0.39737705796E+00  0.68719244058E+02  0.41800000000E+01 0. -1.
         -5    1    3    3    0  502 -0.24315184458E+02  0.29718702815E+02  0.76377187397E+02  0.85588414210E+02  0.41800000000E+01 0. -1.
        -11    1    1    2    0    0 -0.29522106331E+02 -0.55801015113E+01 -0.12795246144E+03  0.13143258608E+03  0.00000000000E+00 0. -1.
         11    1    1    2    0    0 -0.14283491707E+02 -0.16122168967E+02  0.11796294696E+02  0.24557993324E+02  0.00000000000E+00 0.  1.
</event>
<event>
 7    1  0.1620881E-005  0.1034114E+03  0.7561462E-02  0.1273282E+00
          1   -1    0    0  501    0  0.00000000000E+00  0.00000000000E+00  0.23734551140E+03  0.23734551140E+03  0.00000000000E+00 0. -1.
         -1   -1    0    0    0  501 -0.00000000000E+00 -0.00000000000E+00 -0.56197173908E+02  0.56197173908E+02  0.00000000000E+00 0.  1.
         23    2    1    2    0    0 -0.19876944000E+01 -0.36443191054E+02  0.80576519479E+02  0.15320373111E+03  0.12508697227E+03 0.  0.
          5    1    3    3  502    0 -0.71485864791E+01 -0.82635026229E+02  0.58460614362E+02  0.10156163488E+03  0.41800000000E+01 0.  1.
         -5    1    3    3    0  502  0.51608920791E+01  0.46191835175E+02  0.22115905117E+02  0.51642096230E+02  0.41800000000E+01 0.  1.
        -11    1    1    2    0    0  0.31964372140E+02  0.34553469200E+02  0.14618279642E+02  0.49288512046E+02  0.00000000000E+00 0.  1.
         11    1    1    2    0    0 -0.29976677740E+02  0.18897218542E+01  0.85953538371E+02  0.91050442149E+02  0.00000000000E+00 0. -1.
</event>
<event>
 7    1  0.1620881E-005  0.1172616E+03  0.7561462E-02  0.1247684E+00
         -1   -1    0    0    0  501 -0.00000000000E+00  0.00000000000E+00  0.10111239265E+04  0.10111239265E+04  0.00000000000E+00 0.  1.
          1   -1    0    0  501    0  0.00000000000E+00 -0.00000000000E+00 -0.23632329311E+02  0.23632329311E+02  0.00000000000E+00 0. -1.
         23    2    1    2    0    0  0.55780070317E+02  0.20574280599E+02  0.84482151555E+03  0.85483798818E+03  0.11614592388E+03 0.  0.
          5    1    3    3  502    0 -0.21360060696E+02 -0.27217684412E+02  0.14418171158E+03  0.14833372136E+03  0.41800000000E+01 0. -1.
         -5    1    3    3    0  502  0.77140131013E+02  0.47791965011E+02  0.70063980397E+03  0.70650426682E+03  0.41800000000E+01 0.  1.
        -11    1    1    2    0    0 -0.70264287490E+02 -0.42821890355E+02  0.98094623399E+02  0.12803647734E+03  0.00000000000E+00 0. -1.
         11    1    1    2    0    0  0.14484217173E+02  0.22247609756E+02  0.44575458285E+02  0.51881790334E+02  0.00000000000E+00 0.  1.
</event>
<event>
 7    1  0.1620881E-005  0.1021652E+03  0.7561462E-02  0.1275808E+00
         -1   -1    0    0    0  501 -0.00000000000E+00  0.00000000000E+00  0.28171484204E+02  0.28171484204E+02  0.00000000000E+00 0.  1.
          1   -1    0    0  501    0  0.00000000000E+00 -0.00000000000E+00 -0.49552144499E+03  0.49552144499E+03  0.00000000000E+00 0. -1.
         23    2    1    2    0    0  0.47722574998E+01 -0.45501432674E+02 -0.22633541988E+03  0.26262114321E+03  0.12509591421E+03 0.  0.
          5    1    3    3  502    0 -0.40580616853E+02 -0.56856044438E+02 -0.68384891250E+02  0.97843558831E+02  0.41800000000E+01 0.  1.
         -5    1    3    3    0  502  0.45352874353E+02  0.11354611764E+02 -0.15795052863E+03  0.16477758438E+03  0.41800000000E+01 0.  1.
        -11    1    1    2    0    0  0.33395073820E+02  0.33747071018E+02 -0.64463381339E+02  0.80060122979E+02  0.00000000000E+00 0.  1.
         11    1    1    2    0    0 -0.38167331320E+02  0.11754361656E+02 -0.17655115957E+03  0.18101166300E+03  0.00000000000E+00 0. -1.
</event>
<event>
 7    1  0.1620881E-005  0.9984650E+02  0.7561462E-02  0.1280619E+00
         -2   -1    0    0    0  501 -0.00000000000E+00  0.00000000000E+00  0.71749576260E+02  0.71749576260E+02  0.00000000000E+00 0. -1.
          2   -1    0    0  501    0  0.00000000000E+00 -0.00000000000E+00 -0.22963906231E+03  0.22963906231E+03  0.00000000000E+00 0.  1.
         23    2    1    2    0    0  0.56430305292E+02 -0.23185246573E+02 -0.48133847774E+02  0.14726515227E+03  0.12509285654E+03 0.  0.
          5    1    3    3  502    0  0.41199537928E+02 -0.55640613249E+02  0.18234788468E+02  0.71716523052E+02  0.41800000000E+01 0.  1.
         -5    1    3    3    0  502  0.15230767364E+02  0.32455366676E+02 -0.66368636241E+02  0.75548629220E+02  0.41800000000E+01 0.  1.
        -11    1    1    2    0    0 -0.59812673914E+02 -0.10205839777E+02 -0.30197949282E+02  0.67776332647E+02  0.00000000000E+00 0. -1.
         11    1    1    2    0    0  0.33823686222E+01  0.33391086350E+02 -0.79557688990E+02  0.86347153645E+02  0.00000000000E+00 0.  1.
</event>
<event>
 6    1  0.1620881E-005  0.2291811E+03  0.7561462E-02  0.1127217E+00
         -1   -1    0    0    0  501 -0.00000000000E+00  0.00000000000E+00  0.46999990836E+02  0.46999990836E+02  0.00000000000E+00 0.  1.
          1   -1    0    0  501    0  0.00000000000E+00 -0.00000000000E+00 -0.11633739866E+04  0.11633739866E+04  0.00000000000E+00 0. -1.
          5    1    1    2  502    0 -0.21498233369E+03  0.24067009438E+02 -0.58502370851E+03  0.62375222377E+03  0.41800000000E+01 0. -1.
         -5    1    1    2    0  502  0.82732974401E+02 -0.28127245742E+02 -0.16644684136E+03  0.18803699212E+03  0.41800000000E+01 0.  1.
        -11    1    1    2    0    0  0.37426415805E+02 -0.35671220552E+02 -0.17696628199E+03  0.18436441505E+03  0.00000000000E+00 0.  1.
         11    1    1    2    0    0  0.94822943483E+02  0.39731456856E+02 -0.18793716387E+03  0.21422034646E+03  0.00000000000E+00 0. -1.
</event>
<event>
 7    1  0.1620881E-005  0.2752517E+03  0.7561462E-02  0.1098311E+00
         -2   -1    0    0    0  501 -0.00000000000E+00  0.00000000000E+00  0.49220363692E+03  0.49220363692E+03  0.00000000000E+00 0.  1.
          2   -1    0    0  501    0  0.00000000000E+00 -0.00000000000E+00 -0.17185279395E+03  0.17185279395E+03  0.00000000000E+00 0. -1.
         23    2    1    2    0    0  0.26260563350E+03  0.16835542505E+02  0.22583444618E+03  0.36863513820E+03  0.12508202829E+03 0.  0.
          5    1    3    3  502    0  0.16584748926E+03 -0.44874553953E+02  0.16686204586E+03  0.23954024721E+03  0.41800000000E+01 0. -1.
         -5    1    3    3    0  502  0.96758144232E+02  0.61710096458E+02  0.58972400322E+02  0.12909489099E+03  0.41800000000E+01 0. -1.
        -11    1    1    2    0    0 -0.16323911755E+03 -0.19510010925E+02  0.95910115629E+01  0.16468041027E+03  0.00000000000E+00 0. -1.
         11    1    1    2    0    0 -0.99366515948E+02  0.26744684196E+01  0.84925385230E+02  0.13074088239E+03  0.00000000000E+00 0.  1.
</event>
<event>
 7    1  0.1620881E-005  0.1424860E+03  0.7561462E-02  0.1210023E+00
          2   -1    0    0  501    0  0.00000000000E+00  0.00000000000E+00  0.11407775733E+03  0.11407775733E+03  0.00000000000E+00 0. -1.
         -2   -1    0    0    0  501 -0.00000000000E+00 -0.00000000000E+00 -0.21138730712E+03  0.21138730712E+03  0.00000000000E+00 0.  1.
         23    2    1    2    0    0  0.81265224981E+02  0.58461553474E+02 -0.10507802187E+03  0.19160132262E+03  0.12509151100E+03 0.  0.
          5    1    3    3  502    0  0.44241760791E+02  0.94249923923E+02 -0.48343786477E+02  0.11486938517E+03  0.41800000000E+01 0. -1.
         -5    1    3    3    0  502  0.37023464190E+02 -0.35788370448E+02 -0.56734235398E+02  0.76731937458E+02  0.41800000000E+01 0. -1.
        -11    1    1    2    0    0  0.16347387787E+02 -0.23444777648E+01 -0.10823379293E+02  0.19745359018E+02  0.00000000000E+00 0.  1.
         11    1    1    2    0    0 -0.97612612768E+02 -0.56117075710E+02  0.18591851370E+02  0.11411838281E+03  0.00000000000E+00 0. -1.
</event>
<event>
 7    1  0.1620881E-005  0.1328836E+03  0.7561462E-02  0.1223239E+00
          2   -1    0    0  501    0  0.00000000000E+00  0.00000000000E+00  0.60862151321E+02  0.60862151321E+02  0.00000000000E+00 0. -1.
         -2   -1    0    0    0  501 -0.00000000000E+00 -0.00000000000E+00 -0.40786099228E+03  0.40786099228E+03  0.00000000000E+00 0.  1.
         23    2    1    2    0    0 -0.75277321329E+02 -0.42589641640E+02 -0.29709877945E+03  0.33376083721E+03  0.12509220208E+03 0.  0.
          5    1    3    3  502    0  0.30111177663E+02 -0.32020822150E+02 -0.64703599611E+02  0.78332906713E+02  0.41800000000E+01 0.  1.
         -5    1    3    3    0  502 -0.10538849899E+03 -0.10568819490E+02 -0.23239517984E+03  0.25542793049E+03  0.41800000000E+01 0.  1.
        -11    1    1    2    0    0  0.86514078706E+02  0.17700180040E+02 -0.13307781963E+02  0.89303299203E+02  0.00000000000E+00 0. -1.
         11    1    1    2    0    0 -0.11236757377E+02  0.24889461600E+02 -0.36592279544E+02  0.45659007187E+02  0.00000000000E+00 0.  1.
</event>
<event>
 7    1  0.1620881E-005  0.1031127E+03  0.7561462E-02  0.1273883E+00
         -2   -1    0    0    0  501 -0.00000000000E+00  0.00000000000E+00  0.41717245421E+02  0.41717245421E+02  0.00000000000E+00 0.  1.
          2   -1    0    0  501    0  0.00000000000E+00 -0.00000000000E+00 -0.46543126945E+03  0.46543126945E+03  0.00000000000E+00 0. -1.
         23    2    1    2    0    0  0.81483670871E+01 -0.65917519301E+02 -0.14677257821E+03  0.20396199727E+03  0.12508713514E+03 0.  0.
          5    1    3    3  502    0 -0.17961042837E+02  0.11935712095E+01 -0.12813509965E+03  0.12946080424E+03  0.41800000000E+01 0.  1.
         -5    1    3    3    0  502  0.26109409924E+02 -0.67111090510E+02 -0.18637478565E+02  0.74501193033E+02  0.41800000000E+01 0.  1.
        -11    1    1    2    0    0  0.81718120587E+01  0.87875546700E+02 -0.24857126145E+03  0.26377369512E+03  0.00000000000E+00 0.  1.
         11    1    1    2    0    0 -0.16320179146E+02 -0.21958027399E+02 -0.28370184368E+02  0.39412822478E+02  0.00000000000E+00 0. -1.
</event>
<event>
 7    1  0.1620881E-005  0.8326884E+02  0.7561462E-02  0.1320023E+00
         -2   -1    0    0    0  501 -0.00000000000E+00  0.00000000000E+00  0.68264874480E+02  0.68264874480E+02  0.00000000000E+00 0.  1.
          2   -1    0    0  501    0  0.00000000000E+00 -0.00000000000E+00 -0.18708705096E+03  0.18708705096E+03  0.00000000000E+00 0. -1.
         23    2    1    2    0    0  0.76386953418E+01 -0.37730005086E+02 -0.41718081886E+02  0.13736670636E+03  0.12508921101E+03 0.  0.
          5    1    3    3  502    0  0.24340729880E+01 -0.61903017422E+02 -0.73928988355E+02  0.96544683937E+02  0.41800000000E+01 0. -1.
         -5    1    3    3    0  502  0.52046223538E+01  0.24173012336E+02  0.32210906470E+02  0.40822022425E+02  0.41800000000E+01 0. -1.
        -11    1    1    2    0    0  0.86230873554E+01  0.54985463337E+02 -0.25553739256E+02  0.61243386614E+02  0.00000000000E+00 0.  1.
         11    1    1    2    0    0 -0.16261782697E+02 -0.17255458252E+02 -0.51550355335E+02  0.56741832462E+02  0.00000000000E+00 0. -1.
</event>
<event>
 7    1  0.1620881E-005  0.1431062E+03  0.7561462E-02  0.1209209E+00
         -1   -1    0    0    0  501 -0.00000000000E+00  0.00000000000E+00  0.25805047638E+02  0.25805047638E+02  0.00000000000E+00 0.  1.
          1   -1    0    0  501    0  0.00000000000E+00 -0.00000000000E+00 -0.86629790599E+03  0.86629790599E+03  0.00000000000E+00 0. -1.
         23    2    1    2    0    0 -0.53623257466E+02  0.78690634117E+02 -0.35479199213E+03  0.38806252479E+03  0.12508995096E+03 0.  0.
          5    1    3    3  502    0 -0.80637091971E+02  0.12657418282E+02 -0.14522201021E+03  0.16664169793E+03  0.41800000000E+01 0. -1.
         -5    1    3    3    0  502  0.27013834505E+02  0.66033215835E+02 -0.20956998192E+03  0.22142082686E+03  0.41800000000E+01 0. -1.
        -11    1    1    2    0    0  0.35557904183E+02 -0.99378388287E+02 -0.34915403918E+03  0.36475878562E+03  0.00000000000E+00 0.  1.
         11    1    1    2    0    0  0.18065353284E+02  0.20687754170E+02 -0.13654682704E+03  0.13928164321E+03  0.00000000000E+00 0. -1.
</event>
<event>
 7    1  0.1620881E-005  0.1374460E+03  0.7561462E-02  0.1216807E+00
         -1   -1    0    0    0  501 -0.00000000000E+00  0.00000000000E+00  0.10120368250E+03  0.10120368250E+03  0.00000000000E+00 0.  1.
          1   -1    0    0  501    0  0.00000000000E+00 -0.00000000000E+00 -0.22029692294E+03  0.22029692294E+03  0.00000000000E+00 0. -1.
         23    2    1    2    0    0  0.51346353661E+00  0.82305042223E+02 -0.45479124158E+01  0.14239398855E+03  0.11610762614E+03 0.  0.
          5    1    3    3  502    0 -0.30733823239E+02 -0.17688515469E+02 -0.10966485737E+02  0.37352211177E+02  0.41800000000E+01 0. -1.
         -5    1    3    3    0  502  0.31247286776E+02  0.99993557692E+02  0.64185733217E+01  0.10504177738E+03  0.41800000000E+01 0.  1.
        -11    1    1    2    0    0  0.52757702725E+02 -0.37423679098E+02 -0.35634103081E+02  0.73849145266E+02  0.00000000000E+00 0.  1.
         11    1    1    2    0    0 -0.53271166262E+02 -0.44881363125E+02 -0.78911224940E+02  0.10525747162E+03  0.00000000000E+00 0. -1.
</event>
<event>
 7    1  0.1620881E-005  0.1397124E+03  0.7561462E-02  0.1213717E+00
          2   -1    0    0  501    0  0.00000000000E+00  0.00000000000E+00  0.79560898341E+03  0.79560898341E+03  0.00000000000E+00 0. -1.
         -2   -1    0    0    0  501 -0.00000000000E+00 -0.00000000000E+00 -0.28468170628E+02  0.28468170628E+02  0.00000000000E+00 0.  1.
         23    2    1    2    0    0  0.96545831950E+02 -0.28675941219E+02  0.48746214231E+03  0.51323551894E+03  0.12509176811E+03 0.  0.
          5    1    3    3  502    0  0.10605889959E+03  0.18950152090E+02  0.27800624059E+03  0.29818205958E+03  0.41800000000E+01 0. -1.
         -5    1    3    3    0  502 -0.95130676433E+01 -0.47626093309E+02  0.20945590172E+03  0.21505345936E+03  0.41800000000E+01 0. -1.
        -11    1    1    2    0    0 -0.79074743590E+01 -0.20161418561E+02  0.11895431124E+03  0.12090963201E+03  0.00000000000E+00 0. -1.
         11    1    1    2    0    0 -0.88638357591E+02  0.48837359780E+02  0.16072435923E+03  0.18993200309E+03  0.00000000000E+00 0.  1.
</event>
<event>
 7    1  0.1620881E-005  0.2520847E+03  0.7561462E-02  0.1111994E+00
          2   -1    0    0  501    0  0.00000000000E+00  0.00000000000E+00  0.69584905824E+03  0.69584905824E+03  0.00000000000E+00 0.  1.
         -2   -1    0    0    0  501 -0.00000000000E+00 -0.00000000000E+00 -0.10635747079E+03  0.10635747079E+03  0.00000000000E+00 0. -1.
         23    2    1    2    0    0 -0.63185445849E+02 -0.23593093889E+03  0.22899328920E+03  0.35740971684E+03  0.12509184904E+03 0.  0.
          5    1    3    3  502    0 -0.84760653380E+01 -0.14722518047E+03  0.60940408961E+02  0.15961924475E+03  0.41800000000E+01 0.  1.
         -5    1    3    3    0  502 -0.54709380511E+02 -0.88705758416E+02  0.16805288024E+03  0.19779047209E+03  0.41800000000E+01 0.  1.
        -11    1    1    2    0    0  0.23851258360E+02  0.19157064492E+03  0.22233645594E+03  0.29445151411E+03  0.00000000000E+00 0. -1.
         11    1    1    2    0    0  0.39334187489E+02  0.44360293965E+02  0.13816184231E+03  0.15034529809E+03  0.00000000000E+00 0.  1.
</event>
<event>
 7    1  0.1620881E-005  0.8122494E+02  0.7561462E-02  0.1325611E+00
         -1   -1    0    0    0  501 -0.00000000000E+00  0.00000000000E+00  0.13674767708E+03  0.13674767708E+03  0.00000000000E+00 0.  1.
          1   -1    0    0  501    0  0.00000000000E+00 -0.00000000000E+00 -0.12100223812E+03  0.12100223812E+03  0.00000000000E+00 0. -1.
         23    2    1    2    0    0 -0.18722082837E+01  0.36493005746E+02  0.65794539861E+02  0.14596589535E+03  0.12506748777E+03 0.  0.
          5    1    3    3  502    0 -0.82184668601E+01  0.50555575755E+02  0.97637772603E+02  0.11033592559E+03  0.41800000000E+01 0.  1.
         -5    1    3    3    0  502  0.63462585763E+01 -0.14062570009E+02 -0.31843232742E+02  0.35629969753E+02  0.41800000000E+01 0.  1.
        -11    1    1    2    0    0  0.44627129986E+02 -0.23229393096E+02 -0.91247550400E+01  0.51131659360E+02  0.00000000000E+00 0.  1.
         11    1    1    2    0    0 -0.42754921702E+02 -0.13263612651E+02 -0.40924345857E+02  0.60652360499E+02  0.00000000000E+00 0. -1.
</event>
<event>
 7    1  0.1620881E-005  0.1018989E+03  0.7561462E-02  0.1276353E+00
         -1   -1    0    0    0  501 -0.00000000000E+00  0.00000000000E+00  0.35160104913E+03  0.35160104913E+03  0.00000000000E+00 0.  1.
          1   -1    0    0  501    0  0.00000000000E+00 -0.00000000000E+00 -0.64700653576E+02  0.64700653576E+02  0.00000000000E+00 0. -1.
         23    2    1    2    0    0 -0.32155424230E+02 -0.58917137967E+00  0.29345460081E+03  0.32062314252E+03  0.12509707571E+03 0.  0.
          5    1    3    3  502    0 -0.44511829930E+02  0.43985898634E+02  0.77339451334E+02  0.99573718495E+02  0.41800000000E+01 0. -1.
         -5    1    3    3    0  502  0.12356405699E+02 -0.44575070013E+02  0.21611514948E+03  0.22104942403E+03  0.41800000000E+01 0. -1.
        -11    1    1    2    0    0  0.63166737350E+02 -0.39667375195E+01 -0.10255252430E+02  0.64116627456E+02  0.00000000000E+00 0. -1.
         11    1    1    2    0    0 -0.31011313120E+02  0.45559088992E+01  0.37010471705E+01  0.31561932727E+02  0.00000000000E+00 0.  1.
</event>
<event>
 7    1  0.1620881E-005  0.1431957E+03  0.7561462E-02  0.1209092E+00
          2   -1    0    0  501    0  0.00000000000E+00  0.00000000000E+00  0.82068824347E+03  0.82068824347E+03  0.00000000000E+00 0. -1.
         -2   -1    0    0    0  501 -0.00000000000E+00 -0.00000000000E+00 -0.44415784263E+02  0.44415784263E+02  0.00000000000E+00 0.  1.
         23    2    1    2    0    0 -0.39801252067E+02  0.10014000968E+03  0.15454712194E+03  0.22714211223E+03  0.12687223906E+03 0.  0.
          5    1    3    3  502    0 -0.18730774315E+02  0.11866173949E+03  0.72603707645E+02  0.14042870465E+03  0.41800000000E+01 0. -1.
         -5    1    3    3    0  502 -0.21070477752E+02 -0.18521729816E+02  0.81943414294E+02  0.86713407580E+02  0.41800000000E+01 0. -1.
        -11    1    1    2    0    0  0.55289717899E+02 -0.24257190612E+02  0.35964604173E+03  0.36467881695E+03  0.00000000000E+00 0.  1.
         11    1    1    2    0    0 -0.15488465832E+02 -0.75882819065E+02  0.26207929554E+03  0.27328309855E+03  0.00000000000E+00 0. -1.
</event>
<event>
 7    1  0.1620881E-005  0.1148613E+03  0.7561462E-02  0.1251823E+00
         -3   -1    0    0    0  501 -0.00000000000E+00  0.00000000000E+00  0.31468359974E+03  0.31468359974E+03  0.00000000000E+00 0.  1.
          3   -1    0    0  501    0  0.00000000000E+00 -0.00000000000E+00 -0.63472590752E+02  0.63472590752E+02  0.00000000000E+00 0. -1.
         23    2    1    2    0    0  0.22603963810E+02 -0.85450278513E+02  0.11981278468E+03  0.19446107511E+03  0.12508923647E+03 0.  0.
          5    1    3    3  502    0  0.63763218820E+02 -0.71638916945E+02  0.11615927299E+03  0.15069283858E+03  0.41800000000E+01 0.  1.
         -5    1    3    3    0  502 -0.41159255011E+02 -0.13811361568E+02  0.36535116888E+01  0.43768236531E+02  0.41800000000E+01 0.  1.
        -11    1    1    2    0    0 -0.28709404283E+01  0.45122029158E+02  0.13122700457E+03  0.13879757398E+03  0.00000000000E+00 0.  1.
         11    1    1    2    0    0 -0.19733023381E+02  0.40328249356E+02  0.17121973285E+00  0.44897541403E+02  0.00000000000E+00 0. -1.
</event>
<event>
 7    1  0.1620881E-005  0.1043596E+03  0.7561462E-02  0.1271387E+00
          2   -1    0    0  501    0  0.00000000000E+00  0.00000000000E+00  0.20039014877E+03  0.20039014877E+03  0.00000000000E+00 0. -1.
         -2   -1    0    0    0  501 -0.00000000000E+00 -0.00000000000E+00 -0.13118702798E+03  0.13118702798E+03  0.00000000000E+00 0.  1.
         23    2    1    2    0    0 -0.24672064541E+02 -0.74551719142E+02 -0.54616278174E+02  0.15747529915E+03  0.12509541320E+03 0.  0.
          5    1    3    3  502    0  0.24225325090E+02 -0.75870428522E+02 -0.69907828645E+02  0.10605548173E+03  0.41800000000E+01 0. -1.
         -5    1    3    3    0  502 -0.48897389631E+02  0.13187093794E+01  0.15291550471E+02  0.51419817414E+02  0.41800000000E+01 0. -1.
        -11    1    1    2    0    0  0.16182405250E+02  0.26305362285E+02 -0.93005999435E+01  0.32254356046E+02  0.00000000000E+00 0.  1.
         11    1    1    2    0    0  0.84896592906E+01  0.48246356857E+02  0.13311999890E+03  0.14184752156E+03  0.00000000000E+00 0. -1.
</event>
<event>
 7    1  0.1620881E-005  0.2245697E+03  0.7561462E-02  0.1130521E+00
         -2   -1    0    0    0  501 -0.00000000000E+00  0.00000000000E+00  0.49241970703E+03  0.49241970703E+03  0.00000000000E+00 0.  1.
          2   -1    0    0  501    0  0.00000000000E+00 -0.00000000000E+00 -0.11157127160E+03  0.11157127160E+03  0.00000000000E+00 0. -1.
         23    2    1    2    0    0  0.15162356858E+03  0.13562253353E+03  0.22483491151E+03  0.32799602307E+03  0.12508986994E+03 0.  0.
          5    1    3    3  502    0  0.37340821673E+02  0.10267227939E+03  0.15604320183E+03  0.19053316550E+03  0.41800000000E+01 0.  1.
         -5    1    3    3    0  502  0.11428274691E+03  0.32950254141E+02  0.68791709682E+02  0.13746285757E+03  0.41800000000E+01 0.  1.
        -11    1    1    2    0    0 -0.38734069348E+02 -0.91911004173E+02  0.10442549403E+03  0.14440444806E+03  0.00000000000E+00 0.  1.
         11    1    1    2    0    0 -0.11288949923E+03 -0.43711529357E+02  0.51588029887E+02  0.13159050750E+03  0.00000000000E+00 0. -1.
</event>
<event>
 7    1  0.1620881E-005  0.1077304E+03  0.7561462E-02  0.1264831E+00
         -2   -1    0    0    0  501 -0.00000000000E+00  0.00000000000E+00  0.28993113830E+03  0.28993113830E+03  0.00000000000E+00 0.  1.
          2   -1    0    0  501    0  0.00000000000E+00 -0.00000000000E+00 -0.56965402406E+02  0.56965402406E+02  0.00000000000E+00 0. -1.
         23    2    1    2    0    0  0.18359065939E+02  0.16080541455E+02  0.21593533160E+03  0.25074097883E+03  0.12508929577E+03 0.  0.
          5    1    3    3  502    0  0.70751241957E+02 -0.38778239869E+01  0.11270218141E+03  0.13319170339E+03  0.41800000000E+01 0.  1.
         -5    1    3    3    0  502 -0.52392176018E+02  0.19958365442E+02  0.10323315019E+03  0.11754927544E+03  0.41800000000E+01 0.  1.
        -11    1    1    2    0    0 -0.43663971833E+00 -0.49943975446E+02  0.26708079968E+02  0.56638439890E+02  0.00000000000E+00 0. -1.
         11    1    1    2    0    0 -0.17922426221E+02  0.33863433991E+02 -0.96776756748E+01  0.39517121983E+02  0.00000000000E+00 0.  1.
</event>
<event>
 6    1  0.1620881E-005  0.1325360E+03  0.7561462E-02  0.1223741E+00
          1   -1    0    0  501    0  0.00000000000E+00  0.00000000000E+00  0.35318168368E+03  0.35318168368E+03  0.00000000000E+00 0. -1.
         -1   -1    0    0    0  501 -0.00000000000E+00 -0.00000000000E+00 -0.59314521420E+02  0.59314521420E+02  0.00000000000E+00 0.  1.
          5    1    1    2  502    0  0.56317889810E+02  0.53104061230E+02  0.30961339090E+02  0.83473486510E+02  0.41800000000E+01 0. -1.
         -5    1    1    2    0  502 -0.59761634864E+02 -0.73180794636E+02  0.80147570113E+02  0.12396768571E+03  0.41800000000E+01 0.  1.
        -11    1    1    2    0    0  0.10450395896E+02  0.55700265318E+02  0.11292891312E+03  0.12635137415E+03  0.00000000000E+00 0. -1.
         11    1    1    2    0    0 -0.70066508428E+01 -0.35623531912E+02  0.69829339936E+02  0.78703658732E+02  0.00000000000E+00 0.  1.
</event>
<event>
 7    1  0.1620881E-005  0.1622956E+03  0.7561462E-02  0.1186129E+00
         -2   -1    0    0    0  501 -0.00000000000E+00  0.00000000000E+00  0.42370218768E+02  0.42370218768E+02  0.00000000000E+00 0.  1.
          2   -1    0    0  501    0  0.00000000000E+00 -0.00000000000E+00 -0.10251294872E+04  0.10251294872E+04  0.00000000000E+00 0. -1.
         23    2    1    2    0    0 -0.14544539563E+03 -0.26291359031E+02 -0.26004753795E+03  0.32421972964E+03  0.12509241554E+03 0.  0.
          5    1    3    3  502    0 -0.84101764986E+02 -0.57884005358E+02 -0.22411718464E+03  0.24631209837E+03  0.41800000000E+01 0. -1.
         -5    1    3    3    0  502 -0.61343630641E+02  0.31592646327E+02 -0.35930353314E+02  0.77907631278E+02  0.41800000000E+01 0. -1.
        -11    1    1    2    0    0  0.13355876576E+03  0.35556624785E+02 -0.71068169915E+03  0.72399633631E+03  0.00000000000E+00 0. -1.
         11    1    1    2    0    0  0.11886629866E+02 -0.92652657538E+01 -0.12030031359E+02  0.19283640049E+02  0.00000000000E+00 0.  1.
</event>
<event>
 7    1  0.1620881E-005  0.9381361E+02  0.7561462E-02  0.1293871E+00
          1   -1    0    0  501    0  0.00000000000E+00  0.00000000000E+00  0.36710992915E+02  0.36710992915E+02  0.00000000000E+00 0. -1.
         -1   -1    0    0    0  501 -0.00000000000E+00 -0.00000000000E+00 -0.38369101415E+03  0.38369101415E+03  0.00000000000E+00 0.  1.
         23    2    1    2    0    0 -0.39494929975E+02  0.15448155090E+02 -0.23861696730E+03  0.27272440909E+03  0.12506818637E+03 0.  0.
          5    1    3    3  502    0 -0.65881312816E+02 -0.19983143488E+02 -0.20713564036E+03  0.21831701562E+03  0.41800000000E+01 0.  1.
         -5    1    3    3    0  502  0.26386382841E+02  0.35431298578E+02 -0.31481326939E+02  0.54407393470E+02  0.41800000000E+01 0.  1.
        -11    1    1    2    0    0  0.42857631074E+02 -0.34447848959E+02 -0.11483962063E+03  0.12732466103E+03  0.00000000000E+00 0.  1.
         11    1    1    2    0    0 -0.33627010988E+01  0.18999693869E+02  0.64765667023E+01  0.20352936939E+02  0.00000000000E+00 0. -1.
</event>
<event>
 7    1  0.1620881E-005  0.2003741E+03  0.7561462E-02  0.1149424E+00
          1   -1    0    0  501    0  0.00000000000E+00  0.00000000000E+00  0.31745219042E+03  0.31745219042E+03  0.00000000000E+00 0. -1.
         -1   -1    0    0    0  501 -0.00000000000E+00 -0.00000000000E+00 -0.14103783757E+03  0.14103783757E+03  0.00000000000E+00 0.  1.
         23    2    1    2    0    0 -0.28159876026E+02  0.17787582257E+03  0.68495694896E+02  0.22972191646E+03  0.12509081425E+03 0.  0.
          5    1    3    3  502    0  0.42846916300E+02  0.45028237276E+02 -0.41481404749E+01  0.62434604652E+02  0.41800000000E+01 0. -1.
         -5    1    3    3    0  502 -0.71006792326E+02  0.13284758530E+03  0.72643835371E+02  0.16728731181E+03  0.41800000000E+01 0. -1.
        -11    1    1    2    0    0  0.44065925022E+02 -0.12474099011E+03  0.34437951309E+02  0.13670439954E+03  0.00000000000E+00 0.  1.
         11    1    1    2    0    0 -0.15906048996E+02 -0.53134832462E+02  0.73480706647E+02  0.92063711987E+02  0.00000000000E+00 0. -1.
</event>
<event>
 6    1  0.1620881E-005  0.2402708E+03  0.7561462E-02  0.1119613E+00
          2   -1    0    0  501    0  0.00000000000E+00  0.00000000000E+00  0.68889972667E+03  0.68889972667E+03  0.00000000000E+00 0. -1.
         -2   -1    0    0    0  501 -0.00000000000E+00 -0.00000000000E+00 -0.14591394086E+03  0.14591394086E+03  0.00000000000E+00 0.  1.
          5    1    1    2  502    0  0.12646888480E+03  0.28093666772E+02 -0.46042568851E+02  0.13755371126E+03  0.41800000000E+01 0. -1.
         -5    1    1    2    0  502  0.42832769075E+02  0.10775831363E+03  0.94134143801E+02  0.14941622968E+03  0.41800000000E+01 0.  1.
        -11    1    1    2    0    0 -0.77553219581E+01  0.13053567708E+02  0.35779485034E+02  0.38867881314E+02  0.00000000000E+00 0.  1.
         11    1    1    2    0    0 -0.16154633192E+03 -0.14890554811E+03  0.45911472583E+03  0.50897584528E+03  0.00000000000E+00 0. -1.
</event>
<event>
 7    1  0.1620881E-005  0.1056960E+03  0.7561462E-02  0.1268754E+00
         -1   -1    0    0    0  501 -0.00000000000E+00  0.00000000000E+00  0.18972359706E+03  0.18972359706E+03  0.00000000000E+00 0.  1.
          1   -1    0    0  501    0  0.00000000000E+00 -0.00000000000E+00 -0.12978585367E+03  0.12978585367E+03  0.00000000000E+00 0. -1.
         23    2    1    2    0    0  0.83526478540E+02  0.53958696212E+02  0.84590660684E+02  0.18081155976E+03  0.12509607009E+03 0.  0.
          5    1    3    3  502    0  0.13664328084E+02  0.50344146597E+01  0.93716673475E+02  0.94933379167E+02  0.41800000000E+01 0. -1.
         -5    1    3    3    0  502  0.69862150456E+02  0.48924281553E+02 -0.91260127906E+01  0.85878180589E+02  0.41800000000E+01 0. -1.
        -11    1    1    2    0    0 -0.52867858430E+02 -0.59607985535E+02 -0.53704618566E+02  0.96084902299E+02  0.00000000000E+00 0.  1.
         11    1    1    2    0    0 -0.30658620110E+02  0.56492893226E+01  0.29051701273E+02  0.42612988674E+02  0.00000000000E+00 0. -1.
</event>
<event>
 7    1  0.1620881E-005  0.1513643E+03  0.7561462E-02  0.1198806E+00
         -1   -1    0    0    0  501 -0.00000000000E+00  0.00000000000E+00  0.78258355781E+02  0.78258355781E+02  0.00000000000E+00 0.  1.
          1   -1    0    0  501    0  0.00000000000E+00 -0.00000000000E+00 -0.34463414964E+03  0.34463414964E+03  0.00000000000E+00 0. -1.
         23    2    1    2    0    0  0.91634497240E+02  0.67714276635E+02 -0.81791300801E+02  0.18793359796E+03  0.12508843276E+03 0.  0.
          5    1    3    3  502    0  0.41655762058E+02 -0.28681576736E+02 -0.57307417349E+02  0.76547030248E+02  0.41800000000E+01 0.  1.
         -5    1    3    3    0  502  0.49978735182E+02  0.96395853371E+02 -0.24483883453E+02  0.11138656771E+03  0.41800000000E+01 0.  1.
        -11    1    1    2    0    0 -0.10390153619E+03 -0.37080028444E+02 -0.12400675385E+03  0.16597630172E+03  0.00000000000E+00 0.  1.
         11    1    1    2    0    0  0.12267038955E+02 -0.30634248191E+02 -0.60577739208E+02  0.68982605739E+02  0.00000000000E+00 0. -1.
</event>
<event>
 7    1  0.1620881E-005  0.1364891E+03  0.7561462E-02  0.1218133E+00
         -2   -1    0    0    0  501 -0.00000000000E+00  0.00000000000E+00  0.17099409159E+03  0.17099409159E+03  0.00000000000E+00 0.  1.
          2   -1    0    0  501    0  0.00000000000E+00 -0.00000000000E+00 -0.13599497920E+03  0.13599497920E+03  0.00000000000E+00 0. -1.
         23    2    1    2    0    0  0.87037852782E+02  0.17598351588E+02  0.70663754239E+02  0.16888908855E+03  0.12507944784E+03 0.  0.
          5    1    3    3  502    0 -0.17440718739E+02 -0.31962828821E+02  0.25621534807E+02  0.44718413906E+02  0.41800000000E+01 0. -1.
         -5    1    3    3    0  502  0.10447857152E+03  0.49561180409E+02  0.45042219432E+02  0.12417067465E+03  0.41800000000E+01 0. -1.
        -11    1    1    2    0    0 -0.10010739211E+03 -0.27956576282E+02 -0.60511819543E+01  0.10411376910E+03  0.00000000000E+00 0.  1.
         11    1    1    2    0    0  0.13069539328E+02  0.10358224694E+02 -0.29613459894E+02  0.33986213145E+02  0.00000000000E+00 0. -1.
</event>
<event>
 7    1  0.1620881E-005  0.2199851E+03  0.7561462E-02  0.1133894E+00
         -2   -1    0    0    0  501 -0.00000000000E+00  0.00000000000E+00  0.86267518611E+02  0.86267518611E+02  0.00000000000E+00 0.  1.
          2   -1    0    0  501    0  0.00000000000E+00 -0.00000000000E+00 -0.73051164845E+03  0.73051164845E+03  0.00000000000E+00 0. -1.
         23    2    1    2    0    0 -0.19690062768E+03 -0.65233018573E+02 -0.18311796870E+03  0.30365178873E+03  0.12508802677E+03 0.  0.
          5    1    3    3  502    0 -0.38077018791E+02  0.28525040337E+02 -0.77619422175E+02  0.91136076200E+02  0.41800000000E+01 0. -1.
         -5    1    3    3    0  502 -0.15882360889E+03 -0.93758058910E+02 -0.10549854653E+03  0.21251571253E+03  0.41800000000E+01 0. -1.
        -11    1    1    2    0    0  0.84160157077E+02  0.22035272777E+02 -0.29633878913E+03  0.30884488538E+03  0.00000000000E+00 0. -1.
         11    1    1    2    0    0  0.11274047060E+03  0.43197745796E+02 -0.16478737201E+03  0.20428249295E+03  0.00000000000E+00 0.  1.
</event>
<event>
 7    1  0.1620881E-005  0.1564917E+03  0.7561462E-02  0.1192715E+00
         -1   -1    0    0    0  501 -0.00000000000E+00  0.00000000000E+00  0.79895012966E+03  0.79895012966E+03  0.00000000000E+00 0.  1.
          1   -1    0    0  501    0  0.00000000000E+00 -0.00000000000E+00 -0.44983003093E+02  0.44983003093E+02  0.00000000000E+00 0. -1.
         23    2    1    2    0    0  0.13311007612E+03 -0.49279637507E+02  0.53468229620E+03  0.56716760103E+03  0.12508858759E+03 0.  0.
          5    1    3    3  502    0  0.35490276168E+02 -0.26228988954E+02  0.38119831729E+03  0.38376705052E+03  0.41800000000E+01 0. -1.
         -5    1    3    3    0  502  0.97619799957E+02 -0.23050648553E+02  0.15348397891E+03  0.18340055051E+03  0.41800000000E+01 0. -1.
        -11    1    1    2    0    0 -0.78111456081E+02  0.74333096123E+02  0.12916489568E+03  0.16825688404E+03  0.00000000000E+00 0.  1.
         11    1    1    2    0    0 -0.54998620044E+02 -0.25053458615E+02  0.90119934689E+02  0.10850864769E+03  0.00000000000E+00 0. -1.
</event>
<event>
 6    1  0.1620881E-005  0.1286064E+03  0.7561462E-02  0.1229538E+00
          1   -1    0    0  501    0  0.00000000000E+00  0.00000000000E+00  0.23069956521E+03  0.23069956521E+03  0.00000000000E+00 0. -1.
         -1   -1    0    0    0  501 -0.00000000000E+00 -0.00000000000E+00 -0.18363425398E+03  0.18363425398E+03  0.00000000000E+00 0.  1.
          5    1    1    2  502    0  0.53939241996E+02 -0.25816322512E+02  0.13251726922E+03  0.14544491527E+03  0.41800000000E+01 0. -1.
         -5    1    1    2    0  502 -0.84983119358E+02  0.10449327237E+02 -0.10761295120E+03  0.13758393322E+03  0.41800000000E+01 0.  1.
        -11    1    1    2    0    0  0.53132986951E+02 -0.30047914761E+02  0.45043226626E+02  0.75860950091E+02  0.00000000000E+00 0. -1.
         11    1    1    2    0    0 -0.22089109589E+02  0.45414910036E+02 -0.22882233414E+02  0.55444020616E+02  0.00000000000E+00 0.  1.
</event>
<event>
 7    1  0.1620881E-005  0.8601033E+02  0.7561462E-02  0.1312811E+00
          2   -1    0    0  501    0  0.00000000000E+00  0.00000000000E+00  0.97248798359E+02  0.97248798359E+02  0.00000000000E+00 0. -1.
         -2   -1    0    0    0  501 -0.00000000000E+00 -0.00000000000E+00 -0.17964333455E+03  0.17964333455E+03  0.00000000000E+00 0.  1.
         23    2    1    2    0    0 -0.65309084945E+02  0.26732684128E+02 -0.73665118134E+02  0.16141249745E+03  0.12509009444E+03 0.  0.
          5    1    3    3  502    0  0.13891741278E+02 -0.25474139346E+01  0.26511876410E+02  0.30328563835E+02  0.41800000000E+01 0.  1.
         -5    1    3    3    0  502 -0.79200826223E+02  0.29280098062E+02 -0.10017699454E+03  0.13108393362E+03  0.41800000000E+01 0.  1.
        -11    1    1    2    0    0  0.21235824196E+02 -0.17956186647E+02 -0.48213686993E+02  0.55659181467E+02  0.00000000000E+00 0.  1.
         11    1    1    2    0    0  0.44073260748E+02 -0.87764974806E+01  0.39484268940E+02  0.59820453983E+02  0.00000000000E+00 0. -1.
</event>
<event>
 7    1  0.1620881E-005  0.1282568E+03  0.7561462E-02  0.1230066E+00
          2   -1    0    0  501    0  0.00000000000E+00  0.00000000000E+00  0.87620461511E+02  0.87620461511E+02  0.00000000000E+00 0.  1.
         -2   -1    0    0    0  501 -0.00000000000E+00 -0.00000000000E+00 -0.20790931704E+03  0.20790931704E+03  0.00000000000E+00 0. -1.
         23    2    1    2    0    0  0.28836492287E+02 -0.64380537263E+02 -0.10300222102E+03  0.17673055104E+03  0.12509129974E+03 0.  0.
          5    1    3    3  502    0  0.52551093896E+02 -0.91190067376E+02 -0.89591183163E+02  0.13827978290E+03  0.41800000000E+01 0. -1.
         -5    1    3    3    0  502 -0.23714601609E+02  0.26809530112E+02 -0.13411037860E+02  0.38450768143E+02  0.41800000000E+01 0. -1.
        -11    1    1    2    0    0 -0.17595951746E+02 -0.21924281968E+02 -0.14708163732E+02  0.31727302723E+02  0.00000000000E+00 0. -1.
         11    1    1    2    0    0 -0.11240540541E+02  0.86304819232E+02 -0.25784707723E+01  0.87071924785E+02  0.00000000000E+00 0.  1.
</event>
<event>
 7    1  0.1620881E-005  0.1455169E+03  0.7561462E-02  0.1206093E+00
          2   -1    0    0  501    0  0.00000000000E+00  0.00000000000E+00  0.30782656220E+03  0.30782656220E+03  0.00000000000E+00 0. -1.
         -2   -1    0    0    0  501 -0.00000000000E+00 -0.00000000000E+00 -0.89094056238E+02  0.89094056238E+02  0.00000000000E+00 0.  1.
         23    2    1    2    0    0 -0.11179729687E+03  0.68034128953E+02  0.96589591111E+02  0.20519779991E+03  0.12509720095E+03 0.  0.
          5    1    3    3  502    0  0.67264824811E+01  0.32058619735E+02  0.71489404456E+02  0.78747749272E+02  0.41800000000E+01 0.  1.
         -5    1    3    3    0  502 -0.11852377935E+03  0.35975509217E+02  0.25100186655E+02  0.12645005064E+03  0.41800000000E+01 0.  1.
        -11    1    1    2    0    0  0.18640645742E+02 -0.25711615855E+02 -0.80492917413E+00  0.31768046438E+02  0.00000000000E+00 0.  1.
         11    1    1    2    0    0  0.93156651130E+02 -0.42322513098E+02  0.12294784403E+03  0.15995477209E+03  0.00000000000E+00 0. -1.
</event>
<event>
 7    1  0.1620881E-005  0.1048147E+03  0.7561462E-02  0.1270485E+00
          2   -1    0    0  501    0  0.00000000000E+00  0.00000000000E+00  0.56390051527E+03  0.56390051527E+03  0.00000000000E+00 0. -1.
         -2   -1    0    0    0  501 -0.00000000000E+00 -0.00000000000E+00 -0.42713497729E+02  0.42713497729E+02  0.00000000000E+00 0.  1.
         23    2    1    2    0    0  0.99759504789E+02  0.29289223316E+02  0.20707295791E+03  0.26331840107E+03  0.12509017966E+03 0.  0.
          5    1    3    3  502    0  0.77439575823E+02  0.29422839778E+02  0.35457348418E+02  0.90206914153E+02  0.41800000000E+01 0. -1.
         -5    1    3    3    0  502  0.22319928966E+02 -0.13361646205E+00  0.17161560949E+03  0.17311148692E+03  0.41800000000E+01 0. -1.
        -11    1    1    2    0    0 -0.46098408029E+02 -0.13023958404E+02  0.36899349798E+02  0.60466922618E+02  0.00000000000E+00 0.  1.
         11    1    1    2    0    0 -0.53661096760E+02 -0.16265264911E+02  0.27721470984E+03  0.28282868931E+03  0.00000000000E+00 0. -1.
</event>
<event>
 7    1  0.1620881E-005  0.1637154E+03  0.7561462E-02  0.1184565E+00
          1   -1    0    0  501    0  0.00000000000E+00  0.00000000000E+00  0.20965370761E+03  0.20965370761E+03  0.00000000000E+00 0. -1.
         -1   -1    0    0    0  501 -0.00000000000E+00 -0.00000000000E+00 -0.16075477934E+03  0.16075477934E+03  0.00000000000E+00 0.  1.
         23    2    1    2    0    0  0.12605366680E+03  0.79213751386E+02  0.16114804013E+02  0.19509608598E+03  0.12505379055E+03 0.  0.
          5    1    3    3  502    0  0.12264337564E+02 -0.66070283863E+01 -0.39465765752E+02  0.42060502450E+02  0.41800000000E+01 0.  1.
         -5    1    3    3    0  502  0.11378932924E+03  0.85820779773E+02  0.55580569765E+02  0.15303558353E+03  0.41800000000E+01 0.  1.
        -11    1    1    2    0    0 -0.12425507989E+03 -0.39265060859E+02  0.13782343064E+02  0.13103824962E+03  0.00000000000E+00 0.  1.
         11    1    1    2    0    0 -0.17985869151E+01 -0.39948690527E+02  0.19001781189E+02  0.44274151354E+02  0.00000000000E+00 0. -1.
</event>
<event>
 7    1  0.1620881E-005  0.1536564E+03  0.7561462E-02  0.1196051E+00
          4   -1    0    0  501    0  0.00000000000E+00  0.00000000000E+00  0.10722172041E+03  0.10722172041E+03  0.00000000000E+00 0. -1.
         -4   -1    0    0    0  501 -0.00000000000E+00 -0.00000000000E+00 -0.29336330587E+03  0.29336330587E+03  0.00000000000E+00 0.  1.
         23    2    1    2    0    0  0.37255534571E+01  0.13864549011E+03 -0.95423801203E+02  0.20973703383E+03  0.12508984709E+03 0.  0.
          5    1    3    3  502    0  0.38323645501E+02  0.98896546393E+02 -0.11202834609E+03  0.15432774029E+03  0.41800000000E+01 0. -1.
         -5    1    3    3    0  502 -0.34598092044E+02  0.39748943718E+02  0.16604544891E+02  0.55409293542E+02  0.41800000000E+01 0. -1.
        -11    1    1    2    0    0  0.20583377772E+02 -0.26496586588E+02 -0.65148260932E+02  0.73280559794E+02  0.00000000000E+00 0.  1.
         11    1    1    2    0    0 -0.24308931229E+02 -0.11214890352E+03 -0.25569523325E+02  0.11756743266E+03  0.00000000000E+00 0. -1.
</event>
<event>
 7    1  0.1620881E-005  0.8300605E+02  0.7561462E-02  0.1320731E+00
          1   -1    0    0  501    0  0.00000000000E+00  0.00000000000E+00  0.70662519814E+02  0.70662519814E+02  0.00000000000E+00 0. -1.
         -1   -1    0    0    0  501 -0.00000000000E+00 -0.00000000000E+00 -0.30685183506E+03  0.30685183506E+03  0.00000000000E+00 0.  1.
         23    2    1    2    0    0  0.75638907080E+00 -0.33879226425E+02 -0.24870818859E+03  0.28044762883E+03  0.12508691113E+03 0.  0.
          5    1    3    3  502    0  0.52255377991E+02 -0.35743122802E+02 -0.19844082312E+03  0.20833729392E+03  0.41800000000E+01 0.  1.
         -5    1    3    3    0  502 -0.51498988921E+02  0.18638963764E+01 -0.50267365465E+02  0.72110334906E+02  0.41800000000E+01 0.  1.
        -11    1    1    2    0    0 -0.18171936881E+02  0.26063592376E+02 -0.34149909913E+02  0.46644897734E+02  0.00000000000E+00 0.  1.
         11    1    1    2    0    0  0.17415547810E+02  0.78156340495E+01  0.46668783248E+02  0.50421828318E+02  0.00000000000E+00 0. -1.
</event>
<event>
 7    1  0.1620881E-005  0.9825714E+02  0.7561462E-02  0.1284004E+00
          1   -1    0    0  501    0  0.00000000000E+00  0.00000000000E+00  0.32651734401E+03  0.32651734401E+03  0.00000000000E+00 0.  1.
         -1   -1    0    0    0  501 -0.00000000000E+00 -0.00000000000E+00 -0.60147727473E+02  0.60147727473E+02  0.00000000000E+00 0. -1.
         23    2    1    2    0    0  0.54146297057E+02 -0.51078813731E+02  0.79345750704E+02  0.16578399773E+03  0.12509084319E+03 0.  0.
          5    1    3    3  502    0  0.44261987802E+02 -0.25054920352E+02 -0.25624487105E+02  0.57104810108E+02  0.41800000000E+01 0.  1.
         -5    1    3    3    0  502  0.98843092548E+01 -0.26023893380E+02  0.10497023781E+03  0.10867918762E+03  0.41800000000E+01 0.  1.
        -11    1    1    2    0    0 -0.40635935104E+01  0.65176126941E+02  0.11023792168E+03  0.12812821583E+03  0.00000000000E+00 0.  1.
         11    1    1    2    0    0 -0.50082703547E+02 -0.14097313209E+02  0.76785944158E+02  0.92752857932E+02  0.00000000000E+00 0. -1.
</event>
<event>
 7    1  0.1620881E-005  0.1347321E+03  0.7561462E-02  0.1220598E+00
          1   -1    0    0  501    0  0.00000000000E+00  0.00000000000E+00  0.36896656706E+03  0.36896656706E+03  0.00000000000E+00 0. -1.
         -1   -1    0    0    0  501 -0.00000000000E+00 -0.00000000000E+00 -0.75405915636E+02  0.75405915636E+02  0.00000000000E+00 0.  1.
         23    2    1    2    0    0  0.85487227264E+02  0.21240456367E+02  0.38923579515E+02  0.15786223378E+03  0.12508483841E+03 0.  0.
          5    1    3    3  502    0  0.10926023158E+03  0.28937756532E+02  0.20494404300E+01  0.11312322734E+03  0.41800000000E+01 0. -1.
         -5    1    3    3    0  502 -0.23773004316E+02 -0.76973001646E+01  0.36874139085E+02  0.44739006440E+02  0.41800000000E+01 0. -1.
        -11    1    1    2    0    0 -0.94164101291E+02  0.13580607994E+02  0.19337252709E+03  0.21550926922E+03  0.00000000000E+00 0.  1.
         11    1    1    2    0    0  0.86768740263E+01 -0.34821064361E+02  0.61264544818E+02  0.71000979696E+02  0.00000000000E+00 0. -1.
</event>
<event>
 7    1  0.1620881E-005  0.9108904E+02  0.7561462E-02  0.1300236E+00
          1   -1    0    0  501    0  0.00000000000E+00  0.00000000000E+00  0.90731881714E+02  0.90731881714E+02  0.00000000000E+00 0. -1.
         -1   -1    0    0    0  501 -0.00000000000E+00 -0.00000000000E+00 -0.14999127542E+03  0.14999127542E+03  0.00000000000E+00 0.  1.
         23    2    1    2    0    0  0.33420653632E+02  0.52218666490E+01 -0.68223797168E+02  0.14644730161E+03  0.12509243650E+03 0.  0.
          5    1    3    3  502    0 -0.49575143936E+01 -0.48383545566E+02  0.34948469613E+01  0.48941095061E+02  0.41800000000E+01 0.  1.
         -5    1    3    3    0  502  0.38378168026E+02  0.53605412215E+02 -0.71718644129E+02  0.97506206549E+02  0.41800000000E+01 0.  1.
        -11    1    1    2    0    0 -0.48508807356E+02 -0.13147588652E+02  0.36345473023E+02  0.62023841285E+02  0.00000000000E+00 0. -1.
         11    1    1    2    0    0  0.15088153724E+02  0.79257220033E+01 -0.27381069557E+02  0.32252014234E+02  0.00000000000E+00 0.  1.
</event>
<event>
 7    1  0.1620881E-005  0.9713943E+02  0.7561462E-02  0.1286429E+00
         -1   -1    0    0    0  501 -0.00000000000E+00  0.00000000000E+00  0.63378916225E+02  0.63378916225E+02  0.00000000000E+00 0.  1.
          1   -1    0    0  501    0  0.00000000000E+00 -0.00000000000E+00 -0.18659518815E+03  0.18659518815E+03  0.00000000000E+00 0. -1.
         23    2    1    2    0    0 -0.12305828152E+02 -0.12206826912E+02 -0.65099355828E+02  0.14207813439E+03  0.12509128711E+03 0.  0.
          5    1    3    3  502    0  0.25148163862E+02  0.34951714567E+02 -0.69158440317E+02  0.81574596315E+02  0.41800000000E+01 0.  1.
         -5    1    3    3    0  502 -0.37453992013E+02 -0.47158541479E+02  0.40590844897E+01  0.60503538070E+02  0.41800000000E+01 0.  1.
        -11    1    1    2    0    0  0.46713416908E+02 -0.12421811437E+02 -0.35013940116E+02  0.59686017802E+02  0.00000000000E+00 0. -1.
         11    1    1    2    0    0 -0.34407588757E+02  0.24628638349E+02 -0.23102975985E+02  0.48209952192E+02  0.00000000000E+00 0.  1.
</event>
<event>
 7    1  0.1620881E-005  0.1562021E+03  0.7561462E-02  0.1193053E+00
         -1   -1    0    0    0  501 -0.00000000000E+00  0.00000000000E+00  0.11421782055E+03  0.11421782055E+03  0.00000000000E+00 0.  1.
          1   -1    0    0  501    0  0.00000000000E+00 -0.00000000000E+00 -0.48096967831E+03  0.48096967831E+03  0.00000000000E+00 0. -1.
         23    2    1    2    0    0 -0.11502740295E+03 -0.10342351159E+03 -0.13814207786E+02  0.19934707069E+03  0.12498278313E+03 0.  0.
          5    1    3    3  502    0 -0.11475356774E+03 -0.98989109727E+02 -0.52304804729E+02  0.16037608971E+03  0.41800000000E+01 0. -1.
         -5    1    3    3    0  502 -0.27383521293E+00 -0.44344018633E+01  0.38490596943E+02  0.38970980982E+02  0.41800000000E+01 0. -1.
        -11    1    1    2    0    0  0.35158806549E+02  0.32767528624E+02 -0.32225578341E+02  0.57864846924E+02  0.00000000000E+00 0. -1.
         11    1    1    2    0    0  0.79868596405E+02  0.70655982966E+02 -0.32071207164E+03  0.33797558124E+03  0.00000000000E+00 0.  1.
</event>
<event>
 6    1  0.1620881E-005  0.1358151E+03  0.7561462E-02  0.1219074E+00
          2   -1    0    0  501    0  0.00000000000E+00  0.00000000000E+00  0.13734768251E+04  0.13734768251E+04  0.00000000000E+00 0. -1.
         -2   -1    0    0    0  501 -0.00000000000E+00 -0.00000000000E+00 -0.19968485278E+02  0.19968485278E+02  0.00000000000E+00 0.  1.
          5    1    1    2  502    0  0.13258196064E+02  0.77800481967E+02  0.77164877132E+03  0.77568549905E+03  0.41800000000E+01 0. -1.
         -5    1    1    2    0  502  0.94948725234E+01 -0.96826276259E+02  0.17926688697E+03  0.20400874869E+03  0.41800000000E+01 0.  1.
        -11    1    1    2    0    0  0.19152497950E+02 -0.26915546433E+02  0.12645999847E+03  0.13070346603E+03  0.00000000000E+00 0.  1.
         11    1    1    2    0    0 -0.41905566538E+02  0.45941340726E+02  0.27613268311E+03  0.28304759666E+03  0.00000000000E+00 0. -1.
</event>
<event>
 7    1  0.1620881E-005  0.1545597E+03  0.7561462E-02  0.1194979E+00
          3   -1    0    0  501    0  0.00000000000E+00  0.00000000000E+00  0.49393391143E+02  0.49393391143E+02  0.00000000000E+00 0. -1.
         -3   -1    0    0    0  501 -0.00000000000E+00 -0.00000000000E+00 -0.69274578680E+03  0.69274578680E+03  0.00000000000E+00 0.  1.
         23    2    1    2    0    0  0.13168011166E+03  0.59366240412E+02 -0.42516837460E+03  0.46613300904E+03  0.12509129888E+03 0.  0.
          5    1    3    3  502    0  0.56358716765E+02  0.59757707510E+02 -0.87286429515E+02  0.11993198798E+03  0.41800000000E+01 0. -1.
         -5    1    3    3    0  502  0.75321394890E+02 -0.39146709815E+00 -0.33788194508E+03  0.34620102107E+03  0.41800000000E+01 0. -1.
        -11    1    1    2    0    0 -0.22284313606E+02  0.71486795741E+01 -0.96773279795E+02  0.99562854192E+02  0.00000000000E+00 0.  1.
         11    1    1    2    0    0 -0.10939579805E+03 -0.66514919986E+02 -0.12141074127E+03  0.17644331471E+03  0.00000000000E+00 0. -1.
</event>
<event>
 7    1  0.1620881E-005  0.1237841E+03  0.7561462E-02  0.1236982E+00
         -2   -1    0    0    0  501 -0.00000000000E+00  0.00000000000E+00  0.48402026992E+02  0.48402026992E+02  0.00000000000E+00 0. -1.
          2   -1    0    0  501    0  0.00000000000E+00 -0.00000000000E+00 -0.46690528386E+03  0.46690528386E+03  0.00000000000E+00 0.  1.
         23    2    1    2    0    0  0.10331061840E+03  0.43568919367E+01 -0.23380542372E+03  0.28461310284E+03  0.12509027045E+03 0.  0.
          5    1    3    3  502    0  0.61542441043E+02 -0.44329645181E+02 -0.52739667153E+02  0.92474506664E+02  0.41800000000E+01 0. -1.
         -5    1    3    3    0  502  0.41768177355E+02  0.48686537117E+02 -0.18106575657E+03  0.19213859617E+03  0.41800000000E+01 0. -1.
        -11    1    1    2    0    0 -0.68942717671E+02  0.10760515099E+02 -0.38380343802E+02  0.79636284415E+02  0.00000000000E+00 0. -1.
         11    1    1    2    0    0 -0.34367900726E+02 -0.15117407036E+02 -0.14631748934E+03  0.15105792360E+03  0.00000000000E+00 0.  1.
</event>
<event>
 7    1  0.1620881E-005  0.9303670E+02  0.7561462E-02  0.1295660E+00
          2   -1    0    0  501    0  0.00000000000E+00  0.00000000000E+00  0.46032317713E+03  0.46032317713E+03  0.00000000000E+00 0. -1.
         -2   -1    0    0    0  501 -0.00000000000E+00 -0.00000000000E+00 -0.36545668573E+02  0.36545668573E+02  0.00000000000E+00 0.  1.
         23    2    1    2    0    0 -0.58851729396E+02  0.37914641161E+02  0.21516292529E+03  0.25854228955E+03  0.12509190621E+03 0.  0.
          5    1    3    3  502    0 -0.30183310144E+02  0.13815927470E+02  0.21818668136E+03  0.22073697558E+03  0.41800000000E+01 0.  1.
         -5    1    3    3    0  502 -0.28668419252E+02  0.24098713691E+02 -0.30237560694E+01  0.37805313975E+02  0.41800000000E+01 0.  1.
        -11    1    1    2    0    0  0.48959824930E+02 -0.67699146984E+02  0.15912085221E+03  0.17972112999E+03  0.00000000000E+00 0.  1.
         11    1    1    2    0    0  0.98919044658E+01  0.29784505823E+02  0.49493731061E+02  0.58605426161E+02  0.00000000000E+00 0. -1.
</event>
<event>
 7    1  0.1620881E-005  0.1095144E+03  0.7561462E-02  0.1261472E+00
         -3   -1    0    0    0  501 -0.00000000000E+00  0.00000000000E+00  0.31000677872E+03  0.31000677872E+03  0.00000000000E+00 0.  1.
          3   -1    0    0  501    0  0.00000000000E+00 -0.00000000000E+00 -0.75380514455E+02  0.75380514455E+02  0.00000000000E+00 0. -1.
         23    2    1    2    0    0 -0.22833511153E+02  0.78142664685E+02  0.21316247738E+03  0.26022201957E+03  0.12509841099E+03 0.  0.
          5    1    3    3  502    0 -0.41561575729E+02  0.63856278994E+02  0.41421468459E+02  0.86822804570E+02  0.41800000000E+01 0. -1.
         -5    1    3    3    0  502  0.18728064576E+02  0.14286385691E+02  0.17174100892E+03  0.17339921500E+03  0.41800000000E+01 0. -1.
        -11    1    1    2    0    0 -0.12991797158E+02 -0.81766841300E+02  0.30172194702E+02  0.88119035757E+02  0.00000000000E+00 0.  1.
         11    1    1    2    0    0  0.35825308311E+02  0.36241766154E+01 -0.87084078158E+01  0.37046237844E+02  0.00000000000E+00 0. -1.
</event>
<event>
 7    1  0.1620881E-005  0.1337742E+03  0.7561462E-02  0.1221961E+00
          1   -1    0    0  501    0  0.00000000000E+00  0.00000000000E+00  0.20073336503E+03  0.20073336503E+03  0.00000000000E+00 0. -1.
         -1   -1    0    0    0  501 -0.00000000000E+00 -0.00000000000E+00 -0.13720047185E+03  0.13720047185E+03  0.00000000000E+00 0.  1.
         23    2    1    2    0    0  0.10652971656E+03 -0.90647305357E+01 -0.33102745072E+02  0.16785690422E+03  0.12509755679E+03 0.  0.
          5    1    3    3  502    0  0.18385922060E+02  0.50473458270E+02 -0.29316627441E+02  0.61339621488E+02  0.41800000000E+01 0.  1.
         -5    1    3    3    0  502  0.88143794495E+02 -0.59538188805E+02 -0.37861176307E+01  0.10651728273E+03  0.41800000000E+01 0.  1.
        -11    1    1    2    0    0 -0.46032514745E+02 -0.86984173018E-01 -0.10026211514E+02  0.47111833942E+02  0.00000000000E+00 0.  1.
         11    1    1    2    0    0 -0.60497201810E+02  0.91517147087E+01  0.10666184976E+03  0.12296509872E+03  0.00000000000E+00 0. -1.
</event>
<event>
 7    1  0.1620881E-005  0.1217091E+03  0.7561462E-02  0.1240304E+00
         -2   -1    0    0    0  501 -0.00000000000E+00  0.00000000000E+00  0.30930839682E+02  0.30930839682E+02  0.00000000000E+00 0. -1.
          2   -1    0    0  501    0  0.00000000000E+00 -0.00000000000E+00 -0.61250085752E+03  0.61250085752E+03  0.00000000000E+00 0.  1.
         23    2    1    2    0    0 -0.59351481151E+02  0.96717096186E+01 -0.18084789567E+03  0.22796985443E+03  0.12509257723E+03 0.  0.
          5    1    3    3  502    0 -0.98235352984E+02  0.14510165003E+01 -0.11956086474E+03  0.15480491853E+03  0.41800000000E+01 0. -1.
         -5    1    3    3    0  502  0.38883871833E+02  0.82206931183E+01 -0.61287030933E+02  0.73164935896E+02  0.41800000000E+01 0. -1.
        -11    1    1    2    0    0  0.39416500187E+02  0.37191936496E+02 -0.14681630594E+03  0.15649897226E+03  0.00000000000E+00 0. -1.
         11    1    1    2    0    0  0.19934980963E+02 -0.46863646115E+02 -0.25390581623E+03  0.25896287052E+03  0.00000000000E+00 0.  1.
</event>
<event>
 7    1  0.1620881E-005  0.1128290E+03  0.7561462E-02  0.1255419E+00
          2   -1    0    0  501    0  0.00000000000E+00  0.00000000000E+00  0.33269918919E+03  0.33269918919E+03  0.00000000000E+00 0. -1.
         -2   -1    0    0    0  501 -0.00000000000E+00 -0.00000000000E+00 -0.65893213013E+02  0.65893213013E+02  0.00000000000E+00 0.  1.
         23    2    1    2    0    0  0.30461578574E+02 -0.91591578363E+02  0.10979141657E+03  0.19240131405E+03  0.12508871053E+03 0.  0.
          5    1    3    3  502    0  0.26917402913E+02 -0.38046782959E+02 -0.20758676889E+02  0.51190813036E+02  0.41800000000E+01 0.  1.
         -5    1    3    3    0  502  0.35441756612E+01 -0.53544795403E+02  0.13055009346E+03  0.14121050102E+03  0.41800000000E+01 0.  1.
        -11    1    1    2    0    0  0.22235257640E+02  0.59070172785E+02  0.42768316277E+02  0.76241857745E+02  0.00000000000E+00 0.  1.
         11    1    1    2    0    0 -0.52696836214E+02  0.32521405577E+02  0.11424624333E+03  0.12994923041E+03  0.00000000000E+00 0. -1.
</event>
<event>
 7    1  0.1620881E-005  0.2058211E+03  0.7561462E-02  0.1144919E+00
         -2   -1    0    0    0  501 -0.00000000000E+00  0.00000000000E+00  0.67832673401E+02  0.67832673401E+02  0.00000000000E+00 0. -1.
          2   -1    0    0  501    0  0.00000000000E+00 -0.00000000000E+00 -0.80847738758E+03  0.80847738758E+03  0.00000000000E+00 0.  1.
         23    2    1    2    0    0 -0.19249217058E+03  0.49955633120E+02 -0.27314296363E+03  0.36028067334E+03  0.12508510698E+03 0.  0.
          5    1    3    3  502    0 -0.15443605203E+03  0.69543659392E+02 -0.26787209134E+03  0.31695385223E+03  0.41800000000E+01 0. -1.
         -5    1    3    3    0  502 -0.38056118554E+02 -0.19588026272E+02 -0.52708722917E+01  0.43326821108E+02  0.41800000000E+01 0. -1.
        -11    1    1    2    0    0  0.11670301071E+03 -0.24352048418E+02 -0.37620713776E+03  0.39464468256E+03  0.00000000000E+00 0.  1.
         11    1    1    2    0    0  0.75789159867E+02 -0.25603584702E+02 -0.91294612789E+02  0.12138470508E+03  0.00000000000E+00 0. -1.
</event>
<event>
 7    1  0.1620881E-005  0.2534183E+03  0.7561462E-02  0.1111163E+00
          4   -1    0    0  501    0  0.00000000000E+00  0.00000000000E+00  0.12860277767E+03  0.12860277767E+03  0.00000000000E+00 0. -1.
         -4   -1    0    0    0  501 -0.00000000000E+00 -0.00000000000E+00 -0.65581900431E+03  0.65581900431E+03  0.00000000000E+00 0.  1.
         23    2    1    2    0    0  0.24444470278E+03  0.42378545533E+02 -0.28115072343E+03  0.39527567468E+03  0.12509186970E+03 0.  0.
          5    1    3    3  502    0  0.11957792181E+03  0.57652265698E+02 -0.71749008018E+02  0.15095713191E+03  0.41800000000E+01 0.  1.
         -5    1    3    3    0  502  0.12486678097E+03 -0.15273720165E+02 -0.20940171542E+03  0.24431854276E+03  0.41800000000E+01 0.  1.
        -11    1    1    2    0    0 -0.90682809015E+02 -0.12991165358E+02  0.66749710788E+01  0.91851496815E+02  0.00000000000E+00 0. -1.
         11    1    1    2    0    0 -0.15376189376E+03 -0.29387380175E+02 -0.25274047428E+03  0.29729461049E+03  0.00000000000E+00 0.  1.
</event>
<event>
 6    1  0.1620881E-005  0.1784131E+03  0.7561462E-02  0.1169348E+00
          2   -1    0    0  501    0  0.00000000000E+00  0.00000000000E+00  0.30525203643E+03  0.30525203643E+03  0.00000000000E+00 0. -1.
         -2   -1    0    0    0  501 -0.00000000000E+00 -0.00000000000E+00 -0.13013865355E+03  0.13013865355E+03  0.00000000000E+00 0.  1.
          5    1    1    2  502    0  0.37788248527E+02  0.71847005709E+02  0.41202317258E+02  0.91132032258E+02  0.41800000000E+01 0. -1.
         -5    1    1    2    0  502 -0.11774740543E+03  0.20450157129E+02 -0.24316133738E+02  0.12203035349E+03  0.41800000000E+01 0.  1.
        -11    1    1    2    0    0 -0.12839393958E+02 -0.54103373842E+02  0.52897725228E+02  0.76747602130E+02  0.00000000000E+00 0.  1.
         11    1    1    2    0    0  0.92798550864E+02 -0.38193788996E+02  0.10532947413E+03  0.14548070209E+03  0.00000000000E+00 0. -1.
</event>
<event>
 7    1  0.1620881E-005  0.1073450E+03  0.7561462E-02  0.1265567E+00
         -1   -1    0    0    0  501 -0.00000000000E+00  0.00000000000E+00  0.60186556706E+02  0.60186556706E+02  0.00000000000E+00 0.  1.
          1   -1    0    0  501    0  0.00000000000E+00 -0.00000000000E+00 -0.27068614491E+03  0.27068614491E+03  0.00000000000E+00 0. -1.
         23    2    1    2    0    0  0.17893510584E+02  0.56140919635E+02 -0.75128957127E+02  0.15735991698E+03  0.12508318310E+03 0.  0.
          5    1    3    3  502    0 -0.49693857522E+02  0.83800787191E+01 -0.49147858456E+02  0.70517299902E+02  0.41800000000E+01 0.  1.
         -5    1    3    3    0  502  0.67587368106E+02  0.47760840916E+02 -0.25981098672E+02  0.86842617076E+02  0.41800000000E+01 0.  1.
        -11    1    1    2    0    0 -0.36580300808E+02 -0.49229712624E+02 -0.14018563349E+03  0.15301534188E+03  0.00000000000E+00 0. -1.
         11    1    1    2    0    0  0.18686790224E+02 -0.69112070103E+01  0.48150024206E+01  0.20497442756E+02  0.00000000000E+00 0.  1.
</event>
<event>
 7    1  0.1620881E-005  0.1323623E+03  0.7561462E-02  0.1223992E+00
          1   -1    0    0  501    0  0.00000000000E+00  0.00000000000E+00  0.90975550718E+03  0.90975550718E+03  0.00000000000E+00 0. -1.
         -1   -1    0    0    0  501 -0.00000000000E+00 -0.00000000000E+00 -0.19272626926E+02  0.19272626926E+02  0.00000000000E+00 0.  1.
         23    2    1    2    0    0  0.96073747846E+01 -0.82483604808E+02  0.49227033603E+03  0.51465918436E+03  0.12509254814E+03 0.  0.
          5    1    3    3  502    0  0.51688544645E+02  0.58745287701E+01  0.17012935233E+03  0.17795416450E+03  0.41800000000E+01 0.  1.
         -5    1    3    3    0  502 -0.42081169861E+02 -0.88358133579E+02  0.32214098369E+03  0.33670501986E+03  0.41800000000E+01 0.  1.
        -11    1    1    2    0    0 -0.13606047354E+02  0.97803845329E+02  0.34325514327E+03  0.35717616111E+03  0.00000000000E+00 0.  1.
         11    1    1    2    0    0  0.39986725691E+01 -0.15320240520E+02  0.54957400961E+02  0.57192788639E+02  0.00000000000E+00 0. -1.
</event>
<event>
 7    1  0.1620881E-005  0.1802907E+03  0.7561462E-02  0.1167522E+00
          1   -1    0    0  501    0  0.00000000000E+00  0.00000000000E+00  0.39562160876E+03  0.39562160876E+03  0.00000000000E+00 0. -1.
         -1   -1    0    0    0  501 -0.00000000000E+00 -0.00000000000E+00 -0.94952214651E+02  0.94952214651E+02  0.00000000000E+00 0.  1.
         23    2    1    2    0    0 -0.10788455306E+03 -0.11576983071E+03  0.12360444728E+03  0.23655732203E+03  0.12505829332E+03 0.  0.
          5    1    3    3  502    0  0.12693796749E+02 -0.31159674929E+02  0.73444351143E+02  0.80892539411E+02  0.41800000000E+01 0.  1.
         -5    1    3    3    0  502 -0.12057834981E+03 -0.84610155777E+02  0.50160096137E+02  0.15566478262E+03  0.41800000000E+01 0.  1.
        -11    1    1    2    0    0  0.10580521155E+03  0.56381262137E+02  0.13846230099E+03  0.18315402892E+03  0.00000000000E+00 0. -1.
         11    1    1    2    0    0  0.20793415084E+01  0.59388568569E+02  0.38602645837E+02  0.70862472462E+02  0.00000000000E+00 0.  1.
</event>
<event>
 7    1  0.1620881E-005  0.1316409E+03  0.7561462E-02  0.1225041E+00
         -2   -1    0    0    0  501 -0.00000000000E+00  0.00000000000E+00  0.63081582820E+02  0.63081582820E+02  0.00000000000E+00 0. -1.
          2   -1    0    0  501    0  0.00000000000E+00 -0.00000000000E+00 -0.38099369792E+03  0.38099369792E+03  0.00000000000E+00 0.  1.
         23    2    1    2    0    0  0.66886488434E+02  0.70617461834E+02 -0.10052628933E+03  0.18765458348E+03  0.12509228435E+03 0.  0.
          5    1    3    3  502    0  0.55226179530E+02 -0.23035210319E+02 -0.19140502833E+02  0.62963347025E+02  0.41800000000E+01 0.  1.
         -5    1    3    3    0  502  0.11660308904E+02  0.93652672152E+02 -0.81385786502E+02  0.12469123646E+03  0.41800000000E+01 0.  1.
        -11    1    1    2    0    0  0.19449367574E+01 -0.27585904802E+02 -0.14514209052E+03  0.14775314333E+03  0.00000000000E+00 0. -1.
         11    1    1    2    0    0 -0.68831425191E+02 -0.43031557032E+02 -0.72243735244E+02  0.10866755393E+03  0.00000000000E+00 0.  1.
</event>
<event>
 7    1  0.1620881E-005  0.1172475E+03  0.7561462E-02  0.1247708E+00
          3   -1    0    0  501    0  0.00000000000E+00  0.00000000000E+00  0.49187427542E+02  0.49187427542E+02  0.00000000000E+00 0. -1.
         -3   -1    0    0    0  501 -0.00000000000E+00 -0.00000000000E+00 -0.76231804921E+03  0.76231804921E+03  0.00000000000E+00 0.  1.
         23    2    1    2    0    0 -0.18192299337E+02 -0.96172705538E+02 -0.64284229632E+03  0.66217346531E+03  0.12508929283E+03 0.  0.
          5    1    3    3  502    0  0.30616690240E+02 -0.60548394133E+02 -0.13930294448E+03  0.15500410476E+03  0.41800000000E+01 0.  1.
         -5    1    3    3    0  502 -0.48808989577E+02 -0.35624311405E+02 -0.50353935184E+03  0.50716936055E+03  0.41800000000E+01 0.  1.
        -11    1    1    2    0    0  0.16039172198E+01  0.86952998224E+02 -0.87748089055E+02  0.12354401476E+03  0.00000000000E+00 0.  1.
         11    1    1    2    0    0  0.16588382118E+02  0.92197073142E+01  0.17459763703E+02  0.25787996681E+02  0.00000000000E+00 0. -1.
</event>
<event>
 6    1  0.1620881E-005  0.9633928E+02  0.7561462E-02  0.1288188E+00
          1   -1    0    0  501    0  0.00000000000E+00  0.00000000000E+00  0.92206042336E+02  0.92206042336E+02  0.00000000000E+00 0. -1.
         -1   -1    0    0    0  501 -0.00000000000E+00 -0.00000000000E+00 -0.21897182196E+03  0.21897182196E+03  0.00000000000E+00 0.  1.
          5    1    1    2  502    0 -0.19877535639E+02 -0.45353353670E+02  0.30507164673E+02  0.58311256277E+02  0.41800000000E+01 0. -1.
         -5    1    1    2    0  502 -0.30167061639E+02 -0.11323052489E+02 -0.12701772678E+03  0.13110773601E+03  0.41800000000E+01 0.  1.
        -11    1    1    2    0    0  0.11487051279E+02  0.69049202930E+02  0.19412682977E+01  0.70025090468E+02  0.00000000000E+00 0.  1.
         11    1    1    2    0    0  0.38557546000E+02 -0.12372796771E+02 -0.32196485815E+02  0.51733781539E+02  0.00000000000E+00 0. -1.
</event>
<event>
 7    1  0.1620881E-005  0.1110186E+03  0.7561462E-02  0.1258695E+00
         -3   -1    0    0    0  501 -0.00000000000E+00  0.00000000000E+00  0.19602872070E+03  0.19602872070E+03  0.00000000000E+00 0.  1.
          3   -1    0    0  501    0  0.00000000000E+00 -0.00000000000E+00 -0.91648708456E+02  0.91648708456E+02  0.00000000000E+00 0. -1.
         23    2    1    2    0    0 -0.58767286899E+02  0.53355083617E+02  0.58536523610E+02  0.15929497935E+03  0.12509199372E+03 0.  0.
          5    1    3    3  502    0  0.30426926163E+01 -0.20066081084E+02 -0.24660774560E+02  0.32210740295E+02  0.41800000000E+01 0.  1.
         -5    1    3    3    0  502 -0.61809979515E+02  0.73421164701E+02  0.83197298171E+02  0.12708423906E+03  0.41800000000E+01 0.  1.
        -11    1    1    2    0    0  0.60891902459E+01 -0.52205541126E+02 -0.78636105041E+01  0.53144455329E+02  0.00000000000E+00 0.  1.
         11    1    1    2    0    0  0.52678096653E+02 -0.11495424916E+01  0.53707099137E+02  0.75237994476E+02  0.00000000000E+00 0. -1.
</event>
<event>
 7    1  0.1620881E-005  0.9053346E+02  0.7561462E-02  0.1301565E+00
         -2   -1    0    0    0  501 -0.00000000000E+00  0.00000000000E+00  0.73123619972E+02  0.73123619972E+02  0.00000000000E+00 0.  1.
          2   -1    0    0  501    0  0.00000000000E+00 -0.00000000000E+00 -0.16100563859E+03  0.16100563859E+03  0.00000000000E+00 0. -1.
         23    2    1    2    0    0 -0.47760108890E+00 -0.14817408356E+02 -0.45680903392E+02  0.13399814157E+03  0.12509585651E+03 0.  0.
          5    1    3    3  502    0 -0.37388652085E+02 -0.56952211089E+02 -0.35411982047E+02  0.76895685998E+02  0.41800000000E+01 0. -1.
         -5    1    3    3    0  502  0.36911050996E+02  0.42134802733E+02 -0.10268921346E+02  0.57102455574E+02  0.41800000000E+01 0. -1.
        -11    1    1    2    0    0 -0.26446080047E+02  0.12142648146E+01  0.18534454535E+02  0.32317109924E+02  0.00000000000E+00 0.  1.
         11    1    1    2    0    0  0.26923681136E+02  0.13603143541E+02 -0.60735569761E+02  0.67814007065E+02  0.00000000000E+00 0. -1.
</event>
<event>
 7    1  0.1620881E-005  0.1198439E+03  0.7561462E-02  0.1243355E+00
         -2   -1    0    0    0  501 -0.00000000000E+00  0.00000000000E+00  0.56120992660E+02  0.56120992660E+02  0.00000000000E+00 0.  1.
          2   -1    0    0  501    0  0.00000000000E+00 -0.00000000000E+00 -0.45990490190E+03  0.45990490190E+03  0.00000000000E+00 0. -1.
         23    2    1    2    0    0  0.10630231341E+03  0.31098492004E+02 -0.15522282309E+03  0.22805053038E+03  0.12508245904E+03 0.  0.
          5    1    3    3  502    0  0.76777533248E+02  0.28926699054E+02 -0.17422668563E+03  0.19262386642E+03  0.41800000000E+01 0.  1.
         -5    1    3    3    0  502  0.29524780161E+02  0.21717929503E+01  0.19003862539E+02  0.35426663963E+02  0.41800000000E+01 0.  1.
        -11    1    1    2    0    0 -0.16767142406E+02  0.18755907298E+02 -0.78444693407E+01  0.26352548686E+02  0.00000000000E+00 0.  1.
         11    1    1    2    0    0 -0.89535171003E+02 -0.49854399301E+02 -0.24071661681E+03  0.26162281549E+03  0.00000000000E+00 0. -1.
</event>
<event>
 7    1  0.1620881E-005  0.1576368E+03  0.7561462E-02  0.1191391E+00
          2   -1    0    0  501    0  0.00000000000E+00  0.00000000000E+00  0.86383777469E+03  0.86383777469E+03  0.00000000000E+00 0. -1.
         -2   -1    0    0    0  501 -0.00000000000E+00 -0.00000000000E+00 -0.30370348567E+02  0.30370348567E+02  0.00000000000E+00 0.  1.
         23    2    1    2    0    0  0.89170309126E+01 -0.11599214087E+03  0.52425036377E+03  0.55137902839E+03  0.12508676527E+03 0.  0.
          5    1    3    3  502    0 -0.55560460628E+02 -0.49634146375E+02  0.17921169732E+03  0.19412577914E+03  0.41800000000E+01 0.  1.
         -5    1    3    3    0  502  0.64477491540E+02 -0.66357994496E+02  0.34503866646E+03  0.35725324925E+03  0.41800000000E+01 0.  1.
        -11    1    1    2    0    0 -0.10188130012E+02  0.13179197819E+03  0.27510537649E+03  0.30521450110E+03  0.00000000000E+00 0.  1.
         11    1    1    2    0    0  0.12710990989E+01 -0.15799837317E+02  0.34111685866E+02  0.37614593774E+02  0.00000000000E+00 0. -1.
</event>
<event>
 7    1  0.1620881E-005  0.1496434E+03  0.7561462E-02  0.1200912E+00
          1   -1    0    0  501    0  0.00000000000E+00  0.00000000000E+00  0.78227300621E+02  0.78227300621E+02  0.00000000000E+00 0. -1.
         -1   -1    0    0    0  501 -0.00000000000E+00 -0.00000000000E+00 -0.46361018183E+03  0.46361018183E+03  0.00000000000E+00 0.  1.
         23    2    1    2    0    0  0.10067064200E+03 -0.91558900448E+02 -0.31764335260E+03  0.36751036118E+03  0.12509578616E+03 0.  0.
          5    1    3    3  502    0  0.24577046723E+02 -0.44464766340E+02 -0.16895882549E+02  0.53703723506E+02  0.41800000000E+01 0.  1.
         -5    1    3    3    0  502  0.76093595275E+02 -0.47094134108E+02 -0.30074747005E+03  0.31380663767E+03  0.41800000000E+01 0.  1.
        -11    1    1    2    0    0 -0.94255650381E+01  0.62144897576E+02 -0.40083870529E+02  0.74548952022E+02  0.00000000000E+00 0.  1.
         11    1    1    2    0    0 -0.91245076960E+02  0.29414002872E+02 -0.27655658084E+02  0.99778169248E+02  0.00000000000E+00 0. -1.
</event>
<event>
 7    1  0.1620881E-005  0.1075175E+03  0.7561462E-02  0.1265237E+00
         -2   -1    0    0    0  501 -0.00000000000E+00  0.00000000000E+00  0.20413638107E+02  0.20413638107E+02  0.00000000000E+00 0.  1.
          2   -1    0    0  501    0  0.00000000000E+00 -0.00000000000E+00 -0.59861946463E+03  0.59861946463E+03  0.00000000000E+00 0. -1.
         23    2    1    2    0    0 -0.27204271398E+02  0.45193904162E+01 -0.35542576589E+03  0.37780519380E+03  0.12509513231E+03 0.  0.
          5    1    3    3  502    0  0.29424836224E+02 -0.42788153964E+02 -0.18146885620E+03  0.18879900762E+03  0.41800000000E+01 0. -1.
         -5    1    3    3    0  502 -0.56629107622E+02  0.47307544380E+02 -0.17395690969E+03  0.18900618618E+03  0.41800000000E+01 0. -1.
        -11    1    1    2    0    0 -0.27607795562E+02  0.14282035624E+02 -0.11166735325E+03  0.11591274606E+03  0.00000000000E+00 0.  1.
         11    1    1    2    0    0  0.54812066960E+02 -0.18801426040E+02 -0.11111270738E+03  0.12531516288E+03  0.00000000000E+00 0. -1.
</event>
<event>
 6    1  0.1620881E-005  0.1400547E+03  0.7561462E-02  0.1213255E+00
          1   -1    0    0  501    0  0.00000000000E+00  0.00000000000E+00  0.52219954587E+03  0.52219954587E+03  0.00000000000E+00 0. -1.
         -1   -1    0    0    0  501 -0.00000000000E+00 -0.00000000000E+00 -0.52543042456E+02  0.52543042456E+02  0.00000000000E+00 0.  1.
          5    1    1    2  502    0  0.19197469355E+02  0.32688137406E+02 -0.69541052307E+01  0.38767114108E+02  0.41800000000E+01 0. -1.
         -5    1    1    2    0  502 -0.97694729492E+02 -0.65422041831E+02  0.25811033231E+03  0.28365951381E+03  0.41800000000E+01 0.  1.
        -11    1    1    2    0    0 -0.18357521578E+02  0.19131982167E+02  0.30633894956E+02  0.40515020182E+02  0.00000000000E+00 0.  1.
         11    1    1    2    0    0  0.96854781716E+02  0.13601922258E+02  0.18786638138E+03  0.21180094023E+03  0.00000000000E+00 0. -1.
</event>
<event>
 7    1  0.1620881E-005  0.9838784E+02  0.7561462E-02  0.1283723E+00
         -2   -1    0    0    0  501 -0.00000000000E+00  0.00000000000E+00  0.11442465056E+03  0.11442465056E+03  0.00000000000E+00 0.  1.
          2   -1    0    0  501    0  0.00000000000E+00 -0.00000000000E+00 -0.10945049998E+03  0.10945049998E+03  0.00000000000E+00 0. -1.
         23    2    1    2    0    0 -0.16059100517E+02  0.43155944801E+02  0.45481764320E+02  0.14084279122E+03  0.12509104953E+03 0.  0.
          5    1    3    3  502    0 -0.78658299168E+01  0.84428788830E+02  0.96998588991E+01  0.85449700563E+02  0.41800000000E+01 0.  1.
         -5    1    3    3    0  502 -0.81932706001E+01 -0.41272844029E+02  0.35781905421E+02  0.55393090661E+02  0.41800000000E+01 0.  1.
        -11    1    1    2    0    0 -0.12281861057E+02  0.53641160249E+01 -0.18138668793E+02  0.22552808192E+02  0.00000000000E+00 0.  1.
         11    1    1    2    0    0  0.28340961574E+02 -0.48520060826E+02 -0.22368944951E+02  0.60479551120E+02  0.00000000000E+00 0. -1.
</event>
<event>
 6    1  0.1620881E-005  0.1503642E+03  0.7561462E-02  0.1200026E+00
          2   -1    0    0  501    0  0.00000000000E+00  0.00000000000E+00  0.31110823987E+03  0.31110823987E+03  0.00000000000E+00 0. -1.
         -2   -1    0    0    0  501 -0.00000000000E+00 -0.00000000000E+00 -0.84868387692E+02  0.84868387692E+02  0.00000000000E+00 0.  1.
          5    1    1    2  502    0 -0.57385567364E+02 -0.29095873051E+02  0.70201284292E+01  0.64856979374E+02  0.41800000000E+01 0. -1.
         -5    1    1    2    0  502 -0.34518097445E+01  0.10435517801E+03  0.49256522514E+02  0.11552313871E+03  0.41800000000E+01 0.  1.
        -11    1    1    2    0    0 -0.11897834145E+02 -0.54972328676E+02  0.85035868298E+02  0.10195398116E+03  0.00000000000E+00 0. -1.
         11    1    1    2    0    0  0.72735211253E+02 -0.20286976279E+02  0.84927332941E+02  0.11364252832E+03  0.00000000000E+00 0.  1.
</event>
<event>
 7    1  0.2068735E-005  0.2238696E+03  0.7561462E-02  0.1131031E+00
         -2   -1    0    0    0  501 -0.00000000000E+00  0.00000000000E+00  0.66866059811E+02  0.66866059811E+02  0.00000000000E+00 0.  1.
          2   -1    0    0  501    0  0.00000000000E+00 -0.00000000000E+00 -0.89652777440E+03  0.89652777440E+03  0.00000000000E+00 0. -1.
         23    2    1    2    0    0  0.18104144101E+03  0.11483038732E+03 -0.33802234219E+03  0.41936725116E+03  0.12509103210E+03 0.  0.
          5    1    3    3  502    0  0.15063930261E+02  0.14144953796E+02  0.80301879679E+01  0.22560098218E+02  0.41800000000E+01 0. -1.
         -5    1    3    3    0  502  0.16597751075E+03  0.10068543352E+03 -0.34605253015E+03  0.39680715294E+03  0.41800000000E+01 0. -1.
        -11    1    1    2    0    0 -0.91231237551E+02 -0.60683332199E+01 -0.20999104256E+03  0.22903318826E+03  0.00000000000E+00 0.  1.
         11    1    1    2    0    0 -0.89810203456E+02 -0.10876205410E+03 -0.28164832985E+03  0.31499339479E+03  0.00000000000E+00 0. -1.
</event>
<event>
 7    1  0.1620881E-005  0.1123042E+03  0.7561462E-02  0.1256361E+00
          2   -1    0    0  501    0  0.00000000000E+00  0.00000000000E+00  0.13146266058E+03  0.13146266058E+03  0.00000000000E+00 0. -1.
         -2   -1    0    0    0  501 -0.00000000000E+00 -0.00000000000E+00 -0.13120126831E+03  0.13120126831E+03  0.00000000000E+00 0.  1.
         23    2    1    2    0    0  0.41698387568E+02 -0.59073305577E+02 -0.26096707143E+02  0.14683111055E+03  0.12509966405E+03 0.  0.
          5    1    3    3  502    0 -0.24791733485E+02  0.17155327150E+02  0.19130333362E+02  0.35949650254E+02  0.41800000000E+01 0. -1.
         -5    1    3    3    0  502  0.66490121053E+02 -0.76228632727E+02 -0.45227040504E+02  0.11088146030E+03  0.41800000000E+01 0. -1.
        -11    1    1    2    0    0  0.71932041492E+01 -0.74628829765E+01  0.31444127832E+02  0.33108457883E+02  0.00000000000E+00 0. -1.
         11    1    1    2    0    0 -0.48891591717E+02  0.66536188553E+02 -0.50860284167E+01  0.82724360456E+02  0.00000000000E+00 0.  1.
</event>
<event>
 6    1  0.1620881E-005  0.1000824E+03  0.7561462E-02  0.1280123E+00
         -4   -1    0    0    0  501 -0.00000000000E+00  0.00000000000E+00  0.30582318485E+02  0.30582318485E+02  0.00000000000E+00 0.  1.
          4   -1    0    0  501    0  0.00000000000E+00 -0.00000000000E+00 -0.49866100405E+03  0.49866100405E+03  0.00000000000E+00 0. -1.
          5    1    1    2  502    0 -0.28600357630E+02  0.42578928410E+02 -0.43287748039E+02  0.67247655211E+02  0.41800000000E+01 0. -1.
         -5    1    1    2    0  502  0.88517471837E+01 -0.75305533028E+02 -0.22914056120E+03  0.24139624256E+03  0.41800000000E+01 0.  1.
        -11    1    1    2    0    0  0.42365558770E+02  0.21772635781E+02 -0.18856717740E+03  0.19449027901E+03  0.00000000000E+00 0. -1.
         11    1    1    2    0    0 -0.22616948323E+02  0.10953968837E+02 -0.70831989211E+01  0.26109145748E+02  0.00000000000E+00 0.  1.
</event>
<event>
 7    1  0.1620881E-005  0.1141341E+03  0.7561462E-02  0.1253100E+00
         -1   -1    0    0    0  501 -0.00000000000E+00  0.00000000000E+00  0.22860362915E+03  0.22860362915E+03  0.00000000000E+00 0.  1.
          1   -1    0    0  501    0  0.00000000000E+00 -0.00000000000E+00 -0.10177773385E+03  0.10177773385E+03  0.00000000000E+00 0. -1.
         23    2    1    2    0    0  0.44655982405E+00 -0.10579166358E+03  0.53713918845E+02  0.17240896684E+03  0.12509033244E+03 0.  0.
          5    1    3    3  502    0 -0.14969262300E+02 -0.58604708885E+02 -0.35477927479E+02  0.70247750537E+02  0.41800000000E+01 0.  1.
         -5    1    3    3    0  502  0.15415822124E+02 -0.47186954700E+02  0.89191846324E+02  0.10216121630E+03  0.41800000000E+01 0.  1.
        -11    1    1    2    0    0 -0.18107718876E+02  0.95866717275E+02  0.89130335478E+02  0.13214588025E+03  0.00000000000E+00 0.  1.
         11    1    1    2    0    0  0.17661159052E+02  0.99249463100E+01 -0.16018359028E+02  0.25826515914E+02  0.00000000000E+00 0. -1.
</event>
<event>
 7    1  0.1620881E-005  0.1259671E+03  0.7561462E-02  0.1233566E+00
          1   -1    0    0  501    0  0.00000000000E+00  0.00000000000E+00  0.37839387863E+03  0.37839387863E+03  0.00000000000E+00 0. -1.
         -1   -1    0    0    0  501 -0.00000000000E+00 -0.00000000000E+00 -0.52728580981E+02  0.52728580981E+02  0.00000000000E+00 0.  1.
         23    2    1    2    0    0  0.22992575565E+02 -0.83462708317E+02  0.13425462313E+03  0.20289728326E+03  0.12509325126E+03 0.  0.
          5    1    3    3  502    0  0.54651699304E+02 -0.99988853205E+00  0.19857340651E+02  0.58306040782E+02  0.41800000000E+01 0. -1.
         -5    1    3    3    0  502 -0.31659123739E+02 -0.82462819785E+02  0.11439728248E+03  0.14459124248E+03  0.41800000000E+01 0. -1.
        -11    1    1    2    0    0 -0.41638618127E+02  0.28017945033E+02  0.34870169676E+02  0.61112261426E+02  0.00000000000E+00 0.  1.
         11    1    1    2    0    0  0.18646042562E+02  0.55444763284E+02  0.15654050484E+03  0.16711291493E+03  0.00000000000E+00 0. -1.
</event>
<event>
 7    1  0.1620881E-005  0.1315786E+03  0.7561462E-02  0.1225132E+00
          1   -1    0    0  501    0  0.00000000000E+00  0.00000000000E+00  0.46614941536E+02  0.46614941536E+02  0.00000000000E+00 0. -1.
         -1   -1    0    0    0  501 -0.00000000000E+00 -0.00000000000E+00 -0.43670796189E+03  0.43670796189E+03  0.00000000000E+00 0.  1.
         23    2    1    2    0    0  0.89406190186E+02 -0.12819443111E+01 -0.25260565753E+03  0.29572290455E+03  0.12508919950E+03 0.  0.
          5    1    3    3  502    0 -0.31285392735E+02 -0.83195245628E+01 -0.48463307268E+02  0.58430769625E+02  0.41800000000E+01 0.  1.
         -5    1    3    3    0  502  0.12069158292E+03  0.70375802517E+01 -0.20414235026E+03  0.23729213492E+03  0.41800000000E+01 0.  1.
        -11    1    1    2    0    0  0.16235726292E+01  0.17079601251E+02 -0.72851923175E+02  0.74844849371E+02  0.00000000000E+00 0. -1.
         11    1    1    2    0    0 -0.91029762815E+02 -0.15797656940E+02 -0.64635439651E+02  0.11275514951E+03  0.00000000000E+00 0.  1.
</event>
<event>
 7    1  0.1620881E-005  0.1166604E+03  0.7561462E-02  0.1248710E+00
          1   -1    0    0  501    0  0.00000000000E+00  0.00000000000E+00  0.30257021869E+03  0.30257021869E+03  0.00000000000E+00 0. -1.
         -1   -1    0    0    0  501 -0.00000000000E+00 -0.00000000000E+00 -0.56212835314E+02  0.56212835314E+02  0.00000000000E+00 0.  1.
         23    2    1    2    0    0  0.56384017092E+02 -0.13416928058E+02  0.83452999954E+02  0.16116134571E+03  0.12509758114E+03 0.  0.
          5    1    3    3  502    0  0.10686167072E+02 -0.58019532586E+02  0.41922737890E+01  0.59291718543E+02  0.41800000000E+01 0.  1.
         -5    1    3    3    0  502  0.45697850020E+02  0.44602604528E+02  0.79260726165E+02  0.10186962717E+03  0.41800000000E+01 0.  1.
        -11    1    1    2    0    0 -0.81913234003E+02  0.12959404943E+01  0.10490333971E+03  0.13310209634E+03  0.00000000000E+00 0. -1.
         11    1    1    2    0    0  0.25529216910E+02  0.12120987564E+02  0.58001043713E+02  0.64519611959E+02  0.00000000000E+00 0.  1.
</event>
<event>
 7    1  0.1620881E-005  0.5025916E+02  0.7561462E-02  0.1443949E+00
         -1   -1    0    0    0  501 -0.00000000000E+00  0.00000000000E+00  0.25221920829E+03  0.25221920829E+03  0.00000000000E+00 0.  1.
          1   -1    0    0  501    0  0.00000000000E+00 -0.00000000000E+00 -0.51216631611E+02  0.51216631611E+02  0.00000000000E+00 0. -1.
         23    2    1    2    0    0  0.30120789035E+02  0.30862070817E+01  0.14692079474E+03  0.19532007867E+03  0.12508967423E+03 0.  0.
          5    1    3    3  502    0  0.19542703091E+02 -0.77609405615E+01 -0.19006046523E+02  0.28650508668E+02  0.41800000000E+01 0.  1.
         -5    1    3    3    0  502  0.10578085944E+02  0.10847147643E+02  0.16592684126E+03  0.16666957001E+03  0.41800000000E+01 0.  1.
        -11    1    1    2    0    0  0.16499701142E+02  0.12120465389E+01  0.58778610393E+02  0.61062543628E+02  0.00000000000E+00 0.  1.
         11    1    1    2    0    0 -0.46620490177E+02 -0.42982536206E+01 -0.46968284584E+01  0.47053217596E+02  0.00000000000E+00 0. -1.
</event>
<event>
 7    1  0.1620881E-005  0.1540200E+03  0.7561462E-02  0.1195618E+00
         -1   -1    0    0    0  501 -0.00000000000E+00  0.00000000000E+00  0.22932777267E+03  0.22932777267E+03  0.00000000000E+00 0.  1.
          1   -1    0    0  501    0  0.00000000000E+00 -0.00000000000E+00 -0.11780054103E+03  0.11780054103E+03  0.00000000000E+00 0. -1.
         23    2    1    2    0    0  0.10475277096E+03  0.61229250191E+02  0.42648606081E+02  0.17940719759E+03  0.12508347151E+03 0.  0.
          5    1    3    3  502    0 -0.60055109124E+01  0.62980261801E+02  0.16416996484E+02  0.65494806751E+02  0.41800000000E+01 0.  1.
         -5    1    3    3    0  502  0.11075828187E+03 -0.17510116097E+01  0.26231609597E+02  0.11391239084E+03  0.41800000000E+01 0.  1.
        -11    1    1    2    0    0 -0.44611753725E+02 -0.58517105502E+02 -0.33915766170E+01  0.73661136285E+02  0.00000000000E+00 0. -1.
         11    1    1    2    0    0 -0.60141017232E+02 -0.27121446888E+01  0.72270202179E+02  0.94059979829E+02  0.00000000000E+00 0.  1.
</event>
<event>
 7    1  0.1620881E-005  0.1172253E+03  0.7561462E-02  0.1247746E+00
          2   -1    0    0  501    0  0.00000000000E+00  0.00000000000E+00  0.70379598426E+03  0.70379598426E+03  0.00000000000E+00 0. -1.
         -2   -1    0    0    0  501 -0.00000000000E+00 -0.00000000000E+00 -0.21168981539E+02  0.21168981539E+02  0.00000000000E+00 0.  1.
         23    2    1    2    0    0  0.47465453650E+02 -0.27334205945E+02  0.39668632462E+03  0.41953329151E+03  0.12509202387E+03 0.  0.
          5    1    3    3  502    0  0.63524635496E+02  0.29683159487E+02  0.27909466854E+03  0.28779815093E+03  0.41800000000E+01 0. -1.
         -5    1    3    3    0  502 -0.16059181846E+02 -0.57017365431E+02  0.11759165609E+03  0.13173514058E+03  0.41800000000E+01 0. -1.
        -11    1    1    2    0    0 -0.40727393692E+02  0.59421037626E+02  0.16329551889E+03  0.17847970977E+03  0.00000000000E+00 0.  1.
         11    1    1    2    0    0 -0.67380599575E+01 -0.32086831681E+02  0.12264515920E+03  0.12695196452E+03  0.00000000000E+00 0. -1.
</event>
<event>
 6    1  0.1620881E-005  0.1266732E+03  0.7561462E-02  0.1232477E+00
         -1   -1    0    0    0  501 -0.00000000000E+00  0.00000000000E+00  0.99297215482E+02  0.99297215482E+02  0.00000000000E+00 0.  1.
          1   -1    0    0  501    0  0.00000000000E+00 -0.00000000000E+00 -0.39277808476E+03  0.39277808476E+03  0.00000000000E+00 0. -1.
          5    1    1    2  502    0 -0.40845260416E+02  0.13647241680E+02 -0.39723758610E+02  0.58736972190E+02  0.41800000000E+01 0. -1.
         -5    1    1    2    0  502  0.51323264816E+02  0.76549876501E+02  0.49456846452E+02  0.10467766316E+03  0.41800000000E+01 0.  1.
        -11    1    1    2    0    0  0.28648586716E+02 -0.13390839359E+02 -0.36147030215E+02  0.48027740869E+02  0.00000000000E+00 0.  1.
         11    1    1    2    0    0 -0.39126591116E+02 -0.76806278822E+02 -0.26706692691E+03  0.28063292403E+03  0.00000000000E+00 0. -1.
</event>
<event>
 7    1  0.1620881E-005  0.1763790E+03  0.7561462E-02  0.1171354E+00
          3   -1    0    0  501    0  0.00000000000E+00  0.00000000000E+00  0.99885470173E+02  0.99885470173E+02  0.00000000000E+00 0. -1.
         -3   -1    0    0    0  501 -0.00000000000E+00 -0.00000000000E+00 -0.31680025973E+03  0.31680025973E+03  0.00000000000E+00 0.  1.
         23    2    1    2    0    0  0.46991974184E+02 -0.13709994757E+03 -0.11525350955E+03  0.22346243936E+03  0.12508976409E+03 0.  0.
          5    1    3    3  502    0 -0.40948925116E+02 -0.40646627390E+02 -0.54319462167E+02  0.79353885579E+02  0.41800000000E+01 0. -1.
         -5    1    3    3    0  502  0.87940899300E+02 -0.96453320179E+02 -0.60934047384E+02  0.14410855378E+03  0.41800000000E+01 0. -1.
        -11    1    1    2    0    0  0.15918591905E+02  0.30066915814E+01 -0.10077657004E+02  0.19078808485E+02  0.00000000000E+00 0.  1.
         11    1    1    2    0    0 -0.62910566089E+02  0.13409325599E+03 -0.91583623000E+02  0.17414448205E+03  0.00000000000E+00 0. -1.
</event>
<event>
 7    1  0.1620881E-005  0.1555967E+03  0.7561462E-02  0.1193760E+00
         -1   -1    0    0    0  501 -0.00000000000E+00  0.00000000000E+00  0.39572676391E+02  0.39572676391E+02  0.00000000000E+00 0.  1.
          1   -1    0    0  501    0  0.00000000000E+00 -0.00000000000E+00 -0.72162648738E+03  0.72162648738E+03  0.00000000000E+00 0. -1.
         23    2    1    2    0    0 -0.79090340655E+02 -0.10225245617E+03 -0.33040504994E+03  0.37619912888E+03  0.12508973085E+03 0.  0.
          5    1    3    3  502    0  0.32506901870E+02 -0.39156038979E+02 -0.10784192989E+03  0.11931994092E+03  0.41800000000E+01 0. -1.
         -5    1    3    3    0  502 -0.11159724252E+03 -0.63096417195E+02 -0.22256312005E+03  0.25687918796E+03  0.41800000000E+01 0. -1.
        -11    1    1    2    0    0  0.74094674115E+02  0.79935320401E+02 -0.34404917274E+03  0.36090096902E+03  0.00000000000E+00 0. -1.
         11    1    1    2    0    0  0.49956665393E+01  0.22317135772E+02 -0.75995883106E+01  0.24099065869E+02  0.00000000000E+00 0.  1.
</event>
<event>
 7    1  0.1620881E-005  0.8955959E+02  0.7561462E-02  0.1303922E+00
          1   -1    0    0  501    0  0.00000000000E+00  0.00000000000E+00  0.16584458280E+03  0.16584458280E+03  0.00000000000E+00 0. -1.
         -1   -1    0    0    0  501 -0.00000000000E+00 -0.00000000000E+00 -0.73619205668E+02  0.73619205668E+02  0.00000000000E+00 0.  1.
         23    2    1    2    0    0 -0.18225631906E+02  0.59550425017E+01  0.40168770266E+02  0.13277032259E+03  0.12508713869E+03 0.  0.
          5    1    3    3  502    0 -0.21609074461E+01 -0.44932809316E+02  0.60504349155E+02  0.75510764403E+02  0.41800000000E+01 0.  1.
         -5    1    3    3    0  502 -0.16064724459E+02  0.50887851818E+02 -0.20335578890E+02  0.57259558183E+02  0.41800000000E+01 0.  1.
        -11    1    1    2    0    0  0.57578769518E-01  0.35318503489E+02 -0.30933073114E+01  0.35453752328E+02  0.00000000000E+00 0.  1.
         11    1    1    2    0    0  0.18168053136E+02 -0.41273545990E+02  0.55149914173E+02  0.71239713550E+02  0.00000000000E+00 0. -1.
</event>
<event>
 7    1  0.1620881E-005  0.1505960E+03  0.7561462E-02  0.1199743E+00
         -1   -1    0    0    0  501 -0.00000000000E+00  0.00000000000E+00  0.14509972972E+03  0.14509972972E+03  0.00000000000E+00 0.  1.
          1   -1    0    0  501    0  0.00000000000E+00 -0.00000000000E+00 -0.18647610052E+03  0.18647610052E+03  0.00000000000E+00 0. -1.
         23    2    1    2    0    0  0.70017242063E+02 -0.95206603007E+02  0.23961418769E+02  0.17374726498E+03  0.12508897257E+03 0.  0.
          5    1    3    3  502    0 -0.26835255732E+02 -0.59584999230E+02 -0.71781365725E+01  0.65874889967E+02  0.41800000000E+01 0. -1.
         -5    1    3    3    0  502  0.96852497795E+02 -0.35621603777E+02  0.31139555342E+02  0.10787237502E+03  0.41800000000E+01 0. -1.
        -11    1    1    2    0    0 -0.63202580731E+02  0.35808670513E+02 -0.48870999678E+01  0.72805980805E+02  0.00000000000E+00 0.  1.
         11    1    1    2    0    0 -0.68146613319E+01  0.59397932495E+02 -0.60450689606E+02  0.85022584456E+02  0.00000000000E+00 0. -1.
</event>
<event>
 7    1  0.1620881E-005  0.1754567E+03  0.7561462E-02  0.1172274E+00
          2   -1    0    0  501    0  0.00000000000E+00  0.00000000000E+00  0.47649721044E+03  0.47649721044E+03  0.00000000000E+00 0. -1.
         -2   -1    0    0    0  501 -0.00000000000E+00 -0.00000000000E+00 -0.83989271311E+02  0.83989271311E+02  0.00000000000E+00 0.  1.
         23    2    1    2    0    0 -0.16002251722E+03 -0.37115016513E+01  0.13233821902E+03  0.24244628957E+03  0.12508324369E+03 0.  0.
          5    1    3    3  502    0 -0.63710994233E+02 -0.28816267640E+02  0.12407911595E+03  0.14248707829E+03  0.41800000000E+01 0. -1.
         -5    1    3    3    0  502 -0.96311522987E+02  0.25104765989E+02  0.82591030754E+01  0.99959211277E+02  0.41800000000E+01 0. -1.
        -11    1    1    2    0    0  0.62472588587E+02  0.43255767318E+02  0.88246128927E+02  0.11645284454E+03  0.00000000000E+00 0.  1.
         11    1    1    2    0    0  0.97549928632E+02 -0.39544265666E+02  0.17192359118E+03  0.20158734764E+03  0.00000000000E+00 0. -1.
</event>
<event>
 7    1  0.1620881E-005  0.1686359E+03  0.7561462E-02  0.1179278E+00
          1   -1    0    0  501    0  0.00000000000E+00  0.00000000000E+00  0.43035849280E+03  0.43035849280E+03  0.00000000000E+00 0. -1.
         -1   -1    0    0    0  501 -0.00000000000E+00 -0.00000000000E+00 -0.67097063123E+02  0.67097063123E+02  0.00000000000E+00 0.  1.
         23    2    1    2    0    0  0.12771276083E+03  0.27618639589E+02  0.19301841682E+03  0.26453275730E+03  0.12509249347E+03 0.  0.
          5    1    3    3  502    0  0.13449806863E+02 -0.43832522379E+02  0.50956151812E+02  0.68674515872E+02  0.41800000000E+01 0.  1.
         -5    1    3    3    0  502  0.11426295397E+03  0.71451161968E+02  0.14206226501E+03  0.19585824143E+03  0.41800000000E+01 0.  1.
        -11    1    1    2    0    0  0.41922138172E+01  0.16726421338E+02  0.75253817749E+01  0.18814334916E+02  0.00000000000E+00 0.  1.
         11    1    1    2    0    0 -0.13190497465E+03 -0.44345060927E+02  0.16271763109E+03  0.21410846371E+03  0.00000000000E+00 0. -1.
</event>
<event>
 7    1  0.1620881E-005  0.7499296E+02  0.7561462E-02  0.1343893E+00
         -1   -1    0    0    0  501 -0.00000000000E+00  0.00000000000E+00  0.37927142291E+02  0.37927142291E+02  0.00000000000E+00 0.  1.
          1   -1    0    0  501    0  0.00000000000E+00 -0.00000000000E+00 -0.33105363994E+03  0.33105363994E+03  0.00000000000E+00 0. -1.
         23    2    1    2    0    0 -0.16376216189E+02 -0.13617572674E+02 -0.14015057119E+03  0.18905972579E+03  0.12509108109E+03 0.  0.
          5    1    3    3  502    0 -0.20928530534E+02 -0.31980075650E+02 -0.15806403652E+03  0.16267280249E+03  0.41800000000E+01 0. -1.
         -5    1    3    3    0  502  0.45523143444E+01  0.18362502976E+02  0.17913465328E+02  0.26386923304E+02  0.41800000000E+01 0. -1.
        -11    1    1    2    0    0  0.12629419250E+02 -0.38188405756E+02 -0.87837498982E+02  0.96608916732E+02  0.00000000000E+00 0. -1.
         11    1    1    2    0    0  0.37467969397E+01  0.51805978430E+02 -0.65138427477E+02  0.83312139707E+02  0.00000000000E+00 0.  1.
</event>
<event>
 7    1  0.1620881E-005  0.8191828E+02  0.7561462E-02  0.1323694E+00
          4   -1    0    0  501    0  0.00000000000E+00  0.00000000000E+00  0.23154664781E+03  0.23154664781E+03  0.00000000000E+00 0.  1.
         -4   -1    0    0    0  501 -0.00000000000E+00 -0.00000000000E+00 -0.51244313952E+02  0.51244313952E+02  0.00000000000E+00 0. -1.
         23    2    1    2    0    0 -0.48926629425E+01  0.92450626859E+01  0.12076598614E+03  0.17418468122E+03  0.12508585223E+03 0.  0.
          5    1    3    3  502    0  0.27491698025E+02  0.28520611413E+02  0.12931842740E+03  0.13531425202E+03  0.41800000000E+01 0.  1.
         -5    1    3    3    0  502 -0.32384360968E+02 -0.19275548727E+02 -0.85524412624E+01  0.38870429192E+02  0.41800000000E+01 0.  1.
        -11    1    1    2    0    0  0.67526986994E+01  0.38105048649E+02  0.44317700121E+02  0.58835807263E+02  0.00000000000E+00 0.  1.
         11    1    1    2    0    0 -0.18600357569E+01 -0.47350111335E+02  0.15218647604E+02  0.49770473289E+02  0.00000000000E+00 0. -1.
</event>
<event>
 7    1  0.1620881E-005  0.3315627E+03  0.7561462E-02  0.1070448E+00
         -4   -1    0    0    0  501 -0.00000000000E+00  0.00000000000E+00  0.79607676355E+03  0.79607676355E+03  0.00000000000E+00 0.  1.
          4   -1    0    0  501    0  0.00000000000E+00 -0.00000000000E+00 -0.14571449838E+03  0.14571449838E+03  0.00000000000E+00 0. -1.
         23    2    1    2    0    0  0.23988706000E+03  0.21536651666E+03  0.35575861406E+03  0.49612563274E+03  0.12509162214E+03 0.  0.
          5    1    3    3  502    0  0.18540871468E+03  0.21343349599E+03  0.33314936179E+03  0.43696249078E+03  0.41800000000E+01 0.  1.
         -5    1    3    3    0  502  0.54478345324E+02  0.19330206705E+01  0.22609252269E+02  0.59163141958E+02  0.41800000000E+01 0.  1.
        -11    1    1    2    0    0 -0.18852571193E+03 -0.14143733840E+03  0.25525674702E+03  0.34742261246E+03  0.00000000000E+00 0. -1.
         11    1    1    2    0    0 -0.51361348068E+02 -0.73929178261E+02  0.39346904089E+02  0.98243016724E+02  0.00000000000E+00 0.  1.
</event>
<event>
 7    1  0.1620881E-005  0.9631295E+02  0.7561462E-02  0.1288246E+00
         -1   -1    0    0    0  501 -0.00000000000E+00  0.00000000000E+00  0.89849890334E+02  0.89849890334E+02  0.00000000000E+00 0.  1.
          1   -1    0    0  501    0  0.00000000000E+00 -0.00000000000E+00 -0.24191992740E+03  0.24191992740E+03  0.00000000000E+00 0. -1.
         23    2    1    2    0    0  0.51785535666E+02 -0.64836567560E+02 -0.20270175198E+02  0.15147017424E+03  0.12508721551E+03 0.  0.
          5    1    3    3  502    0  0.14548840467E+01 -0.52637600238E+02 -0.64406563374E+02  0.83297727773E+02  0.41800000000E+01 0.  1.
         -5    1    3    3    0  502  0.50330651619E+02 -0.12198967322E+02  0.44136388177E+02  0.68172446468E+02  0.41800000000E+01 0.  1.
        -11    1    1    2    0    0 -0.62920405330E+01  0.29712391497E+02  0.60319805098E+01  0.30964508254E+02  0.00000000000E+00 0.  1.
         11    1    1    2    0    0 -0.45493495133E+02  0.35124176063E+02 -0.13783184238E+03  0.14933513524E+03  0.00000000000E+00 0. -1.
</event>
<event>
 7    1  0.1620881E-005  0.1682303E+03  0.7561462E-02  0.1179706E+00
         -1   -1    0    0    0  501 -0.00000000000E+00  0.00000000000E+00  0.27984498599E+03  0.27984498599E+03  0.00000000000E+00 0.  1.
          1   -1    0    0  501    0  0.00000000000E+00 -0.00000000000E+00 -0.11160901721E+03  0.11160901721E+03  0.00000000000E+00 0. -1.
         23    2    1    2    0    0 -0.12807953316E+03  0.28441035202E+02  0.13896937327E+03  0.22841556724E+03  0.12509166779E+03 0.  0.
          5    1    3    3  502    0 -0.17002552573E+02  0.59271346082E+02  0.72559432748E+02  0.95312763789E+02  0.41800000000E+01 0. -1.
         -5    1    3    3    0  502 -0.11107698059E+03 -0.30830310880E+02  0.66409940527E+02  0.13310280345E+03  0.41800000000E+01 0. -1.
        -11    1    1    2    0    0  0.12206967874E+03  0.80385407699E+01  0.14355669685E+02  0.12317349495E+03  0.00000000000E+00 0. -1.
         11    1    1    2    0    0  0.60098544182E+01 -0.36479575972E+02  0.14910925820E+02  0.39864941013E+02  0.00000000000E+00 0.  1.
</event>
<event>
 7    1  0.1620881E-005  0.1103957E+03  0.7561462E-02  0.1259839E+00
          2   -1    0    0  501    0  0.00000000000E+00  0.00000000000E+00  0.12383366506E+03  0.12383366506E+03  0.00000000000E+00 0. -1.
         -2   -1    0    0    0  501 -0.00000000000E+00 -0.00000000000E+00 -0.13219551821E+03  0.13219551821E+03  0.00000000000E+00 0.  1.
         23    2    1    2    0    0 -0.25506254866E+02 -0.56978759734E+01 -0.67253034855E+02  0.14437288911E+03  0.12505009231E+03 0.  0.
          5    1    3    3  502    0 -0.66722217500E+02  0.29620301550E+02 -0.42449396715E+02  0.84549631894E+02  0.41800000000E+01 0.  1.
         -5    1    3    3    0  502  0.41215962633E+02 -0.35318177523E+02 -0.24803638140E+02  0.59823257220E+02  0.41800000000E+01 0.  1.
        -11    1    1    2    0    0  0.43202348876E+02 -0.30537784929E+02  0.23065035573E+02  0.57714773870E+02  0.00000000000E+00 0.  1.
         11    1    1    2    0    0 -0.17696094010E+02  0.36235660903E+02  0.35826146134E+02  0.53941520289E+02  0.00000000000E+00 0. -1.
</event>
<event>
 7    1  0.1620881E-005  0.1840164E+03  0.7561462E-02  0.1163972E+00
          1   -1    0    0  501    0  0.00000000000E+00  0.00000000000E+00  0.15025147101E+03  0.15025147101E+03  0.00000000000E+00 0. -1.
         -1   -1    0    0    0  501 -0.00000000000E+00 -0.00000000000E+00 -0.24737916758E+03  0.24737916758E+03  0.00000000000E+00 0.  1.
         23    2    1    2    0    0 -0.87363854332E+02 -0.11915097973E+03 -0.92419009482E+02  0.21452009069E+03  0.12509275351E+03 0.  0.
          5    1    3    3  502    0 -0.35647173591E+00 -0.10517772397E+03 -0.53852768659E+02  0.11823736205E+03  0.41800000000E+01 0. -1.
         -5    1    3    3    0  502 -0.87007382596E+02 -0.13973255759E+02 -0.38566240823E+02  0.96282728638E+02  0.41800000000E+01 0. -1.
        -11    1    1    2    0    0  0.74265506865E+02  0.23338337076E+02  0.25305451758E+02  0.81856028343E+02  0.00000000000E+00 0. -1.
         11    1    1    2    0    0  0.13098347468E+02  0.95812642658E+02 -0.30014138854E+02  0.10125451956E+03  0.00000000000E+00 0.  1.
</event>
<event>
 7    1  0.1620881E-005  0.9371277E+02  0.7561462E-02  0.1294102E+00
         -1   -1    0    0    0  501 -0.00000000000E+00  0.00000000000E+00  0.36899872121E+03  0.36899872121E+03  0.00000000000E+00 0.  1.
          1   -1    0    0  501    0  0.00000000000E+00 -0.00000000000E+00 -0.33564092182E+02  0.33564092182E+02  0.00000000000E+00 0. -1.
         23    2    1    2    0    0 -0.35728536217E+00 -0.26514705047E+02  0.16750945812E+03  0.21073752439E+03  0.12509088052E+03 0.  0.
          5    1    3    3  502    0  0.36830141279E+02 -0.41687481939E+02  0.22397248265E+02  0.60111684280E+02  0.41800000000E+01 0.  1.
         -5    1    3    3    0  502 -0.37187426641E+02  0.15172776893E+02  0.14511220985E+03  0.15062584011E+03  0.41800000000E+01 0.  1.
        -11    1    1    2    0    0  0.29348039719E+02  0.47247345078E+02  0.85189401791E+02  0.10173914306E+03  0.00000000000E+00 0.  1.
         11    1    1    2    0    0 -0.28990754357E+02 -0.20732640031E+02  0.82735769121E+02  0.90086145954E+02  0.00000000000E+00 0. -1.
</event>
<event>
 7    1  0.1620881E-005  0.1873882E+03  0.7561462E-02  0.1160838E+00
         -2   -1    0    0    0  501 -0.00000000000E+00  0.00000000000E+00  0.28691492149E+03  0.28691492149E+03  0.00000000000E+00 0.  1.
          2   -1    0    0  501    0  0.00000000000E+00 -0.00000000000E+00 -0.13894059040E+03  0.13894059040E+03  0.00000000000E+00 0. -1.
         23    2    1    2    0    0  0.16460376954E+03  0.11683131978E+02  0.10194219636E+03  0.23081678640E+03  0.12511307273E+03 0.  0.
          5    1    3    3  502    0 -0.14714527431E+01  0.18811420304E+02 -0.17509075259E+02  0.26078244255E+02  0.41800000000E+01 0.  1.
         -5    1    3    3    0  502  0.16607522228E+03 -0.71282883255E+01  0.11945127162E+03  0.20473854215E+03  0.41800000000E+01 0.  1.
        -11    1    1    2    0    0 -0.15381157499E+02 -0.34911550293E+02  0.45130790746E+01  0.38415676912E+02  0.00000000000E+00 0. -1.
         11    1    1    2    0    0 -0.14922261204E+03  0.23228418315E+02  0.41519055659E+02  0.15662304857E+03  0.00000000000E+00 0.  1.
</event>
<event>
 7    1  0.1620881E-005  0.1082416E+03  0.7561462E-02  0.1263861E+00
          1   -1    0    0  501    0  0.00000000000E+00  0.00000000000E+00  0.73760263048E+02  0.73760263048E+02  0.00000000000E+00 0. -1.
         -1   -1    0    0    0  501 -0.00000000000E+00 -0.00000000000E+00 -0.21603910895E+03  0.21603910895E+03  0.00000000000E+00 0.  1.
         23    2    1    2    0    0  0.48340621660E+02  0.37102201359E+02 -0.96670079808E+02  0.16942479972E+03  0.12508504860E+03 0.  0.
          5    1    3    3  502    0  0.57686395179E+02 -0.12621090761E+02 -0.10245697613E+03  0.11832969398E+03  0.41800000000E+01 0. -1.
         -5    1    3    3    0  502 -0.93457735190E+01  0.49723292120E+02  0.57868963179E+01  0.51095105744E+02  0.41800000000E+01 0. -1.
        -11    1    1    2    0    0 -0.59743113625E+02  0.77458859589E+01 -0.80559232625E+01  0.60779406665E+02  0.00000000000E+00 0. -1.
         11    1    1    2    0    0  0.11402491965E+02 -0.44848087318E+02 -0.37552842831E+02  0.59595165608E+02  0.00000000000E+00 0.  1.
</event>
<event>
 7    1  0.1620881E-005  0.9584090E+02  0.7561462E-02  0.1289293E+00
          3   -1    0    0  501    0  0.00000000000E+00  0.00000000000E+00  0.15173469779E+03  0.15173469779E+03  0.00000000000E+00 0. -1.
         -3   -1    0    0    0  501 -0.00000000000E+00 -0.00000000000E+00 -0.11213596639E+03  0.11213596639E+03  0.00000000000E+00 0.  1.
         23    2    1    2    0    0 -0.19807036525E+02 -0.44919055345E+01 -0.53032419711E+02  0.13737740781E+03  0.12509044218E+03 0.  0.
          5    1    3    3  502    0  0.42625734337E+02  0.52628716417E+01 -0.59739533871E+02  0.73694880099E+02  0.41800000000E+01 0. -1.
         -5    1    3    3    0  502 -0.62432770862E+02 -0.97547771762E+01  0.67071141600E+01  0.63682527711E+02  0.41800000000E+01 0. -1.
        -11    1    1    2    0    0 -0.12733417292E+01  0.42083247812E+02  0.36476382431E+02  0.55705902926E+02  0.00000000000E+00 0.  1.
         11    1    1    2    0    0  0.21080378255E+02 -0.37591342277E+02  0.56154768678E+02  0.70787353439E+02  0.00000000000E+00 0. -1.
</event>
<event>
 7    1  0.1620881E-005  0.7773254E+02  0.7561462E-02  0.1335612E+00
          1   -1    0    0  501    0  0.00000000000E+00  0.00000000000E+00  0.56085783479E+02  0.56085783479E+02  0.00000000000E+00 0. -1.
         -1   -1    0    0    0  501 -0.00000000000E+00 -0.00000000000E+00 -0.20877887097E+03  0.20877887097E+03  0.00000000000E+00 0.  1.
         23    2    1    2    0    0 -0.41079223718E+01 -0.22880780584E+02 -0.10837850633E+03  0.15994037667E+03  0.11530229100E+03 0.  0.
          5    1    3    3  502    0 -0.17058954976E+01  0.22316191411E+02  0.15794117721E+02  0.27710089014E+02  0.41800000000E+01 0. -1.
         -5    1    3    3    0  502 -0.24020268742E+01 -0.45196971996E+02 -0.12417262405E+03  0.13223028765E+03  0.41800000000E+01 0.  1.
        -11    1    1    2    0    0  0.44015566672E+02  0.85336733496E+01 -0.43557023642E+02  0.62509263304E+02  0.00000000000E+00 0.  1.
         11    1    1    2    0    0 -0.39907644300E+02  0.14347107235E+02 -0.75755752315E+00  0.42415014476E+02  0.00000000000E+00 0. -1.
</event>
<event>
 7    1  0.1620881E-005  0.1104343E+03  0.7561462E-02  0.1259768E+00
          2   -1    0    0  501    0  0.00000000000E+00  0.00000000000E+00  0.76440526283E+02  0.76440526283E+02  0.00000000000E+00 0. -1.
         -2   -1    0    0    0  501 -0.00000000000E+00 -0.00000000000E+00 -0.21869175491E+03  0.21869175491E+03  0.00000000000E+00 0.  1.
         23    2    1    2    0    0  0.29999215975E+02  0.63600341764E+02 -0.85918565169E+02  0.16725742904E+03  0.12509233108E+03 0.  0.
          5    1    3    3  502    0 -0.27097783951E+02  0.17056168481E+02  0.20141631390E+02  0.38057331663E+02  0.41800000000E+01 0. -1.
         -5    1    3    3    0  502  0.57096999926E+02  0.46544173283E+02 -0.10606019656E+03  0.12920009737E+03  0.41800000000E+01 0. -1.
        -11    1    1    2    0    0 -0.38816284782E+02 -0.84020212512E+02 -0.45768575939E+02  0.10325145335E+03  0.00000000000E+00 0.  1.
         11    1    1    2    0    0  0.88170688075E+01  0.20419870749E+02 -0.10564087516E+02  0.24623398807E+02  0.00000000000E+00 0. -1.
</event>
<event>
 7    1  0.1620881E-005  0.1747597E+03  0.7561462E-02  0.1172973E+00
          4   -1    0    0  501    0  0.00000000000E+00  0.00000000000E+00  0.88496559131E+02  0.88496559131E+02  0.00000000000E+00 0. -1.
         -4   -1    0    0    0  501 -0.00000000000E+00 -0.00000000000E+00 -0.37889384583E+03  0.37889384583E+03  0.00000000000E+00 0.  1.
         23    2    1    2    0    0 -0.14685910517E+03 -0.48102046912E+01 -0.16650383721E+03  0.25487844730E+03  0.12509500490E+03 0.  0.
          5    1    3    3  502    0 -0.87997634207E+02  0.48257394560E+02 -0.13771543773E+03  0.17045636962E+03  0.41800000000E+01 0.  1.
         -5    1    3    3    0  502 -0.58861470963E+02 -0.53067599251E+02 -0.28788399477E+02  0.84422077673E+02  0.41800000000E+01 0.  1.
        -11    1    1    2    0    0  0.13946784656E+03 -0.22629379366E+02 -0.86947898408E+02  0.16590149509E+03  0.00000000000E+00 0.  1.
         11    1    1    2    0    0  0.73912586122E+01  0.27439584057E+02 -0.36945551088E+02  0.46610462584E+02  0.00000000000E+00 0. -1.
</event>
<event>
 7    1  0.1620881E-005  0.1676371E+03  0.7561462E-02  0.1180335E+00
          1   -1    0    0  501    0  0.00000000000E+00  0.00000000000E+00  0.20692480667E+03  0.20692480667E+03  0.00000000000E+00 0. -1.
         -1   -1    0    0    0  501 -0.00000000000E+00 -0.00000000000E+00 -0.16802384259E+03  0.16802384259E+03  0.00000000000E+00 0.  1.
         23    2    1    2    0    0  0.74819205751E+02 -0.11829264192E+03 -0.36427330552E+02  0.19121997346E+03  0.12508822950E+03 0.  0.
          5    1    3    3  502    0 -0.26631863091E+02 -0.65972241093E+02 -0.28386711256E+02  0.76712909620E+02  0.41800000000E+01 0. -1.
         -5    1    3    3    0  502  0.10145106884E+03 -0.52320400822E+02 -0.80406192958E+01  0.11450706384E+03  0.41800000000E+01 0. -1.
        -11    1    1    2    0    0 -0.40623255104E+02  0.19155397072E+02 -0.12849014344E+02  0.46714829143E+02  0.00000000000E+00 0.  1.
         11    1    1    2    0    0 -0.34195950647E+02  0.99137244843E+02  0.88177308981E+02  0.13701384665E+03  0.00000000000E+00 0. -1.
</event>
<event>
 7    1  0.1620881E-005  0.1248561E+03  0.7561462E-02  0.1235294E+00
         -1   -1    0    0    0  501 -0.00000000000E+00  0.00000000000E+00  0.93626554906E+02  0.93626554906E+02  0.00000000000E+00 0.  1.
          1   -1    0    0  501    0  0.00000000000E+00 -0.00000000000E+00 -0.34430407100E+03  0.34430407100E+03  0.00000000000E+00 0. -1.
         23    2    1    2    0    0 -0.54720000962E+01  0.77691272043E+02  0.12493157382E+02  0.14773906961E+03  0.12491948275E+03 0.  0.
          5    1    3    3  502    0 -0.39555792815E+02 -0.13547420296E+02 -0.17828475291E+02  0.45645594236E+02  0.41800000000E+01 0. -1.
         -5    1    3    3    0  502  0.34083792719E+02  0.91238692340E+02  0.30321632673E+02  0.10209347537E+03  0.41800000000E+01 0.  1.
        -11    1    1    2    0    0 -0.36166955896E+02 -0.30896407645E+02 -0.17935702056E+03  0.18555747769E+03  0.00000000000E+00 0. -1.
         11    1    1    2    0    0  0.41638955993E+02 -0.46794864398E+02 -0.83813652922E+02  0.10463407861E+03  0.00000000000E+00 0.  1.
</event>
<event>
 7    1  0.1620881E-005  0.3105199E+03  0.7561462E-02  0.1080097E+00
          2   -1    0    0  501    0  0.00000000000E+00  0.00000000000E+00  0.37677323915E+03  0.37677323915E+03  0.00000000000E+00 0. -1.
         -2   -1    0    0    0  501 -0.00000000000E+00 -0.00000000000E+00 -0.30101142564E+03  0.30101142564E+03  0.00000000000E+00 0.  1.
         23    2    1    2    0    0  0.29507875939E+03  0.74597698988E+02  0.13344285643E+03  0.35509154653E+03  0.12508684802E+03 0.  0.
          5    1    3    3  502    0  0.30018174499E+03  0.73792008396E+02  0.10593687274E+03  0.32679417672E+03  0.41800000000E+01 0.  1.
         -5    1    3    3    0  502 -0.51029856042E+01  0.80569059219E+00  0.27505983692E+02  0.28297369812E+02  0.41800000000E+01 0.  1.
        -11    1    1    2    0    0 -0.77895330256E+02 -0.92310403591E+01  0.23355933509E+02  0.81843718219E+02  0.00000000000E+00 0. -1.
         11    1    1    2    0    0 -0.21718342913E+03 -0.65366658629E+02 -0.81036976430E+02  0.24084940004E+03  0.00000000000E+00 0.  1.
</event>
<event>
 7    1  0.1620881E-005  0.1220378E+03  0.7561462E-02  0.1239773E+00
         -1   -1    0    0    0  501 -0.00000000000E+00  0.00000000000E+00  0.10160563218E+03  0.10160563218E+03  0.00000000000E+00 0.  1.
          1   -1    0    0  501    0  0.00000000000E+00 -0.00000000000E+00 -0.17026700570E+03  0.17026700570E+03  0.00000000000E+00 0. -1.
         23    2    1    2    0    0  0.16626919137E+02  0.66652187523E+02 -0.93825221359E+01  0.14302249583E+03  0.12509370108E+03 0.  0.
          5    1    3    3  502    0  0.65133307803E+02  0.66390597093E+02 -0.13879103067E+02  0.94128428594E+02  0.41800000000E+01 0. -1.
         -5    1    3    3    0  502 -0.48506388666E+02  0.26159043080E+00  0.44965809309E+01  0.48894067238E+02  0.41800000000E+01 0. -1.
        -11    1    1    2    0    0 -0.38636558659E+02 -0.70069476011E+02 -0.18105858855E+02  0.82038632718E+02  0.00000000000E+00 0.  1.
         11    1    1    2    0    0  0.22009639522E+02  0.34172884873E+01 -0.41172992525E+02  0.46811509332E+02  0.00000000000E+00 0. -1.
</event>
<event>
 7    1  0.1620881E-005  0.1333849E+03  0.7561462E-02  0.1222518E+00
          2   -1    0    0  501    0  0.00000000000E+00  0.00000000000E+00  0.46344352528E+03  0.46344352528E+03  0.00000000000E+00 0. -1.
         -2   -1    0    0    0  501 -0.00000000000E+00 -0.00000000000E+00 -0.76389625449E+02  0.76389625449E+02  0.00000000000E+00 0.  1.
         23    2    1    2    0    0 -0.94673049959E+02  0.56774154816E+02  0.50685653761E+02  0.17436444579E+03  0.12509050090E+03 0.  0.
          5    1    3    3  502    0 -0.10510429009E+02  0.69837851390E+02  0.54039617173E+02  0.89025542565E+02  0.41800000000E+01 0. -1.
         -5    1    3    3    0  502 -0.84162620950E+02 -0.13063696575E+02 -0.33539634116E+01  0.85338903226E+02  0.41800000000E+01 0. -1.
        -11    1    1    2    0    0  0.28803435877E+02 -0.12602391640E+02  0.15706443395E+02  0.35144708812E+02  0.00000000000E+00 0.  1.
         11    1    1    2    0    0  0.65869614082E+02 -0.44171763175E+02  0.32066180267E+03  0.33032399612E+03  0.00000000000E+00 0. -1.
</event>
<event>
 7    1  0.1620881E-005  0.2034625E+03  0.7561462E-02  0.1146850E+00
         -1   -1    0    0    0  501 -0.00000000000E+00  0.00000000000E+00  0.38502254185E+03  0.38502254185E+03  0.00000000000E+00 0.  1.
          1   -1    0    0  501    0  0.00000000000E+00 -0.00000000000E+00 -0.12119856200E+03  0.12119856200E+03  0.00000000000E+00 0. -1.
         23    2    1    2    0    0  0.16693727567E+03 -0.41891218806E+02  0.22120979747E+03  0.30691683712E+03  0.12506495188E+03 0.  0.
          5    1    3    3  502    0  0.16750726900E+03 -0.71820335755E+02  0.19452702765E+03  0.26659910481E+03  0.41800000000E+01 0. -1.
         -5    1    3    3    0  502 -0.56999332949E+00  0.29929116948E+02  0.26682769824E+02  0.40317732317E+02  0.41800000000E+01 0. -1.
        -11    1    1    2    0    0 -0.17594057286E+03  0.28460020767E+02  0.42070068998E+02  0.18312549977E+03  0.00000000000E+00 0. -1.
         11    1    1    2    0    0  0.90032971861E+01  0.13431198039E+02  0.54411338107E+00  0.16178766961E+02  0.00000000000E+00 0.  1.
</event>
<event>
 7    1  0.1620881E-005  0.1681217E+03  0.7561462E-02  0.1179821E+00
         -4   -1    0    0    0  501 -0.00000000000E+00  0.00000000000E+00  0.60762364050E+03  0.60762364050E+03  0.00000000000E+00 0.  1.
          4   -1    0    0  501    0  0.00000000000E+00 -0.00000000000E+00 -0.63002469357E+02  0.63002469357E+02  0.00000000000E+00 0. -1.
         23    2    1    2    0    0 -0.66685071628E+02 -0.13335764225E+03  0.39616188556E+03  0.44138954899E+03  0.12509730159E+03 0.  0.
          5    1    3    3  502    0 -0.98034964323E+02 -0.88922440285E+02  0.33042536633E+03  0.35597254070E+03  0.41800000000E+01 0.  1.
         -5    1    3    3    0  502  0.31349892695E+02 -0.44435201967E+02  0.65736519230E+02  0.85417008296E+02  0.41800000000E+01 0.  1.
        -11    1    1    2    0    0  0.43395395313E+02  0.78787693556E+02  0.14393922489E+03  0.16973261753E+03  0.00000000000E+00 0. -1.
         11    1    1    2    0    0  0.23289676315E+02  0.54569948696E+02  0.45200606873E+01  0.59503943333E+02  0.00000000000E+00 0.  1.
</event>
<event>
 7    1  0.1620881E-005  0.8921535E+02  0.7561462E-02  0.1304763E+00
         -1   -1    0    0    0  501 -0.00000000000E+00  0.00000000000E+00  0.76605062480E+02  0.76605062480E+02  0.00000000000E+00 0.  1.
          1   -1    0    0  501    0  0.00000000000E+00 -0.00000000000E+00 -0.19587356931E+03  0.19587356931E+03  0.00000000000E+00 0. -1.
         23    2    1    2    0    0  0.45561497612E+02 -0.22677520885E+02 -0.34549739885E+02  0.13939501961E+03  0.12508863637E+03 0.  0.
          5    1    3    3  502    0  0.85250707920E+02 -0.12254920269E+02 -0.10129028931E+01  0.86234358836E+02  0.41800000000E+01 0.  1.
         -5    1    3    3    0  502 -0.39689210308E+02 -0.10422600616E+02 -0.33536836992E+02  0.53160660774E+02  0.41800000000E+01 0.  1.
        -11    1    1    2    0    0 -0.19637712919E+02  0.11166638124E+02 -0.98846795488E+02  0.10139537738E+03  0.00000000000E+00 0. -1.
         11    1    1    2    0    0 -0.25923784693E+02  0.11510882761E+02  0.14128028537E+02  0.31688234806E+02  0.00000000000E+00 0.  1.
</event>
<event>
 7    1  0.1620881E-005  0.1118723E+03  0.7561462E-02  0.1257141E+00
          1   -1    0    0  501    0  0.00000000000E+00  0.00000000000E+00  0.66216551370E+03  0.66216551370E+03  0.00000000000E+00 0. -1.
         -1   -1    0    0    0  501 -0.00000000000E+00 -0.00000000000E+00 -0.28858096424E+02  0.28858096424E+02  0.00000000000E+00 0.  1.
         23    2    1    2    0    0  0.75038115663E+02  0.17587738110E+02  0.25427039693E+03  0.29367310677E+03  0.12510160490E+03 0.  0.
          5    1    3    3  502    0  0.45784772863E+01 -0.23498335380E+02 -0.23064161017E+01  0.24411599193E+02  0.41800000000E+01 0.  1.
         -5    1    3    3    0  502  0.70459638377E+02  0.41086073491E+02  0.25657681303E+03  0.26926150757E+03  0.41800000000E+01 0.  1.
        -11    1    1    2    0    0 -0.96795719425E+01  0.33465173404E+02  0.85564283399E+02  0.92384298111E+02  0.00000000000E+00 0. -1.
         11    1    1    2    0    0 -0.65358543720E+02 -0.51052911515E+02  0.29347273695E+03  0.30496620525E+03  0.00000000000E+00 0.  1.
</event>
<event>
 7    1  0.1620881E-005  0.1247865E+03  0.7561462E-02  0.1235403E+00
          3   -1    0    0  501    0  0.00000000000E+00  0.00000000000E+00  0.32660279979E+03  0.32660279979E+03  0.00000000000E+00 0. -1.
         -3   -1    0    0    0  501 -0.00000000000E+00 -0.00000000000E+00 -0.71065949905E+02  0.71065949905E+02  0.00000000000E+00 0.  1.
         23    2    1    2    0    0 -0.11752786409E+02  0.10351968706E+03  0.11363674297E+03  0.19853279557E+03  0.12508999945E+03 0.  0.
          5    1    3    3  502    0 -0.51045294411E+02  0.89575981640E+02  0.11759191696E+03  0.15644427092E+03  0.41800000000E+01 0. -1.
         -5    1    3    3    0  502  0.39292508002E+02  0.13943705423E+02 -0.39551739842E+01  0.42088524650E+02  0.41800000000E+01 0. -1.
        -11    1    1    2    0    0  0.54287423628E+01 -0.19868699062E+02 -0.12013935283E+02  0.23844728705E+02  0.00000000000E+00 0.  1.
         11    1    1    2    0    0  0.63240440465E+01 -0.83650988001E+02  0.15391404219E+03  0.17529122543E+03  0.00000000000E+00 0. -1.
</event>
<event>
 7    1  0.1620881E-005  0.2211719E+03  0.7561462E-02  0.1133012E+00
          1   -1    0    0  501    0  0.00000000000E+00  0.00000000000E+00  0.99406952765E+02  0.99406952765E+02  0.00000000000E+00 0. -1.
         -1   -1    0    0    0  501 -0.00000000000E+00 -0.00000000000E+00 -0.54323784057E+03  0.54323784057E+03  0.00000000000E+00 0.  1.
         23    2    1    2    0    0 -0.18657728264E+03 -0.85286180640E+02 -0.23086434473E+03  0.33321326205E+03  0.12509163574E+03 0.  0.
          5    1    3    3  502    0 -0.13859380735E+03 -0.23397656491E+02 -0.76521606898E+02  0.16008973261E+03  0.41800000000E+01 0. -1.
         -5    1    3    3    0  502 -0.47983475289E+02 -0.61888524149E+02 -0.15434273784E+03  0.17312352944E+03  0.41800000000E+01 0. -1.
        -11    1    1    2    0    0  0.12796251958E+03  0.10652769127E+02 -0.10662895225E+03  0.16690602555E+03  0.00000000000E+00 0. -1.
         11    1    1    2    0    0  0.58614763064E+02  0.74633411513E+02 -0.10633759082E+03  0.14252550573E+03  0.00000000000E+00 0.  1.
</event>
<event>
 7    1  0.1620881E-005  0.1100275E+03  0.7561462E-02  0.1260519E+00
          2   -1    0    0  501    0  0.00000000000E+00  0.00000000000E+00  0.11142279043E+03  0.11142279043E+03  0.00000000000E+00 0.  1.
         -2   -1    0    0    0  501 -0.00000000000E+00 -0.00000000000E+00 -0.17942293406E+03  0.17942293406E+03  0.00000000000E+00 0. -1.
         23    2    1    2    0    0  0.76358535947E+02 -0.43024467575E+02 -0.80925012852E+02  0.16310749805E+03  0.11123608854E+03 0.  0.
          5    1    3    3  502    0  0.39731832065E+01 -0.29607224577E+02  0.21398939682E+02  0.36983252310E+02  0.41800000000E+01 0.  1.
         -5    1    3    3    0  502  0.72385352741E+02 -0.13417242998E+02 -0.10232395253E+03  0.12612424574E+03  0.41800000000E+01 0. -1.
        -11    1    1    2    0    0  0.91586482066E+01 -0.11524734083E+02 -0.16510280478E+02  0.22119893628E+02  0.00000000000E+00 0. -1.
         11    1    1    2    0    0 -0.85517184154E+02  0.54549201658E+02  0.29435149698E+02  0.10561833281E+03  0.00000000000E+00 0.  1.
</event>
<event>
 7    1  0.1620881E-005  0.1010750E+03  0.7561462E-02  0.1278051E+00
         -3   -1    0    0    0  501 -0.00000000000E+00  0.00000000000E+00  0.56963886043E+03  0.56963886043E+03  0.00000000000E+00 0.  1.
          3   -1    0    0  501    0  0.00000000000E+00 -0.00000000000E+00 -0.41965623286E+02  0.41965623286E+02  0.00000000000E+00 0. -1.
         23    2    1    2    0    0  0.10825539695E+02  0.14066260023E+00  0.50040030305E+03  0.51591169730E+03  0.12508878456E+03 0.  0.
          5    1    3    3  502    0 -0.42200717696E+02 -0.34498259022E+02  0.14657072397E+03  0.15643362802E+03  0.41800000000E+01 0.  1.
         -5    1    3    3    0  502  0.53026257391E+02  0.34638921623E+02  0.35382957908E+03  0.35947806928E+03  0.41800000000E+01 0.  1.
        -11    1    1    2    0    0 -0.45829244859E+02  0.11263230310E+02 -0.40358700719E+01  0.47365264579E+02  0.00000000000E+00 0.  1.
         11    1    1    2    0    0  0.35003705164E+02 -0.11403892910E+02  0.31308804171E+02  0.48327521841E+02  0.00000000000E+00 0. -1.
</event>
<event>
 7    1  0.1620881E-005  0.1047221E+03  0.7561462E-02  0.1270668E+00
          3   -1    0    0  501    0  0.00000000000E+00  0.00000000000E+00  0.15531118212E+03  0.15531118212E+03  0.00000000000E+00 0. -1.
         -3   -1    0    0    0  501 -0.00000000000E+00 -0.00000000000E+00 -0.10168791073E+03  0.10168791073E+03  0.00000000000E+00 0.  1.
         23    2    1    2    0    0 -0.48023761783E+02 -0.38813854997E+02  0.17836118193E+02  0.14063586540E+03  0.12509005751E+03 0.  0.
          5    1    3    3  502    0  0.22284494987E+02 -0.47190161659E+02  0.40481808249E+02  0.66179749723E+02  0.41800000000E+01 0. -1.
         -5    1    3    3    0  502 -0.70308256770E+02  0.83763066625E+01 -0.22645690056E+02  0.74456115676E+02  0.41800000000E+01 0. -1.
        -11    1    1    2    0    0  0.53815884042E+02  0.75235737067E+01 -0.15052649298E+02  0.56385599114E+02  0.00000000000E+00 0.  1.
         11    1    1    2    0    0 -0.57921222589E+01  0.31290281290E+02  0.50839802491E+02  0.59977628336E+02  0.00000000000E+00 0. -1.
</event>
<event>
 7    1  0.1620881E-005  0.1018585E+03  0.7561462E-02  0.1276436E+00
         -1   -1    0    0    0  501 -0.00000000000E+00  0.00000000000E+00  0.23810250243E+02  0.23810250243E+02  0.00000000000E+00 0.  1.
          1   -1    0    0  501    0  0.00000000000E+00 -0.00000000000E+00 -0.56502008349E+03  0.56502008349E+03  0.00000000000E+00 0. -1.
         23    2    1    2    0    0  0.24881531136E+02 -0.28598151910E+02 -0.28116163796E+03  0.31005581332E+03  0.12508315566E+03 0.  0.
          5    1    3    3  502    0 -0.45041108793E+02 -0.29170605807E+02 -0.74976543450E+02  0.92296154807E+02  0.41800000000E+01 0. -1.
         -5    1    3    3    0  502  0.69922639929E+02  0.57245389664E+00 -0.20618509451E+03  0.21775965852E+03  0.41800000000E+01 0. -1.
        -11    1    1    2    0    0  0.17317313146E+02  0.33148201134E+02 -0.20930847053E+03  0.21262344276E+03  0.00000000000E+00 0. -1.
         11    1    1    2    0    0 -0.42198844283E+02 -0.45500492234E+01 -0.50739724753E+02  0.66151077653E+02  0.00000000000E+00 0.  1.
</event>
<event>
 7    1  0.1620881E-005  0.1136927E+03  0.7561462E-02  0.1253880E+00
          1   -1    0    0  501    0  0.00000000000E+00  0.00000000000E+00  0.56701951762E+02  0.56701951762E+02  0.00000000000E+00 0. -1.
         -1   -1    0    0    0  501 -0.00000000000E+00 -0.00000000000E+00 -0.32159314205E+03  0.32159314205E+03  0.00000000000E+00 0.  1.
         23    2    1    2    0    0  0.66834398435E+02  0.29852368626E+02 -0.19329655333E+03  0.24159582999E+03  0.12508791634E+03 0.  0.
          5    1    3    3  502    0  0.77750425406E+02 -0.13994193127E+02 -0.17612740703E+03  0.19307848663E+03  0.41800000000E+01 0.  1.
         -5    1    3    3    0  502 -0.10916026972E+02  0.43846561753E+02 -0.17169146302E+02  0.48517343364E+02  0.41800000000E+01 0.  1.
        -11    1    1    2    0    0 -0.32290991807E+01 -0.38563251613E+02  0.23557338990E+01  0.38769845740E+02  0.00000000000E+00 0. -1.
         11    1    1    2    0    0 -0.63605299254E+02  0.87108829871E+01 -0.73950370852E+02  0.97929418076E+02  0.00000000000E+00 0.  1.
</event>
<event>
 7    1  0.1620881E-005  0.1585086E+03  0.7561462E-02  0.1190391E+00
          1   -1    0    0  501    0  0.00000000000E+00  0.00000000000E+00  0.37337189720E+03  0.37337189720E+03  0.00000000000E+00 0. -1.
         -1   -1    0    0    0  501 -0.00000000000E+00 -0.00000000000E+00 -0.11181106950E+03  0.11181106950E+03  0.00000000000E+00 0.  1.
         23    2    1    2    0    0 -0.12057448731E+03  0.89548035454E+02  0.34240652937E+02  0.19843606358E+03  0.12508953342E+03 0.  0.
          5    1    3    3  502    0  0.10452527456E+01 -0.90517795939E+01 -0.28121035247E+02  0.29854518762E+02  0.41800000000E+01 0. -1.
         -5    1    3    3    0  502 -0.12161974006E+03  0.98599815048E+02  0.62361688184E+02  0.16858154482E+03  0.41800000000E+01 0. -1.
        -11    1    1    2    0    0  0.77437338818E+02 -0.61844380546E+02  0.70126244772E+02  0.12140411465E+03  0.00000000000E+00 0. -1.
         11    1    1    2    0    0  0.43137148497E+02 -0.27703654907E+02  0.15719392999E+03  0.16534278848E+03  0.00000000000E+00 0.  1.
</event>
<event>
 7    1  0.1620881E-005  0.1801889E+03  0.7561462E-02  0.1167620E+00
          2   -1    0    0  501    0  0.00000000000E+00  0.00000000000E+00  0.63578511478E+02  0.63578511478E+02  0.00000000000E+00 0. -1.
         -2   -1    0    0    0  501 -0.00000000000E+00 -0.00000000000E+00 -0.62753152576E+03  0.62753152576E+03  0.00000000000E+00 0.  1.
         23    2    1    2    0    0  0.15425453484E+03 -0.65781721514E+02 -0.29381905435E+03  0.36068127153E+03  0.12505857241E+03 0.  0.
          5    1    3    3  502    0  0.10161644933E+03  0.75766855783E+01 -0.83655486584E+02  0.13190535157E+03  0.41800000000E+01 0. -1.
         -5    1    3    3    0  502  0.52638085508E+02 -0.73358407092E+02 -0.21016356776E+03  0.22877591996E+03  0.41800000000E+01 0. -1.
        -11    1    1    2    0    0 -0.98130275845E+02  0.36457262113E+02 -0.23671159287E+03  0.25882631473E+03  0.00000000000E+00 0.  1.
         11    1    1    2    0    0 -0.56124258990E+02  0.29324459401E+02 -0.33422367073E+02  0.71602450985E+02  0.00000000000E+00 0. -1.
</event>
<event>
 7    1  0.1620881E-005  0.1224736E+03  0.7561462E-02  0.1239071E+00
         -2   -1    0    0    0  501 -0.00000000000E+00  0.00000000000E+00  0.51962800571E+02  0.51962800571E+02  0.00000000000E+00 0.  1.
          2   -1    0    0  501    0  0.00000000000E+00 -0.00000000000E+00 -0.34825759994E+03  0.34825759994E+03  0.00000000000E+00 0. -1.
         23    2    1    2    0    0 -0.69495472653E+02 -0.38130726049E+02 -0.15189197208E+03  0.21213561870E+03  0.12508707588E+03 0.  0.
          5    1    3    3  502    0  0.16973688098E+02  0.24788142075E+02 -0.73390752935E+02  0.79411794411E+02  0.41800000000E+01 0.  1.
         -5    1    3    3    0  502 -0.86469160751E+02 -0.62918868125E+02 -0.78501219145E+02  0.13272382429E+03  0.41800000000E+01 0.  1.
        -11    1    1    2    0    0  0.78610689302E+02  0.11499078075E+02 -0.61308938348E+02  0.10035265413E+03  0.00000000000E+00 0.  1.
         11    1    1    2    0    0 -0.91152166488E+01  0.26631647974E+02 -0.83093888945E+02  0.87732127686E+02  0.00000000000E+00 0. -1.
</event>
<event>
 7    1  0.1620881E-005  0.1626309E+03  0.7561462E-02  0.1185758E+00
          2   -1    0    0  501    0  0.00000000000E+00  0.00000000000E+00  0.13050254477E+04  0.13050254477E+04  0.00000000000E+00 0. -1.
         -2   -1    0    0    0  501 -0.00000000000E+00 -0.00000000000E+00 -0.20998883115E+02  0.20998883115E+02  0.00000000000E+00 0.  1.
         23    2    1    2    0    0 -0.11464319587E+03 -0.47892682906E+02  0.72941409637E+03  0.75042650100E+03  0.12513288131E+03 0.  0.
          5    1    3    3  502    0 -0.26893002141E+02 -0.76012215101E+02  0.26862986042E+03  0.28050056100E+03  0.41800000000E+01 0.  1.
         -5    1    3    3    0  502 -0.87750193724E+02  0.28119532195E+02  0.46078423595E+03  0.46992594000E+03  0.41800000000E+01 0.  1.
        -11    1    1    2    0    0  0.52507516761E+02  0.68959076867E+02  0.35732863845E+03  0.36769029012E+03  0.00000000000E+00 0.  1.
         11    1    1    2    0    0  0.62135679104E+02 -0.21066393960E+02  0.19728382979E+03  0.20790753971E+03  0.00000000000E+00 0. -1.
</event>
<event>
 7    1  0.1620881E-005  0.1286838E+03  0.7561462E-02  0.1229422E+00
         -2   -1    0    0    0  501 -0.00000000000E+00  0.00000000000E+00  0.37803341523E+02  0.37803341523E+02  0.00000000000E+00 0.  1.
          2   -1    0    0  501    0  0.00000000000E+00 -0.00000000000E+00 -0.69562681762E+03  0.69562681762E+03  0.00000000000E+00 0. -1.
         23    2    1    2    0    0 -0.59336878960E+02  0.43201395395E+02 -0.13640473747E+03  0.19909965295E+03  0.12508874303E+03 0.  0.
          5    1    3    3  502    0 -0.37168380714E+02 -0.41089112652E+02 -0.36623516103E+02  0.66547411935E+02  0.41800000000E+01 0. -1.
         -5    1    3    3    0  502 -0.22168498246E+02  0.84290508047E+02 -0.99781221366E+02  0.13255224102E+03  0.41800000000E+01 0. -1.
        -11    1    1    2    0    0  0.28889094144E+02  0.26048910219E+02 -0.22927460745E+03  0.23255100754E+03  0.00000000000E+00 0. -1.
         11    1    1    2    0    0  0.30447784817E+02 -0.69250305614E+02 -0.29214413117E+03  0.30177949865E+03  0.00000000000E+00 0.  1.
</event>
<event>
 7    1  0.1620881E-005  0.1707540E+03  0.7561462E-02  0.1177064E+00
          1   -1    0    0  501    0  0.00000000000E+00  0.00000000000E+00  0.92959700218E+03  0.92959700218E+03  0.00000000000E+00 0. -1.
         -1   -1    0    0    0  501 -0.00000000000E+00 -0.00000000000E+00 -0.31989603391E+02  0.31989603391E+02  0.00000000000E+00 0.  1.
         23    2    1    2    0    0 -0.11678856228E+03  0.63266373873E+02  0.45246987976E+03  0.48787063379E+03  0.12508621379E+03 0.  0.
          5    1    3    3  502    0 -0.40673729522E+02 -0.37583831881E+02  0.15514939468E+03  0.16478987761E+03  0.41800000000E+01 0.  1.
         -5    1    3    3    0  502 -0.76114832757E+02  0.10085020575E+03  0.29732048507E+03  0.32308075618E+03  0.41800000000E+01 0.  1.
        -11    1    1    2    0    0  0.15216571010E+02  0.22126576033E+02  0.48078290419E+02  0.55069514342E+02  0.00000000000E+00 0.  1.
         11    1    1    2    0    0  0.10157199127E+03 -0.85392949906E+02  0.39705922861E+03  0.41864645744E+03  0.00000000000E+00 0. -1.
</event>
<event>
 7    1  0.1620881E-005  0.9239469E+02  0.7561462E-02  0.1297154E+00
          2   -1    0    0  501    0  0.00000000000E+00  0.00000000000E+00  0.11795515824E+03  0.11795515824E+03  0.00000000000E+00 0. -1.
         -2   -1    0    0    0  501 -0.00000000000E+00 -0.00000000000E+00 -0.11508983738E+03  0.11508983738E+03  0.00000000000E+00 0.  1.
         23    2    1    2    0    0  0.90081207523E+00  0.35882172672E+02 -0.30848128513E+02  0.13377203596E+03  0.12511997760E+03 0.  0.
          5    1    3    3  502    0  0.39126195541E+02 -0.16489083407E+01 -0.60659647796E+02  0.72323186786E+02  0.41800000000E+01 0.  1.
         -5    1    3    3    0  502 -0.38225383465E+02  0.37531081013E+02  0.29811519283E+02  0.61448849176E+02  0.41800000000E+01 0.  1.
        -11    1    1    2    0    0 -0.42262469659E+02 -0.24166905973E+02  0.27277248852E+02  0.55805053454E+02  0.00000000000E+00 0.  1.
         11    1    1    2    0    0  0.41361657584E+02 -0.11715266699E+02  0.64362005216E+01  0.43467906196E+02  0.00000000000E+00 0. -1.
</event>
<event>
 7    1  0.1620881E-005  0.1539897E+03  0.7561462E-02  0.1195654E+00
          1   -1    0    0  501    0  0.00000000000E+00  0.00000000000E+00  0.41846219352E+03  0.41846219352E+03  0.00000000000E+00 0. -1.
         -1   -1    0    0    0  501 -0.00000000000E+00 -0.00000000000E+00 -0.71903949030E+02  0.71903949030E+02  0.00000000000E+00 0.  1.
         23    2    1    2    0    0  0.91487857432E+02 -0.76746776568E+02  0.95122973260E+02  0.19737284301E+03  0.12509022083E+03 0.  0.
          5    1    3    3  502    0  0.42639433073E+02  0.28851095782E+02  0.51793043081E+02  0.73147103102E+02  0.41800000000E+01 0.  1.
         -5    1    3    3    0  502  0.48848424359E+02 -0.10559787235E+03  0.43329930179E+02  0.12422573991E+03  0.41800000000E+01 0.  1.
        -11    1    1    2    0    0 -0.12271774420E+02  0.56941045489E+02  0.16067684365E+03  0.17090911969E+03  0.00000000000E+00 0. -1.
         11    1    1    2    0    0 -0.79216083012E+02  0.19805731080E+02  0.90758427580E+02  0.12208417984E+03  0.00000000000E+00 0.  1.
</event>
<event>
 7    1  0.1620881E-005  0.1388410E+03  0.7561462E-02  0.1214897E+00
         -1   -1    0    0    0  501 -0.00000000000E+00  0.00000000000E+00  0.12391625745E+03  0.12391625745E+03  0.00000000000E+00 0.  1.
          1   -1    0    0  501    0  0.00000000000E+00 -0.00000000000E+00 -0.23396943487E+03  0.23396943487E+03  0.00000000000E+00 0. -1.
         23    2    1    2    0    0 -0.83213823651E+02  0.41150540492E+02  0.38339097355E+02  0.16042236756E+03  0.12509013630E+03 0.  0.
          5    1    3    3  502    0 -0.73108106165E+02 -0.32801147862E+02  0.27850127756E+02  0.84934165706E+02  0.41800000000E+01 0. -1.
         -5    1    3    3    0  502 -0.10105717486E+02  0.73951688354E+02  0.10488969599E+02  0.75488201856E+02  0.41800000000E+01 0. -1.
        -11    1    1    2    0    0  0.21416006584E+02 -0.55290178884E+02 -0.38810859890E+02  0.70865591541E+02  0.00000000000E+00 0.  1.
         11    1    1    2    0    0  0.61797817067E+02  0.14139638392E+02 -0.10958141488E+03  0.12659773322E+03  0.00000000000E+00 0. -1.
</event>
<event>
 7    1  0.1620881E-005  0.9032309E+02  0.7561462E-02  0.1302071E+00
          1   -1    0    0  501    0  0.00000000000E+00  0.00000000000E+00  0.11376373356E+03  0.11376373356E+03  0.00000000000E+00 0. -1.
         -1   -1    0    0    0  501 -0.00000000000E+00 -0.00000000000E+00 -0.14974626772E+03  0.14974626772E+03  0.00000000000E+00 0.  1.
         23    2    1    2    0    0  0.11089951345E+02  0.10210850707E+02 -0.91772564724E+02  0.15587365945E+03  0.12508855096E+03 0.  0.
          5    1    3    3  502    0  0.59427017764E+02  0.17056404732E+02 -0.13328997740E+02  0.63384745511E+02  0.41800000000E+01 0.  1.
         -5    1    3    3    0  502 -0.48337066419E+02 -0.68455540251E+01 -0.78443566983E+02  0.92488913936E+02  0.41800000000E+01 0.  1.
        -11    1    1    2    0    0  0.21118695010E+02  0.17317311558E+02  0.59132655363E+02  0.65134932937E+02  0.00000000000E+00 0. -1.
         11    1    1    2    0    0 -0.32208646355E+02 -0.27528162265E+02 -0.33426247915E+01  0.42501408897E+02  0.00000000000E+00 0.  1.
</event>
<event>
 7    1  0.1620881E-005  0.1966788E+03  0.7561462E-02  0.1152572E+00
          1   -1    0    0  501    0  0.00000000000E+00  0.00000000000E+00  0.14920852481E+03  0.14920852481E+03  0.00000000000E+00 0. -1.
         -1   -1    0    0    0  501 -0.00000000000E+00 -0.00000000000E+00 -0.27822036021E+03  0.27822036021E+03  0.00000000000E+00 0.  1.
         23    2    1    2    0    0 -0.10560046210E+03 -0.13553301650E+03 -0.78906960597E+02  0.22670415909E+03  0.12509121136E+03 0.  0.
          5    1    3    3  502    0 -0.40746719042E+02 -0.14132133267E+03 -0.50775212731E+02  0.15565220464E+03  0.41800000000E+01 0. -1.
         -5    1    3    3    0  502 -0.64853743061E+02  0.57883161731E+01 -0.28131747867E+02  0.71051954450E+02  0.41800000000E+01 0. -1.
        -11    1    1    2    0    0  0.60175013573E+02  0.32542121378E+02  0.15902921559E+02  0.70234783665E+02  0.00000000000E+00 0. -1.
         11    1    1    2    0    0  0.45425448530E+02  0.10299089512E+03 -0.66007796366E+02  0.13048994227E+03  0.00000000000E+00 0.  1.
</event>
<event>
 7    1  0.1620881E-005  0.7760746E+02  0.7561462E-02  0.1335982E+00
          2   -1    0    0  501    0  0.00000000000E+00  0.00000000000E+00  0.15416740676E+03  0.15416740676E+03  0.00000000000E+00 0. -1.
         -2   -1    0    0    0  501 -0.00000000000E+00 -0.00000000000E+00 -0.18988048734E+03  0.18988048734E+03  0.00000000000E+00 0.  1.
         23    2    1    2    0    0 -0.41721586282E-01  0.15014078463E+02 -0.15068870800E+03  0.19641668140E+03  0.12508797593E+03 0.  0.
          5    1    3    3  502    0  0.32540339949E+02 -0.38230898494E+01  0.74063679241E+01  0.33849910278E+02  0.41800000000E+01 0.  1.
         -5    1    3    3    0  502 -0.32582061535E+02  0.18837168312E+02 -0.15809507592E+03  0.16256677113E+03  0.41800000000E+01 0.  1.
        -11    1    1    2    0    0  0.25904751981E+02  0.25437219921E+02  0.81145766675E+02  0.88897377812E+02  0.00000000000E+00 0. -1.
         11    1    1    2    0    0 -0.25863030394E+02 -0.40451298384E+02  0.33829860745E+02  0.58733834884E+02  0.00000000000E+00 0.  1.
</event>
<event>
 7    1  0.1620881E-005  0.1474587E+03  0.7561462E-02  0.1203631E+00
         -1   -1    0    0    0  501 -0.00000000000E+00  0.00000000000E+00  0.14144653396E+03  0.14144653396E+03  0.00000000000E+00 0.  1.
          1   -1    0    0  501    0  0.00000000000E+00 -0.00000000000E+00 -0.24906202432E+03  0.24906202432E+03  0.00000000000E+00 0. -1.
         23    2    1    2    0    0 -0.38304386011E+02 -0.13066137449E+03  0.22406232970E+02  0.18624998069E+03  0.12508954896E+03 0.  0.
          5    1    3    3  502    0 -0.62430727333E+01 -0.12122833786E+03  0.60254832191E+02  0.13558540873E+03  0.41800000000E+01 0. -1.
         -5    1    3    3    0  502 -0.32061313278E+02 -0.94330366328E+01 -0.37848599221E+02  0.50664571963E+02  0.41800000000E+01 0. -1.
        -11    1    1    2    0    0  0.32755066868E+02  0.55758111006E+02 -0.10818665377E+03  0.12604052286E+03  0.00000000000E+00 0. -1.
         11    1    1    2    0    0  0.55493191429E+01  0.74903263486E+02 -0.21835069554E+02  0.78218054733E+02  0.00000000000E+00 0.  1.
</event>
<event>
 7    1  0.1620881E-005  0.1096404E+03  0.7561462E-02  0.1261237E+00
          1   -1    0    0  501    0  0.00000000000E+00  0.00000000000E+00  0.21000967539E+03  0.21000967539E+03  0.00000000000E+00 0. -1.
         -1   -1    0    0    0  501 -0.00000000000E+00 -0.00000000000E+00 -0.75383883033E+02  0.75383883033E+02  0.00000000000E+00 0.  1.
         23    2    1    2    0    0  0.31990420175E+02  0.45457494800E+02  0.41225626694E+02  0.14294685229E+03  0.12507789359E+03 0.  0.
          5    1    3    3  502    0  0.34694764754E+02 -0.30474200840E+02 -0.14554405138E+02  0.48597394241E+02  0.41800000000E+01 0. -1.
         -5    1    3    3    0  502 -0.27043445787E+01  0.75931695640E+02  0.55780031832E+02  0.94349458045E+02  0.41800000000E+01 0. -1.
        -11    1    1    2    0    0  0.24246764870E+02 -0.29849387092E+02  0.69398134255E+02  0.79340989120E+02  0.00000000000E+00 0.  1.
         11    1    1    2    0    0 -0.56237185045E+02 -0.15608107708E+02  0.24002031404E+02  0.63105717011E+02  0.00000000000E+00 0. -1.
</event>
<event>
 7    1  0.1620881E-005  0.3980730E+03  0.7561462E-02  0.1044449E+00
          2   -1    0    0  501    0  0.00000000000E+00  0.00000000000E+00  0.23703103111E+04  0.23703103111E+04  0.00000000000E+00 0. -1.
         -2   -1    0    0    0  501 -0.00000000000E+00 -0.00000000000E+00 -0.70165765150E+02  0.70165765150E+02  0.00000000000E+00 0.  1.
         23    2    1    2    0    0  0.23716798968E+03 -0.30061300912E+03  0.90412792131E+03  0.98980190091E+03  0.12507465114E+03 0.  0.
          5    1    3    3  502    0  0.21173650372E+02  0.10416216341E+02  0.60640901549E+02  0.65204389221E+02  0.41800000000E+01 0.  1.
         -5    1    3    3    0  502  0.21599433931E+03 -0.31102922547E+03  0.84348701977E+03  0.92459751169E+03  0.41800000000E+01 0.  1.
        -11    1    1    2    0    0 -0.76997708770E+02  0.17066917552E+03  0.71513050442E+03  0.73923491055E+03  0.00000000000E+00 0. -1.
         11    1    1    2    0    0 -0.16017028091E+03  0.12994383361E+03  0.68088612017E+03  0.71143926475E+03  0.00000000000E+00 0.  1.
</event>
<event>
 7    1  0.1620881E-005  0.9950454E+02  0.7561462E-02  0.1281341E+00
         -2   -1    0    0    0  501 -0.00000000000E+00  0.00000000000E+00  0.29483276422E+02  0.29483276422E+02  0.00000000000E+00 0.  1.
          2   -1    0    0  501    0  0.00000000000E+00 -0.00000000000E+00 -0.70596345654E+03  0.70596345654E+03  0.00000000000E+00 0. -1.
         23    2    1    2    0    0  0.27800441732E+02 -0.37151014805E+02 -0.15704335442E+03  0.20606502488E+03  0.12508843612E+03 0.  0.
          5    1    3    3  502    0  0.47663253335E+02 -0.53542966433E+02 -0.32500493296E+02  0.78818712482E+02  0.41800000000E+01 0. -1.
         -5    1    3    3    0  502 -0.19862811603E+02  0.16391951627E+02 -0.12454286112E+03  0.12724631240E+03  0.41800000000E+01 0. -1.
        -11    1    1    2    0    0  0.10888515720E+02  0.56720497046E+02 -0.33285034407E+03  0.33782410528E+03  0.00000000000E+00 0.  1.
         11    1    1    2    0    0 -0.38688957452E+02 -0.19569482241E+02 -0.18658648163E+03  0.19155760280E+03  0.00000000000E+00 0. -1.
</event>
<event>
 7    1  0.1620881E-005  0.1078140E+03  0.7561462E-02  0.1264672E+00
          2   -1    0    0  501    0  0.00000000000E+00  0.00000000000E+00  0.53556060090E+03  0.53556060090E+03  0.00000000000E+00 0. -1.
         -2   -1    0    0    0  501 -0.00000000000E+00 -0.00000000000E+00 -0.23448844253E+02  0.23448844253E+02  0.00000000000E+00 0.  1.
         23    2    1    2    0    0  0.22715286127E+02  0.10873431050E+02  0.28174292329E+03  0.30928600554E+03  0.12507814624E+03 0.  0.
          5    1    3    3  502    0  0.74123466003E+02  0.10428607984E+02  0.18584249275E+03  0.20039448243E+03  0.41800000000E+01 0. -1.
         -5    1    3    3    0  502 -0.51408179876E+02  0.44482306613E+00  0.95900430540E+02  0.10889152310E+03  0.41800000000E+01 0. -1.
        -11    1    1    2    0    0 -0.35083769890E+02 -0.42505271421E+02  0.18509361480E+03  0.19312486958E+03  0.00000000000E+00 0. -1.
         11    1    1    2    0    0  0.12368483763E+02  0.31631840370E+02  0.45275218545E+02  0.56598570036E+02  0.00000000000E+00 0.  1.
</event>
<event>
 7    1  0.1620881E-005  0.7786679E+02  0.7561462E-02  0.1335217E+00
          4   -1    0    0  501    0  0.00000000000E+00  0.00000000000E+00  0.39466548773E+03  0.39466548773E+03  0.00000000000E+00 0. -1.
         -4   -1    0    0    0  501 -0.00000000000E+00 -0.00000000000E+00 -0.32962401242E+02  0.32962401242E+02  0.00000000000E+00 0.  1.
         23    2    1    2    0    0 -0.39119637600E+01  0.16607509092E+02  0.15461781585E+03  0.19961339043E+03  0.12509086234E+03 0.  0.
          5    1    3    3  502    0  0.33486282958E+02  0.21081680153E+02  0.15668745181E+03  0.16166075077E+03  0.41800000000E+01 0.  1.
         -5    1    3    3    0  502 -0.37398246718E+02 -0.44741710618E+01 -0.20696359590E+01  0.37952639662E+02  0.41800000000E+01 0.  1.
        -11    1    1    2    0    0 -0.32978116864E+02  0.77050446749E+01  0.29174115521E+02  0.44699585253E+02  0.00000000000E+00 0.  1.
         11    1    1    2    0    0  0.36890080624E+02 -0.24312553767E+02  0.17791115512E+03  0.18331491329E+03  0.00000000000E+00 0. -1.
</event>
<event>
 7    1  0.1620881E-005  0.1741369E+03  0.7561462E-02  0.1173601E+00
         -1   -1    0    0    0  501 -0.00000000000E+00  0.00000000000E+00  0.13945936258E+03  0.13945936258E+03  0.00000000000E+00 0.  1.
          1   -1    0    0  501    0  0.00000000000E+00 -0.00000000000E+00 -0.29992064306E+03  0.29992064306E+03  0.00000000000E+00 0. -1.
         23    2    1    2    0    0 -0.14526981259E+03 -0.91003973749E+02 -0.11799443867E+03  0.24280799766E+03  0.12509194412E+03 0.  0.
          5    1    3    3  502    0 -0.61290297203E+02 -0.42381624300E+02 -0.12482832890E+03  0.14543825736E+03  0.41800000000E+01 0. -1.
         -5    1    3    3    0  502 -0.83979515388E+02 -0.48622349449E+02  0.68338902276E+01  0.97369740302E+02  0.41800000000E+01 0. -1.
        -11    1    1    2    0    0  0.10442716366E+03  0.41595078883E+02 -0.63503611261E+02  0.12910418948E+03  0.00000000000E+00 0. -1.
         11    1    1    2    0    0  0.40842648933E+02  0.49408894866E+02  0.21036769453E+02  0.67467818497E+02  0.00000000000E+00 0.  1.
</event>
<event>
 7    1  0.1620881E-005  0.3308510E+03  0.7561462E-02  0.1070761E+00
          1   -1    0    0  501    0  0.00000000000E+00  0.00000000000E+00  0.11048543536E+04  0.11048543536E+04  0.00000000000E+00 0.  1.
         -1   -1    0    0    0  501 -0.00000000000E+00 -0.00000000000E+00 -0.12528420367E+03  0.12528420367E+03  0.00000000000E+00 0. -1.
         23    2    1    2    0    0  0.32377315806E+03  0.10767144052E+02  0.73948311429E+03  0.81696242236E+03  0.12508930396E+03 0.  0.
          5    1    3    3  502    0  0.18431319503E+03  0.30691755988E+02  0.54946708429E+03  0.58038339645E+03  0.41800000000E+01 0. -1.
         -5    1    3    3    0  502  0.13945996303E+03 -0.19924611936E+02  0.19001602999E+03  0.23657902592E+03  0.41800000000E+01 0. -1.
        -11    1    1    2    0    0 -0.10865395312E+03 -0.42004539014E+02  0.60796841643E+02  0.13140136522E+03  0.00000000000E+00 0.  1.
         11    1    1    2    0    0 -0.21511920493E+03  0.31237394962E+02  0.17929019405E+03  0.28177476973E+03  0.00000000000E+00 0. -1.
</event>
<event>
 7    1  0.1620881E-005  0.1146328E+03  0.7561462E-02  0.1252223E+00
         -1   -1    0    0    0  501 -0.00000000000E+00  0.00000000000E+00  0.34323802516E+02  0.34323802516E+02  0.00000000000E+00 0.  1.
          1   -1    0    0  501    0  0.00000000000E+00 -0.00000000000E+00 -0.68944564327E+03  0.68944564327E+03  0.00000000000E+00 0. -1.
         23    2    1    2    0    0  0.24533679107E+02  0.96996882995E+02 -0.25997759267E+03  0.30536263851E+03  0.12509074940E+03 0.  0.
          5    1    3    3  502    0  0.17148981080E+02  0.53309844214E+02 -0.25438445800E+03  0.26050902463E+03  0.41800000000E+01 0.  1.
         -5    1    3    3    0  502  0.73846980264E+01  0.43687038781E+02 -0.55931346693E+01  0.44853613877E+02  0.41800000000E+01 0.  1.
        -11    1    1    2    0    0 -0.39265762691E+02 -0.10201603663E+02 -0.20355941924E+03  0.20756278568E+03  0.00000000000E+00 0. -1.
         11    1    1    2    0    0  0.14732083584E+02 -0.86795279332E+02 -0.19158482885E+03  0.21084402160E+03  0.00000000000E+00 0.  1.
</event>
<event>
 7    1  0.1620881E-005  0.1348231E+03  0.7561462E-02  0.1220470E+00
          1   -1    0    0  501    0  0.00000000000E+00  0.00000000000E+00  0.43514271622E+02  0.43514271622E+02  0.00000000000E+00 0. -1.
         -1   -1    0    0    0  501 -0.00000000000E+00 -0.00000000000E+00 -0.49344214351E+03  0.49344214351E+03  0.00000000000E+00 0.  1.
         23    2    1    2    0    0  0.80854434806E+02 -0.20635251202E+02 -0.34026269575E+03  0.37196243879E+03  0.12495639451E+03 0.  0.
          5    1    3    3  502    0  0.10204110743E+03  0.18713359169E+02 -0.21170820169E+03  0.23579739710E+03  0.41800000000E+01 0.  1.
         -5    1    3    3    0  502 -0.21186672621E+02 -0.39348610371E+02 -0.12855449407E+03  0.13616504169E+03  0.41800000000E+01 0.  1.
        -11    1    1    2    0    0 -0.40801478611E+02 -0.34054831031E+02 -0.32558497588E+02  0.62326141695E+02  0.00000000000E+00 0.  1.
         11    1    1    2    0    0 -0.40052956194E+02  0.54690082233E+02 -0.77106678550E+02  0.10266783465E+03  0.00000000000E+00 0. -1.
</event>
<event>
 6    1  0.1620881E-005  0.9584536E+02  0.7561462E-02  0.1289283E+00
          2   -1    0    0  501    0  0.00000000000E+00  0.00000000000E+00  0.32470876582E+02  0.32470876582E+02  0.00000000000E+00 0. -1.
         -2   -1    0    0    0  501 -0.00000000000E+00 -0.00000000000E+00 -0.10680883615E+04  0.10680883615E+04  0.00000000000E+00 0.  1.
          5    1    1    2  502    0  0.67084756190E+02  0.18133677479E+02 -0.29554056491E+03  0.30362953197E+03  0.41800000000E+01 0. -1.
         -5    1    1    2    0  502 -0.61062962644E+02 -0.31485680032E+02 -0.68438696483E+03  0.68783938785E+03  0.41800000000E+01 0.  1.
        -11    1    1    2    0    0 -0.25790167491E+02  0.19729743507E+02 -0.74372974667E+02  0.81152540803E+02  0.00000000000E+00 0.  1.
         11    1    1    2    0    0  0.19768373945E+02 -0.63777409530E+01  0.18683019535E+02  0.27937777418E+02  0.00000000000E+00 0. -1.
</event>
<event>
 7    1  0.1620881E-005  0.1101931E+03  0.7561462E-02  0.1260213E+00
         -2   -1    0    0    0  501 -0.00000000000E+00  0.00000000000E+00  0.19552918325E+03  0.19552918325E+03  0.00000000000E+00 0.  1.
          2   -1    0    0  501    0  0.00000000000E+00 -0.00000000000E+00 -0.10523164775E+03  0.10523164775E+03  0.00000000000E+00 0. -1.
         23    2    1    2    0    0 -0.56649886986E+02  0.73390950437E+02  0.39677209727E+02  0.16067923826E+03  0.12509234722E+03 0.  0.
          5    1    3    3  502    0  0.13422684355E+02  0.43285677654E+02 -0.32236668002E+02  0.55771798511E+02  0.41800000000E+01 0. -1.
         -5    1    3    3    0  502 -0.70072571341E+02  0.30105272784E+02  0.71913877729E+02  0.10490743974E+03  0.41800000000E+01 0. -1.
        -11    1    1    2    0    0  0.43738082693E+02 -0.73560507500E+02  0.74153613354E+02  0.11323836150E+03  0.00000000000E+00 0.  1.
         11    1    1    2    0    0  0.12911804293E+02  0.16955706244E+00 -0.23533287580E+02  0.26843231252E+02  0.00000000000E+00 0. -1.
</event>
<event>
 7    1  0.1620881E-005  0.1120698E+03  0.7561462E-02  0.1256784E+00
         -1   -1    0    0    0  501 -0.00000000000E+00  0.00000000000E+00  0.40268952803E+02  0.40268952803E+02  0.00000000000E+00 0.  1.
          1   -1    0    0  501    0  0.00000000000E+00 -0.00000000000E+00 -0.35724084596E+03  0.35724084596E+03  0.00000000000E+00 0. -1.
         23    2    1    2    0    0  0.60490532791E+02 -0.12332313074E+02 -0.16156519083E+03  0.21345032460E+03  0.12508612906E+03 0.  0.
          5    1    3    3  502    0  0.19337420079E+02  0.48780456677E+02 -0.25117445980E+02  0.58325185482E+02  0.41800000000E+01 0. -1.
         -5    1    3    3    0  502  0.41153112712E+02 -0.61112769751E+02 -0.13644774485E+03  0.15512513912E+03  0.41800000000E+01 0. -1.
        -11    1    1    2    0    0 -0.41129997030E+02  0.44225028835E+02 -0.83531138249E+02  0.10307754794E+03  0.00000000000E+00 0.  1.
         11    1    1    2    0    0 -0.19360535760E+02 -0.31892715761E+02 -0.71875564083E+02  0.80981926229E+02  0.00000000000E+00 0. -1.
</event>
<event>
 7    1  0.1620881E-005  0.6260199E+02  0.7561462E-02  0.1387226E+00
         -1   -1    0    0    0  501 -0.00000000000E+00  0.00000000000E+00  0.14861467333E+03  0.14861467333E+03  0.00000000000E+00 0.  1.
          1   -1    0    0  501    0  0.00000000000E+00 -0.00000000000E+00 -0.15329146035E+03  0.15329146035E+03  0.00000000000E+00 0. -1.
         23    2    1    2    0    0  0.20605667537E+02 -0.62645614256E+00  0.99799846797E+02  0.16157740393E+03  0.12538844468E+03 0.  0.
          5    1    3    3  502    0  0.17986427601E+02 -0.13082912298E+02  0.12819661568E+03  0.13017879567E+03  0.41800000000E+01 0. -1.
         -5    1    3    3    0  502  0.26192399352E+01  0.12456456155E+02 -0.28396768881E+02  0.31398608260E+02  0.41800000000E+01 0. -1.
        -11    1    1    2    0    0 -0.44258378904E+02 -0.27746665022E+02 -0.39141549116E+02  0.65274362427E+02  0.00000000000E+00 0.  1.
         11    1    1    2    0    0  0.23652711368E+02  0.28373121165E+02 -0.65335084700E+02  0.75054367311E+02  0.00000000000E+00 0. -1.
</event>
<event>
 7    1  0.1620881E-005  0.9011065E+02  0.7561462E-02  0.1302584E+00
          1   -1    0    0  501    0  0.00000000000E+00  0.00000000000E+00  0.69665030241E+02  0.69665030241E+02  0.00000000000E+00 0. -1.
         -1   -1    0    0    0  501 -0.00000000000E+00 -0.00000000000E+00 -0.18792053396E+03  0.18792053396E+03  0.00000000000E+00 0.  1.
         23    2    1    2    0    0  0.16671394640E+02  0.29378427783E+02 -0.90195620034E+02  0.15787479140E+03  0.12509265554E+03 0.  0.
          5    1    3    3  502    0 -0.34213020362E+02 -0.17963011214E+02 -0.78055947905E+02  0.87197499606E+02  0.41800000000E+01 0. -1.
         -5    1    3    3    0  502  0.50884415002E+02  0.47341438997E+02 -0.12139672129E+02  0.70677291798E+02  0.41800000000E+01 0. -1.
        -11    1    1    2    0    0 -0.18572993674E+02  0.17078270738E+02  0.20478528437E+02  0.32496054412E+02  0.00000000000E+00 0.  1.
         11    1    1    2    0    0  0.19015990345E+01 -0.46456698520E+02 -0.48538412127E+02  0.67214718389E+02  0.00000000000E+00 0. -1.
</event>
<event>
 6    1  0.1620881E-005  0.2147083E+03  0.7561462E-02  0.1137891E+00
          2   -1    0    0  501    0  0.00000000000E+00  0.00000000000E+00  0.67861601886E+03  0.67861601886E+03  0.00000000000E+00 0. -1.
         -2   -1    0    0    0  501 -0.00000000000E+00 -0.00000000000E+00 -0.34357032287E+03  0.34357032287E+03  0.00000000000E+00 0.  1.
          5    1    1    2  502    0  0.13269426750E+03 -0.14348935392E+02 -0.69563222549E+02  0.15056618115E+03  0.41800000000E+01 0. -1.
         -5    1    1    2    0  502 -0.63893082495E+02  0.13173344991E+03 -0.19655244497E+03  0.24512520034E+03  0.41800000000E+01 0.  1.
        -11    1    1    2    0    0  0.10835650445E+02 -0.26178929737E+02  0.25117215319E+02  0.37863203617E+02  0.00000000000E+00 0.  1.
         11    1    1    2    0    0 -0.79636835450E+02 -0.91205584784E+02  0.57604414818E+03  0.58863175663E+03  0.00000000000E+00 0. -1.
</event>
<event>
 6    1  0.1620881E-005  0.8708070E+02  0.7561462E-02  0.1310079E+00
         -3   -1    0    0    0  501 -0.00000000000E+00  0.00000000000E+00  0.14730424209E+03  0.14730424209E+03  0.00000000000E+00 0.  1.
          3   -1    0    0  501    0  0.00000000000E+00 -0.00000000000E+00 -0.95123502259E+02  0.95123502259E+02  0.00000000000E+00 0. -1.
          5    1    1    2  502    0 -0.50962628398E+02  0.16935988906E+01 -0.13507106139E+02  0.52914762465E+02  0.41800000000E+01 0. -1.
         -5    1    1    2    0  502  0.44805887558E+02  0.69802714315E+01  0.83842023673E+02  0.95410948442E+02  0.41800000000E+01 0.  1.
        -11    1    1    2    0    0  0.32945665068E+02 -0.28954679069E+02 -0.35372513530E+02  0.56347182717E+02  0.00000000000E+00 0. -1.
         11    1    1    2    0    0 -0.26788924227E+02  0.20280808747E+02  0.17218335829E+02  0.37754850726E+02  0.00000000000E+00 0.  1.
</event>
<event>
 7    1  0.1620881E-005  0.9362118E+02  0.7561462E-02  0.1294312E+00
          2   -1    0    0  501    0  0.00000000000E+00  0.00000000000E+00  0.15448976210E+02  0.15448976210E+02  0.00000000000E+00 0. -1.
         -2   -1    0    0    0  501 -0.00000000000E+00 -0.00000000000E+00 -0.57779827843E+03  0.57779827843E+03  0.00000000000E+00 0.  1.
         23    2    1    2    0    0 -0.34522620015E+02 -0.14977049187E+02 -0.40224651076E+03  0.42292619822E+03  0.12509272729E+03 0.  0.
          5    1    3    3  502    0 -0.62278803967E+02 -0.52993686613E+02 -0.28456828855E+03  0.29611410553E+03  0.41800000000E+01 0. -1.
         -5    1    3    3    0  502  0.27756183952E+02  0.38016637426E+02 -0.11767822221E+03  0.12681209269E+03  0.41800000000E+01 0. -1.
        -11    1    1    2    0    0 -0.76071491948E+00  0.22097714245E+02 -0.60451982651E+02  0.64368702554E+02  0.00000000000E+00 0.  1.
         11    1    1    2    0    0  0.35283334934E+02 -0.71206650583E+01 -0.99650808808E+02  0.10595235387E+03  0.00000000000E+00 0. -1.
</event>
<event>
 7    1  0.1620881E-005  0.9025915E+02  0.7561462E-02  0.1302225E+00
          1   -1    0    0  501    0  0.00000000000E+00  0.00000000000E+00  0.17286670582E+03  0.17286670582E+03  0.00000000000E+00 0. -1.
         -1   -1    0    0    0  501 -0.00000000000E+00 -0.00000000000E+00 -0.10636640670E+03  0.10636640670E+03  0.00000000000E+00 0.  1.
         23    2    1    2    0    0  0.53214453479E+02  0.17680636070E+02 -0.24166996037E+02  0.13919982878E+03  0.12509262841E+03 0.  0.
          5    1    3    3  502    0  0.44947910085E+02 -0.15824822250E+02  0.42516759763E+02  0.63999116252E+02  0.41800000000E+01 0. -1.
         -5    1    3    3    0  502  0.82665433935E+01  0.33505458320E+02 -0.66683755800E+02  0.75200712527E+02  0.41800000000E+01 0. -1.
        -11    1    1    2    0    0 -0.19155751712E+02  0.32232199261E+02  0.63583245740E+02  0.73815219513E+02  0.00000000000E+00 0.  1.
         11    1    1    2    0    0 -0.34058701766E+02 -0.49912835331E+02  0.27084049426E+02  0.66218064228E+02  0.00000000000E+00 0. -1.
</event>
<event>
 7    1  0.1620881E-005  0.1053078E+03  0.7561462E-02  0.1269514E+00
          2   -1    0    0  501    0  0.00000000000E+00  0.00000000000E+00  0.73441769392E+03  0.73441769392E+03  0.00000000000E+00 0.  1.
         -2   -1    0    0    0  501 -0.00000000000E+00 -0.00000000000E+00 -0.22242509401E+02  0.22242509401E+02  0.00000000000E+00 0. -1.
         23    2    1    2    0    0  0.47095505873E+02 -0.49959318364E+02  0.35227242445E+03  0.38007484314E+03  0.12508838952E+03 0.  0.
          5    1    3    3  502    0 -0.31724789789E+02 -0.33379800352E+01  0.26595636701E+02  0.41742121285E+02  0.41800000000E+01 0. -1.
         -5    1    3    3    0  502  0.78820295662E+02 -0.46621338329E+02  0.32567678775E+03  0.33833272185E+03  0.41800000000E+01 0. -1.
        -11    1    1    2    0    0  0.43683851354E+01  0.31950321809E+02  0.36866748016E+02  0.48980230314E+02  0.00000000000E+00 0. -1.
         11    1    1    2    0    0 -0.51463891008E+02  0.18008996555E+02  0.32303601205E+03  0.32760512987E+03  0.00000000000E+00 0.  1.
</event>
<event>
 7    1  0.1620881E-005  0.1483776E+03  0.7561462E-02  0.1202481E+00
          1   -1    0    0  501    0  0.00000000000E+00  0.00000000000E+00  0.24268857769E+03  0.24268857769E+03  0.00000000000E+00 0. -1.
         -1   -1    0    0    0  501 -0.00000000000E+00 -0.00000000000E+00 -0.10417692716E+03  0.10417692716E+03  0.00000000000E+00 0.  1.
         23    2    1    2    0    0  0.10144532143E+03 -0.53279233686E+02  0.53790610399E+02  0.17797517773E+03  0.12510757028E+03 0.  0.
          5    1    3    3  502    0  0.12093673309E+03 -0.41741030669E+02  0.98752938232E+01  0.12838613975E+03  0.41800000000E+01 0. -1.
         -5    1    3    3    0  502 -0.19491411669E+02 -0.11538203017E+02  0.43915316575E+02  0.49589037979E+02  0.41800000000E+01 0. -1.
        -11    1    1    2    0    0 -0.60399145562E+00  0.44488513478E+02  0.20293233639E+02  0.48902024177E+02  0.00000000000E+00 0.  1.
         11    1    1    2    0    0 -0.10084132997E+03  0.87907202084E+01  0.64427806493E+02  0.11998830294E+03  0.00000000000E+00 0. -1.
</event>
<event>
 7    1  0.1620881E-005  0.1536514E+03  0.7561462E-02  0.1196057E+00
          1   -1    0    0  501    0  0.00000000000E+00  0.00000000000E+00  0.36915192094E+03  0.36915192094E+03  0.00000000000E+00 0. -1.
         -1   -1    0    0    0  501 -0.00000000000E+00 -0.00000000000E+00 -0.81123736690E+02  0.81123736690E+02  0.00000000000E+00 0.  1.
         23    2    1    2    0    0 -0.12539761196E+03 -0.35417483865E+02  0.11027347770E+03  0.21162909441E+03  0.12509066499E+03 0.  0.
          5    1    3    3  502    0  0.13802657385E+02  0.17989130331E+02  0.41301850143E+02  0.47301557968E+02  0.41800000000E+01 0.  1.
         -5    1    3    3    0  502 -0.13920026935E+03 -0.53406614196E+02  0.68971627558E+02  0.16432753644E+03  0.41800000000E+01 0.  1.
        -11    1    1    2    0    0  0.97331832141E+02  0.11107248224E+02  0.59310901030E+02  0.11451916648E+03  0.00000000000E+00 0.  1.
         11    1    1    2    0    0  0.28065779821E+02  0.24310235641E+02  0.11844380552E+03  0.12412739673E+03  0.00000000000E+00 0. -1.
</event>
<event>
 7    1  0.1620881E-005  0.1918687E+03  0.7561462E-02  0.1156787E+00
          1   -1    0    0  501    0  0.00000000000E+00  0.00000000000E+00  0.50840885046E+03  0.50840885046E+03  0.00000000000E+00 0. -1.
         -1   -1    0    0    0  501 -0.00000000000E+00 -0.00000000000E+00 -0.11420258596E+03  0.11420258596E+03  0.00000000000E+00 0.  1.
         23    2    1    2    0    0 -0.13240458169E+03  0.12043072653E+03  0.50261820427E+02  0.22407555369E+03  0.12509624305E+03 0.  0.
          5    1    3    3  502    0 -0.43598933466E+02  0.69546436705E+02  0.82731101121E+02  0.11661681418E+03  0.41800000000E+01 0.  1.
         -5    1    3    3    0  502 -0.88805648227E+02  0.50884289821E+02 -0.32469280694E+02  0.10745873951E+03  0.41800000000E+01 0.  1.
        -11    1    1    2    0    0  0.91336656019E+02 -0.12810679427E+03  0.24544715236E+03  0.29154423347E+03  0.00000000000E+00 0.  1.
         11    1    1    2    0    0  0.41067925673E+02  0.76760677482E+01  0.98497291715E+02  0.10699164926E+03  0.00000000000E+00 0. -1.
</event>
<event>
 7    1  0.1620881E-005  0.1126463E+03  0.7561462E-02  0.1255746E+00
          1   -1    0    0  501    0  0.00000000000E+00  0.00000000000E+00  0.54877077985E+03  0.54877077985E+03  0.00000000000E+00 0. -1.
         -1   -1    0    0    0  501 -0.00000000000E+00 -0.00000000000E+00 -0.39102178607E+02  0.39102178607E+02  0.00000000000E+00 0.  1.
         23    2    1    2    0    0 -0.43805937574E+02  0.72805334594E+02  0.17811260754E+03  0.23365027708E+03  0.12509506027E+03 0.  0.
          5    1    3    3  502    0 -0.62562441091E+02  0.72896409983E+02  0.58600400650E+02  0.11260295280E+03  0.41800000000E+01 0. -1.
         -5    1    3    3    0  502  0.18756503517E+02 -0.91075389199E-01  0.11951220689E+03  0.12104732427E+03  0.41800000000E+01 0. -1.
        -11    1    1    2    0    0 -0.12976228722E+02 -0.44739182581E+02  0.63316280810E+02  0.78606159971E+02  0.00000000000E+00 0.  1.
         11    1    1    2    0    0  0.56782166297E+02 -0.28066152013E+02  0.26823971290E+03  0.27561652141E+03  0.00000000000E+00 0. -1.
</event>
<event>
 7    1  0.2679703E-005  0.1039322E+03  0.7561462E-02  0.1272238E+00
          1   -1    0    0  501    0  0.00000000000E+00  0.00000000000E+00  0.57415425466E+03  0.57415425466E+03  0.00000000000E+00 0. -1.
         -1   -1    0    0    0  501 -0.00000000000E+00 -0.00000000000E+00 -0.37176910559E+02  0.37176910559E+02  0.00000000000E+00 0.  1.
         23    2    1    2    0    0  0.61830429765E+02  0.59598413513E+02  0.19393447680E+03  0.24623764821E+03  0.12508966850E+03 0.  0.
          5    1    3    3  502    0  0.14474024203E+02  0.19079408815E+02 -0.14729537620E+02  0.28424512236E+02  0.41800000000E+01 0. -1.
         -5    1    3    3    0  502  0.47356405563E+02  0.40519004698E+02  0.20866401442E+03  0.21781313597E+03  0.41800000000E+01 0. -1.
        -11    1    1    2    0    0 -0.80763293489E+02 -0.30411871572E+02  0.19896131477E+03  0.21687138189E+03  0.00000000000E+00 0.  1.
         11    1    1    2    0    0  0.18932863723E+02 -0.29186541941E+02  0.14408155253E+03  0.14822213511E+03  0.00000000000E+00 0. -1.
</event>
<event>
 7    1  0.1620881E-005  0.1014373E+03  0.7561462E-02  0.1277302E+00
          2   -1    0    0  501    0  0.00000000000E+00  0.00000000000E+00  0.56419018888E+03  0.56419018888E+03  0.00000000000E+00 0. -1.
         -2   -1    0    0    0  501 -0.00000000000E+00 -0.00000000000E+00 -0.21611837788E+02  0.21611837788E+02  0.00000000000E+00 0.  1.
         23    2    1    2    0    0 -0.16419375336E+02  0.15714729942E+02  0.22413410969E+03  0.25768304818E+03  0.12509158873E+03 0.  0.
          5    1    3    3  502    0 -0.11295527009E+02 -0.53233299075E+02  0.70504996664E+02  0.89161651036E+02  0.41800000000E+01 0.  1.
         -5    1    3    3    0  502 -0.51238483272E+01  0.68948029017E+02  0.15362911303E+03  0.16852139715E+03  0.41800000000E+01 0.  1.
        -11    1    1    2    0    0 -0.18404335335E+02  0.21340759788E+02  0.10753488010E+03  0.11116608307E+03  0.00000000000E+00 0.  1.
         11    1    1    2    0    0  0.34823710672E+02 -0.37055489731E+02  0.21090936130E+03  0.21695289541E+03  0.00000000000E+00 0. -1.
</event>
<event>
 7    1  0.1620881E-005  0.1256819E+03  0.7561462E-02  0.1234007E+00
          2   -1    0    0  501    0  0.00000000000E+00  0.00000000000E+00  0.26800777772E+03  0.26800777772E+03  0.00000000000E+00 0. -1.
         -2   -1    0    0    0  501 -0.00000000000E+00 -0.00000000000E+00 -0.11521988592E+03  0.11521988592E+03  0.00000000000E+00 0.  1.
         23    2    1    2    0    0 -0.26688374352E+02 -0.69157819303E+02 -0.44307634544E+02  0.15200098621E+03  0.12508421177E+03 0.  0.
          5    1    3    3  502    0 -0.59159951385E+02 -0.35849900010E+01  0.10689167525E+02  0.60369551130E+02  0.41800000000E+01 0.  1.
         -5    1    3    3    0  502  0.32471577034E+02 -0.65572829302E+02 -0.54996802070E+02  0.91631435084E+02  0.41800000000E+01 0.  1.
        -11    1    1    2    0    0  0.97792955026E+01  0.90725283542E+02  0.16848072473E+03  0.19160497462E+03  0.00000000000E+00 0. -1.
         11    1    1    2    0    0  0.16909078849E+02 -0.21567464239E+02  0.28614801612E+02  0.39621702797E+02  0.00000000000E+00 0.  1.
</event>
<event>
 7    1  0.1620881E-005  0.1753837E+03  0.7561462E-02  0.1172347E+00
          2   -1    0    0  501    0  0.00000000000E+00  0.00000000000E+00  0.81470829978E+03  0.81470829978E+03  0.00000000000E+00 0. -1.
         -2   -1    0    0    0  501 -0.00000000000E+00 -0.00000000000E+00 -0.56815432251E+02  0.56815432251E+02  0.00000000000E+00 0.  1.
         23    2    1    2    0    0  0.69604100269E+02 -0.15261151208E+03  0.23362575063E+03  0.31363279742E+03  0.12509810496E+03 0.  0.
          5    1    3    3  502    0 -0.15529005770E+01 -0.71141209487E+02  0.19820196224E+02  0.73985105026E+02  0.41800000000E+01 0. -1.
         -5    1    3    3    0  502  0.71157000846E+02 -0.81470302593E+02  0.21380555440E+03  0.23964769239E+03  0.41800000000E+01 0. -1.
        -11    1    1    2    0    0 -0.42931720581E+02  0.53486811059E+02  0.99174973512E+02  0.12058045845E+03  0.00000000000E+00 0.  1.
         11    1    1    2    0    0 -0.26672379688E+02  0.99124701021E+02  0.42509214339E+03  0.43731047616E+03  0.00000000000E+00 0. -1.
</event>
<event>
 7    1  0.1620881E-005  0.1310913E+03  0.7561462E-02  0.1225845E+00
         -1   -1    0    0    0  501 -0.00000000000E+00  0.00000000000E+00  0.32005863037E+02  0.32005863037E+02  0.00000000000E+00 0.  1.
          1   -1    0    0  501    0  0.00000000000E+00 -0.00000000000E+00 -0.54155818381E+03  0.54155818381E+03  0.00000000000E+00 0. -1.
         23    2    1    2    0    0 -0.74325144164E+02  0.10500446981E+02 -0.25879944107E+03  0.29709250310E+03  0.12510922530E+03 0.  0.
          5    1    3    3  502    0 -0.90155506159E+02 -0.35452794246E+02 -0.17846992804E+03  0.20311056971E+03  0.41800000000E+01 0. -1.
         -5    1    3    3    0  502  0.15830361995E+02  0.45953241228E+02 -0.80329513028E+02  0.93981933389E+02  0.41800000000E+01 0. -1.
        -11    1    1    2    0    0 -0.16225358077E+02  0.15276933140E+02 -0.49545980150E+02  0.54327259087E+02  0.00000000000E+00 0.  1.
         11    1    1    2    0    0  0.90550502242E+02 -0.25777380122E+02 -0.20120689955E+03  0.22214428467E+03  0.00000000000E+00 0. -1.
</event>
<event>
 7    1  0.1620881E-005  0.1199302E+03  0.7561462E-02  0.1243212E+00
          2   -1    0    0  501    0  0.00000000000E+00  0.00000000000E+00  0.23813386775E+03  0.23813386775E+03  0.00000000000E+00 0. -1.
         -2   -1    0    0    0  501 -0.00000000000E+00 -0.00000000000E+00 -0.79456949353E+02  0.79456949353E+02  0.00000000000E+00 0.  1.
         23    2    1    2    0    0 -0.20952663612E+01 -0.82032057922E+02  0.87603571659E+02  0.17336469665E+03  0.12508910268E+03 0.  0.
          5    1    3    3  502    0 -0.34606008320E+02 -0.80368713446E+01  0.85193015885E+02  0.92398536073E+02  0.41800000000E+01 0. -1.
         -5    1    3    3    0  502  0.32510741959E+02 -0.73995186577E+02  0.24105557740E+01  0.80966160576E+02  0.41800000000E+01 0. -1.
        -11    1    1    2    0    0 -0.44882511580E+02  0.40458884767E+02  0.21037712257E+02  0.63983955327E+02  0.00000000000E+00 0.  1.
         11    1    1    2    0    0  0.46977777941E+02  0.41573173155E+02  0.50035634485E+02  0.80242165130E+02  0.00000000000E+00 0. -1.
</event>
<event>
 7    1  0.1620881E-005  0.9227716E+02  0.7561462E-02  0.1297429E+00
          3   -1    0    0  501    0  0.00000000000E+00  0.00000000000E+00  0.19489760749E+03  0.19489760749E+03  0.00000000000E+00 0.  1.
         -3   -1    0    0    0  501 -0.00000000000E+00 -0.00000000000E+00 -0.13191394493E+03  0.13191394493E+03  0.00000000000E+00 0. -1.
         23    2    1    2    0    0  0.27359477197E+02  0.68880376183E+02 -0.59847604273E+02  0.15723822498E+03  0.12509626869E+03 0.  0.
          5    1    3    3  502    0  0.71446832803E+00  0.50294836288E+02  0.31974614972E+02  0.59748886390E+02  0.41800000000E+01 0. -1.
         -5    1    3    3    0  502  0.26645008869E+02  0.18585539895E+02 -0.91822219245E+02  0.97489338586E+02  0.41800000000E+01 0. -1.
        -11    1    1    2    0    0 -0.50832920563E+02 -0.47795499541E+02  0.38850709803E+02  0.79860961937E+02  0.00000000000E+00 0. -1.
         11    1    1    2    0    0  0.23473443366E+02 -0.21084876642E+02  0.83980557033E+02  0.89712365513E+02  0.00000000000E+00 0.  1.
</event>
<event>
 7    1  0.1620881E-005  0.2448923E+03  0.7561462E-02  0.1116576E+00
         -2   -1    0    0    0  501 -0.00000000000E+00  0.00000000000E+00  0.28532889734E+03  0.28532889734E+03  0.00000000000E+00 0.  1.
          2   -1    0    0  501    0  0.00000000000E+00 -0.00000000000E+00 -0.22469790124E+03  0.22469790124E+03  0.00000000000E+00 0. -1.
         23    2    1    2    0    0 -0.19904134342E+03 -0.10977491453E+03  0.39184650545E+02  0.26238726668E+03  0.12507458826E+03 0.  0.
          5    1    3    3  502    0 -0.60177285093E+02 -0.96793021485E+02  0.45307121705E+02  0.12272083086E+03  0.41800000000E+01 0.  1.
         -5    1    3    3    0  502 -0.13886405833E+03 -0.12981893042E+02 -0.61224711599E+01  0.13966643582E+03  0.41800000000E+01 0.  1.
        -11    1    1    2    0    0  0.36771169817E+02 -0.54635528302E+01  0.30970534782E+02  0.48385363117E+02  0.00000000000E+00 0.  1.
         11    1    1    2    0    0  0.16227017360E+03  0.11523846736E+03 -0.95241892287E+01  0.19925416879E+03  0.00000000000E+00 0. -1.
</event>
<event>
 7    1  0.1620881E-005  0.1372459E+03  0.7561462E-02  0.1217084E+00
          2   -1    0    0  501    0  0.00000000000E+00  0.00000000000E+00  0.17770497632E+03  0.17770497632E+03  0.00000000000E+00 0. -1.
         -2   -1    0    0    0  501 -0.00000000000E+00 -0.00000000000E+00 -0.11027899719E+03  0.11027899719E+03  0.00000000000E+00 0.  1.
         23    2    1    2    0    0 -0.66780282785E+02  0.48413637590E+02  0.15642780914E+02  0.15065059864E+03  0.12508964707E+03 0.  0.
          5    1    3    3  502    0 -0.17434464063E+02  0.84701925988E+02 -0.25528753653E+01  0.86616201578E+02  0.41800000000E+01 0. -1.
         -5    1    3    3    0  502 -0.49345818722E+02 -0.36288288398E+02  0.18195656280E+02  0.64034397066E+02  0.41800000000E+01 0. -1.
        -11    1    1    2    0    0 -0.65091880401E+01  0.23172192524E+02  0.44452164917E+01  0.24476110496E+02  0.00000000000E+00 0. -1.
         11    1    1    2    0    0  0.73289470825E+02 -0.71585830114E+02  0.47337981720E+02  0.11285726437E+03  0.00000000000E+00 0.  1.
</event>
<event>
 7    1  0.1620881E-005  0.1113088E+03  0.7561462E-02  0.1258165E+00
          4   -1    0    0  501    0  0.00000000000E+00  0.00000000000E+00  0.52390008207E+03  0.52390008207E+03  0.00000000000E+00 0. -1.
         -4   -1    0    0    0  501 -0.00000000000E+00 -0.00000000000E+00 -0.59778909277E+02  0.59778909277E+02  0.00000000000E+00 0.  1.
         23    2    1    2    0    0  0.67253955561E+02  0.20082806619E+02  0.46780849099E+02  0.15086959125E+03  0.12508705793E+03 0.  0.
          5    1    3    3  502    0  0.52111086380E+02  0.57006684607E+02 -0.13437001159E+02  0.78507023978E+02  0.41800000000E+01 0. -1.
         -5    1    3    3    0  502  0.15142869181E+02 -0.36923877989E+02  0.60217850258E+02  0.72362567274E+02  0.41800000000E+01 0. -1.
        -11    1    1    2    0    0 -0.36054681772E+02  0.29483206897E+02  0.27458387740E+03  0.27850584427E+03  0.00000000000E+00 0. -1.
         11    1    1    2    0    0 -0.31199273789E+02 -0.49566013516E+02  0.14275644630E+03  0.15430355582E+03  0.00000000000E+00 0.  1.
</event>
