<event>
 8    1  0.6860461E-009  0.9734452E+02  0.7561462E-02  0.1285981E+00
         -2   -1    0    0    0  501 -0.00000000000E+00  0.00000000000E+00  0.77892966263E+02  0.77892966263E+02  0.00000000000E+00 0.  1.
          2   -1    0    0  501    0  0.00000000000E+00 -0.00000000000E+00 -0.24948833257E+03  0.24948833257E+03  0.00000000000E+00 0. -1.
         25    2    1    2    0    0  0.63794078470E+02 -0.33569052864E+02 -0.15150402913E+03  0.20927795981E+03  0.12508887984E+03 0.  0.
         23    2    1    2    0    0 -0.63794078470E+02  0.33569052864E+02 -0.20091337173E+02  0.11810333902E+03  0.91368326574E+02 0.  0.
          5    1    3    3  502    0  0.51290810899E+02  0.44947643978E+01 -0.15998045343E+03  0.16811355706E+03  0.41800000000E+01 0. -1.
         -5    1    3    3    0  502  0.12503267571E+02 -0.38063817262E+02  0.84764242947E+01  0.41164402745E+02  0.41800000000E+01 0. -1.
        -11    1    4    4    0    0  0.14510364690E+02  0.17641105149E+02 -0.29866047305E+02  0.37599734786E+02  0.00000000000E+00 0. -1.
         11    1    4    4    0    0 -0.78304443160E+02  0.15927947716E+02  0.97747101323E+01  0.80503604237E+02  0.00000000000E+00 0.  1.
</event>
<event>
 8    1  0.6860461E-009  0.9501672E+02  0.7561462E-02  0.1291138E+00
         -2   -1    0    0    0  501 -0.00000000000E+00  0.00000000000E+00  0.15549879610E+03  0.15549879610E+03  0.00000000000E+00 0. -1.
          2   -1    0    0  501    0  0.00000000000E+00 -0.00000000000E+00 -0.77476723819E+02  0.77476723819E+02  0.00000000000E+00 0.  1.
         25    2    1    2    0    0  0.14815611569E+02  0.18460929907E+02  0.61730320110E+02  0.14148727510E+03  0.12509080028E+03 0.  0.
         23    2    1    2    0    0 -0.14815611569E+02 -0.18460929907E+02  0.16291752174E+02  0.91488244824E+02  0.86858329899E+02 0.  0.
          5    1    3    3  502    0 -0.44638024975E+02  0.43206515858E+02  0.36661807150E+02  0.72255911798E+02  0.41800000000E+01 0. -1.
         -5    1    3    3    0  502  0.59453636545E+02 -0.24745585951E+02  0.25068512960E+02  0.69231363301E+02  0.41800000000E+01 0. -1.
        -11    1    4    4    0    0  0.19520690023E+02 -0.21165844031E+02  0.40281669881E+02  0.49514272901E+02  0.00000000000E+00 0. -1.
         11    1    4    4    0    0 -0.34336301592E+02  0.27049141234E+01 -0.23989917707E+02  0.41973971923E+02  0.00000000000E+00 0.  1.
</event>
<event>
 8    1  0.6860461E-009  0.9982035E+02  0.7561462E-02  0.1280674E+00
         -2   -1    0    0    0  501 -0.00000000000E+00  0.00000000000E+00  0.48061011758E+02  0.48061011758E+02  0.00000000000E+00 0.  1.
          2   -1    0    0  501    0  0.00000000000E+00 -0.00000000000E+00 -0.25577241062E+03  0.25577241062E+03  0.00000000000E+00 0. -1.
         25    2    1    2    0    0 -0.83645533375E+01 -0.23609384820E+02 -0.12756972800E+03  0.18041279101E+03  0.12508945141E+03 0.  0.
         23    2    1    2    0    0  0.83645533375E+01  0.23609384820E+02 -0.80141670866E+02  0.12342063137E+03  0.90457703010E+02 0.  0.
          5    1    3    3  502    0  0.39520606205E+02 -0.51783839505E+02 -0.39800085616E+02  0.76452361400E+02  0.41800000000E+01 0.  1.
         -5    1    3    3    0  502 -0.47885159542E+02  0.28174454685E+02 -0.87769642381E+02  0.10396042961E+03  0.41800000000E+01 0.  1.
        -11    1    4    4    0    0  0.25017051634E+01  0.50785852705E+02 -0.15665539146E+02  0.53205925238E+02  0.00000000000E+00 0.  1.
         11    1    4    4    0    0  0.58628481742E+01 -0.27176467885E+02 -0.64476131720E+02  0.70214706130E+02  0.00000000000E+00 0. -1.
</event>
<event>
 8    1  0.6860461E-009  0.1101669E+03  0.7561462E-02  0.1260261E+00
         -1   -1    0    0    0  501 -0.00000000000E+00  0.00000000000E+00  0.90369761352E+02  0.90369761352E+02  0.00000000000E+00 0.  1.
          1   -1    0    0  501    0  0.00000000000E+00 -0.00000000000E+00 -0.28359081266E+03  0.28359081266E+03  0.00000000000E+00 0. -1.
         25    2    1    2    0    0  0.95500966637E+02  0.27390756740E+02 -0.17664304049E+03  0.23816302384E+03  0.12509266162E+03 0.  0.
         23    2    1    2    0    0 -0.95500966637E+02 -0.27390756740E+02 -0.16578010819E+02  0.13579755016E+03  0.91079393961E+02 0.  0.
          5    1    3    3  502    0  0.86569507872E+02  0.32549399137E+01 -0.19000623864E+03  0.20886530935E+03  0.41800000000E+01 0.  1.
         -5    1    3    3    0  502  0.89314587643E+01  0.24135816826E+02  0.13363198158E+02  0.29297714493E+02  0.41800000000E+01 0.  1.
        -11    1    4    4    0    0 -0.29994498045E+01 -0.13695138999E+02 -0.37448604622E+02  0.39986891846E+02  0.00000000000E+00 0. -1.
         11    1    4    4    0    0 -0.92501516832E+02 -0.13695617741E+02  0.20870593803E+02  0.95810658318E+02  0.00000000000E+00 0.  1.
</event>
<event>
 8    1  0.6860461E-009  0.1074009E+03  0.7561462E-02  0.1265460E+00
         -2   -1    0    0    0  501 -0.00000000000E+00  0.00000000000E+00  0.24076742860E+02  0.24076742860E+02  0.00000000000E+00 0.  1.
          2   -1    0    0  501    0  0.00000000000E+00 -0.00000000000E+00 -0.48475311746E+03  0.48475311746E+03  0.00000000000E+00 0. -1.
         25    2    1    2    0    0  0.20514197326E+02  0.46122333057E+01 -0.26256204847E+03  0.29159378319E+03  0.12508397224E+03 0.  0.
         23    2    1    2    0    0 -0.20514197326E+02 -0.46122333057E+01 -0.19811432613E+03  0.21723607713E+03  0.86603244744E+02 0.  0.
          5    1    3    3  502    0  0.20806030883E+02  0.63822708604E+02 -0.13084020638E+03  0.14711512859E+03  0.41800000000E+01 0.  1.
         -5    1    3    3    0  502 -0.29183355649E+00 -0.59210475299E+02 -0.13172184209E+03  0.14447865460E+03  0.41800000000E+01 0.  1.
        -11    1    4    4    0    0 -0.21144223084E+02 -0.43986904348E+02 -0.12502392988E+03  0.13421217890E+03  0.00000000000E+00 0. -1.
         11    1    4    4    0    0  0.63002575803E+00  0.39374671042E+02 -0.73090396254E+02  0.83023898227E+02  0.00000000000E+00 0.  1.
</event>
<event>
 8    1  0.6860461E-009  0.1134726E+03  0.7561462E-02  0.1254271E+00
         -2   -1    0    0    0  501 -0.00000000000E+00  0.00000000000E+00  0.33958213341E+03  0.33958213341E+03  0.00000000000E+00 0.  1.
          2   -1    0    0  501    0  0.00000000000E+00 -0.00000000000E+00 -0.59671971078E+02  0.59671971078E+02  0.00000000000E+00 0. -1.
         25    2    1    2    0    0  0.84228914461E+02  0.28786581905E+02  0.19738391437E+03  0.25006136740E+03  0.12508837071E+03 0.  0.
         23    2    1    2    0    0 -0.84228914461E+02 -0.28786581905E+02  0.82526247961E+02  0.14919273708E+03  0.86745108602E+02 0.  0.
          5    1    3    3  502    0  0.31631389312E+02 -0.34267734825E+02  0.14548349344E+03  0.15283239743E+03  0.41800000000E+01 0. -1.
         -5    1    3    3    0  502  0.52597525150E+02  0.63054316730E+02  0.51900420929E+02  0.97228969977E+02  0.41800000000E+01 0. -1.
        -11    1    4    4    0    0 -0.63910721593E+02 -0.15559429077E+01  0.44971451951E+01  0.64087640055E+02  0.00000000000E+00 0. -1.
         11    1    4    4    0    0 -0.20318192868E+02 -0.27230638997E+02  0.78029102765E+02  0.85105097027E+02  0.00000000000E+00 0.  1.
</event>
<event>
 8    1  0.6860461E-009  0.7338405E+02  0.7561462E-02  0.1348949E+00
         -1   -1    0    0    0  501 -0.00000000000E+00  0.00000000000E+00  0.80879522956E+02  0.80879522956E+02  0.00000000000E+00 0.  1.
          1   -1    0    0  501    0  0.00000000000E+00 -0.00000000000E+00 -0.15057025500E+03  0.15057025500E+03  0.00000000000E+00 0. -1.
         25    2    1    2    0    0  0.16747947863E+02  0.80190423780E+01 -0.52093859205E+02  0.13677092550E+03  0.12509083539E+03 0.  0.
         23    2    1    2    0    0 -0.16747947863E+02 -0.80190423780E+01 -0.17596872836E+02  0.94678852451E+02  0.91157206898E+02 0.  0.
          5    1    3    3  502    0  0.31183256465E+02  0.17511222579E+02 -0.88890279770E+02  0.95906165796E+02  0.41800000000E+01 0. -1.
         -5    1    3    3    0  502 -0.14435308602E+02 -0.94921802011E+01  0.36796420566E+02  0.40864759706E+02  0.41800000000E+01 0. -1.
        -11    1    4    4    0    0 -0.47447549245E+02  0.19935850926E+02 -0.11173504486E+02  0.52664554342E+02  0.00000000000E+00 0. -1.
         11    1    4    4    0    0  0.30699601382E+02 -0.27954893304E+02 -0.64233683507E+01  0.42014298109E+02  0.00000000000E+00 0.  1.
</event>
<event>
 8    1  0.6860461E-009  0.1474956E+03  0.7561462E-02  0.1203585E+00
         -2   -1    0    0    0  501 -0.00000000000E+00  0.00000000000E+00  0.34532875101E+03  0.34532875101E+03  0.00000000000E+00 0.  1.
          2   -1    0    0  501    0  0.00000000000E+00 -0.00000000000E+00 -0.78818260479E+02  0.78818260479E+02  0.00000000000E+00 0. -1.
         25    2    1    2    0    0 -0.23950983814E+02 -0.12184731961E+03  0.13758060825E+03  0.22359966673E+03  0.12509183935E+03 0.  0.
         23    2    1    2    0    0  0.23950983814E+02  0.12184731961E+03  0.12892988228E+03  0.20054734476E+03  0.90420705721E+02 0.  0.
          5    1    3    3  502    0 -0.25719407741E+02 -0.14449948711E+03  0.13649102189E+03  0.20047159690E+03  0.41800000000E+01 0. -1.
         -5    1    3    3    0  502  0.17684239262E+01  0.22652167494E+02  0.10895863604E+01  0.23128069824E+02  0.41800000000E+01 0. -1.
        -11    1    4    4    0    0  0.37147689939E+01  0.57148833071E+02  0.27797994657E+01  0.57336863492E+02  0.00000000000E+00 0. -1.
         11    1    4    4    0    0  0.20236214820E+02  0.64698486542E+02  0.12615008281E+03  0.14321048127E+03  0.00000000000E+00 0.  1.
</event>
<event>
 8    1  0.6860461E-009  0.3601475E+03  0.7561462E-02  0.1058525E+00
          1   -1    0    0  501    0  0.00000000000E+00  0.00000000000E+00  0.99495952325E+03  0.99495952325E+03  0.00000000000E+00 0. -1.
         -1   -1    0    0    0  501 -0.00000000000E+00 -0.00000000000E+00 -0.16872317238E+03  0.16872317238E+03  0.00000000000E+00 0.  1.
         25    2    1    2    0    0  0.54121388346E+02  0.35562058817E+03  0.64845287278E+03  0.75201912669E+03  0.12508601553E+03 0.  0.
         23    2    1    2    0    0 -0.54121388346E+02 -0.35562058817E+03  0.17778347809E+03  0.41166356894E+03  0.92004355892E+02 0.  0.
          5    1    3    3  502    0  0.43788606731E+02  0.27315387856E+03  0.37391035410E+03  0.46514181574E+03  0.41800000000E+01 0. -1.
         -5    1    3    3    0  502  0.10332781615E+02  0.82466709605E+02  0.27454251868E+03  0.28687731094E+03  0.41800000000E+01 0. -1.
        -11    1    4    4    0    0 -0.11252241440E+02 -0.31246178972E+02  0.50798151163E+02  0.60690928477E+02  0.00000000000E+00 0.  1.
         11    1    4    4    0    0 -0.42869146906E+02 -0.32437440919E+03  0.12698532693E+03  0.35097264046E+03  0.00000000000E+00 0. -1.
</event>
<event>
 8    1  0.6860461E-009  0.1178702E+03  0.7561462E-02  0.1246653E+00
         -1   -1    0    0    0  501 -0.00000000000E+00  0.00000000000E+00  0.42082162953E+03  0.42082162953E+03  0.00000000000E+00 0.  1.
          1   -1    0    0  501    0  0.00000000000E+00 -0.00000000000E+00 -0.40717883288E+02  0.40717883288E+02  0.00000000000E+00 0. -1.
         25    2    1    2    0    0 -0.86441552813E+01  0.64758198161E+02  0.26690128307E+03  0.30191835358E+03  0.12510016658E+03 0.  0.
         23    2    1    2    0    0  0.86441552813E+01 -0.64758198161E+02  0.11320246318E+03  0.15962115924E+03  0.91628440765E+02 0.  0.
          5    1    3    3  502    0  0.51864149927E+02  0.47666021219E+02  0.18885989114E+03  0.20161217847E+03  0.41800000000E+01 0. -1.
         -5    1    3    3    0  502 -0.60508305208E+02  0.17092176942E+02  0.78041391926E+02  0.10030617511E+03  0.41800000000E+01 0. -1.
        -11    1    4    4    0    0  0.26375521292E+02  0.77701402565E+01  0.46755429301E+01  0.27890928717E+02  0.00000000000E+00 0.  1.
         11    1    4    4    0    0 -0.17731366011E+02 -0.72528338417E+02  0.10852692025E+03  0.13173023052E+03  0.00000000000E+00 0. -1.
</event>
<event>
 8    1  0.6860461E-009  0.7903426E+02  0.7561462E-02  0.1331815E+00
         -2   -1    0    0    0  501 -0.00000000000E+00  0.00000000000E+00  0.22110499926E+02  0.22110499926E+02  0.00000000000E+00 0.  1.
          2   -1    0    0  501    0  0.00000000000E+00 -0.00000000000E+00 -0.62701341811E+03  0.62701341811E+03  0.00000000000E+00 0. -1.
         25    2    1    2    0    0  0.34298069704E+02  0.22211829313E+02 -0.38167827370E+03  0.40372822538E+03  0.12509377446E+03 0.  0.
         23    2    1    2    0    0 -0.34298069704E+02 -0.22211829313E+02 -0.22322464449E+03  0.24539569266E+03  0.93381374596E+02 0.  0.
          5    1    3    3  502    0 -0.17362497730E+02 -0.68910099834E+01 -0.31008486393E+03  0.31067513191E+03  0.41800000000E+01 0. -1.
         -5    1    3    3    0  502  0.51660567435E+02  0.29102839296E+02 -0.71593409762E+02  0.93053093469E+02  0.41800000000E+01 0. -1.
        -11    1    4    4    0    0  0.63944807921E+01 -0.35966848096E+02 -0.29467696512E+02  0.46934514851E+02  0.00000000000E+00 0.  1.
         11    1    4    4    0    0 -0.40692550497E+02  0.13755018783E+02 -0.19375694798E+03  0.19846117781E+03  0.00000000000E+00 0. -1.
</event>
<event>
 8    1  0.6860461E-009  0.1080634E+03  0.7561462E-02  0.1264199E+00
          2   -1    0    0  501    0  0.00000000000E+00  0.00000000000E+00  0.74365749352E+02  0.74365749352E+02  0.00000000000E+00 0. -1.
         -2   -1    0    0    0  501 -0.00000000000E+00 -0.00000000000E+00 -0.17394167567E+03  0.17394167567E+03  0.00000000000E+00 0.  1.
         25    2    1    2    0    0  0.48610269012E+01  0.24333330839E+02 -0.32255329934E+02  0.13154842092E+03  0.12509532431E+03 0.  0.
         23    2    1    2    0    0 -0.48610269012E+01 -0.24333330839E+02 -0.67320596388E+02  0.11675900411E+03  0.92113309410E+02 0.  0.
          5    1    3    3  502    0 -0.27701144853E+02  0.67302785816E+02 -0.24570053499E+02  0.76929697346E+02  0.41800000000E+01 0. -1.
         -5    1    3    3    0  502  0.32562171754E+02 -0.42969454978E+02 -0.76852764353E+01  0.54618723569E+02  0.41800000000E+01 0. -1.
        -11    1    4    4    0    0  0.33817193136E+02  0.12196331016E+02 -0.75370312830E+01  0.36730911810E+02  0.00000000000E+00 0. -1.
         11    1    4    4    0    0 -0.38678220037E+02 -0.36529661855E+02 -0.59783565105E+02  0.80028092300E+02  0.00000000000E+00 0.  1.
</event>
<event>
 8    1  0.6860461E-009  0.8975799E+02  0.7561462E-02  0.1303439E+00
          1   -1    0    0  501    0  0.00000000000E+00  0.00000000000E+00  0.42413209263E+03  0.42413209263E+03  0.00000000000E+00 0. -1.
         -1   -1    0    0    0  501 -0.00000000000E+00 -0.00000000000E+00 -0.28577229065E+02  0.28577229065E+02  0.00000000000E+00 0.  1.
         25    2    1    2    0    0 -0.19743003153E+02 -0.80483614188E+01  0.19644205681E+03  0.23386226101E+03  0.12509002017E+03 0.  0.
         23    2    1    2    0    0  0.19743003153E+02  0.80483614188E+01  0.19911280676E+03  0.21884706069E+03  0.88281163679E+02 0.  0.
          5    1    3    3  502    0  0.33488781090E+01  0.37307975600E+02  0.17407934782E+03  0.17811286244E+03  0.41800000000E+01 0. -1.
         -5    1    3    3    0  502 -0.23091881262E+02 -0.45356337019E+02  0.22362708986E+02  0.55749398573E+02  0.41800000000E+01 0. -1.
        -11    1    4    4    0    0 -0.30198837534E+02 -0.17245397840E+02  0.72416132105E+02  0.80333490675E+02  0.00000000000E+00 0. -1.
         11    1    4    4    0    0  0.49941840688E+02  0.25293759259E+02  0.12669667466E+03  0.13851357002E+03  0.00000000000E+00 0.  1.
</event>
<event>
 8    1  0.6860461E-009  0.1237506E+03  0.7561462E-02  0.1237035E+00
          2   -1    0    0  501    0  0.00000000000E+00  0.00000000000E+00  0.81581287566E+03  0.81581287566E+03  0.00000000000E+00 0. -1.
         -2   -1    0    0    0  501 -0.00000000000E+00 -0.00000000000E+00 -0.19208591167E+02  0.19208591167E+02  0.00000000000E+00 0.  1.
         25    2    1    2    0    0  0.25239821829E+02 -0.55297666885E+02  0.41857183735E+03  0.44107241364E+03  0.12509040926E+03 0.  0.
         23    2    1    2    0    0 -0.25239821829E+02  0.55297666885E+02  0.37803244715E+03  0.39394905319E+03  0.92695441310E+02 0.  0.
          5    1    3    3  502    0  0.72974960904E+02 -0.50125793309E+02  0.30695383352E+03  0.31949345593E+03  0.41800000000E+01 0.  1.
         -5    1    3    3    0  502 -0.47735139075E+02 -0.51718735758E+01  0.11161800383E+03  0.12157895771E+03  0.41800000000E+01 0.  1.
        -11    1    4    4    0    0 -0.55677367013E+02  0.10725404484E+02  0.20468195750E+03  0.21239045935E+03  0.00000000000E+00 0. -1.
         11    1    4    4    0    0  0.30437545184E+02  0.44572262400E+02  0.17335048965E+03  0.18155859383E+03  0.00000000000E+00 0.  1.
</event>
<event>
 8    1  0.6860461E-009  0.9532042E+02  0.7561462E-02  0.1290456E+00
          1   -1    0    0  501    0  0.00000000000E+00  0.00000000000E+00  0.58313438034E+03  0.58313438034E+03  0.00000000000E+00 0. -1.
         -1   -1    0    0    0  501 -0.00000000000E+00 -0.00000000000E+00 -0.20170153961E+02  0.20170153961E+02  0.00000000000E+00 0.  1.
         25    2    1    2    0    0  0.45341323225E+01 -0.74494749785E+01  0.31492531274E+03  0.33897108266E+03  0.12508952492E+03 0.  0.
         23    2    1    2    0    0 -0.45341323225E+01  0.74494749785E+01  0.24803891364E+03  0.26433345164E+03  0.90955032524E+02 0.  0.
          5    1    3    3  502    0  0.31409956748E+02 -0.43703618150E+02  0.62835271096E+02  0.82839213638E+02  0.41800000000E+01 0.  1.
         -5    1    3    3    0  502 -0.26875824426E+02  0.36254143171E+02  0.25209004164E+03  0.25613186903E+03  0.41800000000E+01 0.  1.
        -11    1    4    4    0    0 -0.44112591389E+02  0.21839521648E+02  0.13736737987E+03  0.14592012362E+03  0.00000000000E+00 0.  1.
         11    1    4    4    0    0  0.39578459066E+02 -0.14390046670E+02  0.11067153377E+03  0.11841332802E+03  0.00000000000E+00 0. -1.
</event>
<event>
 8    1  0.6860461E-009  0.1275312E+03  0.7561462E-02  0.1231166E+00
          2   -1    0    0  501    0  0.00000000000E+00  0.00000000000E+00  0.31906618929E+02  0.31906618929E+02  0.00000000000E+00 0.  1.
         -2   -1    0    0    0  501 -0.00000000000E+00 -0.00000000000E+00 -0.69697085826E+03  0.69697085826E+03  0.00000000000E+00 0. -1.
         25    2    1    2    0    0  0.32430656469E+02  0.95499764147E+02 -0.31918750071E+03  0.35735096032E+03  0.12508835200E+03 0.  0.
         23    2    1    2    0    0 -0.32430656469E+02 -0.95499764147E+02 -0.34587673862E+03  0.37152651686E+03  0.90715389987E+02 0.  0.
          5    1    3    3  502    0  0.70670284704E+02  0.87528873751E+02 -0.17642259485E+03  0.20927971056E+03  0.41800000000E+01 0.  1.
         -5    1    3    3    0  502 -0.38239628235E+02  0.79708903968E+01 -0.14276490586E+03  0.14807124976E+03  0.41800000000E+01 0.  1.
        -11    1    4    4    0    0 -0.17278924964E+02 -0.21080592971E+02 -0.13189011643E+02  0.30280400857E+02  0.00000000000E+00 0.  1.
         11    1    4    4    0    0 -0.15151731505E+02 -0.74419171176E+02 -0.33268772698E+03  0.34124611600E+03  0.00000000000E+00 0. -1.
</event>
<event>
 8    1  0.6860461E-009  0.1091372E+03  0.7561462E-02  0.1262176E+00
         -2   -1    0    0    0  501 -0.00000000000E+00  0.00000000000E+00  0.24063642468E+02  0.24063642468E+02  0.00000000000E+00 0.  1.
          2   -1    0    0  501    0  0.00000000000E+00 -0.00000000000E+00 -0.73758049632E+03  0.73758049632E+03  0.00000000000E+00 0. -1.
         25    2    1    2    0    0 -0.65777435556E+02  0.19886187720E+02 -0.50049638705E+03  0.52044833256E+03  0.12509077474E+03 0.  0.
         23    2    1    2    0    0  0.65777435556E+02 -0.19886187720E+02 -0.21302046680E+03  0.24119580623E+03  0.89864154005E+02 0.  0.
          5    1    3    3  502    0 -0.83809178630E+02 -0.47511831498E+00 -0.17809035890E+03  0.19687014119E+03  0.41800000000E+01 0.  1.
         -5    1    3    3    0  502  0.18031743075E+02  0.20361306035E+02 -0.32240602815E+03  0.32357819137E+03  0.41800000000E+01 0.  1.
        -11    1    4    4    0    0  0.48715561129E+02 -0.51517351632E+02 -0.99904774193E+02  0.12250798881E+03  0.00000000000E+00 0.  1.
         11    1    4    4    0    0  0.17061874427E+02  0.31631163912E+02 -0.11311569261E+03  0.11868781742E+03  0.00000000000E+00 0. -1.
</event>
<event>
 8    1  0.6860461E-009  0.3490470E+02  0.7561462E-02  0.1549448E+00
         -1   -1    0    0    0  501 -0.00000000000E+00  0.00000000000E+00  0.25179682154E+03  0.25179682154E+03  0.00000000000E+00 0.  1.
          1   -1    0    0  501    0  0.00000000000E+00 -0.00000000000E+00 -0.46791003176E+02  0.46791003176E+02  0.00000000000E+00 0. -1.
         25    2    1    2    0    0  0.63689911323E+01  0.11567472391E+02  0.13291817596E+03  0.18300093971E+03  0.12509089482E+03 0.  0.
         23    2    1    2    0    0 -0.63689911323E+01 -0.11567472391E+02  0.72087642410E+02  0.11558688501E+03  0.89383048356E+02 0.  0.
          5    1    3    3  502    0 -0.99395673469E+01 -0.10461389254E+02  0.14979246726E+03  0.15054398464E+03  0.41800000000E+01 0. -1.
         -5    1    3    3    0  502  0.16308558479E+02  0.22028861645E+02 -0.16874291302E+02  0.32456955063E+02  0.41800000000E+01 0. -1.
        -11    1    4    4    0    0  0.25169540693E+01 -0.16639353834E+02  0.91825463107E+02  0.93354800780E+02  0.00000000000E+00 0.  1.
         11    1    4    4    0    0 -0.88859452015E+01  0.50718814429E+01 -0.19737820698E+02  0.22232084234E+02  0.00000000000E+00 0. -1.
</event>
<event>
 8    1  0.6860461E-009  0.1008973E+03  0.7561462E-02  0.1278420E+00
          2   -1    0    0  501    0  0.00000000000E+00  0.00000000000E+00  0.85930335991E+02  0.85930335991E+02  0.00000000000E+00 0. -1.
         -2   -1    0    0    0  501 -0.00000000000E+00 -0.00000000000E+00 -0.14256823626E+03  0.14256823626E+03  0.00000000000E+00 0.  1.
         25    2    1    2    0    0 -0.65477175184E+01 -0.56862254263E+01 -0.21750362614E+01  0.12540859826E+03  0.12508948785E+03 0.  0.
         23    2    1    2    0    0  0.65477175184E+01  0.56862254263E+01 -0.54462864007E+02  0.10308997399E+03  0.87098412259E+02 0.  0.
          5    1    3    3  502    0  0.32874035215E+02  0.48149335444E+02 -0.32761634694E+01  0.58542859019E+02  0.41800000000E+01 0.  1.
         -5    1    3    3    0  502 -0.39421752733E+02 -0.53835560870E+02  0.11011272080E+01  0.66865739238E+02  0.41800000000E+01 0.  1.
        -11    1    4    4    0    0 -0.16577944102E+02 -0.29817281908E+02 -0.37530789321E-01  0.34115977776E+02  0.00000000000E+00 0. -1.
         11    1    4    4    0    0  0.23125661621E+02  0.35503507334E+02 -0.54425333218E+02  0.68973996218E+02  0.00000000000E+00 0.  1.
</event>
<event>
 8    1  0.6860461E-009  0.1530900E+03  0.7561462E-02  0.1196727E+00
         -1   -1    0    0    0  501 -0.00000000000E+00  0.00000000000E+00  0.32540568428E+02  0.32540568428E+02  0.00000000000E+00 0.  1.
          1   -1    0    0  501    0  0.00000000000E+00 -0.00000000000E+00 -0.98543610537E+03  0.98543610537E+03  0.00000000000E+00 0. -1.
         25    2    1    2    0    0  0.68272577821E+02  0.12131754697E+03 -0.58789451418E+03  0.61696515016E+03  0.12508774773E+03 0.  0.
         23    2    1    2    0    0 -0.68272577821E+02 -0.12131754697E+03 -0.36500102277E+03  0.40101152364E+03  0.90583681648E+02 0.  0.
          5    1    3    3  502    0  0.45774361534E+02  0.13950505987E+02 -0.55634946085E+02  0.73502574220E+02  0.41800000000E+01 0. -1.
         -5    1    3    3    0  502  0.22498216287E+02  0.10736704099E+03 -0.53225956809E+03  0.54346257594E+03  0.41800000000E+01 0. -1.
        -11    1    4    4    0    0 -0.57513543791E+02 -0.49901509172E+02 -0.27644067707E+03  0.28673579525E+03  0.00000000000E+00 0. -1.
         11    1    4    4    0    0 -0.10759034029E+02 -0.71416037802E+02 -0.88560345698E+02  0.11427572839E+03  0.00000000000E+00 0.  1.
</event>
<event>
 8    1  0.6860461E-009  0.1047676E+03  0.7561462E-02  0.1270578E+00
          2   -1    0    0  501    0  0.00000000000E+00  0.00000000000E+00  0.19898524592E+03  0.19898524592E+03  0.00000000000E+00 0. -1.
         -2   -1    0    0    0  501 -0.00000000000E+00 -0.00000000000E+00 -0.85480271401E+02  0.85480271401E+02  0.00000000000E+00 0.  1.
         25    2    1    2    0    0  0.47328110754E+02 -0.40058158438E+02  0.10408054318E+03  0.17413782535E+03  0.12508643661E+03 0.  0.
         23    2    1    2    0    0 -0.47328110754E+02  0.40058158438E+02  0.94244313389E+01  0.11032769197E+03  0.90767690202E+02 0.  0.
          5    1    3    3  502    0 -0.22902509428E+02 -0.40369312231E+02 -0.22305879671E+01  0.46654627110E+02  0.41800000000E+01 0. -1.
         -5    1    3    3    0  502  0.70230620182E+02  0.31115379350E+00  0.10631113115E+03  0.12748319824E+03  0.41800000000E+01 0. -1.
        -11    1    4    4    0    0  0.91640982013E+01 -0.12445203671E+02  0.27107028539E+02  0.31203441901E+02  0.00000000000E+00 0. -1.
         11    1    4    4    0    0 -0.56492208956E+02  0.52503362108E+02 -0.17682597200E+02  0.79124250070E+02  0.00000000000E+00 0.  1.
</event>
<event>
 8    1  0.6860461E-009  0.1694825E+03  0.7561462E-02  0.1178389E+00
         -2   -1    0    0    0  501 -0.00000000000E+00  0.00000000000E+00  0.30275295869E+03  0.30275295869E+03  0.00000000000E+00 0.  1.
          2   -1    0    0  501    0  0.00000000000E+00 -0.00000000000E+00 -0.12662251983E+03  0.12662251983E+03  0.00000000000E+00 0. -1.
         25    2    1    2    0    0  0.97658014879E+02  0.12630830499E+03  0.12256704843E+03  0.23698331340E+03  0.12509010228E+03 0.  0.
         23    2    1    2    0    0 -0.97658014879E+02 -0.12630830499E+03  0.53563390428E+02  0.19239216511E+03  0.93031352890E+02 0.  0.
          5    1    3    3  502    0  0.63298540696E+02  0.72948597204E+02  0.14082326063E+03  0.17081237140E+03  0.41800000000E+01 0.  1.
         -5    1    3    3    0  502  0.34359474183E+02  0.53359707790E+02 -0.18256212200E+02  0.66170942002E+02  0.41800000000E+01 0.  1.
        -11    1    4    4    0    0 -0.94059889469E+02 -0.58462422181E+02  0.89423761540E+01  0.11110843220E+03  0.00000000000E+00 0.  1.
         11    1    4    4    0    0 -0.35981254107E+01 -0.67845882812E+02  0.44621014274E+02  0.81283732911E+02  0.00000000000E+00 0. -1.
</event>
<event>
 8    1  0.6860461E-009  0.1195126E+03  0.7561462E-02  0.1243903E+00
          1   -1    0    0  501    0  0.00000000000E+00  0.00000000000E+00  0.28009716791E+03  0.28009716791E+03  0.00000000000E+00 0. -1.
         -1   -1    0    0    0  501 -0.00000000000E+00 -0.00000000000E+00 -0.64110797403E+02  0.64110797403E+02  0.00000000000E+00 0.  1.
         25    2    1    2    0    0 -0.10756796014E+01  0.75015240102E+02  0.14619007398E+03  0.20651172701E+03  0.12508841804E+03 0.  0.
         23    2    1    2    0    0  0.10756796014E+01 -0.75015240102E+02  0.69796296521E+02  0.13769623830E+03  0.91979822242E+02 0.  0.
          5    1    3    3  502    0 -0.36273232837E+02 -0.17009326452E+02  0.74155721105E+02  0.84389620093E+02  0.41800000000E+01 0. -1.
         -5    1    3    3    0  502  0.35197553235E+02  0.92024566554E+02  0.72034352880E+02  0.12212210692E+03  0.41800000000E+01 0. -1.
        -11    1    4    4    0    0 -0.20484805790E+02 -0.75835627313E+02  0.16596556869E+02  0.80287703530E+02  0.00000000000E+00 0.  1.
         11    1    4    4    0    0  0.21560485391E+02  0.82038721039E+00  0.53199739652E+02  0.57408534770E+02  0.00000000000E+00 0. -1.
</event>
<event>
 8    1  0.6860461E-009  0.1192851E+03  0.7561462E-02  0.1244281E+00
          2   -1    0    0  501    0  0.00000000000E+00  0.00000000000E+00  0.63483353537E+03  0.63483353537E+03  0.00000000000E+00 0. -1.
         -2   -1    0    0    0  501 -0.00000000000E+00 -0.00000000000E+00 -0.34062512072E+02  0.34062512072E+02  0.00000000000E+00 0.  1.
         25    2    1    2    0    0 -0.33902205946E+01  0.88482335102E+02  0.41632296074E+03  0.44363655737E+03  0.12509184698E+03 0.  0.
         23    2    1    2    0    0  0.33902205946E+01 -0.88482335102E+02  0.18444806256E+03  0.22525949007E+03  0.94234456871E+02 0.  0.
          5    1    3    3  502    0  0.35502878527E+02  0.42190548084E+02  0.34775170803E+03  0.35212102972E+03  0.41800000000E+01 0.  1.
         -5    1    3    3    0  502 -0.38893099122E+02  0.46291787018E+02  0.68571252708E+02  0.91515527658E+02  0.41800000000E+01 0.  1.
        -11    1    4    4    0    0 -0.30956980938E+02 -0.82083825605E+02  0.95407900165E+02  0.12961001701E+03  0.00000000000E+00 0.  1.
         11    1    4    4    0    0  0.34347201533E+02 -0.63985094968E+01  0.89040162395E+02  0.95649473058E+02  0.00000000000E+00 0. -1.
</event>
<event>
 8    1  0.6860461E-009  0.1084384E+03  0.7561462E-02  0.1263489E+00
         -2   -1    0    0    0  501 -0.00000000000E+00  0.00000000000E+00  0.59151975770E+02  0.59151975770E+02  0.00000000000E+00 0.  1.
          2   -1    0    0  501    0  0.00000000000E+00 -0.00000000000E+00 -0.35544063218E+03  0.35544063218E+03  0.00000000000E+00 0. -1.
         25    2    1    2    0    0 -0.17321579345E+02 -0.93193413670E+02 -0.14617014184E+03  0.21447352761E+03  0.12509250265E+03 0.  0.
         23    2    1    2    0    0  0.17321579345E+02  0.93193413670E+02 -0.15011851457E+03  0.20011908033E+03  0.92341910498E+02 0.  0.
          5    1    3    3  502    0 -0.15611655578E+02 -0.54397574342E+02  0.62851259108E+01  0.57094615262E+02  0.41800000000E+01 0. -1.
         -5    1    3    3    0  502 -0.17099237662E+01 -0.38795839329E+02 -0.15245526775E+03  0.15737891235E+03  0.41800000000E+01 0. -1.
        -11    1    4    4    0    0 -0.29947462217E+02  0.33648408534E+02 -0.98252556850E+02  0.10808621937E+03  0.00000000000E+00 0. -1.
         11    1    4    4    0    0  0.47269041562E+02  0.59545005136E+02 -0.51865957718E+02  0.92032860962E+02  0.00000000000E+00 0.  1.
</event>
<event>
 8    1  0.6860461E-009  0.2086195E+03  0.7561462E-02  0.1142664E+00
         -2   -1    0    0    0  501 -0.00000000000E+00  0.00000000000E+00  0.20285671936E+03  0.20285671936E+03  0.00000000000E+00 0.  1.
          2   -1    0    0  501    0  0.00000000000E+00 -0.00000000000E+00 -0.74242927779E+03  0.74242927779E+03  0.00000000000E+00 0. -1.
         25    2    1    2    0    0 -0.10466921256E+03  0.15918718656E+03 -0.66301928307E+03  0.70109806642E+03  0.12509086537E+03 0.  0.
         23    2    1    2    0    0  0.10466921256E+03 -0.15918718656E+03  0.12344672464E+03  0.24418793073E+03  0.89958030597E+02 0.  0.
          5    1    3    3  502    0 -0.92437571430E+02  0.17632688192E+03 -0.63681442959E+03  0.66722257458E+03  0.41800000000E+01 0. -1.
         -5    1    3    3    0  502 -0.12231641126E+02 -0.17139695356E+02 -0.26204853476E+02  0.33875491837E+02  0.41800000000E+01 0. -1.
        -11    1    4    4    0    0  0.27346448517E+02 -0.10967451395E+02 -0.91052863775E+01  0.30838603674E+02  0.00000000000E+00 0. -1.
         11    1    4    4    0    0  0.77322764039E+02 -0.14821973517E+03  0.13255201102E+03  0.21334932706E+03  0.00000000000E+00 0.  1.
</event>
<event>
 8    1  0.6860461E-009  0.2435666E+03  0.7561462E-02  0.1117439E+00
          2   -1    0    0  501    0  0.00000000000E+00  0.00000000000E+00  0.16883670088E+04  0.16883670088E+04  0.00000000000E+00 0. -1.
         -2   -1    0    0    0  501 -0.00000000000E+00 -0.00000000000E+00 -0.42283033996E+02  0.42283033996E+02  0.00000000000E+00 0.  1.
         25    2    1    2    0    0  0.20626932416E+03  0.85370877565E+02  0.11628943002E+04  0.11907162448E+04  0.12508717442E+03 0.  0.
         23    2    1    2    0    0 -0.20626932416E+03 -0.85370877565E+02  0.48318967459E+03  0.53993379806E+03  0.90669861705E+02 0.  0.
          5    1    3    3  502    0  0.75676541901E+02 -0.21139667269E+02  0.24049184643E+03  0.25303680587E+03  0.41800000000E+01 0. -1.
         -5    1    3    3    0  502  0.13059278226E+03  0.10651054483E+03  0.92240245381E+03  0.93767943890E+03  0.41800000000E+01 0. -1.
        -11    1    4    4    0    0 -0.17039735101E+02 -0.42588908734E+02  0.11378568264E+03  0.12268394065E+03  0.00000000000E+00 0. -1.
         11    1    4    4    0    0 -0.18922958906E+03 -0.42781968831E+02  0.36940399195E+03  0.41724985740E+03  0.00000000000E+00 0.  1.
</event>
<event>
 8    1  0.6860461E-009  0.1193102E+03  0.7561462E-02  0.1244239E+00
         -4   -1    0    0    0  501 -0.00000000000E+00  0.00000000000E+00  0.13079254183E+03  0.13079254183E+03  0.00000000000E+00 0. -1.
          4   -1    0    0  501    0  0.00000000000E+00 -0.00000000000E+00 -0.14713653210E+03  0.14713653210E+03  0.00000000000E+00 0.  1.
         25    2    1    2    0    0 -0.77548183480E+02 -0.37905651815E+02  0.77524423270E+01  0.15218073846E+03  0.12509323561E+03 0.  0.
         23    2    1    2    0    0  0.77548183480E+02  0.37905651815E+02 -0.24096432600E+02  0.12574833547E+03  0.88212508228E+02 0.  0.
          5    1    3    3  502    0  0.46120987247E+01  0.30180723105E+02  0.30103390892E+02  0.43079392347E+02  0.41800000000E+01 0. -1.
         -5    1    3    3    0  502 -0.82160282204E+02 -0.68086374920E+02 -0.22350948565E+02  0.10910134611E+03  0.41800000000E+01 0. -1.
        -11    1    4    4    0    0  0.53926955352E+02  0.50816776299E+02  0.17560771475E+02  0.76150127786E+02  0.00000000000E+00 0. -1.
         11    1    4    4    0    0  0.23621228128E+02 -0.12911124484E+02 -0.41657204076E+02  0.49598207681E+02  0.00000000000E+00 0.  1.
</event>
<event>
 8    1  0.6860461E-009  0.5102003E+02  0.7561462E-02  0.1439916E+00
          1   -1    0    0  501    0  0.00000000000E+00  0.00000000000E+00  0.40867558125E+03  0.40867558125E+03  0.00000000000E+00 0. -1.
         -1   -1    0    0    0  501 -0.00000000000E+00 -0.00000000000E+00 -0.39958842127E+02  0.39958842127E+02  0.00000000000E+00 0.  1.
         25    2    1    2    0    0 -0.19300389416E+02 -0.20345608209E+02  0.30724862626E+03  0.33292088166E+03  0.12509255093E+03 0.  0.
         23    2    1    2    0    0  0.19300389416E+02  0.20345608209E+02  0.61468112864E+02  0.11571354172E+03  0.93940651658E+02 0.  0.
          5    1    3    3  502    0 -0.24145068046E+02 -0.21270110298E+01  0.31205438899E+03  0.31302223975E+03  0.41800000000E+01 0.  1.
         -5    1    3    3    0  502  0.48446786302E+01 -0.18218597180E+02 -0.48057627346E+01  0.19898641906E+02  0.41800000000E+01 0.  1.
        -11    1    4    4    0    0  0.28608865939E+02 -0.68262830138E+01  0.77448418623E+02  0.82845174255E+02  0.00000000000E+00 0. -1.
         11    1    4    4    0    0 -0.93084765232E+01  0.27171891223E+02 -0.15980305760E+02  0.32868367468E+02  0.00000000000E+00 0.  1.
</event>
<event>
 8    1  0.6860461E-009  0.1176486E+03  0.7561462E-02  0.1247027E+00
         -2   -1    0    0    0  501 -0.00000000000E+00  0.00000000000E+00  0.94441344084E+02  0.94441344084E+02  0.00000000000E+00 0.  1.
          2   -1    0    0  501    0  0.00000000000E+00 -0.00000000000E+00 -0.19799302885E+03  0.19799302885E+03  0.00000000000E+00 0. -1.
         25    2    1    2    0    0 -0.64057006495E+02 -0.15925239927E+01 -0.12697380211E+01  0.14054684346E+03  0.12508383891E+03 0.  0.
         23    2    1    2    0    0  0.64057006495E+02  0.15925239927E+01 -0.10228194675E+03  0.15188752948E+03  0.92208398573E+02 0.  0.
          5    1    3    3  502    0  0.30587974848E+02  0.10759419418E+02  0.25348300131E+02  0.41369046775E+02  0.41800000000E+01 0. -1.
         -5    1    3    3    0  502 -0.94644981343E+02 -0.12351943411E+02 -0.26618038152E+02  0.99177796681E+02  0.41800000000E+01 0. -1.
        -11    1    4    4    0    0 -0.16218869821E+02  0.18940348991E+02 -0.66055888124E+01  0.25795781859E+02  0.00000000000E+00 0.  1.
         11    1    4    4    0    0  0.80275876316E+02 -0.17347824998E+02 -0.95676357935E+02  0.12609174762E+03  0.00000000000E+00 0. -1.
</event>
<event>
 8    1  0.6860461E-009  0.1074393E+03  0.7561462E-02  0.1265387E+00
         -1   -1    0    0    0  501 -0.00000000000E+00  0.00000000000E+00  0.28183286426E+03  0.28183286426E+03  0.00000000000E+00 0.  1.
          1   -1    0    0  501    0  0.00000000000E+00 -0.00000000000E+00 -0.47195793833E+02  0.47195793833E+02  0.00000000000E+00 0. -1.
         25    2    1    2    0    0 -0.33295577753E+01  0.35038978843E+02  0.15998654025E+03  0.20611162359E+03  0.12508993695E+03 0.  0.
         23    2    1    2    0    0  0.33295577753E+01 -0.35038978843E+02  0.74650530181E+02  0.12291703450E+03  0.91088307271E+02 0.  0.
          5    1    3    3  502    0  0.71742166221E+01 -0.46204207374E+02  0.46414679520E+02  0.66015854446E+02  0.41800000000E+01 0.  1.
         -5    1    3    3    0  502 -0.10503774397E+02  0.81243186217E+02  0.11357186073E+03  0.14009576914E+03  0.41800000000E+01 0.  1.
        -11    1    4    4    0    0  0.12693161919E+02  0.23455165565E+02 -0.11741212469E+01  0.26695312545E+02  0.00000000000E+00 0.  1.
         11    1    4    4    0    0 -0.93636041432E+01 -0.58494144407E+02  0.75824651428E+02  0.96221721959E+02  0.00000000000E+00 0. -1.
</event>
<event>
 8    1  0.6860461E-009  0.8671764E+02  0.7561462E-02  0.1311001E+00
         -2   -1    0    0    0  501 -0.00000000000E+00  0.00000000000E+00  0.21906261190E+02  0.21906261190E+02  0.00000000000E+00 0.  1.
          2   -1    0    0  501    0  0.00000000000E+00 -0.00000000000E+00 -0.82669991429E+03  0.82669991429E+03  0.00000000000E+00 0. -1.
         25    2    1    2    0    0  0.54661888967E+02 -0.47393461288E+02 -0.54676812928E+03  0.56554192274E+03  0.12509283312E+03 0.  0.
         23    2    1    2    0    0 -0.54661888967E+02  0.47393461288E+02 -0.25802552382E+03  0.28306425274E+03  0.91181894915E+02 0.  0.
          5    1    3    3  502    0  0.43185963146E+02 -0.37275433994E+02 -0.79155399820E+02  0.97660304694E+02  0.41800000000E+01 0. -1.
         -5    1    3    3    0  502  0.11475925822E+02 -0.10118027293E+02 -0.46761272946E+03  0.46788161804E+03  0.41800000000E+01 0. -1.
        -11    1    4    4    0    0 -0.44638620819E+02 -0.68951093832E+01 -0.48024441516E+02  0.65927960570E+02  0.00000000000E+00 0.  1.
         11    1    4    4    0    0 -0.10023268148E+02  0.54288570671E+02 -0.21000108230E+03  0.21713629217E+03  0.00000000000E+00 0. -1.
</event>
<event>
 8    1  0.6860461E-009  0.1107869E+03  0.7561462E-02  0.1259119E+00
         -2   -1    0    0    0  501 -0.00000000000E+00  0.00000000000E+00  0.11986892760E+03  0.11986892760E+03  0.00000000000E+00 0. -1.
          2   -1    0    0  501    0  0.00000000000E+00 -0.00000000000E+00 -0.12325804179E+03  0.12325804179E+03  0.00000000000E+00 0.  1.
         25    2    1    2    0    0  0.12268214431E+02  0.50634195238E+02  0.13555074837E+02  0.13618131705E+03  0.12508908924E+03 0.  0.
         23    2    1    2    0    0 -0.12268214431E+02 -0.50634195238E+02 -0.16944189025E+02  0.10694565234E+03  0.91847352713E+02 0.  0.
          5    1    3    3  502    0 -0.23579861716E+02  0.70746920043E+02 -0.25898560663E+02  0.79052795134E+02  0.41800000000E+01 0. -1.
         -5    1    3    3    0  502  0.35848076147E+02 -0.20112724805E+02  0.39453635500E+02  0.57128521920E+02  0.41800000000E+01 0. -1.
        -11    1    4    4    0    0  0.10605173336E+02 -0.72887261672E+02 -0.10692585643E+02  0.74426836580E+02  0.00000000000E+00 0.  1.
         11    1    4    4    0    0 -0.22873387767E+02  0.22253066435E+02 -0.62516033823E+01  0.32518815762E+02  0.00000000000E+00 0. -1.
</event>
<event>
 8    1  0.6860461E-009  0.1371217E+03  0.7561462E-02  0.1217255E+00
         -1   -1    0    0    0  501 -0.00000000000E+00  0.00000000000E+00  0.13688440821E+03  0.13688440821E+03  0.00000000000E+00 0.  1.
          1   -1    0    0  501    0  0.00000000000E+00 -0.00000000000E+00 -0.18360180956E+03  0.18360180956E+03  0.00000000000E+00 0. -1.
         25    2    1    2    0    0  0.35021573560E+02 -0.10261026014E+03 -0.65649523470E+02  0.17808018376E+03  0.12508923141E+03 0.  0.
         23    2    1    2    0    0 -0.35021573560E+02  0.10261026014E+03  0.18932122118E+02  0.14240603401E+03  0.90364136545E+02 0.  0.
          5    1    3    3  502    0  0.16077411222E+02  0.13092926580E+02 -0.56588806417E+02  0.60412525934E+02  0.41800000000E+01 0. -1.
         -5    1    3    3    0  502  0.18944162338E+02 -0.11570318672E+03 -0.90607170531E+01  0.11766765782E+03  0.41800000000E+01 0. -1.
        -11    1    4    4    0    0 -0.54920308638E+02  0.34596643065E+02 -0.10351521512E+02  0.65729156467E+02  0.00000000000E+00 0.  1.
         11    1    4    4    0    0  0.19898735078E+02  0.68013617076E+02  0.29283643630E+02  0.76676877542E+02  0.00000000000E+00 0. -1.
</event>
<event>
 8    1  0.6860461E-009  0.1198106E+03  0.7561462E-02  0.1243410E+00
          1   -1    0    0  501    0  0.00000000000E+00  0.00000000000E+00  0.32450406097E+02  0.32450406097E+02  0.00000000000E+00 0. -1.
         -1   -1    0    0    0  501 -0.00000000000E+00 -0.00000000000E+00 -0.53209408819E+03  0.53209408819E+03  0.00000000000E+00 0.  1.
         25    2    1    2    0    0 -0.67916302681E+02  0.24299971281E+02 -0.29645574370E+03  0.32974638253E+03  0.12507420215E+03 0.  0.
         23    2    1    2    0    0  0.67916302681E+02 -0.24299971281E+02 -0.20318793840E+03  0.23479811176E+03  0.92960756254E+02 0.  0.
          5    1    3    3  502    0  0.14649063485E+02  0.35632839393E+02 -0.25889665858E+02  0.46605166049E+02  0.41800000000E+01 0. -1.
         -5    1    3    3    0  502 -0.82565366166E+02 -0.11332868113E+02 -0.27056607784E+03  0.28314121648E+03  0.41800000000E+01 0. -1.
        -11    1    4    4    0    0  0.44700701776E+02  0.33024802621E+02 -0.88710802854E+02  0.10468236179E+03  0.00000000000E+00 0.  1.
         11    1    4    4    0    0  0.23215600905E+02 -0.57324773901E+02 -0.11447713554E+03  0.13011574997E+03  0.00000000000E+00 0. -1.
</event>
<event>
 8    1  0.6860461E-009  0.1204116E+03  0.7561462E-02  0.1242420E+00
         -3   -1    0    0    0  501 -0.00000000000E+00  0.00000000000E+00  0.94959254086E+02  0.94959254086E+02  0.00000000000E+00 0.  1.
          3   -1    0    0  501    0  0.00000000000E+00 -0.00000000000E+00 -0.17036056964E+03  0.17036056964E+03  0.00000000000E+00 0. -1.
         25    2    1    2    0    0 -0.53391117631E+02 -0.12691423493E+02 -0.18990420135E+01  0.13661342804E+03  0.12509172110E+03 0.  0.
         23    2    1    2    0    0  0.53391117631E+02  0.12691423493E+02 -0.73502273538E+02  0.12870639568E+03  0.90283267568E+02 0.  0.
          5    1    3    3  502    0 -0.68347631978E+02 -0.57322900927E+02  0.37889618820E+00  0.89302462061E+02  0.41800000000E+01 0.  1.
         -5    1    3    3    0  502  0.14956514347E+02  0.44631477434E+02 -0.22779382017E+01  0.47310965978E+02  0.41800000000E+01 0.  1.
        -11    1    4    4    0    0  0.11510458335E+02  0.48077928816E+02 -0.24514713932E+02  0.55181057343E+02  0.00000000000E+00 0. -1.
         11    1    4    4    0    0  0.41880659296E+02 -0.35386505323E+02 -0.48987559606E+02  0.73525338342E+02  0.00000000000E+00 0.  1.
</event>
<event>
 8    1  0.6860461E-009  0.8072814E+02  0.7561462E-02  0.1326998E+00
         -2   -1    0    0    0  501 -0.00000000000E+00  0.00000000000E+00  0.31571402993E+02  0.31571402993E+02  0.00000000000E+00 0.  1.
          2   -1    0    0  501    0  0.00000000000E+00 -0.00000000000E+00 -0.38515372116E+03  0.38515372116E+03  0.00000000000E+00 0. -1.
         25    2    1    2    0    0  0.29484725426E+01 -0.28974268901E+01 -0.20907652823E+03  0.24367516821E+03  0.12508998510E+03 0.  0.
         23    2    1    2    0    0 -0.29484725426E+01  0.28974268901E+01 -0.14450578993E+03  0.17304995594E+03  0.95117166450E+02 0.  0.
          5    1    3    3  502    0 -0.11838210074E+02  0.37129920306E+02 -0.10575773355E+02  0.40596718855E+02  0.41800000000E+01 0. -1.
         -5    1    3    3    0  502  0.14786682617E+02 -0.40027347196E+02 -0.19850075488E+03  0.20307844936E+03  0.41800000000E+01 0. -1.
        -11    1    4    4    0    0  0.51876568110E+01  0.40541739639E+02 -0.12149531014E+03  0.12818601648E+03  0.00000000000E+00 0. -1.
         11    1    4    4    0    0 -0.81361293536E+01 -0.37644312749E+02 -0.23010479795E+02  0.44863939457E+02  0.00000000000E+00 0.  1.
</event>
<event>
 8    1  0.6860461E-009  0.1483608E+03  0.7561462E-02  0.1202502E+00
          1   -1    0    0  501    0  0.00000000000E+00  0.00000000000E+00  0.27556171813E+02  0.27556171813E+02  0.00000000000E+00 0. -1.
         -1   -1    0    0    0  501 -0.00000000000E+00 -0.00000000000E+00 -0.94093602733E+03  0.94093602733E+03  0.00000000000E+00 0.  1.
         25    2    1    2    0    0  0.10230265095E+03 -0.32783171819E+02 -0.33715390680E+03  0.37531458046E+03  0.12509080177E+03 0.  0.
         23    2    1    2    0    0 -0.10230265095E+03  0.32783171819E+02 -0.57622594872E+03  0.59317761868E+03  0.91009749972E+02 0.  0.
          5    1    3    3  502    0  0.11973972279E+03  0.80060577066E+01 -0.25489595182E+03  0.28176429303E+03  0.41800000000E+01 0.  1.
         -5    1    3    3    0  502 -0.17437071842E+02 -0.40789229525E+02 -0.82257954981E+02  0.93550287426E+02  0.41800000000E+01 0.  1.
        -11    1    4    4    0    0 -0.11135926559E+03  0.15313249232E+02 -0.54340779460E+03  0.55491207669E+03  0.00000000000E+00 0.  1.
         11    1    4    4    0    0  0.90566146414E+01  0.17469922586E+02 -0.32818154120E+02  0.38265541990E+02  0.00000000000E+00 0. -1.
</event>
<event>
 8    1  0.6860461E-009  0.1435955E+03  0.7561462E-02  0.1208571E+00
         -2   -1    0    0    0  501 -0.00000000000E+00  0.00000000000E+00  0.38844801272E+02  0.38844801272E+02  0.00000000000E+00 0. -1.
          2   -1    0    0  501    0  0.00000000000E+00 -0.00000000000E+00 -0.96510182685E+03  0.96510182685E+03  0.00000000000E+00 0.  1.
         25    2    1    2    0    0  0.12641519393E+03 -0.56209417121E+02 -0.69345563836E+03  0.71809866412E+03  0.12507865206E+03 0.  0.
         23    2    1    2    0    0 -0.12641519393E+03  0.56209417121E+02 -0.23280138721E+03  0.28584796400E+03  0.91500124623E+02 0.  0.
          5    1    3    3  502    0  0.27820667909E+02 -0.32979931926E+02 -0.47823416065E+03  0.48019480451E+03  0.41800000000E+01 0. -1.
         -5    1    3    3    0  502  0.98594526023E+02 -0.23229485195E+02 -0.21522147772E+03  0.23790385961E+03  0.41800000000E+01 0. -1.
        -11    1    4    4    0    0 -0.10472091012E+03  0.31021644240E+02 -0.97122452305E+02  0.14615601996E+03  0.00000000000E+00 0. -1.
         11    1    4    4    0    0 -0.21694283807E+02  0.25187772881E+02 -0.13567893491E+03  0.13969194404E+03  0.00000000000E+00 0.  1.
</event>
<event>
 8    1  0.6860461E-009  0.9799335E+02  0.7561462E-02  0.1284573E+00
          1   -1    0    0  501    0  0.00000000000E+00  0.00000000000E+00  0.67029945874E+03  0.67029945874E+03  0.00000000000E+00 0. -1.
         -1   -1    0    0    0  501 -0.00000000000E+00 -0.00000000000E+00 -0.22079243880E+02  0.22079243880E+02  0.00000000000E+00 0.  1.
         25    2    1    2    0    0 -0.37196019667E+02  0.38627734483E+02  0.32827091358E+03  0.35536571956E+03  0.12508939277E+03 0.  0.
         23    2    1    2    0    0  0.37196019667E+02 -0.38627734483E+02  0.31994930127E+03  0.33701298305E+03  0.91293754507E+02 0.  0.
          5    1    3    3  502    0 -0.25112139357E+02  0.60045229054E+02  0.32345053322E+03  0.32996025354E+03  0.41800000000E+01 0.  1.
         -5    1    3    3    0  502 -0.12083880310E+02 -0.21417494571E+02  0.48203803650E+01  0.25405466024E+02  0.41800000000E+01 0.  1.
        -11    1    4    4    0    0  0.22320890779E+02 -0.68720825603E+02  0.22342865687E+03  0.23482150401E+03  0.00000000000E+00 0.  1.
         11    1    4    4    0    0  0.14875128888E+02  0.30093091120E+02  0.96520644406E+02  0.10219147904E+03  0.00000000000E+00 0. -1.
</event>
<event>
 8    1  0.6860461E-009  0.1092103E+03  0.7561462E-02  0.1262039E+00
         -1   -1    0    0    0  501 -0.00000000000E+00  0.00000000000E+00  0.20479196889E+02  0.20479196889E+02  0.00000000000E+00 0.  1.
          1   -1    0    0  501    0  0.00000000000E+00 -0.00000000000E+00 -0.87272080137E+03  0.87272080137E+03  0.00000000000E+00 0. -1.
         25    2    1    2    0    0  0.22801182065E+02 -0.74029746974E+02 -0.43308620110E+03  0.45739573737E+03  0.12508759188E+03 0.  0.
         23    2    1    2    0    0 -0.22801182065E+02  0.74029746974E+02 -0.41915540338E+03  0.43580426089E+03  0.90740312338E+02 0.  0.
          5    1    3    3  502    0  0.60625589969E+02 -0.42096501790E+02 -0.12416799103E+03  0.14450861573E+03  0.41800000000E+01 0.  1.
         -5    1    3    3    0  502 -0.37824407904E+02 -0.31933245184E+02 -0.30891821006E+03  0.31288712164E+03  0.41800000000E+01 0.  1.
        -11    1    4    4    0    0 -0.54869605108E+01  0.77046585757E+02 -0.40740566242E+03  0.41466330545E+03  0.00000000000E+00 0. -1.
         11    1    4    4    0    0 -0.17314221554E+02 -0.30168387834E+01 -0.11749740962E+02  0.21140955441E+02  0.00000000000E+00 0.  1.
</event>
<event>
 8    1  0.6860461E-009  0.1044026E+03  0.7561462E-02  0.1271301E+00
          2   -1    0    0  501    0  0.00000000000E+00  0.00000000000E+00  0.66667537541E+03  0.66667537541E+03  0.00000000000E+00 0. -1.
         -2   -1    0    0    0  501 -0.00000000000E+00 -0.00000000000E+00 -0.18657129368E+02  0.18657129368E+02  0.00000000000E+00 0.  1.
         25    2    1    2    0    0  0.43699829704E+01 -0.23584403801E+01  0.29320686163E+03  0.31881023860E+03  0.12508015646E+03 0.  0.
         23    2    1    2    0    0 -0.43699829704E+01  0.23584403801E+01  0.35481138441E+03  0.36652226617E+03  0.91775781666E+02 0.  0.
          5    1    3    3  502    0  0.59394579447E+02 -0.12899585425E+02  0.95513795235E+02  0.11328933247E+03  0.41800000000E+01 0. -1.
         -5    1    3    3    0  502 -0.55024596477E+02  0.10541145045E+02  0.19769306639E+03  0.20552090613E+03  0.41800000000E+01 0. -1.
        -11    1    4    4    0    0  0.29144716268E+02 -0.32288932708E+02  0.18066071160E+03  0.18582325575E+03  0.00000000000E+00 0.  1.
         11    1    4    4    0    0 -0.33514699239E+02  0.34647373088E+02  0.17415067281E+03  0.18069901042E+03  0.00000000000E+00 0. -1.
</event>
<event>
 8    1  0.6860461E-009  0.1139569E+03  0.7561462E-02  0.1253413E+00
         -2   -1    0    0    0  501 -0.00000000000E+00  0.00000000000E+00  0.16737942905E+02  0.16737942905E+02  0.00000000000E+00 0.  1.
          2   -1    0    0  501    0  0.00000000000E+00 -0.00000000000E+00 -0.13208397126E+04  0.13208397126E+04  0.00000000000E+00 0. -1.
         25    2    1    2    0    0 -0.84980077537E+01  0.57491753015E+02 -0.10792920907E+04  0.10880702179E+04  0.12509142345E+03 0.  0.
         23    2    1    2    0    0  0.84980077537E+01 -0.57491753015E+02 -0.22480967903E+03  0.24950743764E+03  0.91307457824E+02 0.  0.
          5    1    3    3  502    0 -0.61197521703E+02  0.43736525763E+02 -0.79619244676E+03  0.79974865116E+03  0.41800000000E+01 0.  1.
         -5    1    3    3    0  502  0.52699513950E+02  0.13755227252E+02 -0.28309964391E+03  0.28832156671E+03  0.41800000000E+01 0.  1.
        -11    1    4    4    0    0  0.32321750672E+02  0.34638954558E+01 -0.13199771937E+03  0.13594150233E+03  0.00000000000E+00 0. -1.
         11    1    4    4    0    0 -0.23823742918E+02 -0.60955648471E+02 -0.92811959662E+02  0.11356593531E+03  0.00000000000E+00 0.  1.
</event>
<event>
 8    1  0.6860461E-009  0.1180617E+03  0.7561462E-02  0.1246329E+00
          2   -1    0    0  501    0  0.00000000000E+00  0.00000000000E+00  0.26938897285E+03  0.26938897285E+03  0.00000000000E+00 0. -1.
         -2   -1    0    0    0  501 -0.00000000000E+00 -0.00000000000E+00 -0.54902403826E+02  0.54902403826E+02  0.00000000000E+00 0.  1.
         25    2    1    2    0    0 -0.24659048867E+02  0.49759009720E+02  0.15537811158E+03  0.20706059911E+03  0.12509079265E+03 0.  0.
         23    2    1    2    0    0  0.24659048867E+02 -0.49759009720E+02  0.59108457452E+02  0.11723077757E+03  0.84647609110E+02 0.  0.
          5    1    3    3  502    0  0.87608886460E+01 -0.38874864619E+02  0.30986662818E+02  0.50652284663E+02  0.41800000000E+01 0. -1.
         -5    1    3    3    0  502 -0.33419937513E+02  0.88633874339E+02  0.12439144876E+03  0.15640831445E+03  0.41800000000E+01 0. -1.
        -11    1    4    4    0    0 -0.15614574260E+02  0.17118344267E+02  0.13736963239E+02  0.26936161545E+02  0.00000000000E+00 0. -1.
         11    1    4    4    0    0  0.40273623126E+02 -0.66877353987E+02  0.45371494213E+02  0.90294616025E+02  0.00000000000E+00 0.  1.
</event>
<event>
 8    1  0.6860461E-009  0.1382986E+03  0.7561462E-02  0.1215637E+00
         -1   -1    0    0    0  501 -0.00000000000E+00  0.00000000000E+00  0.96049830956E+03  0.96049830956E+03  0.00000000000E+00 0.  1.
          1   -1    0    0  501    0  0.00000000000E+00 -0.00000000000E+00 -0.42510161749E+02  0.42510161749E+02  0.00000000000E+00 0. -1.
         25    2    1    2    0    0  0.85441982320E+02  0.74728941545E+02  0.78935644802E+03  0.80722570256E+03  0.12507991767E+03 0.  0.
         23    2    1    2    0    0 -0.85441982320E+02 -0.74728941545E+02  0.12863169980E+03  0.19578276875E+03  0.94339977207E+02 0.  0.
          5    1    3    3  502    0  0.80021849156E+02  0.89734762680E+02  0.77789080854E+03  0.78713874660E+03  0.41800000000E+01 0. -1.
         -5    1    3    3    0  502  0.54201331643E+01 -0.15005821135E+02  0.11465639471E+02  0.20086955965E+02  0.41800000000E+01 0. -1.
        -11    1    4    4    0    0  0.16132453518E+02 -0.62691228405E+01  0.42929133978E+02  0.46286806995E+02  0.00000000000E+00 0.  1.
         11    1    4    4    0    0 -0.10157443584E+03 -0.68459818704E+02  0.85702565822E+02  0.14949596176E+03  0.00000000000E+00 0. -1.
</event>
<event>
 8    1  0.6860461E-009  0.8635044E+02  0.7561462E-02  0.1311938E+00
          2   -1    0    0  501    0  0.00000000000E+00  0.00000000000E+00  0.14554150258E+03  0.14554150258E+03  0.00000000000E+00 0. -1.
         -2   -1    0    0    0  501 -0.00000000000E+00 -0.00000000000E+00 -0.96417177523E+02  0.96417177523E+02  0.00000000000E+00 0.  1.
         25    2    1    2    0    0 -0.10887443734E+02  0.42930513141E+01 -0.19692562187E+02  0.12716938303E+03  0.12508912124E+03 0.  0.
         23    2    1    2    0    0  0.10887443734E+02 -0.42930513141E+01  0.68816887243E+02  0.11478929707E+03  0.91125474114E+02 0.  0.
          5    1    3    3  502    0 -0.12332250194E+02  0.41889163703E+02  0.38086729045E+02  0.58093525972E+02  0.41800000000E+01 0.  1.
         -5    1    3    3    0  502  0.14448064596E+01 -0.37596112389E+02 -0.57779291232E+02  0.69075857054E+02  0.41800000000E+01 0.  1.
        -11    1    4    4    0    0  0.49977186612E+02 -0.11369301091E+02  0.46611821058E+02  0.69279448982E+02  0.00000000000E+00 0.  1.
         11    1    4    4    0    0 -0.39089742878E+02  0.70762497771E+01  0.22205066185E+02  0.45509848093E+02  0.00000000000E+00 0. -1.
</event>
<event>
 8    1  0.6860461E-009  0.8881680E+02  0.7561462E-02  0.1305743E+00
         -2   -1    0    0    0  501 -0.00000000000E+00  0.00000000000E+00  0.56917025442E+02  0.56917025442E+02  0.00000000000E+00 0. -1.
          2   -1    0    0  501    0  0.00000000000E+00 -0.00000000000E+00 -0.23609872669E+03  0.23609872669E+03  0.00000000000E+00 0.  1.
         25    2    1    2    0    0  0.78365506336E+01 -0.58184486786E+01 -0.50785359346E+02  0.13536474599E+03  0.12509674601E+03 0.  0.
         23    2    1    2    0    0 -0.78365506336E+01  0.58184486786E+01 -0.12839634190E+03  0.15765100615E+03  0.90955776363E+02 0.  0.
          5    1    3    3  502    0  0.61533232732E+02 -0.98876388202E+01 -0.52096093678E+02  0.81336212774E+02  0.41800000000E+01 0. -1.
         -5    1    3    3    0  502 -0.53696682098E+02  0.40691901416E+01  0.13107343316E+01  0.54028533214E+02  0.41800000000E+01 0. -1.
        -11    1    4    4    0    0 -0.33859902994E+02 -0.21899425446E+01 -0.88813295391E+01  0.35073735095E+02  0.00000000000E+00 0. -1.
         11    1    4    4    0    0  0.26023352360E+02  0.80083912232E+01 -0.11951501236E+03  0.12257727105E+03  0.00000000000E+00 0.  1.
</event>
<event>
 8    1  0.6860461E-009  0.1726887E+03  0.7561462E-02  0.1175073E+00
          1   -1    0    0  501    0  0.00000000000E+00  0.00000000000E+00  0.38441110428E+03  0.38441110428E+03  0.00000000000E+00 0. -1.
         -1   -1    0    0    0  501 -0.00000000000E+00 -0.00000000000E+00 -0.91125127871E+02  0.91125127871E+02  0.00000000000E+00 0.  1.
         25    2    1    2    0    0  0.10875693282E+03  0.91209143410E+02  0.85247174083E+02  0.20751990285E+03  0.12510096366E+03 0.  0.
         23    2    1    2    0    0 -0.10875693282E+03 -0.91209143410E+02  0.20803880233E+03  0.26801632931E+03  0.91681138856E+02 0.  0.
          5    1    3    3  502    0  0.60611963875E+00 -0.27909867807E+02  0.14025696026E+02  0.31520162611E+02  0.41800000000E+01 0. -1.
         -5    1    3    3    0  502  0.10815081319E+03  0.11911901122E+03  0.71221478057E+02  0.17599974023E+03  0.41800000000E+01 0. -1.
        -11    1    4    4    0    0  0.48598309986E+00 -0.31892945654E+02  0.94218167650E+02  0.99470896636E+02  0.00000000000E+00 0. -1.
         11    1    4    4    0    0 -0.10924291592E+03 -0.59316197756E+02  0.11382063468E+03  0.16854543267E+03  0.00000000000E+00 0.  1.
</event>
<event>
 8    1  0.6860461E-009  0.1144656E+03  0.7561462E-02  0.1252517E+00
         -1   -1    0    0    0  501 -0.00000000000E+00  0.00000000000E+00  0.50776618154E+02  0.50776618154E+02  0.00000000000E+00 0.  1.
          1   -1    0    0  501    0  0.00000000000E+00 -0.00000000000E+00 -0.39275542932E+03  0.39275542932E+03  0.00000000000E+00 0. -1.
         25    2    1    2    0    0 -0.62879896242E+02 -0.86141522055E+01 -0.96184473661E+02  0.17008634394E+03  0.12509926640E+03 0.  0.
         23    2    1    2    0    0  0.62879896242E+02  0.86141522055E+01 -0.24579433751E+03  0.27344570354E+03  0.10163469615E+03 0.  0.
          5    1    3    3  502    0 -0.64527494211E+02  0.48401435223E+02 -0.71208461582E+02  0.10767828863E+03  0.41800000000E+01 0. -1.
         -5    1    3    3    0  502  0.16475979693E+01 -0.57015587429E+02 -0.24976012079E+02  0.62408055315E+02  0.41800000000E+01 0. -1.
        -11    1    4    4    0    0  0.23538698719E+02 -0.28444401618E+02 -0.19763842434E+03  0.20105745720E+03  0.00000000000E+00 0. -1.
         11    1    4    4    0    0  0.39341197523E+02  0.37058553824E+02 -0.48155913165E+02  0.72388246330E+02  0.00000000000E+00 0.  1.
</event>
<event>
 8    1  0.6860461E-009  0.1166813E+03  0.7561462E-02  0.1248674E+00
          2   -1    0    0  501    0  0.00000000000E+00  0.00000000000E+00  0.36639781636E+03  0.36639781636E+03  0.00000000000E+00 0. -1.
         -2   -1    0    0    0  501 -0.00000000000E+00 -0.00000000000E+00 -0.89349682954E+02  0.89349682954E+02  0.00000000000E+00 0.  1.
         25    2    1    2    0    0 -0.10027011136E+03 -0.57988624174E+02  0.25466217373E+03  0.30645653041E+03  0.12508399791E+03 0.  0.
         23    2    1    2    0    0  0.10027011136E+03  0.57988624174E+02  0.22385959670E+02  0.14929096890E+03  0.91487083451E+02 0.  0.
          5    1    3    3  502    0 -0.91012938896E+01 -0.90329235717E+01 -0.13443634959E+02  0.19042872147E+02  0.41800000000E+01 0. -1.
         -5    1    3    3    0  502 -0.91168817475E+02 -0.48955700602E+02  0.26810580869E+03  0.28741365826E+03  0.41800000000E+01 0. -1.
        -11    1    4    4    0    0  0.60008497040E+02  0.28677825697E+02  0.57854305482E+02  0.88150768950E+02  0.00000000000E+00 0. -1.
         11    1    4    4    0    0  0.40261614324E+02  0.29310798477E+02 -0.35468345812E+02  0.61140199951E+02  0.00000000000E+00 0.  1.
</event>
<event>
 8    1  0.6860461E-009  0.8426614E+02  0.7561462E-02  0.1317363E+00
         -2   -1    0    0    0  501 -0.00000000000E+00  0.00000000000E+00  0.24658235702E+02  0.24658235702E+02  0.00000000000E+00 0.  1.
          2   -1    0    0  501    0  0.00000000000E+00 -0.00000000000E+00 -0.60220298175E+03  0.60220298175E+03  0.00000000000E+00 0. -1.
         25    2    1    2    0    0  0.41901169050E+02  0.34940594745E+01 -0.23257923838E+03  0.26741126702E+03  0.12509103560E+03 0.  0.
         23    2    1    2    0    0 -0.41901169050E+02 -0.34940594745E+01 -0.34496550767E+03  0.35944995043E+03  0.91843067033E+02 0.  0.
          5    1    3    3  502    0  0.16598563624E+02  0.27515055455E+02 -0.21517095651E+00  0.32405389824E+02  0.41800000000E+01 0. -1.
         -5    1    3    3    0  502  0.25302605425E+02 -0.24020995981E+02 -0.23236406742E+03  0.23500587720E+03  0.41800000000E+01 0. -1.
        -11    1    4    4    0    0 -0.21157827113E+01 -0.44094356332E+02 -0.14717104086E+03  0.15364928918E+03  0.00000000000E+00 0. -1.
         11    1    4    4    0    0 -0.39785386338E+02  0.40600296858E+02 -0.19779446681E+03  0.20580066125E+03  0.00000000000E+00 0.  1.
</event>
<event>
 8    1  0.6860461E-009  0.1038209E+03  0.7561462E-02  0.1272460E+00
         -1   -1    0    0    0  501 -0.00000000000E+00  0.00000000000E+00  0.81958512565E+02  0.81958512565E+02  0.00000000000E+00 0.  1.
          1   -1    0    0  501    0  0.00000000000E+00 -0.00000000000E+00 -0.16044927735E+03  0.16044927735E+03  0.00000000000E+00 0. -1.
         25    2    1    2    0    0 -0.87406909897E+01  0.25427980769E+02 -0.14827978403E+02  0.12880234177E+03  0.12508873817E+03 0.  0.
         23    2    1    2    0    0  0.87406909897E+01 -0.25427980769E+02 -0.63662786380E+02  0.11360544815E+03  0.90167985418E+02 0.  0.
          5    1    3    3  502    0 -0.49775007340E+02  0.50486991436E+02  0.14279314703E+02  0.72442107150E+02  0.41800000000E+01 0.  1.
         -5    1    3    3    0  502  0.41034316351E+02 -0.25059010666E+02 -0.29107293107E+02  0.56360234616E+02  0.41800000000E+01 0.  1.
        -11    1    4    4    0    0 -0.28171540437E+02  0.16380092801E+02 -0.43388808001E+02  0.54263540158E+02  0.00000000000E+00 0.  1.
         11    1    4    4    0    0  0.36912231427E+02 -0.41808073570E+02 -0.20273978379E+02  0.59341907990E+02  0.00000000000E+00 0. -1.
</event>
<event>
 8    1  0.6860461E-009  0.1184323E+03  0.7561462E-02  0.1245706E+00
          3   -1    0    0  501    0  0.00000000000E+00  0.00000000000E+00  0.17130300209E+03  0.17130300209E+03  0.00000000000E+00 0. -1.
         -3   -1    0    0    0  501 -0.00000000000E+00 -0.00000000000E+00 -0.12813502308E+03  0.12813502308E+03  0.00000000000E+00 0.  1.
         25    2    1    2    0    0  0.73755879072E+02 -0.58791614340E+02  0.58845878763E+02  0.16735205715E+03  0.12508992753E+03 0.  0.
         23    2    1    2    0    0 -0.73755879072E+02  0.58791614340E+02 -0.15677899753E+02  0.13208596801E+03  0.91129154451E+02 0.  0.
          5    1    3    3  502    0 -0.39157888636E+00 -0.25960268334E+02 -0.34662557382E+02  0.43509242125E+02  0.41800000000E+01 0.  1.
         -5    1    3    3    0  502  0.74147457959E+02 -0.32831346006E+02  0.93508436145E+02  0.12384281502E+03  0.41800000000E+01 0.  1.
        -11    1    4    4    0    0  0.17629221775E+02  0.27709375931E+02  0.54054392964E+01  0.33283896240E+02  0.00000000000E+00 0. -1.
         11    1    4    4    0    0 -0.91385100848E+02  0.31082238409E+02 -0.21083339049E+02  0.98802071774E+02  0.00000000000E+00 0.  1.
</event>
<event>
 8    1  0.6860461E-009  0.1249736E+03  0.7561462E-02  0.1235111E+00
          2   -1    0    0  501    0  0.00000000000E+00  0.00000000000E+00  0.96503433416E+03  0.96503433416E+03  0.00000000000E+00 0.  1.
         -2   -1    0    0    0  501 -0.00000000000E+00 -0.00000000000E+00 -0.16863434092E+02  0.16863434092E+02  0.00000000000E+00 0. -1.
         25    2    1    2    0    0  0.87223983476E+01 -0.60785648610E+02  0.43823729890E+03  0.45985935422E+03  0.12509084781E+03 0.  0.
         23    2    1    2    0    0 -0.87223983476E+01  0.60785648610E+02  0.50993360117E+03  0.52203841404E+03  0.93385506446E+02 0.  0.
          5    1    3    3  502    0 -0.55283916655E+02 -0.49203296346E+02  0.23897486038E+03  0.25020737820E+03  0.41800000000E+01 0.  1.
         -5    1    3    3    0  502  0.64006315003E+02 -0.11582352264E+02  0.19926243852E+03  0.20965197602E+03  0.41800000000E+01 0.  1.
        -11    1    4    4    0    0 -0.48601365459E+02  0.17177919981E+02  0.20105145861E+03  0.20755448121E+03  0.00000000000E+00 0. -1.
         11    1    4    4    0    0  0.39878967112E+02  0.43607728629E+02  0.30888214256E+03  0.31448393283E+03  0.00000000000E+00 0.  1.
</event>
<event>
 8    1  0.6860461E-009  0.7580258E+02  0.7561462E-02  0.1341404E+00
          1   -1    0    0  501    0  0.00000000000E+00  0.00000000000E+00  0.44405485507E+03  0.44405485507E+03  0.00000000000E+00 0.  1.
         -1   -1    0    0    0  501 -0.00000000000E+00 -0.00000000000E+00 -0.57397272544E+02  0.57397272544E+02  0.00000000000E+00 0. -1.
         25    2    1    2    0    0 -0.47808352183E+02 -0.35023285184E+02  0.50331726820E+02  0.14728798929E+03  0.12509276566E+03 0.  0.
         23    2    1    2    0    0  0.47808352183E+02  0.35023285184E+02  0.33632585571E+03  0.35416413833E+03  0.93834357331E+02 0.  0.
          5    1    3    3  502    0  0.42363107635E+01 -0.11618359858E+02 -0.39042505928E+02  0.41167004795E+02  0.41800000000E+01 0.  1.
         -5    1    3    3    0  502 -0.52044662947E+02 -0.23404925326E+02  0.89374232748E+02  0.10612098449E+03  0.41800000000E+01 0.  1.
        -11    1    4    4    0    0  0.58077160724E+02  0.16871677439E+02  0.32470667570E+03  0.33029083448E+03  0.00000000000E+00 0.  1.
         11    1    4    4    0    0 -0.10268808540E+02  0.18151607745E+02  0.11619180010E+02  0.23873303849E+02  0.00000000000E+00 0. -1.
</event>
<event>
 8    1  0.6860461E-009  0.2028866E+03  0.7561462E-02  0.1147326E+00
          1   -1    0    0  501    0  0.00000000000E+00  0.00000000000E+00  0.89596744597E+03  0.89596744597E+03  0.00000000000E+00 0. -1.
         -1   -1    0    0    0  501 -0.00000000000E+00 -0.00000000000E+00 -0.76975803401E+02  0.76975803401E+02  0.00000000000E+00 0.  1.
         25    2    1    2    0    0  0.12520523115E+03 -0.12676418214E+03  0.12618010131E+03  0.25162436185E+03  0.12509154139E+03 0.  0.
         23    2    1    2    0    0 -0.12520523115E+03  0.12676418214E+03  0.69281154126E+03  0.72131888753E+03  0.92561320329E+02 0.  0.
          5    1    3    3  502    0  0.13289679752E+03 -0.64843964191E+02  0.57432995513E+02  0.15868938167E+03  0.41800000000E+01 0.  1.
         -5    1    3    3    0  502 -0.76915663664E+01 -0.61920217948E+02  0.68747105798E+02  0.92934980172E+02  0.41800000000E+01 0.  1.
        -11    1    4    4    0    0 -0.10148693945E+03  0.46541259700E+02  0.31054920568E+03  0.33000984362E+03  0.00000000000E+00 0.  1.
         11    1    4    4    0    0 -0.23718291698E+02  0.80222922438E+02  0.38226233558E+03  0.39130904391E+03  0.00000000000E+00 0. -1.
</event>
<event>
 8    1  0.6860461E-009  0.1617372E+03  0.7561462E-02  0.1186749E+00
         -1   -1    0    0    0  501 -0.00000000000E+00  0.00000000000E+00  0.30351644199E+02  0.30351644199E+02  0.00000000000E+00 0.  1.
          1   -1    0    0  501    0  0.00000000000E+00 -0.00000000000E+00 -0.10047658754E+04  0.10047658754E+04  0.00000000000E+00 0. -1.
         25    2    1    2    0    0 -0.10359935187E+03  0.78131055975E+02 -0.63982087012E+03  0.66472314939E+03  0.12509529117E+03 0.  0.
         23    2    1    2    0    0  0.10359935187E+03 -0.78131055975E+02 -0.33459336103E+03  0.37039437016E+03  0.91662340066E+02 0.  0.
          5    1    3    3  502    0 -0.10555083988E+03  0.37960177085E+01 -0.38370525287E+03  0.39799821988E+03  0.41800000000E+01 0. -1.
         -5    1    3    3    0  502  0.19514880091E+01  0.74335038266E+02 -0.25611561725E+03  0.26672492950E+03  0.41800000000E+01 0. -1.
        -11    1    4    4    0    0  0.94613936986E+02 -0.88514452103E+02 -0.33204641821E+03  0.35642871538E+03  0.00000000000E+00 0. -1.
         11    1    4    4    0    0  0.89854148848E+01  0.10383396128E+02 -0.25469428261E+01  0.13965654785E+02  0.00000000000E+00 0.  1.
</event>
<event>
 8    1  0.6860461E-009  0.1024874E+03  0.7561462E-02  0.1275151E+00
          1   -1    0    0  501    0  0.00000000000E+00  0.00000000000E+00  0.92929062973E+02  0.92929062973E+02  0.00000000000E+00 0. -1.
         -1   -1    0    0    0  501 -0.00000000000E+00 -0.00000000000E+00 -0.14375319628E+03  0.14375319628E+03  0.00000000000E+00 0.  1.
         25    2    1    2    0    0  0.21848369514E+02 -0.33132377869E+02 -0.43876689410E+02  0.13837834261E+03  0.12509314976E+03 0.  0.
         23    2    1    2    0    0 -0.21848369514E+02  0.33132377869E+02 -0.69474439019E+01  0.98303916648E+02  0.89667649338E+02 0.  0.
          5    1    3    3  502    0 -0.42197294270E+02  0.20574566116E+02 -0.10548537436E+02  0.48297706535E+02  0.41800000000E+01 0. -1.
         -5    1    3    3    0  502  0.64045663783E+02 -0.53706943985E+02 -0.33328151974E+02  0.90080636074E+02  0.41800000000E+01 0. -1.
        -11    1    4    4    0    0 -0.49395253619E+01  0.50016284930E+02  0.26796056248E+02  0.56956617696E+02  0.00000000000E+00 0. -1.
         11    1    4    4    0    0 -0.16908844152E+02 -0.16883907061E+02 -0.33743500150E+02  0.41347298951E+02  0.00000000000E+00 0.  1.
</event>
<event>
 8    1  0.6860461E-009  0.1080947E+03  0.7561462E-02  0.1264139E+00
         -1   -1    0    0    0  501 -0.00000000000E+00  0.00000000000E+00  0.12543171356E+03  0.12543171356E+03  0.00000000000E+00 0.  1.
          1   -1    0    0  501    0  0.00000000000E+00 -0.00000000000E+00 -0.11046753782E+03  0.11046753782E+03  0.00000000000E+00 0. -1.
         25    2    1    2    0    0 -0.43981209884E+02 -0.10341337337E+02  0.10215642097E+02  0.13339313899E+03  0.12509228635E+03 0.  0.
         23    2    1    2    0    0  0.43981209884E+02  0.10341337337E+02  0.47485336481E+01  0.10250611239E+03  0.91889414109E+02 0.  0.
          5    1    3    3  502    0 -0.71753557369E+02  0.27377559407E+02  0.29756502511E+02  0.82468330866E+02  0.41800000000E+01 0.  1.
         -5    1    3    3    0  502  0.27772347485E+02 -0.37718896744E+02 -0.19540860414E+02  0.50924808120E+02  0.41800000000E+01 0.  1.
        -11    1    4    4    0    0  0.17429254896E+02 -0.35344855321E+02 -0.19957660107E+02  0.44174041256E+02  0.00000000000E+00 0. -1.
         11    1    4    4    0    0  0.26551954987E+02  0.45686192658E+02  0.24706193755E+02  0.58332071137E+02  0.00000000000E+00 0.  1.
</event>
<event>
 8    1  0.6860461E-009  0.9958258E+02  0.7561462E-02  0.1281176E+00
         -1   -1    0    0    0  501 -0.00000000000E+00  0.00000000000E+00  0.12163472805E+03  0.12163472805E+03  0.00000000000E+00 0.  1.
          1   -1    0    0  501    0  0.00000000000E+00 -0.00000000000E+00 -0.33255275832E+03  0.33255275832E+03  0.00000000000E+00 0. -1.
         25    2    1    2    0    0  0.37018430374E+02  0.27427924210E+02 -0.29373583721E+03  0.32256954616E+03  0.12509082634E+03 0.  0.
         23    2    1    2    0    0 -0.37018430374E+02 -0.27427924210E+02  0.82817806932E+02  0.13161794021E+03  0.91333662067E+02 0.  0.
          5    1    3    3  502    0  0.77908789764E+02  0.41586116813E+02 -0.21795610429E+03  0.23520527296E+03  0.41800000000E+01 0. -1.
         -5    1    3    3    0  502 -0.40890359391E+02 -0.14158192604E+02 -0.75779732923E+02  0.87364273194E+02  0.41800000000E+01 0. -1.
        -11    1    4    4    0    0 -0.16876164236E+02 -0.40083747499E+02  0.95299103358E+02  0.10475414471E+03  0.00000000000E+00 0.  1.
         11    1    4    4    0    0 -0.20142266137E+02  0.12655823289E+02 -0.12481296426E+02  0.26863795502E+02  0.00000000000E+00 0. -1.
</event>
<event>
 8    1  0.6860461E-009  0.1504177E+03  0.7561462E-02  0.1199961E+00
          2   -1    0    0  501    0  0.00000000000E+00  0.00000000000E+00  0.30835995910E+03  0.30835995910E+03  0.00000000000E+00 0. -1.
         -2   -1    0    0    0  501 -0.00000000000E+00 -0.00000000000E+00 -0.91472869088E+02  0.91472869088E+02  0.00000000000E+00 0.  1.
         25    2    1    2    0    0  0.74475900450E+01 -0.10747175216E+03  0.36182983881E+02  0.16900612898E+03  0.12509284233E+03 0.  0.
         23    2    1    2    0    0 -0.74475900450E+01  0.10747175216E+03  0.18070410613E+03  0.23082669920E+03  0.94980771647E+02 0.  0.
          5    1    3    3  502    0  0.61994743607E+02 -0.29407795279E+02  0.59433719633E+01  0.68999729915E+02  0.41800000000E+01 0.  1.
         -5    1    3    3    0  502 -0.54547153562E+02 -0.78063956881E+02  0.30239611918E+02  0.10000639907E+03  0.41800000000E+01 0.  1.
        -11    1    4    4    0    0 -0.42182167272E+02  0.29693408537E+02  0.35974594208E+02  0.62890421963E+02  0.00000000000E+00 0.  1.
         11    1    4    4    0    0  0.34734577227E+02  0.77778343623E+02  0.14472951192E+03  0.16793627724E+03  0.00000000000E+00 0. -1.
</event>
<event>
 8    1  0.6860461E-009  0.1511162E+03  0.7561462E-02  0.1199108E+00
          2   -1    0    0  501    0  0.00000000000E+00  0.00000000000E+00  0.15282806066E+03  0.15282806066E+03  0.00000000000E+00 0. -1.
         -2   -1    0    0    0  501 -0.00000000000E+00 -0.00000000000E+00 -0.16201873153E+03  0.16201873153E+03  0.00000000000E+00 0.  1.
         25    2    1    2    0    0  0.11331277338E+03 -0.43086797895E+01  0.75443896361E+01  0.16900092960E+03  0.12508415990E+03 0.  0.
         23    2    1    2    0    0 -0.11331277338E+03  0.43086797895E+01 -0.16735060511E+02  0.14584586260E+03  0.90180951725E+02 0.  0.
          5    1    3    3  502    0  0.23467077262E+02  0.47921076605E+02 -0.26286983664E+02  0.59628946061E+02  0.41800000000E+01 0.  1.
         -5    1    3    3    0  502  0.89845696116E+02 -0.52229756394E+02  0.33831373300E+02  0.10937198354E+03  0.41800000000E+01 0.  1.
        -11    1    4    4    0    0 -0.42132264016E+02 -0.42233921973E+02 -0.33226010378E+01  0.59748401769E+02  0.00000000000E+00 0.  1.
         11    1    4    4    0    0 -0.71180509362E+02  0.46542601762E+02 -0.13412459473E+02  0.86097460827E+02  0.00000000000E+00 0. -1.
</event>
<event>
 8    1  0.6860461E-009  0.1118332E+03  0.7561462E-02  0.1257212E+00
         -2   -1    0    0    0  501 -0.00000000000E+00  0.00000000000E+00  0.12575660010E+02  0.12575660010E+02  0.00000000000E+00 0. -1.
          2   -1    0    0  501    0  0.00000000000E+00 -0.00000000000E+00 -0.10003787808E+04  0.10003787808E+04  0.00000000000E+00 0.  1.
         25    2    1    2    0    0 -0.12067696893E+01  0.30254367824E+02 -0.56910516020E+03  0.58347614497E+03  0.12508775049E+03 0.  0.
         23    2    1    2    0    0  0.12067696893E+01 -0.30254367824E+02 -0.41869796058E+03  0.42947829583E+03  0.90701936729E+02 0.  0.
          5    1    3    3  502    0  0.20791955977E+02 -0.45088050671E+02 -0.20253530761E+03  0.20857435359E+03  0.41800000000E+01 0. -1.
         -5    1    3    3    0  502 -0.21998725666E+02  0.75342418495E+02 -0.36656985259E+03  0.37490179138E+03  0.41800000000E+01 0. -1.
        -11    1    4    4    0    0 -0.43879077489E+02 -0.67500236773E+01 -0.17614532707E+03  0.18165382602E+03  0.00000000000E+00 0. -1.
         11    1    4    4    0    0  0.45085847178E+02 -0.23504344147E+02 -0.24255263351E+03  0.24782446980E+03  0.00000000000E+00 0.  1.
</event>
<event>
 8    1  0.6860461E-009  0.1117276E+03  0.7561462E-02  0.1257404E+00
         -2   -1    0    0    0  501 -0.00000000000E+00  0.00000000000E+00  0.22084850684E+02  0.22084850684E+02  0.00000000000E+00 0. -1.
          2   -1    0    0  501    0  0.00000000000E+00 -0.00000000000E+00 -0.67697648707E+03  0.67697648707E+03  0.00000000000E+00 0.  1.
         25    2    1    2    0    0  0.38096929713E+01 -0.53325439800E+02 -0.42401231125E+03  0.44530143188E+03  0.12509519917E+03 0.  0.
         23    2    1    2    0    0 -0.38096929713E+01  0.53325439800E+02 -0.23087932513E+03  0.25375990587E+03  0.90723264727E+02 0.  0.
          5    1    3    3  502    0 -0.56827000566E+02 -0.30727284604E+02 -0.14406508428E+03  0.15794206191E+03  0.41800000000E+01 0. -1.
         -5    1    3    3    0  502  0.60636693537E+02 -0.22598155196E+02 -0.27994722697E+03  0.28735936997E+03  0.41800000000E+01 0. -1.
        -11    1    4    4    0    0 -0.38941857622E+01 -0.20086264768E+02 -0.13996777478E+02  0.24789765930E+02  0.00000000000E+00 0. -1.
         11    1    4    4    0    0  0.84492790957E-01  0.73411704569E+02 -0.21688254766E+03  0.22897013994E+03  0.00000000000E+00 0.  1.
</event>
<event>
 8    1  0.6860461E-009  0.9367011E+02  0.7561462E-02  0.1294200E+00
         -2   -1    0    0    0  501 -0.00000000000E+00  0.00000000000E+00  0.16365687517E+02  0.16365687517E+02  0.00000000000E+00 0.  1.
          2   -1    0    0  501    0  0.00000000000E+00 -0.00000000000E+00 -0.88590954265E+03  0.88590954265E+03  0.00000000000E+00 0. -1.
         25    2    1    2    0    0 -0.52640637017E+02  0.13029960018E+02 -0.51800070346E+03  0.53564229696E+03  0.12508846859E+03 0.  0.
         23    2    1    2    0    0  0.52640637017E+02 -0.13029960018E+02 -0.35154315167E+03  0.36663293322E+03  0.88861148464E+02 0.  0.
          5    1    3    3  502    0  0.12035850861E+02  0.13335103903E+02 -0.40465305614E+03  0.40507314765E+03  0.41800000000E+01 0.  1.
         -5    1    3    3    0  502 -0.64676487878E+02 -0.30514388483E+00 -0.11334764732E+03  0.13056914931E+03  0.41800000000E+01 0.  1.
        -11    1    4    4    0    0  0.67704422794E+02  0.17596795211E+02 -0.23315417107E+03  0.24342227415E+03  0.00000000000E+00 0. -1.
         11    1    4    4    0    0 -0.15063785777E+02 -0.30626755229E+02 -0.11838898061E+03  0.12321065906E+03  0.00000000000E+00 0.  1.
</event>
<event>
 8    1  0.6860461E-009  0.7226894E+02  0.7561462E-02  0.1352543E+00
         -1   -1    0    0    0  501 -0.00000000000E+00  0.00000000000E+00  0.10386375100E+03  0.10386375100E+03  0.00000000000E+00 0.  1.
          1   -1    0    0  501    0  0.00000000000E+00 -0.00000000000E+00 -0.12621480819E+03  0.12621480819E+03  0.00000000000E+00 0. -1.
         25    2    1    2    0    0  0.20517800725E+02  0.30625629840E+02 -0.23269494316E+01  0.13042490795E+03  0.12508530118E+03 0.  0.
         23    2    1    2    0    0 -0.20517800725E+02 -0.30625629840E+02 -0.20024107755E+02  0.99653651235E+02  0.90393450887E+02 0.  0.
          5    1    3    3  502    0  0.50148562981E+02  0.34712063525E+02 -0.46573818324E+02  0.76853098028E+02  0.41800000000E+01 0.  1.
         -5    1    3    3    0  502 -0.29630762256E+02 -0.40864336847E+01  0.44246868892E+02  0.53571809927E+02  0.41800000000E+01 0.  1.
        -11    1    4    4    0    0  0.10132315324E+02 -0.37617859460E+00 -0.47500935575E+02  0.48571022273E+02  0.00000000000E+00 0. -1.
         11    1    4    4    0    0 -0.30650116049E+02 -0.30249451246E+02  0.27476827821E+02  0.51082628961E+02  0.00000000000E+00 0.  1.
</event>
<event>
 8    1  0.6860461E-009  0.1758264E+03  0.7561462E-02  0.1171905E+00
         -2   -1    0    0    0  501 -0.00000000000E+00  0.00000000000E+00  0.17977446826E+03  0.17977446826E+03  0.00000000000E+00 0. -1.
          2   -1    0    0  501    0  0.00000000000E+00 -0.00000000000E+00 -0.23503616320E+03  0.23503616320E+03  0.00000000000E+00 0.  1.
         25    2    1    2    0    0 -0.16400811571E+03  0.22725890593E+02 -0.82972826332E+02  0.22348999070E+03  0.12509259734E+03 0.  0.
         23    2    1    2    0    0  0.16400811571E+03 -0.22725890593E+02  0.27711131388E+02  0.19132064076E+03  0.91763569318E+02 0.  0.
          5    1    3    3  502    0 -0.46635555631E+02 -0.10261428684E+02 -0.89281634157E+02  0.10133535694E+03  0.41800000000E+01 0. -1.
         -5    1    3    3    0  502 -0.11737256008E+03  0.32987319277E+02  0.63088078247E+01  0.12215463376E+03  0.41800000000E+01 0. -1.
        -11    1    4    4    0    0  0.68208386738E+02  0.27519479013E+02  0.37761902424E+02  0.82678092752E+02  0.00000000000E+00 0.  1.
         11    1    4    4    0    0  0.95799728976E+02 -0.50245369606E+02 -0.10050771036E+02  0.10864254801E+03  0.00000000000E+00 0. -1.
</event>
<event>
 8    1  0.6860461E-009  0.1499268E+03  0.7561462E-02  0.1200563E+00
          2   -1    0    0  501    0  0.00000000000E+00  0.00000000000E+00  0.32547996723E+03  0.32547996723E+03  0.00000000000E+00 0. -1.
         -2   -1    0    0    0  501 -0.00000000000E+00 -0.00000000000E+00 -0.10243867116E+03  0.10243867116E+03  0.00000000000E+00 0.  1.
         25    2    1    2    0    0 -0.88227773216E+02 -0.11533586511E+03  0.14461088060E+03  0.24009907301E+03  0.12509498922E+03 0.  0.
         23    2    1    2    0    0  0.88227773216E+02  0.11533586511E+03  0.78430415471E+02  0.18781956537E+03  0.89656886629E+02 0.  0.
          5    1    3    3  502    0 -0.48532226121E+02 -0.61936611077E+02 -0.22339478093E+01  0.78828825228E+02  0.41800000000E+01 0. -1.
         -5    1    3    3    0  502 -0.39695547094E+02 -0.53399254029E+02  0.14684482841E+03  0.16127024778E+03  0.41800000000E+01 0. -1.
        -11    1    4    4    0    0  0.51656719595E+02  0.25946547078E+02  0.70128213024E+02  0.90882375885E+02  0.00000000000E+00 0.  1.
         11    1    4    4    0    0  0.36571053621E+02  0.89389318029E+02  0.83022024469E+01  0.96937189489E+02  0.00000000000E+00 0. -1.
</event>
<event>
 8    1  0.6860461E-009  0.3067283E+03  0.7561462E-02  0.1081925E+00
         -2   -1    0    0    0  501 -0.00000000000E+00  0.00000000000E+00  0.14376592436E+03  0.14376592436E+03  0.00000000000E+00 0.  1.
          2   -1    0    0  501    0  0.00000000000E+00 -0.00000000000E+00 -0.97615078884E+03  0.97615078884E+03  0.00000000000E+00 0. -1.
         25    2    1    2    0    0  0.25064496534E+03 -0.16670125028E+03 -0.13106866445E+03  0.35133793320E+03  0.12508854067E+03 0.  0.
         23    2    1    2    0    0 -0.25064496534E+03  0.16670125028E+03 -0.70131620003E+03  0.76857878000E+03  0.90866512780E+02 0.  0.
          5    1    3    3  502    0  0.19023922852E+03 -0.13442206051E+03 -0.15367337810E+03  0.27909359354E+03  0.41800000000E+01 0. -1.
         -5    1    3    3    0  502  0.60405736825E+02 -0.32279189769E+02  0.22604713651E+02  0.72244339659E+02  0.41800000000E+01 0. -1.
        -11    1    4    4    0    0 -0.22196113490E+02  0.51355707387E+02 -0.91632585418E+02  0.10736203633E+03  0.00000000000E+00 0.  1.
         11    1    4    4    0    0 -0.22844885186E+03  0.11534554289E+03 -0.60968361462E+03  0.66121674367E+03  0.00000000000E+00 0. -1.
</event>
<event>
 8    1  0.6860461E-009  0.6994094E+02  0.7561462E-02  0.1360294E+00
         -2   -1    0    0    0  501 -0.00000000000E+00  0.00000000000E+00  0.39790249863E+02  0.39790249863E+02  0.00000000000E+00 0.  1.
          2   -1    0    0  501    0  0.00000000000E+00 -0.00000000000E+00 -0.32180819582E+03  0.32180819582E+03  0.00000000000E+00 0. -1.
         25    2    1    2    0    0 -0.89198082393E+01 -0.80123329410E+01 -0.12781198907E+03  0.17923942697E+03  0.12508839743E+03 0.  0.
         23    2    1    2    0    0  0.89198082393E+01  0.80123329410E+01 -0.15420595688E+03  0.18235901871E+03  0.96600073030E+02 0.  0.
          5    1    3    3  502    0 -0.32318135170E+01  0.16656841823E+02 -0.14647320214E+03  0.14751191933E+03  0.41800000000E+01 0.  1.
         -5    1    3    3    0  502 -0.56879947223E+01 -0.24669174764E+02  0.18661213073E+02  0.31727507637E+02  0.41800000000E+01 0.  1.
        -11    1    4    4    0    0  0.11124578386E+01  0.52030679910E+02 -0.72855401222E+02  0.89534008631E+02  0.00000000000E+00 0.  1.
         11    1    4    4    0    0  0.78073504007E+01 -0.44018346969E+02 -0.81350555662E+02  0.92825010081E+02  0.00000000000E+00 0. -1.
</event>
<event>
 8    1  0.6860461E-009  0.1326796E+03  0.7561462E-02  0.1223533E+00
         -2   -1    0    0    0  501 -0.00000000000E+00  0.00000000000E+00  0.16756158788E+02  0.16756158788E+02  0.00000000000E+00 0.  1.
          2   -1    0    0  501    0  0.00000000000E+00 -0.00000000000E+00 -0.11864729784E+04  0.11864729784E+04  0.00000000000E+00 0. -1.
         25    2    1    2    0    0 -0.21224795883E+02  0.81265039034E+02 -0.52995048171E+03  0.55095347375E+03  0.12509084155E+03 0.  0.
         23    2    1    2    0    0  0.21224795883E+02 -0.81265039034E+02 -0.63976633790E+03  0.65227566344E+03  0.95436237741E+02 0.  0.
          5    1    3    3  502    0 -0.56245454963E+02  0.52367855879E+01 -0.12235074868E+03  0.13482638180E+03  0.41800000000E+01 0. -1.
         -5    1    3    3    0  502  0.35020659080E+02  0.76028253446E+02 -0.40759973303E+03  0.41612709194E+03  0.41800000000E+01 0. -1.
        -11    1    4    4    0    0  0.13654816756E+02  0.19528008593E+02 -0.80651732478E+02  0.84098151537E+02  0.00000000000E+00 0. -1.
         11    1    4    4    0    0  0.75699791268E+01 -0.10079304763E+03 -0.55911460542E+03  0.56817751190E+03  0.00000000000E+00 0.  1.
</event>
<event>
 8    1  0.6860461E-009  0.9820700E+02  0.7561462E-02  0.1284112E+00
          1   -1    0    0  501    0  0.00000000000E+00  0.00000000000E+00  0.20658600583E+03  0.20658600583E+03  0.00000000000E+00 0. -1.
         -1   -1    0    0    0  501 -0.00000000000E+00 -0.00000000000E+00 -0.59845449926E+02  0.59845449926E+02  0.00000000000E+00 0.  1.
         25    2    1    2    0    0  0.11848630445E+02 -0.14909641796E+02  0.10024112363E+03  0.16142623167E+03  0.12508979952E+03 0.  0.
         23    2    1    2    0    0 -0.11848630445E+02  0.14909641796E+02  0.46499432276E+02  0.10500522409E+03  0.92202019617E+02 0.  0.
          5    1    3    3  502    0  0.40153524251E+02 -0.59184193608E+02  0.42757605115E+02  0.83431166107E+02  0.41800000000E+01 0.  1.
         -5    1    3    3    0  502 -0.28304893806E+02  0.44274551812E+02  0.57483518511E+02  0.77995065561E+02  0.41800000000E+01 0.  1.
        -11    1    4    4    0    0  0.96806031855E+01 -0.24945940771E+02 -0.13383694558E+02  0.29918845549E+02  0.00000000000E+00 0.  1.
         11    1    4    4    0    0 -0.21529233631E+02  0.39855582566E+02  0.59883126834E+02  0.75086378537E+02  0.00000000000E+00 0. -1.
</event>
<event>
 8    1  0.6860461E-009  0.2638357E+03  0.7561462E-02  0.1104860E+00
         -4   -1    0    0    0  501 -0.00000000000E+00  0.00000000000E+00  0.26210885098E+03  0.26210885098E+03  0.00000000000E+00 0.  1.
          4   -1    0    0  501    0  0.00000000000E+00 -0.00000000000E+00 -0.40463550363E+03  0.40463550363E+03  0.00000000000E+00 0. -1.
         25    2    1    2    0    0  0.22110819632E+03 -0.11708189705E+03  0.10984502566E+03  0.30051969421E+03  0.12509657010E+03 0.  0.
         23    2    1    2    0    0 -0.22110819632E+03  0.11708189705E+03 -0.25237167831E+03  0.36622466040E+03  0.88498772737E+02 0.  0.
          5    1    3    3  502    0  0.12472718892E+03 -0.14964831157E+02  0.98300686308E+02  0.15956602131E+03  0.41800000000E+01 0. -1.
         -5    1    3    3    0  502  0.96381007393E+02 -0.10211706590E+03  0.11544339353E+02  0.14095367290E+03  0.41800000000E+01 0. -1.
        -11    1    4    4    0    0 -0.16315360834E+03  0.45462364139E+02 -0.13250920580E+03  0.21504561398E+03  0.00000000000E+00 0.  1.
         11    1    4    4    0    0 -0.57954587976E+02  0.71619532913E+02 -0.11986247250E+03  0.15117904642E+03  0.00000000000E+00 0. -1.
</event>
<event>
 8    1  0.6860461E-009  0.8165693E+02  0.7561462E-02  0.1324414E+00
         -1   -1    0    0    0  501 -0.00000000000E+00  0.00000000000E+00  0.83781612957E+02  0.83781612957E+02  0.00000000000E+00 0.  1.
          1   -1    0    0  501    0  0.00000000000E+00 -0.00000000000E+00 -0.14429210541E+03  0.14429210541E+03  0.00000000000E+00 0. -1.
         25    2    1    2    0    0  0.22828180538E+01 -0.18095327810E+02 -0.30052062689E+02  0.12993694043E+03  0.12509128615E+03 0.  0.
         23    2    1    2    0    0 -0.22828180538E+01  0.18095327810E+02 -0.30458429760E+02  0.98136777933E+02  0.91490213098E+02 0.  0.
          5    1    3    3  502    0 -0.13462187086E+02 -0.69067117788E+02 -0.29520253461E+02  0.76422607945E+02  0.41800000000E+01 0. -1.
         -5    1    3    3    0  502  0.15745005140E+02  0.50971789978E+02 -0.53180922786E+00  0.53514332486E+02  0.41800000000E+01 0. -1.
        -11    1    4    4    0    0 -0.18391053435E+02  0.66731043133E+01  0.29282487455E+02  0.35216831760E+02  0.00000000000E+00 0.  1.
         11    1    4    4    0    0  0.16108235382E+02  0.11422223497E+02 -0.59740917215E+02  0.62919946173E+02  0.00000000000E+00 0. -1.
</event>
<event>
 8    1  0.6860461E-009  0.1332542E+03  0.7561462E-02  0.1222705E+00
          1   -1    0    0  501    0  0.00000000000E+00  0.00000000000E+00  0.36120400092E+02  0.36120400092E+02  0.00000000000E+00 0. -1.
         -1   -1    0    0    0  501 -0.00000000000E+00 -0.00000000000E+00 -0.52287416961E+03  0.52287416961E+03  0.00000000000E+00 0.  1.
         25    2    1    2    0    0 -0.51654069711E+02  0.65895173693E+02 -0.27174903474E+03  0.31065266582E+03  0.12508886468E+03 0.  0.
         23    2    1    2    0    0  0.51654069711E+02 -0.65895173693E+02 -0.21500473478E+03  0.24834190388E+03  0.91849596690E+02 0.  0.
          5    1    3    3  502    0 -0.70781920096E+02 -0.10475383224E+02 -0.13109892173E+03  0.14941289618E+03  0.41800000000E+01 0. -1.
         -5    1    3    3    0  502  0.19127850385E+02  0.76370556917E+02 -0.14065011301E+03  0.16123976964E+03  0.41800000000E+01 0. -1.
        -11    1    4    4    0    0 -0.21887476402E+02 -0.16328219636E+02 -0.19177033119E+02  0.33368113207E+02  0.00000000000E+00 0. -1.
         11    1    4    4    0    0  0.73541546113E+02 -0.49566954057E+02 -0.19582770166E+03  0.21497379067E+03  0.00000000000E+00 0.  1.
</event>
<event>
 8    1  0.6860461E-009  0.1663746E+03  0.7561462E-02  0.1181682E+00
         -1   -1    0    0    0  501 -0.00000000000E+00  0.00000000000E+00  0.16396114307E+02  0.16396114307E+02  0.00000000000E+00 0.  1.
          1   -1    0    0  501    0  0.00000000000E+00 -0.00000000000E+00 -0.24971713120E+04  0.24971713120E+04  0.00000000000E+00 0. -1.
         25    2    1    2    0    0 -0.64510272505E+02 -0.12691522844E+03 -0.18831422635E+04  0.18926545398E+04  0.12508945582E+03 0.  0.
         23    2    1    2    0    0  0.64510272505E+02  0.12691522844E+03 -0.59763293413E+03  0.62091288645E+03  0.89992433755E+02 0.  0.
          5    1    3    3  502    0 -0.97576894734E+02 -0.68945556258E+02 -0.13627242221E+04  0.13679581565E+04  0.41800000000E+01 0. -1.
         -5    1    3    3    0  502  0.33066622228E+02 -0.57969672185E+02 -0.52041804144E+03  0.52469638330E+03  0.41800000000E+01 0. -1.
        -11    1    4    4    0    0 -0.21472749520E+01  0.21512083594E+02 -0.18347313475E+02  0.28354972086E+02  0.00000000000E+00 0.  1.
         11    1    4    4    0    0  0.66657547457E+02  0.10540314485E+03 -0.57928562065E+03  0.59255791436E+03  0.00000000000E+00 0. -1.
</event>
<event>
 8    1  0.6860461E-009  0.1110230E+03  0.7561462E-02  0.1258687E+00
          2   -1    0    0  501    0  0.00000000000E+00  0.00000000000E+00  0.37895857103E+02  0.37895857103E+02  0.00000000000E+00 0. -1.
         -2   -1    0    0    0  501 -0.00000000000E+00 -0.00000000000E+00 -0.39469006382E+03  0.39469006382E+03  0.00000000000E+00 0.  1.
         25    2    1    2    0    0  0.42044398716E+02  0.41774588955E+02 -0.18488464352E+03  0.23096486012E+03  0.12509831115E+03 0.  0.
         23    2    1    2    0    0 -0.42044398716E+02 -0.41774588955E+02 -0.17190956320E+03  0.20162106081E+03  0.87093665080E+02 0.  0.
          5    1    3    3  502    0 -0.20506817271E+02  0.59920427714E+02 -0.48876185847E+02  0.80108308901E+02  0.41800000000E+01 0. -1.
         -5    1    3    3    0  502  0.62551215987E+02 -0.18145838759E+02 -0.13600845768E+03  0.15085655122E+03  0.41800000000E+01 0. -1.
        -11    1    4    4    0    0  0.11249710124E+02 -0.38284973300E+02 -0.12260140522E+03  0.12893176381E+03  0.00000000000E+00 0. -1.
         11    1    4    4    0    0 -0.53294108840E+02 -0.34896156551E+01 -0.49308157980E+02  0.72689296997E+02  0.00000000000E+00 0.  1.
</event>
<event>
 8    1  0.6860461E-009  0.1030465E+03  0.7561462E-02  0.1274017E+00
          1   -1    0    0  501    0  0.00000000000E+00  0.00000000000E+00  0.51507091056E+03  0.51507091056E+03  0.00000000000E+00 0. -1.
         -1   -1    0    0    0  501 -0.00000000000E+00 -0.00000000000E+00 -0.33994203169E+02  0.33994203169E+02  0.00000000000E+00 0.  1.
         25    2    1    2    0    0 -0.35894767859E+02 -0.38347017377E+02  0.37793677359E+03  0.40155142187E+03  0.12509361083E+03 0.  0.
         23    2    1    2    0    0  0.35894767859E+02  0.38347017377E+02  0.10313993380E+03  0.14751369186E+03  0.91452256621E+02 0.  0.
          5    1    3    3  502    0  0.41640157103E+02  0.30476461117E+01  0.73291180735E+02  0.84452711052E+02  0.41800000000E+01 0.  1.
         -5    1    3    3    0  502 -0.77534924962E+02 -0.41394663489E+02  0.30464559285E+03  0.31709871081E+03  0.41800000000E+01 0.  1.
        -11    1    4    4    0    0 -0.13045825337E+02  0.19989756885E+02 -0.76055765389E+01  0.25052519504E+02  0.00000000000E+00 0.  1.
         11    1    4    4    0    0  0.48940593196E+02  0.18357260492E+02  0.11074551033E+03  0.12246117235E+03  0.00000000000E+00 0. -1.
</event>
<event>
 8    1  0.6860461E-009  0.1279692E+03  0.7561462E-02  0.1230501E+00
         -2   -1    0    0    0  501 -0.00000000000E+00  0.00000000000E+00  0.36016273575E+02  0.36016273575E+02  0.00000000000E+00 0.  1.
          2   -1    0    0  501    0  0.00000000000E+00 -0.00000000000E+00 -0.73417218238E+03  0.73417218238E+03  0.00000000000E+00 0. -1.
         25    2    1    2    0    0 -0.14068995594E+02  0.11932106493E+03 -0.39674074297E+03  0.43299770388E+03  0.12509333021E+03 0.  0.
         23    2    1    2    0    0  0.14068995594E+02 -0.11932106493E+03 -0.30141516584E+03  0.33719075208E+03  0.91711765422E+02 0.  0.
          5    1    3    3  502    0  0.89240012762E+01  0.58647817649E+02 -0.43140691318E+02  0.73469694168E+02  0.41800000000E+01 0.  1.
         -5    1    3    3    0  502 -0.22992996870E+02  0.60673247277E+02 -0.35360005165E+03  0.35952800972E+03  0.41800000000E+01 0.  1.
        -11    1    4    4    0    0  0.32377676032E+02 -0.98695668950E+02 -0.14501404589E+03  0.17837663098E+03  0.00000000000E+00 0.  1.
         11    1    4    4    0    0 -0.18308680438E+02 -0.20625395977E+02 -0.15640111995E+03  0.15881412109E+03  0.00000000000E+00 0. -1.
</event>
<event>
 8    1  0.6860461E-009  0.9461204E+02  0.7561462E-02  0.1292052E+00
         -2   -1    0    0    0  501 -0.00000000000E+00  0.00000000000E+00  0.31650910702E+02  0.31650910702E+02  0.00000000000E+00 0.  1.
          2   -1    0    0  501    0  0.00000000000E+00 -0.00000000000E+00 -0.48254537464E+03  0.48254537464E+03  0.00000000000E+00 0. -1.
         25    2    1    2    0    0  0.51645546473E+02  0.18731104451E+02 -0.28637516808E+03  0.31729617193E+03  0.12509199448E+03 0.  0.
         23    2    1    2    0    0 -0.51645546473E+02 -0.18731104451E+02 -0.16451929586E+03  0.19690011341E+03  0.93193021242E+02 0.  0.
          5    1    3    3  502    0  0.10654034256E+02  0.51970507278E+02 -0.24328279850E+03  0.24903500662E+03  0.41800000000E+01 0.  1.
         -5    1    3    3    0  502  0.40991512217E+02 -0.33239402827E+02 -0.43092369576E+02  0.68261165312E+02  0.41800000000E+01 0.  1.
        -11    1    4    4    0    0 -0.25058837015E+02  0.22718987059E+02 -0.13568058864E+03  0.13983318569E+03  0.00000000000E+00 0. -1.
         11    1    4    4    0    0 -0.26586709458E+02 -0.41450091511E+02 -0.28838707216E+02  0.57066927725E+02  0.00000000000E+00 0.  1.
</event>
<event>
 8    1  0.6860461E-009  0.1405951E+03  0.7561462E-02  0.1212530E+00
         -2   -1    0    0    0  501 -0.00000000000E+00  0.00000000000E+00  0.12073495518E+03  0.12073495518E+03  0.00000000000E+00 0.  1.
          2   -1    0    0  501    0  0.00000000000E+00 -0.00000000000E+00 -0.22389063639E+03  0.22389063639E+03  0.00000000000E+00 0. -1.
         25    2    1    2    0    0  0.11456221572E+03  0.35895950941E+02 -0.84306665694E+02  0.19279100936E+03  0.12509092231E+03 0.  0.
         23    2    1    2    0    0 -0.11456221572E+03 -0.35895950941E+02 -0.18849015524E+02  0.15183458221E+03  0.91024361588E+02 0.  0.
          5    1    3    3  502    0  0.95744923445E+02 -0.20483722076E+02 -0.89842689633E+02  0.13295057170E+03  0.41800000000E+01 0.  1.
         -5    1    3    3    0  502  0.18817292276E+02  0.56379673017E+02  0.55360239389E+01  0.59840437659E+02  0.41800000000E+01 0.  1.
        -11    1    4    4    0    0 -0.31142137515E+02 -0.24052297741E+02  0.34312891733E+02  0.52208431261E+02  0.00000000000E+00 0.  1.
         11    1    4    4    0    0 -0.83420078206E+02 -0.11843653200E+02 -0.53161907256E+02  0.99626150945E+02  0.00000000000E+00 0. -1.
</event>
<event>
 8    1  0.6860461E-009  0.9795126E+02  0.7561462E-02  0.1284664E+00
         -3   -1    0    0    0  501 -0.00000000000E+00  0.00000000000E+00  0.42671166886E+02  0.42671166886E+02  0.00000000000E+00 0.  1.
          3   -1    0    0  501    0  0.00000000000E+00 -0.00000000000E+00 -0.51346322936E+03  0.51346322936E+03  0.00000000000E+00 0. -1.
         25    2    1    2    0    0  0.78144012417E+02 -0.23559724060E+02 -0.36281570754E+03  0.39235734303E+03  0.12508996649E+03 0.  0.
         23    2    1    2    0    0 -0.78144012417E+02  0.23559724060E+02 -0.10797635494E+03  0.16377705322E+03  0.92208907711E+02 0.  0.
          5    1    3    3  502    0  0.84582895682E+02 -0.39815336447E+02 -0.36249330102E+03  0.37437734031E+03  0.41800000000E+01 0.  1.
         -5    1    3    3    0  502 -0.64388832647E+01  0.16255612387E+02 -0.32240652586E+00  0.17980002718E+02  0.41800000000E+01 0.  1.
        -11    1    4    4    0    0 -0.38032910619E+02  0.22565110207E+02 -0.11484924996E+03  0.12306923542E+03  0.00000000000E+00 0. -1.
         11    1    4    4    0    0 -0.40111101798E+02  0.99461385258E+00  0.68728950274E+01  0.40707817802E+02  0.00000000000E+00 0.  1.
</event>
<event>
 8    1  0.6860461E-009  0.2366654E+03  0.7561462E-02  0.1122034E+00
          2   -1    0    0  501    0  0.00000000000E+00  0.00000000000E+00  0.89070530799E+03  0.89070530799E+03  0.00000000000E+00 0. -1.
         -2   -1    0    0    0  501 -0.00000000000E+00 -0.00000000000E+00 -0.73477278877E+02  0.73477278877E+02  0.00000000000E+00 0.  1.
         25    2    1    2    0    0  0.16499837380E+03 -0.16253398148E+03  0.42343676750E+03  0.49858587182E+03  0.12508963591E+03 0.  0.
         23    2    1    2    0    0 -0.16499837380E+03  0.16253398148E+03  0.39379126161E+03  0.46559671505E+03  0.89816395212E+02 0.  0.
          5    1    3    3  502    0  0.48538750338E+02 -0.64138684684E+02  0.27192520325E+03  0.28360283799E+03  0.41800000000E+01 0. -1.
         -5    1    3    3    0  502  0.11645962346E+03 -0.98395296800E+02  0.15151156425E+03  0.21498303382E+03  0.41800000000E+01 0. -1.
        -11    1    4    4    0    0 -0.10497872345E+03  0.14250005433E+03  0.33663716339E+03  0.38033061622E+03  0.00000000000E+00 0.  1.
         11    1    4    4    0    0 -0.60019650353E+02  0.20033927156E+02  0.57154098224E+02  0.85266098830E+02  0.00000000000E+00 0. -1.
</event>
<event>
 8    1  0.6860461E-009  0.1195170E+03  0.7561462E-02  0.1243896E+00
         -2   -1    0    0    0  501 -0.00000000000E+00  0.00000000000E+00  0.54656272857E+03  0.54656272857E+03  0.00000000000E+00 0.  1.
          2   -1    0    0  501    0  0.00000000000E+00 -0.00000000000E+00 -0.29275587750E+02  0.29275587750E+02  0.00000000000E+00 0. -1.
         25    2    1    2    0    0  0.58565819165E+02 -0.10762838549E+02  0.34170515070E+03  0.36872137175E+03  0.12508895278E+03 0.  0.
         23    2    1    2    0    0 -0.58565819165E+02  0.10762838549E+02  0.17558199012E+03  0.20711694456E+03  0.92317926766E+02 0.  0.
          5    1    3    3  502    0  0.46644021691E+02 -0.61654654128E+02  0.26291117008E+03  0.27407429082E+03  0.41800000000E+01 0.  1.
         -5    1    3    3    0  502  0.11921797474E+02  0.50891815579E+02  0.78793980617E+02  0.94647080935E+02  0.41800000000E+01 0.  1.
        -11    1    4    4    0    0 -0.10953942387E+02  0.47682603618E+02  0.90261172204E+02  0.10266790516E+03  0.00000000000E+00 0.  1.
         11    1    4    4    0    0 -0.47611876778E+02 -0.36919765069E+02  0.85320817916E+02  0.10444903941E+03  0.00000000000E+00 0. -1.
</event>
<event>
 8    1  0.6860461E-009  0.8974589E+02  0.7561462E-02  0.1303468E+00
          1   -1    0    0  501    0  0.00000000000E+00  0.00000000000E+00  0.27193278618E+03  0.27193278618E+03  0.00000000000E+00 0. -1.
         -1   -1    0    0    0  501 -0.00000000000E+00 -0.00000000000E+00 -0.48295404190E+02  0.48295404190E+02  0.00000000000E+00 0.  1.
         25    2    1    2    0    0 -0.13671246229E+02  0.27507054435E+02  0.93163528814E+02  0.15896696682E+03  0.12509001727E+03 0.  0.
         23    2    1    2    0    0  0.13671246229E+02 -0.27507054435E+02  0.13047385318E+03  0.16126122355E+03  0.89656092055E+02 0.  0.
          5    1    3    3  502    0 -0.58209972920E+02 -0.97956753628E+01  0.79557187134E+02  0.99152279993E+02  0.41800000000E+01 0. -1.
         -5    1    3    3    0  502  0.44538726692E+02  0.37302729798E+02  0.13606341680E+02  0.59814686822E+02  0.41800000000E+01 0. -1.
        -11    1    4    4    0    0  0.30095814035E+02 -0.33082642301E+02  0.13591372705E+03  0.14308305436E+03  0.00000000000E+00 0. -1.
         11    1    4    4    0    0 -0.16424567806E+02  0.55755878663E+01 -0.54398738709E+01  0.18178169198E+02  0.00000000000E+00 0.  1.
</event>
<event>
 8    1  0.6860461E-009  0.8826611E+02  0.7561462E-02  0.1307106E+00
         -1   -1    0    0    0  501 -0.00000000000E+00  0.00000000000E+00  0.13018739580E+03  0.13018739580E+03  0.00000000000E+00 0.  1.
          1   -1    0    0  501    0  0.00000000000E+00 -0.00000000000E+00 -0.10089788210E+03  0.10089788210E+03  0.00000000000E+00 0. -1.
         25    2    1    2    0    0  0.10871672073E+02  0.26372927353E+02 -0.62218481891E+01  0.12845218114E+03  0.12509007512E+03 0.  0.
         23    2    1    2    0    0 -0.10871672073E+02 -0.26372927353E+02  0.35511361891E+02  0.10263309676E+03  0.91971578090E+02 0.  0.
          5    1    3    3  502    0 -0.17871876573E+02  0.71719200801E+02 -0.87247165135E+01  0.74542879029E+02  0.41800000000E+01 0. -1.
         -5    1    3    3    0  502  0.28743548647E+02 -0.45346273448E+02  0.25028683244E+01  0.53909302113E+02  0.41800000000E+01 0. -1.
        -11    1    4    4    0    0  0.13505797074E+02 -0.18752370485E+02 -0.26742082466E+02  0.35343980082E+02  0.00000000000E+00 0. -1.
         11    1    4    4    0    0 -0.24377469148E+02 -0.76205568674E+01  0.62253444357E+02  0.67289116678E+02  0.00000000000E+00 0.  1.
</event>
<event>
 8    1  0.6860461E-009  0.1997482E+03  0.7561462E-02  0.1149952E+00
          1   -1    0    0  501    0  0.00000000000E+00  0.00000000000E+00  0.36933541723E+03  0.36933541723E+03  0.00000000000E+00 0. -1.
         -1   -1    0    0    0  501 -0.00000000000E+00 -0.00000000000E+00 -0.12011364548E+03  0.12011364548E+03  0.00000000000E+00 0.  1.
         25    2    1    2    0    0  0.15708133728E+03 -0.80784937631E+02  0.17046196130E+03  0.27550978258E+03  0.12509039682E+03 0.  0.
         23    2    1    2    0    0 -0.15708133728E+03  0.80784937631E+02  0.78759810451E+02  0.21393928013E+03  0.91466688854E+02 0.  0.
          5    1    3    3  502    0  0.29917044017E+02  0.27699383247E+02  0.68113949709E+01  0.41546995757E+02  0.41800000000E+01 0. -1.
         -5    1    3    3    0  502  0.12716429326E+03 -0.10848432088E+03  0.16365056633E+03  0.23396278682E+03  0.41800000000E+01 0. -1.
        -11    1    4    4    0    0 -0.56321545877E+02  0.70189343489E+02  0.66474647141E+02  0.11188180899E+03  0.00000000000E+00 0.  1.
         11    1    4    4    0    0 -0.10075979140E+03  0.10595594142E+02  0.12285163310E+02  0.10205747114E+03  0.00000000000E+00 0. -1.
</event>
<event>
 8    1  0.6860461E-009  0.1180328E+03  0.7561462E-02  0.1246378E+00
          2   -1    0    0  501    0  0.00000000000E+00  0.00000000000E+00  0.23357955785E+03  0.23357955785E+03  0.00000000000E+00 0. -1.
         -2   -1    0    0    0  501 -0.00000000000E+00 -0.00000000000E+00 -0.10283309565E+03  0.10283309565E+03  0.00000000000E+00 0.  1.
         25    2    1    2    0    0 -0.38230883491E+01 -0.10609131367E+03  0.10482495960E+03  0.19469488225E+03  0.12509133535E+03 0.  0.
         23    2    1    2    0    0  0.38230883491E+01  0.10609131367E+03  0.25921502596E+02  0.14171777125E+03  0.90233139981E+02 0.  0.
          5    1    3    3  502    0  0.13507293009E+01 -0.78396343053E+02  0.13311694778E+03  0.15454903836E+03  0.41800000000E+01 0.  1.
         -5    1    3    3    0  502 -0.51738176499E+01 -0.27694970616E+02 -0.28291988178E+02  0.40145843889E+02  0.41800000000E+01 0.  1.
        -11    1    4    4    0    0 -0.27595015136E+02  0.12414784134E+02  0.30292357928E+02  0.42816336535E+02  0.00000000000E+00 0.  1.
         11    1    4    4    0    0  0.31418103485E+02  0.93676529535E+02 -0.43708553318E+01  0.98901434715E+02  0.00000000000E+00 0. -1.
</event>
<event>
 8    1  0.6860461E-009  0.9479565E+02  0.7561462E-02  0.1291637E+00
          1   -1    0    0  501    0  0.00000000000E+00  0.00000000000E+00  0.57394428632E+03  0.57394428632E+03  0.00000000000E+00 0. -1.
         -1   -1    0    0    0  501 -0.00000000000E+00 -0.00000000000E+00 -0.33646833857E+02  0.33646833857E+02  0.00000000000E+00 0.  1.
         25    2    1    2    0    0 -0.30083606979E+02  0.73835199521E+02  0.37394776559E+03  0.40229411644E+03  0.12508782767E+03 0.  0.
         23    2    1    2    0    0  0.30083606979E+02 -0.73835199521E+02  0.16634968687E+03  0.20529700374E+03  0.90099840874E+02 0.  0.
          5    1    3    3  502    0 -0.46486128812E+02  0.77918469294E+02  0.13498672804E+03  0.16269953035E+03  0.41800000000E+01 0. -1.
         -5    1    3    3    0  502  0.16402521833E+02 -0.40832697730E+01  0.23896103755E+03  0.23959458609E+03  0.41800000000E+01 0. -1.
        -11    1    4    4    0    0  0.21930811579E+02 -0.67654446849E+02  0.17686327255E+03  0.19062712780E+03  0.00000000000E+00 0. -1.
         11    1    4    4    0    0  0.81527954002E+01 -0.61807526724E+01 -0.10513585678E+02  0.14669875945E+02  0.00000000000E+00 0.  1.
</event>
<event>
 8    1  0.6860461E-009  0.1044812E+03  0.7561462E-02  0.1271145E+00
         -1   -1    0    0    0  501 -0.00000000000E+00  0.00000000000E+00  0.64185868844E+03  0.64185868844E+03  0.00000000000E+00 0.  1.
          1   -1    0    0  501    0  0.00000000000E+00 -0.00000000000E+00 -0.20405239032E+02  0.20405239032E+02  0.00000000000E+00 0. -1.
         25    2    1    2    0    0  0.15100919761E+01  0.32112348622E+02  0.38707834409E+03  0.40805387967E+03  0.12507933858E+03 0.  0.
         23    2    1    2    0    0 -0.15100919761E+01 -0.32112348622E+02  0.23437510532E+03  0.25421004780E+03  0.93046091254E+02 0.  0.
          5    1    3    3  502    0  0.43841514958E+02  0.61574447169E+02  0.26137206636E+03  0.27211453554E+03  0.41800000000E+01 0.  1.
         -5    1    3    3    0  502 -0.42331422982E+02 -0.29462098547E+02  0.12570627773E+03  0.13593934413E+03  0.41800000000E+01 0.  1.
        -11    1    4    4    0    0  0.30598391885E+02  0.65163872187E+01  0.16844267960E+03  0.17132326520E+03  0.00000000000E+00 0.  1.
         11    1    4    4    0    0 -0.32108483861E+02 -0.38628735841E+02  0.65932425717E+02  0.82886782598E+02  0.00000000000E+00 0. -1.
</event>
<event>
 8    1  0.6860461E-009  0.1378807E+03  0.7561462E-02  0.1216209E+00
          2   -1    0    0  501    0  0.00000000000E+00  0.00000000000E+00  0.17726315925E+04  0.17726315925E+04  0.00000000000E+00 0. -1.
         -2   -1    0    0    0  501 -0.00000000000E+00 -0.00000000000E+00 -0.16115206412E+02  0.16115206412E+02  0.00000000000E+00 0.  1.
         25    2    1    2    0    0 -0.42044684098E+01  0.11303114304E+03  0.12637701877E+04  0.12749738669E+04  0.12509819001E+03 0.  0.
         23    2    1    2    0    0  0.42044684098E+01 -0.11303114304E+03  0.49274619841E+03  0.51377293202E+03  0.91488211125E+02 0.  0.
          5    1    3    3  502    0  0.38696817570E+02  0.57423296972E+02  0.27184988709E+03  0.28056142329E+03  0.41800000000E+01 0. -1.
         -5    1    3    3    0  502 -0.42901285980E+02  0.55607846073E+02  0.99192030057E+03  0.99441244359E+03  0.41800000000E+01 0. -1.
        -11    1    4    4    0    0 -0.35327578991E+02 -0.63434159087E+02  0.17004298817E+03  0.18489604701E+03  0.00000000000E+00 0.  1.
         11    1    4    4    0    0  0.39532047401E+02 -0.49596983958E+02  0.32270321024E+03  0.32887688501E+03  0.00000000000E+00 0. -1.
</event>
<event>
 8    1  0.6860461E-009  0.7787972E+02  0.7561462E-02  0.1335178E+00
          1   -1    0    0  501    0  0.00000000000E+00  0.00000000000E+00  0.98054549495E+02  0.98054549495E+02  0.00000000000E+00 0. -1.
         -1   -1    0    0    0  501 -0.00000000000E+00 -0.00000000000E+00 -0.13321415139E+03  0.13321415139E+03  0.00000000000E+00 0.  1.
         25    2    1    2    0    0 -0.23233312834E+02 -0.22772797658E+02 -0.37467033504E+02  0.13457223357E+03  0.12509004881E+03 0.  0.
         23    2    1    2    0    0  0.23233312834E+02  0.22772797658E+02  0.23074316080E+01  0.96696467316E+02  0.91030189566E+02 0.  0.
          5    1    3    3  502    0  0.35757279183E+02 -0.22467475589E+02  0.24428715744E+02  0.48965345162E+02  0.41800000000E+01 0.  1.
         -5    1    3    3    0  502 -0.58990592017E+02 -0.30532206906E+00 -0.61895749248E+02  0.85606888409E+02  0.41800000000E+01 0.  1.
        -11    1    4    4    0    0 -0.12924961835E+02  0.73986201818E+01  0.39733756975E+02  0.42433072743E+02  0.00000000000E+00 0. -1.
         11    1    4    4    0    0  0.36158274669E+02  0.15374177477E+02 -0.37426325367E+02  0.54263394574E+02  0.00000000000E+00 0.  1.
</event>
<event>
 8    1  0.6860461E-009  0.1115613E+03  0.7561462E-02  0.1257706E+00
         -1   -1    0    0    0  501 -0.00000000000E+00  0.00000000000E+00  0.96410620572E+01  0.96410620572E+01  0.00000000000E+00 0.  1.
          1   -1    0    0  501    0  0.00000000000E+00 -0.00000000000E+00 -0.16926139875E+04  0.16926139875E+04  0.00000000000E+00 0. -1.
         25    2    1    2    0    0  0.20405587371E+02 -0.27037164498E+02 -0.13281346299E+04  0.13344421994E+04  0.12508793848E+03 0.  0.
         23    2    1    2    0    0 -0.20405587371E+02  0.27037164498E+02 -0.35483829562E+03  0.36781285015E+03  0.90712074389E+02 0.  0.
          5    1    3    3  502    0  0.52359967261E+02 -0.60326477120E+02 -0.68833304312E+03  0.69296515112E+03  0.41800000000E+01 0.  1.
         -5    1    3    3    0  502 -0.31954379890E+02  0.33289312622E+02 -0.63980158675E+03  0.64147704833E+03  0.41800000000E+01 0.  1.
        -11    1    4    4    0    0  0.84208598293E+01  0.55591376951E+02 -0.20157803788E+03  0.20927259120E+03  0.00000000000E+00 0. -1.
         11    1    4    4    0    0 -0.28826447200E+02 -0.28554212453E+02 -0.15326025774E+03  0.15854025895E+03  0.00000000000E+00 0.  1.
</event>
<event>
 8    1  0.6860461E-009  0.7631003E+02  0.7561462E-02  0.1339862E+00
         -2   -1    0    0    0  501 -0.00000000000E+00  0.00000000000E+00  0.23449856544E+02  0.23449856544E+02  0.00000000000E+00 0.  1.
          2   -1    0    0  501    0  0.00000000000E+00 -0.00000000000E+00 -0.91546685010E+03  0.91546685010E+03  0.00000000000E+00 0. -1.
         25    2    1    2    0    0  0.97082688584E+01  0.11639710807E+02 -0.80177744862E+03  0.81161856435E+03  0.12509150066E+03 0.  0.
         23    2    1    2    0    0 -0.97082688584E+01 -0.11639710807E+02 -0.90239544938E+02  0.12729814229E+03  0.88498068953E+02 0.  0.
          5    1    3    3  502    0  0.33231107257E+02  0.27506670377E+02 -0.96818752416E+02  0.10607670161E+03  0.41800000000E+01 0.  1.
         -5    1    3    3    0  502 -0.23522838399E+02 -0.15866959570E+02 -0.70495869620E+03  0.70554186274E+03  0.41800000000E+01 0.  1.
        -11    1    4    4    0    0  0.10967807449E+02  0.31178001107E+02 -0.66259156456E+02  0.74044826744E+02  0.00000000000E+00 0. -1.
         11    1    4    4    0    0 -0.20676076308E+02 -0.42817711915E+02 -0.23980388482E+02  0.53253315548E+02  0.00000000000E+00 0.  1.
</event>
<event>
 8    1  0.6860461E-009  0.1058306E+03  0.7561462E-02  0.1268492E+00
          4   -1    0    0  501    0  0.00000000000E+00  0.00000000000E+00  0.63492549702E+03  0.63492549702E+03  0.00000000000E+00 0. -1.
         -4   -1    0    0    0  501 -0.00000000000E+00 -0.00000000000E+00 -0.23842106747E+02  0.23842106747E+02  0.00000000000E+00 0.  1.
         25    2    1    2    0    0  0.34834552214E+01 -0.45020998517E+02  0.44480363351E+03  0.46425943739E+03  0.12509007974E+03 0.  0.
         23    2    1    2    0    0 -0.34834552214E+01  0.45020998517E+02  0.16627975676E+03  0.19450816638E+03  0.90252116389E+02 0.  0.
          5    1    3    3  502    0  0.16109630213E+02  0.34469397722E+02  0.60471464898E+02  0.71567660517E+02  0.41800000000E+01 0. -1.
         -5    1    3    3    0  502 -0.12626174992E+02 -0.79490396240E+02  0.38433216862E+03  0.39269177687E+03  0.41800000000E+01 0. -1.
        -11    1    4    4    0    0  0.38248629179E+02  0.29347973390E+02  0.12410855668E+03  0.13314351287E+03  0.00000000000E+00 0.  1.
         11    1    4    4    0    0 -0.41732084400E+02  0.15673025127E+02  0.42171200076E+02  0.61364653514E+02  0.00000000000E+00 0. -1.
</event>
<event>
 8    1  0.6860461E-009  0.1060287E+03  0.7561462E-02  0.1268106E+00
         -4   -1    0    0    0  501 -0.00000000000E+00  0.00000000000E+00  0.69246449410E+03  0.69246449410E+03  0.00000000000E+00 0.  1.
          4   -1    0    0  501    0  0.00000000000E+00 -0.00000000000E+00 -0.25846959970E+02  0.25846959970E+02  0.00000000000E+00 0. -1.
         25    2    1    2    0    0  0.56971080002E+02 -0.10701744963E+02  0.51650664594E+03  0.53459169767E+03  0.12509570981E+03 0.  0.
         23    2    1    2    0    0 -0.56971080002E+02  0.10701744963E+02  0.15011088818E+03  0.18371975640E+03  0.88653476175E+02 0.  0.
          5    1    3    3  502    0 -0.15021918027E+02 -0.51664071233E+02  0.17339571863E+03  0.18159950969E+03  0.41800000000E+01 0.  1.
         -5    1    3    3    0  502  0.71992998029E+02  0.40962326270E+02  0.34311092731E+03  0.35299218798E+03  0.41800000000E+01 0.  1.
        -11    1    4    4    0    0 -0.11953743182E+02 -0.18116018468E+02 -0.26611755965E+01  0.21866960391E+02  0.00000000000E+00 0. -1.
         11    1    4    4    0    0 -0.45017336820E+02  0.28817763431E+02  0.15277206378E+03  0.16185279601E+03  0.00000000000E+00 0.  1.
</event>
<event>
 8    1  0.6860461E-009  0.1168664E+03  0.7561462E-02  0.1248358E+00
          1   -1    0    0  501    0  0.00000000000E+00  0.00000000000E+00  0.41581236798E+03  0.41581236798E+03  0.00000000000E+00 0. -1.
         -1   -1    0    0    0  501 -0.00000000000E+00 -0.00000000000E+00 -0.58885292750E+02  0.58885292750E+02  0.00000000000E+00 0.  1.
         25    2    1    2    0    0 -0.99249332205E+02  0.30793436997E+02  0.14836883890E+03  0.22013439483E+03  0.12508866345E+03 0.  0.
         23    2    1    2    0    0  0.99249332205E+02 -0.30793436997E+02  0.20855823633E+03  0.25456326590E+03  0.10250489111E+03 0.  0.
          5    1    3    3  502    0 -0.52053715668E+02  0.38588665838E+02  0.78603191094E+00  0.64936620578E+02  0.41800000000E+01 0.  1.
         -5    1    3    3    0  502 -0.47195616538E+02 -0.77952288411E+01  0.14758280699E+03  0.15519777425E+03  0.41800000000E+01 0.  1.
        -11    1    4    4    0    0 -0.61822015215E+01 -0.12266846814E+02 -0.58402068060E+01  0.14926592443E+02  0.00000000000E+00 0.  1.
         11    1    4    4    0    0  0.10543153373E+03 -0.18526590182E+02  0.21439844313E+03  0.23963667346E+03  0.00000000000E+00 0. -1.
</event>
<event>
 8    1  0.6860461E-009  0.3161117E+03  0.7561462E-02  0.1077453E+00
          1   -1    0    0  501    0  0.00000000000E+00  0.00000000000E+00  0.42816928527E+03  0.42816928527E+03  0.00000000000E+00 0. -1.
         -1   -1    0    0    0  501 -0.00000000000E+00 -0.00000000000E+00 -0.24734623088E+03  0.24734623088E+03  0.00000000000E+00 0.  1.
         25    2    1    2    0    0  0.78070671873E+02  0.29627951434E+03  0.86235083858E+02  0.34199432249E+03  0.12508815490E+03 0.  0.
         23    2    1    2    0    0 -0.78070671873E+02 -0.29627951434E+03  0.94587970537E+02  0.33352119367E+03  0.91721982253E+02 0.  0.
          5    1    3    3  502    0  0.31154923213E+02  0.25784014693E+03  0.10220886326E+03  0.27913490419E+03  0.41800000000E+01 0.  1.
         -5    1    3    3    0  502  0.46915748660E+02  0.38439367417E+02 -0.15973779407E+02  0.62859418294E+02  0.41800000000E+01 0.  1.
        -11    1    4    4    0    0 -0.20058063907E+02 -0.18592920488E+03  0.19590291268E+02  0.18803131300E+03  0.00000000000E+00 0. -1.
         11    1    4    4    0    0 -0.58012607966E+02 -0.11035030946E+03  0.74997679269E+02  0.14548988067E+03  0.00000000000E+00 0.  1.
</event>
<event>
 8    1  0.6860461E-009  0.8728538E+02  0.7561462E-02  0.1309562E+00
          2   -1    0    0  501    0  0.00000000000E+00  0.00000000000E+00  0.16520475266E+03  0.16520475266E+03  0.00000000000E+00 0. -1.
         -2   -1    0    0    0  501 -0.00000000000E+00 -0.00000000000E+00 -0.77146620132E+02  0.77146620132E+02  0.00000000000E+00 0.  1.
         25    2    1    2    0    0 -0.29962670592E+02  0.59715588365E+01  0.58031775587E+02  0.14124503762E+03  0.12509617312E+03 0.  0.
         23    2    1    2    0    0  0.29962670592E+02 -0.59715588365E+01  0.30026356943E+02  0.10110633518E+03  0.91583228584E+02 0.  0.
          5    1    3    3  502    0  0.35211410203E+02 -0.16566665610E+02 -0.13877339112E+02  0.41525302632E+02  0.41800000000E+01 0. -1.
         -5    1    3    3    0  502 -0.65174080795E+02  0.22538224446E+02  0.71909114699E+02  0.99719734985E+02  0.41800000000E+01 0. -1.
        -11    1    4    4    0    0  0.45932806579E+02 -0.14594760963E+02 -0.16677661613E+02  0.50999746712E+02  0.00000000000E+00 0.  1.
         11    1    4    4    0    0 -0.15970135987E+02  0.86232021260E+01  0.46704018556E+02  0.50106588466E+02  0.00000000000E+00 0. -1.
</event>
<event>
 8    1  0.6860461E-009  0.2041511E+03  0.7561462E-02  0.1146283E+00
         -2   -1    0    0    0  501 -0.00000000000E+00  0.00000000000E+00  0.78959506727E+02  0.78959506727E+02  0.00000000000E+00 0.  1.
          2   -1    0    0  501    0  0.00000000000E+00 -0.00000000000E+00 -0.62122714196E+03  0.62122714196E+03  0.00000000000E+00 0. -1.
         25    2    1    2    0    0 -0.18606177591E+01 -0.17857106331E+03 -0.39882767299E+03  0.45453461259E+03  0.12508842774E+03 0.  0.
         23    2    1    2    0    0  0.18606177591E+01  0.17857106331E+03 -0.14343996224E+03  0.24565203609E+03  0.88762680877E+02 0.  0.
          5    1    3    3  502    0  0.43584853925E+02 -0.14700754244E+03 -0.34341855296E+03  0.37611784316E+03  0.41800000000E+01 0. -1.
         -5    1    3    3    0  502 -0.45445471684E+02 -0.31563520867E+02 -0.55409120025E+02  0.78416769432E+02  0.41800000000E+01 0. -1.
        -11    1    4    4    0    0 -0.24385480163E+02  0.63289053292E+01 -0.18228772775E+02  0.31096540681E+02  0.00000000000E+00 0.  1.
         11    1    4    4    0    0  0.26246097922E+02  0.17224215798E+03 -0.12521118947E+03  0.21455549541E+03  0.00000000000E+00 0. -1.
</event>
<event>
 8    1  0.6860461E-009  0.1289820E+03  0.7561462E-02  0.1228974E+00
         -2   -1    0    0    0  501 -0.00000000000E+00  0.00000000000E+00  0.33786030196E+02  0.33786030196E+02  0.00000000000E+00 0.  1.
          2   -1    0    0  501    0  0.00000000000E+00 -0.00000000000E+00 -0.69674847607E+03  0.69674847607E+03  0.00000000000E+00 0. -1.
         25    2    1    2    0    0  0.70016534188E+02  0.62195801323E+02 -0.23623268740E+03  0.28323992967E+03  0.12509333477E+03 0.  0.
         23    2    1    2    0    0 -0.70016534188E+02 -0.62195801323E+02 -0.42672975848E+03  0.44729457660E+03  0.95934971307E+02 0.  0.
          5    1    3    3  502    0 -0.20634917202E+02  0.25450648759E+02 -0.67055042423E+01  0.33704176556E+02  0.41800000000E+01 0. -1.
         -5    1    3    3    0  502  0.90651451390E+02  0.36745152565E+02 -0.22952718316E+03  0.24953575312E+03  0.41800000000E+01 0. -1.
        -11    1    4    4    0    0 -0.85928873333E+02 -0.29823909855E+02 -0.23088091791E+03  0.24815163737E+03  0.00000000000E+00 0.  1.
         11    1    4    4    0    0  0.15912339145E+02 -0.32371891469E+02 -0.19584884057E+03  0.19914293923E+03  0.00000000000E+00 0. -1.
</event>
<event>
 8    1  0.6860461E-009  0.9778185E+02  0.7561462E-02  0.1285031E+00
          2   -1    0    0  501    0  0.00000000000E+00  0.00000000000E+00  0.37489303432E+03  0.37489303432E+03  0.00000000000E+00 0. -1.
         -2   -1    0    0    0  501 -0.00000000000E+00 -0.00000000000E+00 -0.36388118576E+02  0.36388118576E+02  0.00000000000E+00 0.  1.
         25    2    1    2    0    0 -0.21817031426E+01 -0.15966178257E+02  0.12166300636E+03  0.17523902751E+03  0.12508857250E+03 0.  0.
         23    2    1    2    0    0  0.21817031426E+01  0.15966178257E+02  0.21684190939E+03  0.23604212539E+03  0.91846571052E+02 0.  0.
          5    1    3    3  502    0  0.28852842665E+02  0.43866502995E+02  0.80343133746E+02  0.96068976027E+02  0.41800000000E+01 0.  1.
         -5    1    3    3    0  502 -0.31034545807E+02 -0.59832681252E+02  0.41319872615E+02  0.79170051485E+02  0.41800000000E+01 0.  1.
        -11    1    4    4    0    0  0.36752975975E+02 -0.11782990916E+01  0.37217169646E+02  0.52319091622E+02  0.00000000000E+00 0.  1.
         11    1    4    4    0    0 -0.34571272832E+02  0.17144477349E+02  0.17962473974E+03  0.18372303376E+03  0.00000000000E+00 0. -1.
</event>
<event>
 8    1  0.6860461E-009  0.2030313E+03  0.7561462E-02  0.1147206E+00
         -1   -1    0    0    0  501 -0.00000000000E+00  0.00000000000E+00  0.20426631557E+02  0.20426631557E+02  0.00000000000E+00 0.  1.
          1   -1    0    0  501    0  0.00000000000E+00 -0.00000000000E+00 -0.27076154330E+04  0.27076154330E+04  0.00000000000E+00 0. -1.
         25    2    1    2    0    0 -0.16041945511E+03  0.75502868064E+02 -0.20187798618E+04  0.20304083422E+04  0.12510324108E+03 0.  0.
         23    2    1    2    0    0  0.16041945511E+03 -0.75502868064E+02 -0.66840893961E+03  0.69763372234E+03  0.92126083885E+02 0.  0.
          5    1    3    3  502    0 -0.29723803391E+01 -0.21259639153E+02 -0.49090403769E+03  0.49139093797E+03  0.41800000000E+01 0.  1.
         -5    1    3    3    0  502 -0.15744707478E+03  0.96762507217E+02 -0.15278758241E+04  0.15390174042E+04  0.41800000000E+01 0.  1.
        -11    1    4    4    0    0  0.83873010010E+02  0.10131287405E+02 -0.26002996594E+03  0.27340978033E+03  0.00000000000E+00 0.  1.
         11    1    4    4    0    0  0.76546445104E+02 -0.85634155469E+02 -0.40837897367E+03  0.42422394201E+03  0.00000000000E+00 0. -1.
</event>
<event>
 8    1  0.6860461E-009  0.2456060E+03  0.7561462E-02  0.1116114E+00
          2   -1    0    0  501    0  0.00000000000E+00  0.00000000000E+00  0.11100256571E+04  0.11100256571E+04  0.00000000000E+00 0. -1.
         -2   -1    0    0    0  501 -0.00000000000E+00 -0.00000000000E+00 -0.66105781268E+02  0.66105781268E+02  0.00000000000E+00 0.  1.
         25    2    1    2    0    0 -0.21849350097E+03  0.65726208820E+02  0.32516429844E+03  0.41646084276E+03  0.12509383710E+03 0.  0.
         23    2    1    2    0    0  0.21849350097E+03 -0.65726208820E+02  0.71875557737E+03  0.75967059558E+03  0.91817696040E+02 0.  0.
          5    1    3    3  502    0 -0.16909900359E+03 -0.89999900879E+01  0.23073874752E+03  0.28623996025E+03  0.41800000000E+01 0. -1.
         -5    1    3    3    0  502 -0.49394497376E+02  0.74726198908E+02  0.94425550923E+02  0.13022088251E+03  0.41800000000E+01 0. -1.
        -11    1    4    4    0    0  0.13409195009E+03 -0.61821869508E+02  0.56772470181E+03  0.58661224984E+03  0.00000000000E+00 0.  1.
         11    1    4    4    0    0  0.84401550884E+02 -0.39043393123E+01  0.15103087556E+03  0.17305834574E+03  0.00000000000E+00 0. -1.
</event>
<event>
 8    1  0.6860461E-009  0.1123261E+03  0.7561462E-02  0.1256322E+00
          2   -1    0    0  501    0  0.00000000000E+00  0.00000000000E+00  0.58445761604E+02  0.58445761604E+02  0.00000000000E+00 0. -1.
         -2   -1    0    0    0  501 -0.00000000000E+00 -0.00000000000E+00 -0.26209973249E+03  0.26209973249E+03  0.00000000000E+00 0.  1.
         25    2    1    2    0    0 -0.24301535744E+02  0.41224488667E+02 -0.89186391146E+02  0.16091393365E+03  0.12509619727E+03 0.  0.
         23    2    1    2    0    0  0.24301535744E+02 -0.41224488667E+02 -0.11446757974E+03  0.15963156045E+03  0.10044593160E+03 0.  0.
          5    1    3    3  502    0  0.15536877318E+02  0.75471664111E+02 -0.33144441721E+02  0.83984481051E+02  0.41800000000E+01 0. -1.
         -5    1    3    3    0  502 -0.39838413062E+02 -0.34247175444E+02 -0.56041949425E+02  0.76929452595E+02  0.41800000000E+01 0. -1.
        -11    1    4    4    0    0  0.41865879031E+02  0.79073778867E+01 -0.94686496847E+02  0.10383068495E+03  0.00000000000E+00 0. -1.
         11    1    4    4    0    0 -0.17564343286E+02 -0.49131866553E+02 -0.19781082896E+02  0.55800875501E+02  0.00000000000E+00 0.  1.
</event>
<event>
 8    1  0.6860461E-009  0.1711829E+03  0.7561462E-02  0.1176620E+00
         -2   -1    0    0    0  501 -0.00000000000E+00  0.00000000000E+00  0.16197849879E+03  0.16197849879E+03  0.00000000000E+00 0.  1.
          2   -1    0    0  501    0  0.00000000000E+00 -0.00000000000E+00 -0.24724519439E+03  0.24724519439E+03  0.00000000000E+00 0. -1.
         25    2    1    2    0    0 -0.15530517956E+03 -0.55396998060E+02 -0.13265932463E+02  0.20739307691E+03  0.12508947675E+03 0.  0.
         23    2    1    2    0    0  0.15530517956E+03  0.55396998060E+02 -0.72000763134E+02  0.20183061626E+03  0.91449229496E+02 0.  0.
          5    1    3    3  502    0 -0.11900417136E+02 -0.24258940121E+02  0.42346680942E+02  0.50406645302E+02  0.41800000000E+01 0.  1.
         -5    1    3    3    0  502 -0.14340476243E+03 -0.31138057940E+02 -0.55612613406E+02  0.15698643161E+03  0.41800000000E+01 0.  1.
        -11    1    4    4    0    0  0.56337604493E+02  0.37415012541E+02 -0.75269661998E+02  0.10118957882E+03  0.00000000000E+00 0. -1.
         11    1    4    4    0    0  0.98967575071E+02  0.17981985519E+02  0.32688988641E+01  0.10064103745E+03  0.00000000000E+00 0.  1.
</event>
<event>
 8    1  0.6860461E-009  0.1410002E+03  0.7561462E-02  0.1211989E+00
         -2   -1    0    0    0  501 -0.00000000000E+00  0.00000000000E+00  0.38142908123E+02  0.38142908123E+02  0.00000000000E+00 0.  1.
          2   -1    0    0  501    0  0.00000000000E+00 -0.00000000000E+00 -0.57370120311E+03  0.57370120311E+03  0.00000000000E+00 0. -1.
         25    2    1    2    0    0  0.96854542208E+02  0.48975920399E+01 -0.33353412502E+03  0.36918535147E+03  0.12509205585E+03 0.  0.
         23    2    1    2    0    0 -0.96854542208E+02 -0.48975920399E+01 -0.20202416997E+03  0.24265875976E+03  0.93084476055E+02 0.  0.
          5    1    3    3  502    0  0.15663675691E+02  0.55129639313E+02 -0.82185718386E+02  0.10028256366E+03  0.41800000000E+01 0.  1.
         -5    1    3    3    0  502  0.81190866517E+02 -0.50232047273E+02 -0.25134840663E+03  0.26890278782E+03  0.41800000000E+01 0.  1.
        -11    1    4    4    0    0 -0.19245506976E+02  0.36314269906E+02 -0.35224549736E+02  0.54128408822E+02  0.00000000000E+00 0. -1.
         11    1    4    4    0    0 -0.77609035232E+02 -0.41211861946E+02 -0.16679962023E+03  0.18853035094E+03  0.00000000000E+00 0.  1.
</event>
<event>
 8    1  0.6860461E-009  0.9889495E+02  0.7561462E-02  0.1282637E+00
         -2   -1    0    0    0  501 -0.00000000000E+00  0.00000000000E+00  0.61776118400E+02  0.61776118400E+02  0.00000000000E+00 0.  1.
          2   -1    0    0  501    0  0.00000000000E+00 -0.00000000000E+00 -0.23347498531E+03  0.23347498531E+03  0.00000000000E+00 0. -1.
         25    2    1    2    0    0 -0.40239226050E+02  0.34354449590E+02 -0.90958165926E+02  0.16346394690E+03  0.12509056906E+03 0.  0.
         23    2    1    2    0    0  0.40239226050E+02 -0.34354449590E+02 -0.80740700986E+02  0.13178715681E+03  0.89718283448E+02 0.  0.
          5    1    3    3  502    0  0.23010785068E+02  0.17640573207E+02  0.19377426558E+02  0.35123256007E+02  0.41800000000E+01 0. -1.
         -5    1    3    3    0  502 -0.63250011118E+02  0.16713876383E+02 -0.11033559248E+03  0.12834069089E+03  0.41800000000E+01 0. -1.
        -11    1    4    4    0    0  0.41671399116E+02  0.21621565709E+02 -0.46907892318E+02  0.66365261770E+02  0.00000000000E+00 0. -1.
         11    1    4    4    0    0 -0.14321730659E+01 -0.55976015299E+02 -0.33832808667E+02  0.65421895041E+02  0.00000000000E+00 0.  1.
</event>
<event>
 8    1  0.6860461E-009  0.1506554E+03  0.7561462E-02  0.1199670E+00
          1   -1    0    0  501    0  0.00000000000E+00  0.00000000000E+00  0.10011822639E+03  0.10011822639E+03  0.00000000000E+00 0. -1.
         -1   -1    0    0    0  501 -0.00000000000E+00 -0.00000000000E+00 -0.24294747539E+03  0.24294747539E+03  0.00000000000E+00 0.  1.
         25    2    1    2    0    0  0.53386466068E+02 -0.97481073048E+02 -0.66646007273E+02  0.18011403635E+03  0.12508677566E+03 0.  0.
         23    2    1    2    0    0 -0.53386466068E+02  0.97481073048E+02 -0.76183241730E+02  0.16295166542E+03  0.91633425020E+02 0.  0.
          5    1    3    3  502    0 -0.38851159400E+02 -0.43554227024E+02 -0.10872166193E+02  0.59515205420E+02  0.41800000000E+01 0.  1.
         -5    1    3    3    0  502  0.92237625468E+02 -0.53926846024E+02 -0.55773841080E+02  0.12059883094E+03  0.41800000000E+01 0.  1.
        -11    1    4    4    0    0 -0.52838625892E+02  0.17171560185E+02 -0.52608300051E+01  0.55807339998E+02  0.00000000000E+00 0.  1.
         11    1    4    4    0    0 -0.54784017572E+00  0.80309512863E+02 -0.70922411725E+02  0.10714432542E+03  0.00000000000E+00 0. -1.
</event>
<event>
 8    1  0.6860461E-009  0.1768259E+03  0.7561462E-02  0.1170911E+00
          1   -1    0    0  501    0  0.00000000000E+00  0.00000000000E+00  0.41256643637E+02  0.41256643637E+02  0.00000000000E+00 0. -1.
         -1   -1    0    0    0  501 -0.00000000000E+00 -0.00000000000E+00 -0.10027797873E+04  0.10027797873E+04  0.00000000000E+00 0.  1.
         25    2    1    2    0    0  0.12589375377E+03  0.11545127279E+03 -0.59978576679E+03  0.63605753573E+03  0.12509192254E+03 0.  0.
         23    2    1    2    0    0 -0.12589375377E+03 -0.11545127279E+03 -0.36173737691E+03  0.40797889525E+03  0.80091294688E+02 0.  0.
          5    1    3    3  502    0  0.10407692903E+03  0.11275281527E+03 -0.59318937259E+03  0.61272857666E+03  0.41800000000E+01 0. -1.
         -5    1    3    3    0  502  0.21816824740E+02  0.26984575247E+01 -0.65963942067E+01  0.23328959070E+02  0.41800000000E+01 0. -1.
        -11    1    4    4    0    0 -0.75216151968E+02 -0.35641040728E+02 -0.23882491588E+03  0.25291321386E+03  0.00000000000E+00 0.  1.
         11    1    4    4    0    0 -0.50677601805E+02 -0.79810232064E+02 -0.12291246103E+03  0.15506568139E+03  0.00000000000E+00 0. -1.
</event>
<event>
 8    1  0.6860461E-009  0.1790986E+03  0.7561462E-02  0.1168678E+00
          1   -1    0    0  501    0  0.00000000000E+00  0.00000000000E+00  0.10514558711E+04  0.10514558711E+04  0.00000000000E+00 0.  1.
         -1   -1    0    0    0  501 -0.00000000000E+00 -0.00000000000E+00 -0.34410542503E+02  0.34410542503E+02  0.00000000000E+00 0. -1.
         25    2    1    2    0    0 -0.14217881358E+03 -0.52821720101E+02  0.43025098529E+03  0.47304004547E+03  0.12508407224E+03 0.  0.
         23    2    1    2    0    0  0.14217881358E+03  0.52821720101E+02  0.58679434328E+03  0.61282636811E+03  0.90684105564E+02 0.  0.
          5    1    3    3  502    0 -0.92877968590E+02  0.23864863184E+02  0.29209953024E+03  0.30746618791E+03  0.41800000000E+01 0. -1.
         -5    1    3    3    0  502 -0.49300844986E+02 -0.76686583285E+02  0.13815145505E+03  0.16557385755E+03  0.41800000000E+01 0. -1.
        -11    1    4    4    0    0  0.38765934927E+02 -0.20811878500E+02  0.22873014852E+03  0.23292362018E+03  0.00000000000E+00 0.  1.
         11    1    4    4    0    0  0.10341287865E+03  0.73633598601E+02  0.35806419476E+03  0.37990274793E+03  0.00000000000E+00 0. -1.
</event>
<event>
 8    1  0.6860461E-009  0.1998304E+03  0.7561462E-02  0.1149882E+00
          1   -1    0    0  501    0  0.00000000000E+00  0.00000000000E+00  0.10804697724E+03  0.10804697724E+03  0.00000000000E+00 0. -1.
         -1   -1    0    0    0  501 -0.00000000000E+00 -0.00000000000E+00 -0.39197958462E+03  0.39197958462E+03  0.00000000000E+00 0.  1.
         25    2    1    2    0    0  0.17017654143E+03 -0.37715284654E+02 -0.15515244483E+03  0.26476903047E+03  0.12509140822E+03 0.  0.
         23    2    1    2    0    0 -0.17017654143E+03  0.37715284654E+02 -0.12878016254E+03  0.23525753139E+03  0.91538395567E+02 0.  0.
          5    1    3    3  502    0  0.16329771708E+03  0.10648393848E+02 -0.10414349302E+03  0.19401771113E+03  0.41800000000E+01 0. -1.
         -5    1    3    3    0  502  0.68788243448E+01 -0.48363678502E+02 -0.51008951810E+02  0.70751319333E+02  0.41800000000E+01 0. -1.
        -11    1    4    4    0    0 -0.79030599177E+02 -0.16706332453E+02 -0.93115477595E+02  0.12326974210E+03  0.00000000000E+00 0.  1.
         11    1    4    4    0    0 -0.91145942248E+02  0.54421617108E+02 -0.35664684948E+02  0.11198778929E+03  0.00000000000E+00 0. -1.
</event>
<event>
 8    1  0.6860461E-009  0.1465115E+03  0.7561462E-02  0.1204826E+00
          2   -1    0    0  501    0  0.00000000000E+00  0.00000000000E+00  0.16342469132E+03  0.16342469132E+03  0.00000000000E+00 0. -1.
         -2   -1    0    0    0  501 -0.00000000000E+00 -0.00000000000E+00 -0.13672673831E+03  0.13672673831E+03  0.00000000000E+00 0.  1.
         25    2    1    2    0    0  0.81554678401E+02 -0.63744369079E+02 -0.32034700486E+01  0.16239564701E+03  0.12509026257E+03 0.  0.
         23    2    1    2    0    0 -0.81554678401E+02  0.63744369079E+02  0.29901423055E+02  0.13775578262E+03  0.85837348427E+02 0.  0.
          5    1    3    3  502    0  0.67673344222E+01  0.35081854319E+02 -0.12401431149E+02  0.38049983078E+02  0.41800000000E+01 0.  1.
         -5    1    3    3    0  502  0.74787343979E+02 -0.98826223399E+02  0.91979611008E+01  0.12434566393E+03  0.41800000000E+01 0.  1.
        -11    1    4    4    0    0 -0.69568277622E+02  0.14237180006E+01  0.25616726183E+02  0.74148424694E+02  0.00000000000E+00 0. -1.
         11    1    4    4    0    0 -0.11986400778E+02  0.62320651079E+02  0.42846968721E+01  0.63607357922E+02  0.00000000000E+00 0.  1.
</event>
<event>
 8    1  0.6860461E-009  0.1443760E+03  0.7561462E-02  0.1207559E+00
         -1   -1    0    0    0  501 -0.00000000000E+00  0.00000000000E+00  0.19077879417E+03  0.19077879417E+03  0.00000000000E+00 0.  1.
          1   -1    0    0  501    0  0.00000000000E+00 -0.00000000000E+00 -0.12150846478E+03  0.12150846478E+03  0.00000000000E+00 0. -1.
         25    2    1    2    0    0  0.94293206342E+02 -0.83070285113E+01  0.84288935797E+02  0.17808659348E+03  0.12509993843E+03 0.  0.
         23    2    1    2    0    0 -0.94293206342E+02  0.83070285113E+01 -0.15018606397E+02  0.13420066547E+03  0.93936385863E+02 0.  0.
          5    1    3    3  502    0  0.80464895210E+02  0.50337038147E+02  0.39474484190E+02  0.10287917220E+03  0.41800000000E+01 0. -1.
         -5    1    3    3    0  502  0.13828311132E+02 -0.58644066658E+02  0.44814451607E+02  0.75207421281E+02  0.41800000000E+01 0. -1.
        -11    1    4    4    0    0 -0.11301922814E+03  0.13741362967E+02 -0.12319166903E+02  0.11451608122E+03  0.00000000000E+00 0.  1.
         11    1    4    4    0    0  0.18726021798E+02 -0.54343344553E+01 -0.26994394938E+01  0.19684584245E+02  0.00000000000E+00 0. -1.
</event>
<event>
 8    1  0.6860461E-009  0.1077247E+03  0.7561462E-02  0.1264842E+00
          2   -1    0    0  501    0  0.00000000000E+00  0.00000000000E+00  0.67869447159E+03  0.67869447159E+03  0.00000000000E+00 0. -1.
         -2   -1    0    0    0  501 -0.00000000000E+00 -0.00000000000E+00 -0.30404661026E+02  0.30404661026E+02  0.00000000000E+00 0.  1.
         25    2    1    2    0    0  0.63089856803E+02  0.73207584962E+02  0.41500772366E+03  0.44409334455E+03  0.12509119652E+03 0.  0.
         23    2    1    2    0    0 -0.63089856803E+02 -0.73207584962E+02  0.23328208691E+03  0.26500578807E+03  0.80422976275E+02 0.  0.
          5    1    3    3  502    0  0.58747436354E+02  0.33906798109E+02  0.39263069986E+03  0.39846865762E+03  0.41800000000E+01 0. -1.
         -5    1    3    3    0  502  0.43424204493E+01  0.39300786853E+02  0.22377023800E+02  0.45624686922E+02  0.41800000000E+01 0. -1.
        -11    1    4    4    0    0 -0.68339021193E+02 -0.51974010483E+02  0.22630945044E+03  0.24204852188E+03  0.00000000000E+00 0. -1.
         11    1    4    4    0    0  0.52491643892E+01 -0.21233574479E+02  0.69726364655E+01  0.22957266197E+02  0.00000000000E+00 0.  1.
</event>
<event>
 8    1  0.6860461E-009  0.1441136E+03  0.7561462E-02  0.1207899E+00
         -4   -1    0    0    0  501 -0.00000000000E+00  0.00000000000E+00  0.12518342846E+04  0.12518342846E+04  0.00000000000E+00 0.  1.
          4   -1    0    0  501    0  0.00000000000E+00 -0.00000000000E+00 -0.22456002591E+02  0.22456002591E+02  0.00000000000E+00 0. -1.
         25    2    1    2    0    0  0.62977191721E+02 -0.92764829599E+02  0.88329549935E+03  0.89912698403E+03  0.12508778496E+03 0.  0.
         23    2    1    2    0    0 -0.62977191721E+02  0.92764829599E+02  0.34608278269E+03  0.37516330320E+03  0.91666631350E+02 0.  0.
          5    1    3    3  502    0  0.86283154882E+02 -0.76536305616E+02  0.43940084941E+03  0.45430514828E+03  0.41800000000E+01 0.  1.
         -5    1    3    3    0  502 -0.23305963160E+02 -0.16228523983E+02  0.44389464994E+03  0.44482183575E+03  0.41800000000E+01 0.  1.
        -11    1    4    4    0    0 -0.85583217899E+02  0.83835343331E+02  0.27257916659E+03  0.29774528381E+03  0.00000000000E+00 0.  1.
         11    1    4    4    0    0  0.22606026177E+02  0.89294862680E+01  0.73503616104E+02  0.77418019382E+02  0.00000000000E+00 0. -1.
</event>
<event>
 8    1  0.6860461E-009  0.9973316E+02  0.7561462E-02  0.1280858E+00
         -1   -1    0    0    0  501 -0.00000000000E+00  0.00000000000E+00  0.23171625732E+02  0.23171625732E+02  0.00000000000E+00 0.  1.
          1   -1    0    0  501    0  0.00000000000E+00 -0.00000000000E+00 -0.77732908097E+03  0.77732908097E+03  0.00000000000E+00 0. -1.
         25    2    1    2    0    0 -0.71030293069E+02  0.96893843844E+01 -0.32112397326E+03  0.35200486958E+03  0.12509050844E+03 0.  0.
         23    2    1    2    0    0  0.71030293069E+02 -0.96893843844E+01 -0.43303348197E+03  0.44849583712E+03  0.92148427553E+02 0.  0.
          5    1    3    3  502    0 -0.37317004723E+02  0.35854928782E+02 -0.34835507280E+02  0.62522953600E+02  0.41800000000E+01 0. -1.
         -5    1    3    3    0  502 -0.33713288346E+02 -0.26165544397E+02 -0.28628846598E+03  0.28948191598E+03  0.41800000000E+01 0. -1.
        -11    1    4    4    0    0  0.18009883749E+02 -0.39805718546E+02 -0.89523280631E+02  0.99615605788E+02  0.00000000000E+00 0.  1.
         11    1    4    4    0    0  0.53020409320E+02  0.30116334161E+02 -0.34351020134E+03  0.34888023133E+03  0.00000000000E+00 0. -1.
</event>
<event>
 8    1  0.6860461E-009  0.1106870E+03  0.7561462E-02  0.1259303E+00
         -1   -1    0    0    0  501 -0.00000000000E+00  0.00000000000E+00  0.84360479018E+02  0.84360479018E+02  0.00000000000E+00 0.  1.
          1   -1    0    0  501    0  0.00000000000E+00 -0.00000000000E+00 -0.17593915890E+03  0.17593915890E+03  0.00000000000E+00 0. -1.
         25    2    1    2    0    0  0.20830531317E+02 -0.39336527229E+02 -0.14312108621E+02  0.13354184902E+03  0.12508923046E+03 0.  0.
         23    2    1    2    0    0 -0.20830531317E+02  0.39336527229E+02 -0.77266571262E+02  0.12675778890E+03  0.90089625392E+02 0.  0.
          5    1    3    3  502    0 -0.47226217604E+02  0.99646273435E+01 -0.86239071473E+01  0.49208267616E+02  0.41800000000E+01 0.  1.
         -5    1    3    3    0  502  0.68056748921E+02 -0.49301154572E+02 -0.56882014732E+01  0.84333581401E+02  0.41800000000E+01 0.  1.
        -11    1    4    4    0    0 -0.22801901973E+02  0.61987992398E+02 -0.26563996152E+02  0.71190475674E+02  0.00000000000E+00 0.  1.
         11    1    4    4    0    0  0.19713706561E+01 -0.22651465169E+02 -0.50702575110E+02  0.55567313228E+02  0.00000000000E+00 0. -1.
</event>
<event>
 8    1  0.6860461E-009  0.9126080E+02  0.7561462E-02  0.1299827E+00
         -1   -1    0    0    0  501 -0.00000000000E+00  0.00000000000E+00  0.22602836328E+03  0.22602836328E+03  0.00000000000E+00 0.  1.
          1   -1    0    0  501    0  0.00000000000E+00 -0.00000000000E+00 -0.79014190368E+02  0.79014190368E+02  0.00000000000E+00 0. -1.
         25    2    1    2    0    0 -0.50181778071E+02  0.73901076327E+01  0.15195334081E+03  0.20325006629E+03  0.12509175481E+03 0.  0.
         23    2    1    2    0    0  0.50181778071E+02 -0.73901076327E+01 -0.49391678979E+01  0.10179248736E+03  0.88116346737E+02 0.  0.
          5    1    3    3  502    0  0.21692565195E+02  0.44931346415E+02  0.35884197356E+02  0.61599848176E+02  0.41800000000E+01 0. -1.
         -5    1    3    3    0  502 -0.71874343266E+02 -0.37541238783E+02  0.11606914345E+03  0.14165021811E+03  0.41800000000E+01 0. -1.
        -11    1    4    4    0    0  0.38337543669E+02 -0.87850770980E+01 -0.45133405137E+02  0.59866260060E+02  0.00000000000E+00 0. -1.
         11    1    4    4    0    0  0.11844234402E+02  0.13949694653E+01  0.40194237240E+02  0.41926227300E+02  0.00000000000E+00 0.  1.
</event>
<event>
 8    1  0.6860461E-009  0.1012939E+03  0.7561462E-02  0.1277598E+00
          3   -1    0    0  501    0  0.00000000000E+00  0.00000000000E+00  0.47663373717E+03  0.47663373717E+03  0.00000000000E+00 0. -1.
         -3   -1    0    0    0  501 -0.00000000000E+00 -0.00000000000E+00 -0.33467103629E+02  0.33467103629E+02  0.00000000000E+00 0.  1.
         25    2    1    2    0    0  0.59873920052E+02 -0.13983720693E+02  0.28870168193E+03  0.32058773175E+03  0.12508957530E+03 0.  0.
         23    2    1    2    0    0 -0.59873920052E+02  0.13983720693E+02  0.15446495161E+03  0.18951310905E+03  0.90969041329E+02 0.  0.
          5    1    3    3  502    0  0.66179157914E+02  0.19935648636E+02  0.67593219192E+02  0.96764800984E+02  0.41800000000E+01 0.  1.
         -5    1    3    3    0  502 -0.63052378617E+01 -0.33919369329E+02  0.22110846274E+03  0.22382293076E+03  0.41800000000E+01 0.  1.
        -11    1    4    4    0    0 -0.61332932997E+01  0.38882892567E+02  0.10570253822E+03  0.11279416300E+03  0.00000000000E+00 0. -1.
         11    1    4    4    0    0 -0.53740626752E+02 -0.24899171874E+02  0.48762413390E+02  0.76718946052E+02  0.00000000000E+00 0.  1.
</event>
<event>
 8    1  0.6860461E-009  0.1189636E+03  0.7561462E-02  0.1244817E+00
          2   -1    0    0  501    0  0.00000000000E+00  0.00000000000E+00  0.69014820443E+03  0.69014820443E+03  0.00000000000E+00 0.  1.
         -2   -1    0    0    0  501 -0.00000000000E+00 -0.00000000000E+00 -0.29194361627E+02  0.29194361627E+02  0.00000000000E+00 0. -1.
         25    2    1    2    0    0  0.27744525021E+02 -0.49099736040E+02  0.17794828890E+03  0.22470914766E+03  0.12509222507E+03 0.  0.
         23    2    1    2    0    0 -0.27744525021E+02  0.49099736040E+02  0.48300555391E+03  0.49463341840E+03  0.90483759572E+02 0.  0.
          5    1    3    3  502    0  0.71308114908E+02 -0.56347141332E+02  0.13621221430E+03  0.16380197591E+03  0.41800000000E+01 0.  1.
         -5    1    3    3    0  502 -0.43563589888E+02  0.72474052918E+01  0.41736074599E+02  0.60907171748E+02  0.41800000000E+01 0.  1.
        -11    1    4    4    0    0 -0.32757381051E+00 -0.24265049557E+02  0.65625229173E+02  0.69968354551E+02  0.00000000000E+00 0. -1.
         11    1    4    4    0    0 -0.27416951210E+02  0.73364785597E+02  0.41738032474E+03  0.42466506385E+03  0.00000000000E+00 0.  1.
</event>
<event>
 8    1  0.6860461E-009  0.1021008E+03  0.7561462E-02  0.1275939E+00
         -2   -1    0    0    0  501 -0.00000000000E+00  0.00000000000E+00  0.58531010521E+03  0.58531010521E+03  0.00000000000E+00 0.  1.
          2   -1    0    0  501    0  0.00000000000E+00 -0.00000000000E+00 -0.35320989853E+02  0.35320989853E+02  0.00000000000E+00 0. -1.
         25    2    1    2    0    0 -0.85117847120E+02 -0.32373221150E+02  0.25210250972E+03  0.29579767154E+03  0.12509002254E+03 0.  0.
         23    2    1    2    0    0  0.85117847120E+02  0.32373221150E+02  0.29788660564E+03  0.32483342352E+03  0.92126271337E+02 0.  0.
          5    1    3    3  502    0 -0.61960887405E+02 -0.39228183818E+02  0.25989790460E+03  0.27007849820E+03  0.41800000000E+01 0.  1.
         -5    1    3    3    0  502 -0.23156959714E+02  0.68549626683E+01 -0.77953948794E+01  0.25719173348E+02  0.41800000000E+01 0.  1.
        -11    1    4    4    0    0  0.78864298708E+02  0.45961604815E+02  0.29600215819E+03  0.30975687947E+03  0.00000000000E+00 0.  1.
         11    1    4    4    0    0  0.62535484112E+01 -0.13588383665E+02  0.18844474559E+01  0.15076544053E+02  0.00000000000E+00 0. -1.
</event>
<event>
 8    1  0.6860461E-009  0.9941551E+02  0.7561462E-02  0.1281530E+00
          2   -1    0    0  501    0  0.00000000000E+00  0.00000000000E+00  0.33139276444E+03  0.33139276444E+03  0.00000000000E+00 0. -1.
         -2   -1    0    0    0  501 -0.00000000000E+00 -0.00000000000E+00 -0.47861406883E+02  0.47861406883E+02  0.00000000000E+00 0.  1.
         25    2    1    2    0    0 -0.55972617219E+02 -0.18027921742E+02  0.12114935806E+03  0.18379907217E+03  0.12508793759E+03 0.  0.
         23    2    1    2    0    0  0.55972617219E+02  0.18027921742E+02  0.16238199950E+03  0.19545509916E+03  0.91525090466E+02 0.  0.
          5    1    3    3  502    0 -0.55388182906E+02  0.14393002942E+02  0.13620983077E+03  0.14780257013E+03  0.41800000000E+01 0.  1.
         -5    1    3    3    0  502 -0.58443431353E+00 -0.32420924685E+02 -0.15060472705E+02  0.35996502038E+02  0.41800000000E+01 0.  1.
        -11    1    4    4    0    0  0.22694701347E+02  0.54708987209E+02  0.90769036364E+02  0.10838422723E+03  0.00000000000E+00 0. -1.
         11    1    4    4    0    0  0.33277915872E+02 -0.36681065467E+02  0.71612963133E+02  0.87070871922E+02  0.00000000000E+00 0.  1.
</event>
<event>
 8    1  0.6860461E-009  0.1228050E+03  0.7561462E-02  0.1238540E+00
         -1   -1    0    0    0  501 -0.00000000000E+00  0.00000000000E+00  0.48549666987E+02  0.48549666987E+02  0.00000000000E+00 0.  1.
          1   -1    0    0  501    0  0.00000000000E+00 -0.00000000000E+00 -0.43511259788E+03  0.43511259788E+03  0.00000000000E+00 0. -1.
         25    2    1    2    0    0  0.16639053978E+02  0.88032678741E+02 -0.26894482900E+03  0.30984698194E+03  0.12508885052E+03 0.  0.
         23    2    1    2    0    0 -0.16639053978E+02 -0.88032678741E+02 -0.11761810189E+03  0.17381528293E+03  0.91384484702E+02 0.  0.
          5    1    3    3  502    0 -0.20089333480E+02  0.76919582055E+02 -0.66426616928E+02  0.10368303265E+03  0.41800000000E+01 0.  1.
         -5    1    3    3    0  502  0.36728387458E+02  0.11113096686E+02 -0.20251821207E+03  0.20616394929E+03  0.41800000000E+01 0.  1.
        -11    1    4    4    0    0 -0.52721985387E+02 -0.35092270012E+02 -0.50245286541E+02  0.80843453522E+02  0.00000000000E+00 0.  1.
         11    1    4    4    0    0  0.36082931409E+02 -0.52940408729E+02 -0.67372815352E+02  0.92971829410E+02  0.00000000000E+00 0. -1.
</event>
<event>
 8    1  0.6860461E-009  0.1541157E+03  0.7561462E-02  0.1195505E+00
         -2   -1    0    0    0  501 -0.00000000000E+00  0.00000000000E+00  0.38408513204E+02  0.38408513204E+02  0.00000000000E+00 0.  1.
          2   -1    0    0  501    0  0.00000000000E+00 -0.00000000000E+00 -0.73468419592E+03  0.73468419592E+03  0.00000000000E+00 0. -1.
         25    2    1    2    0    0  0.39366293876E+02  0.11251075535E+03 -0.47687221646E+03  0.50720933509E+03  0.12508326670E+03 0.  0.
         23    2    1    2    0    0 -0.39366293876E+02 -0.11251075535E+03 -0.21940346625E+03  0.26588337403E+03  0.91365816480E+02 0.  0.
          5    1    3    3  502    0  0.72417508082E+02  0.21297262921E+02 -0.20126520372E+03  0.21499540347E+03  0.41800000000E+01 0. -1.
         -5    1    3    3    0  502 -0.33051214206E+02  0.91213492425E+02 -0.27560701274E+03  0.29221393162E+03  0.41800000000E+01 0. -1.
        -11    1    4    4    0    0 -0.57456736535E+02 -0.84848119277E+02 -0.10465309393E+03  0.14646757316E+03  0.00000000000E+00 0.  1.
         11    1    4    4    0    0  0.18090442659E+02 -0.27662636069E+02 -0.11475037232E+03  0.11941580087E+03  0.00000000000E+00 0. -1.
</event>
<event>
 8    1  0.6860461E-009  0.1252908E+03  0.7561462E-02  0.1234616E+00
         -1   -1    0    0    0  501 -0.00000000000E+00  0.00000000000E+00  0.81960997707E+02  0.81960997707E+02  0.00000000000E+00 0.  1.
          1   -1    0    0  501    0  0.00000000000E+00 -0.00000000000E+00 -0.27014400683E+03  0.27014400683E+03  0.00000000000E+00 0. -1.
         25    2    1    2    0    0  0.55002449136E+02 -0.53146458407E+02 -0.18249109341E+03  0.23409248888E+03  0.12508588541E+03 0.  0.
         23    2    1    2    0    0 -0.55002449136E+02  0.53146458407E+02 -0.56919157217E+01  0.11801251566E+03  0.89692477361E+02 0.  0.
          5    1    3    3  502    0  0.95625454216E+02 -0.38383329588E+02 -0.13159179520E+03  0.16718666349E+03  0.41800000000E+01 0. -1.
         -5    1    3    3    0  502 -0.40623005079E+02 -0.14763128818E+02 -0.50899298204E+02  0.66905825395E+02  0.41800000000E+01 0. -1.
        -11    1    4    4    0    0  0.14559279530E+02  0.25123503274E+02 -0.27416335756E+02  0.39935178771E+02  0.00000000000E+00 0. -1.
         11    1    4    4    0    0 -0.69561728667E+02  0.28022955133E+02  0.21724420034E+02  0.78077336887E+02  0.00000000000E+00 0.  1.
</event>
<event>
 8    1  0.6860461E-009  0.1543736E+03  0.7561462E-02  0.1195199E+00
         -1   -1    0    0    0  501 -0.00000000000E+00  0.00000000000E+00  0.46730842720E+03  0.46730842720E+03  0.00000000000E+00 0.  1.
          1   -1    0    0  501    0  0.00000000000E+00 -0.00000000000E+00 -0.63719037996E+02  0.63719037996E+02  0.00000000000E+00 0. -1.
         25    2    1    2    0    0 -0.45534509104E+02 -0.12589301333E+03  0.21654717280E+03  0.28365933751E+03  0.12508996515E+03 0.  0.
         23    2    1    2    0    0  0.45534509104E+02  0.12589301333E+03  0.18704221640E+03  0.24736812768E+03  0.91015150138E+02 0.  0.
          5    1    3    3  502    0 -0.15307123059E+02  0.18381683354E+02  0.34702348864E+01  0.24529762115E+02  0.41800000000E+01 0.  1.
         -5    1    3    3    0  502 -0.30227386045E+02 -0.14427469669E+03  0.21307693792E+03  0.25912957539E+03  0.41800000000E+01 0.  1.
        -11    1    4    4    0    0  0.44473344644E+02  0.83617463505E+02  0.18149129081E+03  0.20471650453E+03  0.00000000000E+00 0. -1.
         11    1    4    4    0    0  0.10611644604E+01  0.42275549827E+02  0.55509255904E+01  0.42651623159E+02  0.00000000000E+00 0.  1.
</event>
<event>
 8    1  0.6860461E-009  0.8908598E+02  0.7561462E-02  0.1305080E+00
          2   -1    0    0  501    0  0.00000000000E+00  0.00000000000E+00  0.91391661743E+03  0.91391661743E+03  0.00000000000E+00 0. -1.
         -2   -1    0    0    0  501 -0.00000000000E+00 -0.00000000000E+00 -0.20838575988E+02  0.20838575988E+02  0.00000000000E+00 0.  1.
         25    2    1    2    0    0 -0.14207335045E+02  0.73865474959E+02  0.61954756202E+03  0.63651141263E+03  0.12509852139E+03 0.  0.
         23    2    1    2    0    0  0.14207335045E+02 -0.73865474959E+02  0.27353047942E+03  0.29824378078E+03  0.92046036530E+02 0.  0.
          5    1    3    3  502    0 -0.19522551897E+02  0.89176240007E+01  0.11012048491E+02  0.24482476639E+02  0.41800000000E+01 0.  1.
         -5    1    3    3    0  502  0.53152168519E+01  0.64947850958E+02  0.60853551352E+03  0.61202893600E+03  0.41800000000E+01 0.  1.
        -11    1    4    4    0    0 -0.18316956030E+02 -0.14680210948E+02  0.88550045963E+01  0.25088455076E+02  0.00000000000E+00 0.  1.
         11    1    4    4    0    0  0.32524291076E+02 -0.59185264010E+02  0.26467547483E+03  0.27315532570E+03  0.00000000000E+00 0. -1.
</event>
<event>
 8    1  0.6860461E-009  0.1733528E+03  0.7561462E-02  0.1174396E+00
          2   -1    0    0  501    0  0.00000000000E+00  0.00000000000E+00  0.31938527949E+03  0.31938527949E+03  0.00000000000E+00 0.  1.
         -2   -1    0    0    0  501 -0.00000000000E+00 -0.00000000000E+00 -0.96830608424E+02  0.96830608424E+02  0.00000000000E+00 0. -1.
         25    2    1    2    0    0  0.70812076929E+02 -0.11730293715E+03  0.98978775138E+02  0.21027310677E+03  0.12507458655E+03 0.  0.
         23    2    1    2    0    0 -0.70812076929E+02  0.11730293715E+03  0.12357589593E+03  0.20594278115E+03  0.91471841294E+02 0.  0.
          5    1    3    3  502    0 -0.29603502088E+02 -0.61222871124E+02  0.53077520877E+02  0.86367255988E+02  0.41800000000E+01 0. -1.
         -5    1    3    3    0  502  0.10041557902E+03 -0.56080066022E+02  0.45901254261E+02  0.12390585078E+03  0.41800000000E+01 0. -1.
        -11    1    4    4    0    0  0.11262791044E+02  0.65423888870E+02  0.62865597088E+02  0.91428764588E+02  0.00000000000E+00 0.  1.
         11    1    4    4    0    0 -0.82074867974E+02  0.51879048277E+02  0.60710298838E+02  0.11451401656E+03  0.00000000000E+00 0. -1.
</event>
<event>
 8    1  0.6860461E-009  0.9901202E+02  0.7561462E-02  0.1282387E+00
          2   -1    0    0  501    0  0.00000000000E+00  0.00000000000E+00  0.39634696937E+02  0.39634696937E+02  0.00000000000E+00 0. -1.
         -2   -1    0    0    0  501 -0.00000000000E+00 -0.00000000000E+00 -0.57740887956E+03  0.57740887956E+03  0.00000000000E+00 0.  1.
         25    2    1    2    0    0  0.54498817047E+02 -0.22641461269E+02 -0.11163047647E+03  0.17774071197E+03  0.12509052956E+03 0.  0.
         23    2    1    2    0    0 -0.54498817047E+02  0.22641461269E+02 -0.42614370615E+03  0.43930286452E+03  0.88914518838E+02 0.  0.
          5    1    3    3  502    0 -0.18489051422E+02 -0.30222993987E+02 -0.96250281268E+02  0.10264922519E+03  0.41800000000E+01 0. -1.
         -5    1    3    3    0  502  0.72987868469E+02  0.75815327184E+01 -0.15380195201E+02  0.75091486778E+02  0.41800000000E+01 0. -1.
        -11    1    4    4    0    0  0.14319716770E+02  0.13033346696E+02 -0.22336591066E+02  0.29560881498E+02  0.00000000000E+00 0. -1.
         11    1    4    4    0    0 -0.68818533817E+02  0.96081145728E+01 -0.40380711508E+03  0.40974198303E+03  0.00000000000E+00 0.  1.
</event>
<event>
 8    1  0.6860461E-009  0.1624655E+03  0.7561462E-02  0.1185941E+00
         -1   -1    0    0    0  501 -0.00000000000E+00  0.00000000000E+00  0.21128344808E+03  0.21128344808E+03  0.00000000000E+00 0.  1.
          1   -1    0    0  501    0  0.00000000000E+00 -0.00000000000E+00 -0.14196260304E+03  0.14196260304E+03  0.00000000000E+00 0. -1.
         25    2    1    2    0    0  0.11018376206E+03  0.70840095544E+02  0.86298114115E+01  0.18132841203E+03  0.12508692500E+03 0.  0.
         23    2    1    2    0    0 -0.11018376206E+03 -0.70840095544E+02  0.60691033628E+02  0.17191763910E+03  0.93346089970E+02 0.  0.
          5    1    3    3  502    0  0.83422119954E+02 -0.97300248025E+01 -0.28196125493E+02  0.88692825939E+02  0.41800000000E+01 0. -1.
         -5    1    3    3    0  502  0.26761642102E+02  0.80570120347E+02  0.36825936904E+02  0.92635586086E+02  0.41800000000E+01 0. -1.
        -11    1    4    4    0    0  0.48447557481E+01 -0.35031359463E+02 -0.32743510373E+01  0.35516041148E+02  0.00000000000E+00 0. -1.
         11    1    4    4    0    0 -0.11502851780E+03 -0.35808736081E+02  0.63965384665E+02  0.13640159795E+03  0.00000000000E+00 0.  1.
</event>
<event>
 8    1  0.6860461E-009  0.1045928E+03  0.7561462E-02  0.1270924E+00
          2   -1    0    0  501    0  0.00000000000E+00  0.00000000000E+00  0.44424745804E+03  0.44424745804E+03  0.00000000000E+00 0. -1.
         -2   -1    0    0    0  501 -0.00000000000E+00 -0.00000000000E+00 -0.39757138963E+02  0.39757138963E+02  0.00000000000E+00 0.  1.
         25    2    1    2    0    0  0.98259132182E+01  0.55739538849E+02  0.31382412807E+03  0.34254667278E+03  0.12509674223E+03 0.  0.
         23    2    1    2    0    0 -0.98259132182E+01 -0.55739538849E+02  0.90666191007E+02  0.14145792422E+03  0.92663592478E+02 0.  0.
          5    1    3    3  502    0 -0.78516491273E+01 -0.20451155004E+02  0.21637543825E+03  0.21752172493E+03  0.41800000000E+01 0. -1.
         -5    1    3    3    0  502  0.17677562346E+02  0.76190693853E+02  0.97448689812E+02  0.12502494786E+03  0.41800000000E+01 0. -1.
        -11    1    4    4    0    0  0.40726278469E+02 -0.14209568562E+02  0.34574056670E+02  0.55280258603E+02  0.00000000000E+00 0.  1.
         11    1    4    4    0    0 -0.50552191687E+02 -0.41529970287E+02  0.56092134337E+02  0.86177665615E+02  0.00000000000E+00 0. -1.
</event>
<event>
 8    1  0.6860461E-009  0.1623476E+03  0.7561462E-02  0.1186072E+00
         -1   -1    0    0    0  501 -0.00000000000E+00  0.00000000000E+00  0.27059420845E+02  0.27059420845E+02  0.00000000000E+00 0.  1.
          1   -1    0    0  501    0  0.00000000000E+00 -0.00000000000E+00 -0.13513527505E+04  0.13513527505E+04  0.00000000000E+00 0. -1.
         25    2    1    2    0    0 -0.87228523625E+02  0.10901989334E+03 -0.95090414052E+03  0.96920525294E+03  0.12508391339E+03 0.  0.
         23    2    1    2    0    0  0.87228523625E+02 -0.10901989334E+03 -0.37338918914E+03  0.40920691841E+03  0.92394063827E+02 0.  0.
          5    1    3    3  502    0  0.18140820631E+02 -0.13714202706E+02 -0.18169768639E+03  0.18316301583E+03  0.41800000000E+01 0. -1.
         -5    1    3    3    0  502 -0.10536934426E+03  0.12273409605E+03 -0.76920645413E+03  0.78604223711E+03  0.41800000000E+01 0. -1.
        -11    1    4    4    0    0  0.44629730761E+02 -0.50825649116E+02 -0.69906584330E+02  0.97272760876E+02  0.00000000000E+00 0.  1.
         11    1    4    4    0    0  0.42598792864E+02 -0.58194244227E+02 -0.30348260481E+03  0.31193415753E+03  0.00000000000E+00 0. -1.
</event>
<event>
 8    1  0.6860461E-009  0.1151810E+03  0.7561462E-02  0.1251266E+00
          2   -1    0    0  501    0  0.00000000000E+00  0.00000000000E+00  0.86276391948E+03  0.86276391948E+03  0.00000000000E+00 0. -1.
         -2   -1    0    0    0  501 -0.00000000000E+00 -0.00000000000E+00 -0.19783939413E+02  0.19783939413E+02  0.00000000000E+00 0.  1.
         25    2    1    2    0    0 -0.66831491495E+01 -0.48338159668E+02  0.65187729682E+03  0.66556190096E+03  0.12508953489E+03 0.  0.
         23    2    1    2    0    0  0.66831491495E+01  0.48338159668E+02  0.19110268325E+03  0.21698595794E+03  0.90451247827E+02 0.  0.
          5    1    3    3  502    0  0.55980467122E+02 -0.24643530629E+01  0.29588718965E+03  0.30117534284E+03  0.41800000000E+01 0.  1.
         -5    1    3    3    0  502 -0.62663616272E+02 -0.45873806605E+02  0.35599010717E+03  0.36438655812E+03  0.41800000000E+01 0.  1.
        -11    1    4    4    0    0 -0.36168434606E+02  0.37704798921E+02  0.65109465362E+02  0.83480836143E+02  0.00000000000E+00 0.  1.
         11    1    4    4    0    0  0.42851583755E+02  0.10633360747E+02  0.12599321789E+03  0.13350512179E+03  0.00000000000E+00 0. -1.
</event>
<event>
 8    1  0.6860461E-009  0.9096814E+02  0.7561462E-02  0.1300524E+00
          2   -1    0    0  501    0  0.00000000000E+00  0.00000000000E+00  0.24699481577E+03  0.24699481577E+03  0.00000000000E+00 0. -1.
         -2   -1    0    0    0  501 -0.00000000000E+00 -0.00000000000E+00 -0.66452293005E+02  0.66452293005E+02  0.00000000000E+00 0.  1.
         25    2    1    2    0    0 -0.71484552366E+02 -0.40409126780E+01  0.10428553697E+03  0.17790509853E+03  0.12509348768E+03 0.  0.
         23    2    1    2    0    0  0.71484552366E+02  0.40409126780E+01  0.76256985790E+02  0.13554201024E+03  0.86198250884E+02 0.  0.
          5    1    3    3  502    0 -0.29867938499E+02  0.94449249623E+01  0.12527765327E+03  0.12920241161E+03  0.41800000000E+01 0.  1.
         -5    1    3    3    0  502 -0.41616613867E+02 -0.13485837640E+02 -0.20992116298E+02  0.48702686920E+02  0.41800000000E+01 0.  1.
        -11    1    4    4    0    0  0.47321285218E+02 -0.36110278045E+02  0.63366630038E+02  0.86940128925E+02  0.00000000000E+00 0. -1.
         11    1    4    4    0    0  0.24163267148E+02  0.40151190723E+02  0.12890355752E+02  0.48601881313E+02  0.00000000000E+00 0.  1.
</event>
<event>
 8    1  0.6860461E-009  0.1443762E+03  0.7561462E-02  0.1207559E+00
          1   -1    0    0  501    0  0.00000000000E+00  0.00000000000E+00  0.38607100243E+03  0.38607100243E+03  0.00000000000E+00 0. -1.
         -1   -1    0    0    0  501 -0.00000000000E+00 -0.00000000000E+00 -0.61020803361E+02  0.61020803361E+02  0.00000000000E+00 0.  1.
         25    2    1    2    0    0  0.10521319552E+03 -0.76039906697E+01  0.21304899091E+03  0.26863594545E+03  0.12509101276E+03 0.  0.
         23    2    1    2    0    0 -0.10521319552E+03  0.76039906697E+01  0.11200120816E+03  0.17845586034E+03  0.90413418666E+02 0.  0.
          5    1    3    3  502    0  0.41437972836E+02 -0.65193472208E+02  0.93629734624E+02  0.12145490528E+03  0.41800000000E+01 0.  1.
         -5    1    3    3    0  502  0.63775222689E+02  0.57589481538E+02  0.11941925628E+03  0.14718104016E+03  0.41800000000E+01 0.  1.
        -11    1    4    4    0    0 -0.47530707362E+02 -0.30273817522E+02  0.13093355131E+02  0.57854197067E+02  0.00000000000E+00 0.  1.
         11    1    4    4    0    0 -0.57682488163E+02  0.37877808192E+02  0.98907853031E+02  0.12060166328E+03  0.00000000000E+00 0. -1.
</event>
<event>
 8    1  0.6860461E-009  0.1603559E+03  0.7561462E-02  0.1188296E+00
         -1   -1    0    0    0  501 -0.00000000000E+00  0.00000000000E+00  0.15795311832E+03  0.15795311832E+03  0.00000000000E+00 0.  1.
          1   -1    0    0  501    0  0.00000000000E+00 -0.00000000000E+00 -0.21524661053E+03  0.21524661053E+03  0.00000000000E+00 0. -1.
         25    2    1    2    0    0 -0.19642472806E+02  0.14690749265E+03 -0.22023006975E+02  0.19519112447E+03  0.12508766566E+03 0.  0.
         23    2    1    2    0    0  0.19642472806E+02 -0.14690749265E+03 -0.35270485242E+02  0.17800860438E+03  0.92062033278E+02 0.  0.
          5    1    3    3  502    0  0.32934936610E+02  0.68575484506E+02  0.36094437874E+02  0.84306512027E+02  0.41800000000E+01 0. -1.
         -5    1    3    3    0  502 -0.52577409416E+02  0.78332008140E+02 -0.58117444849E+02  0.11088461244E+03  0.41800000000E+01 0. -1.
        -11    1    4    4    0    0 -0.32174469736E+01 -0.64190191549E+02 -0.60801382697E+02  0.88473390316E+02  0.00000000000E+00 0. -1.
         11    1    4    4    0    0  0.22859919780E+02 -0.82717301096E+02  0.25530897455E+02  0.89535214066E+02  0.00000000000E+00 0.  1.
</event>
<event>
 8    1  0.6860461E-009  0.1163797E+03  0.7561462E-02  0.1249192E+00
         -2   -1    0    0    0  501 -0.00000000000E+00  0.00000000000E+00  0.39258372631E+02  0.39258372631E+02  0.00000000000E+00 0. -1.
          2   -1    0    0  501    0  0.00000000000E+00 -0.00000000000E+00 -0.49008093925E+03  0.49008093925E+03  0.00000000000E+00 0.  1.
         25    2    1    2    0    0  0.21737130893E+02 -0.75757861838E+02 -0.17457963917E+03  0.22877368553E+03  0.12509033651E+03 0.  0.
         23    2    1    2    0    0 -0.21737130893E+02  0.75757861838E+02 -0.27624292745E+03  0.30056562635E+03  0.88418235040E+02 0.  0.
          5    1    3    3  502    0  0.58694246166E+02 -0.88300594055E+02 -0.10746335617E+03  0.15102269619E+03  0.41800000000E+01 0.  1.
         -5    1    3    3    0  502 -0.36957115273E+02  0.12542732218E+02 -0.67116283000E+02  0.77750989347E+02  0.41800000000E+01 0.  1.
        -11    1    4    4    0    0  0.84905215066E+01  0.38475943338E+02 -0.23189116420E+03  0.23521479376E+03  0.00000000000E+00 0.  1.
         11    1    4    4    0    0 -0.30227652399E+02  0.37281918499E+02 -0.44351763254E+02  0.65350832591E+02  0.00000000000E+00 0. -1.
</event>
<event>
 8    1  0.6860461E-009  0.1202660E+03  0.7561462E-02  0.1242659E+00
         -2   -1    0    0    0  501 -0.00000000000E+00  0.00000000000E+00  0.36420382343E+02  0.36420382343E+02  0.00000000000E+00 0.  1.
          2   -1    0    0  501    0  0.00000000000E+00 -0.00000000000E+00 -0.47459524433E+03  0.47459524433E+03  0.00000000000E+00 0. -1.
         25    2    1    2    0    0 -0.38146441584E+02 -0.57957790893E+02 -0.31146433656E+03  0.34273847092E+03  0.12508145333E+03 0.  0.
         23    2    1    2    0    0  0.38146441584E+02  0.57957790893E+02 -0.12671052543E+03  0.16827715576E+03  0.86298246591E+02 0.  0.
          5    1    3    3  502    0 -0.26961145805E+02 -0.93355294705E+02 -0.26971507215E+03  0.28671555064E+03  0.41800000000E+01 0. -1.
         -5    1    3    3    0  502 -0.11185295779E+02  0.35397503812E+02 -0.41749264407E+02  0.56022920276E+02  0.41800000000E+01 0. -1.
        -11    1    4    4    0    0 -0.20672418707E+02  0.38957743395E+02 -0.29431162336E+02  0.53021203137E+02  0.00000000000E+00 0.  1.
         11    1    4    4    0    0  0.58818860291E+02  0.19000047499E+02 -0.97279363093E+02  0.11525595262E+03  0.00000000000E+00 0. -1.
</event>
<event>
 8    1  0.6860461E-009  0.1041672E+03  0.7561462E-02  0.1271769E+00
         -1   -1    0    0    0  501 -0.00000000000E+00  0.00000000000E+00  0.33164394897E+02  0.33164394897E+02  0.00000000000E+00 0.  1.
          1   -1    0    0  501    0  0.00000000000E+00 -0.00000000000E+00 -0.39385554616E+03  0.39385554616E+03  0.00000000000E+00 0. -1.
         25    2    1    2    0    0  0.19038741516E+02  0.52653649578E+01 -0.26127556565E+03  0.29034983116E+03  0.12509158846E+03 0.  0.
         23    2    1    2    0    0 -0.19038741516E+02 -0.52653649578E+01 -0.99415585610E+02  0.13667010989E+03  0.91679128100E+02 0.  0.
          5    1    3    3  502    0  0.69055659963E+02  0.15908280639E+02 -0.11299130227E+03  0.13344011524E+03  0.41800000000E+01 0. -1.
         -5    1    3    3    0  502 -0.50016918447E+02 -0.10642915681E+02 -0.14828426338E+03  0.15690971593E+03  0.41800000000E+01 0. -1.
        -11    1    4    4    0    0 -0.17107956782E+02  0.38553153634E+02 -0.76075298536E+02  0.86985509642E+02  0.00000000000E+00 0.  1.
         11    1    4    4    0    0 -0.19307847343E+01 -0.43818518592E+02 -0.23340287074E+02  0.49684600250E+02  0.00000000000E+00 0. -1.
</event>
<event>
 8    1  0.6860461E-009  0.1063443E+03  0.7561462E-02  0.1267493E+00
         -1   -1    0    0    0  501 -0.00000000000E+00  0.00000000000E+00  0.14653542514E+03  0.14653542514E+03  0.00000000000E+00 0.  1.
          1   -1    0    0  501    0  0.00000000000E+00 -0.00000000000E+00 -0.84519995194E+02  0.84519995194E+02  0.00000000000E+00 0. -1.
         25    2    1    2    0    0 -0.14601748501E+02 -0.33064542529E+01  0.54756520684E+02  0.13736859490E+03  0.12509080945E+03 0.  0.
         23    2    1    2    0    0  0.14601748501E+02  0.33064542529E+01  0.72589092575E+01  0.93686825425E+02  0.92197536820E+02 0.  0.
          5    1    3    3  502    0  0.26187048972E+02  0.47583886003E+02  0.40010617110E+01  0.54621137263E+02  0.41800000000E+01 0.  1.
         -5    1    3    3    0  502 -0.40788797473E+02 -0.50890340256E+02  0.50755458973E+02  0.82747457642E+02  0.41800000000E+01 0.  1.
        -11    1    4    4    0    0 -0.37292832366E+02  0.14076011813E+02  0.81200610556E+01  0.40679538419E+02  0.00000000000E+00 0.  1.
         11    1    4    4    0    0  0.51894580867E+02 -0.10769557560E+02 -0.86115179810E+00  0.53007287006E+02  0.00000000000E+00 0. -1.
</event>
<event>
 8    1  0.6860461E-009  0.1775474E+03  0.7561462E-02  0.1170198E+00
         -1   -1    0    0    0  501 -0.00000000000E+00  0.00000000000E+00  0.12575204892E+03  0.12575204892E+03  0.00000000000E+00 0.  1.
          1   -1    0    0  501    0  0.00000000000E+00 -0.00000000000E+00 -0.34259660000E+03  0.34259660000E+03  0.00000000000E+00 0. -1.
         25    2    1    2    0    0  0.11282800649E+03 -0.12766846822E+03 -0.59380660912E+02  0.21955292027E+03  0.12509206642E+03 0.  0.
         23    2    1    2    0    0 -0.11282800649E+03  0.12766846822E+03 -0.15746389016E+03  0.24879572865E+03  0.89861232260E+02 0.  0.
          5    1    3    3  502    0  0.98041133262E+01 -0.29214389903E+02  0.36344107924E+02  0.47832706346E+02  0.41800000000E+01 0.  1.
         -5    1    3    3    0  502  0.10302389317E+03 -0.98454078320E+02 -0.95724768836E+02  0.17172021392E+03  0.41800000000E+01 0.  1.
        -11    1    4    4    0    0 -0.40373800476E+02  0.92431473983E+02 -0.12809899447E+03  0.16304285796E+03  0.00000000000E+00 0. -1.
         11    1    4    4    0    0 -0.72454206019E+02  0.35236994241E+02 -0.29364895688E+02  0.85752870691E+02  0.00000000000E+00 0.  1.
</event>
<event>
 8    1  0.6860461E-009  0.1381936E+03  0.7561462E-02  0.1215780E+00
         -2   -1    0    0    0  501 -0.00000000000E+00  0.00000000000E+00  0.31555118739E+02  0.31555118739E+02  0.00000000000E+00 0. -1.
          2   -1    0    0  501    0  0.00000000000E+00 -0.00000000000E+00 -0.67520084519E+03  0.67520084519E+03  0.00000000000E+00 0.  1.
         25    2    1    2    0    0 -0.94058777758E+02 -0.17968833313E+02 -0.37637632602E+03  0.40801556477E+03  0.12509048589E+03 0.  0.
         23    2    1    2    0    0  0.94058777758E+02  0.17968833313E+02 -0.26726940043E+03  0.29874039916E+03  0.92967526803E+02 0.  0.
          5    1    3    3  502    0 -0.73060662960E+02 -0.66500180258E+02 -0.18937188449E+03  0.21363360569E+03  0.41800000000E+01 0.  1.
         -5    1    3    3    0  502 -0.20998114798E+02  0.48531346945E+02 -0.18700444153E+03  0.19438195908E+03  0.41800000000E+01 0.  1.
        -11    1    4    4    0    0  0.15468776266E+02  0.39962430013E+02 -0.14905446202E+03  0.15509194531E+03  0.00000000000E+00 0.  1.
         11    1    4    4    0    0  0.78590001492E+02 -0.21993596699E+02 -0.11821493841E+03  0.14364845385E+03  0.00000000000E+00 0. -1.
</event>
<event>
 8    1  0.6860461E-009  0.7777097E+02  0.7561462E-02  0.1335499E+00
         -1   -1    0    0    0  501 -0.00000000000E+00  0.00000000000E+00  0.68471770454E+03  0.68471770454E+03  0.00000000000E+00 0.  1.
          1   -1    0    0  501    0  0.00000000000E+00 -0.00000000000E+00 -0.22611931102E+02  0.22611931102E+02  0.00000000000E+00 0. -1.
         25    2    1    2    0    0  0.18813153209E+01  0.59527204386E+02  0.40328442489E+03  0.42641863238E+03  0.12508994871E+03 0.  0.
         23    2    1    2    0    0 -0.18813153209E+01 -0.59527204386E+02  0.25882134855E+03  0.28091100327E+03  0.91517615152E+02 0.  0.
          5    1    3    3  502    0  0.47445587625E+00 -0.10831906923E+02  0.30629487646E+03  0.30651521832E+03  0.41800000000E+01 0.  1.
         -5    1    3    3    0  502  0.14068594446E+01  0.70359111310E+02  0.96989548437E+02  0.11990341406E+03  0.41800000000E+01 0.  1.
        -11    1    4    4    0    0  0.14203768661E+02 -0.54870386844E+02  0.25799225818E+03  0.26414486873E+03  0.00000000000E+00 0.  1.
         11    1    4    4    0    0 -0.16085083981E+02 -0.46568175428E+01  0.82909036423E+00  0.16766134532E+02  0.00000000000E+00 0. -1.
</event>
<event>
 8    1  0.6860461E-009  0.1054529E+03  0.7561462E-02  0.1269230E+00
         -1   -1    0    0    0  501 -0.00000000000E+00  0.00000000000E+00  0.17590968109E+02  0.17590968109E+02  0.00000000000E+00 0.  1.
          1   -1    0    0  501    0  0.00000000000E+00 -0.00000000000E+00 -0.12381844035E+04  0.12381844035E+04  0.00000000000E+00 0. -1.
         25    2    1    2    0    0  0.31103778285E+02 -0.71707914376E+02 -0.88238117579E+03  0.89462470865E+03  0.12508940772E+03 0.  0.
         23    2    1    2    0    0 -0.31103778285E+02  0.71707914376E+02 -0.33821225958E+03  0.36115066295E+03  0.99663427621E+02 0.  0.
          5    1    3    3  502    0  0.32300064126E+02 -0.72933665895E+02 -0.88552562313E+03  0.88912075410E+03  0.41800000000E+01 0.  1.
         -5    1    3    3    0  502 -0.11962858404E+01  0.12257515192E+01  0.31444473344E+01  0.55039545454E+01  0.41800000000E+01 0.  1.
        -11    1    4    4    0    0  0.34013273536E+02  0.70270718780E+01 -0.85311301445E+02  0.92110263652E+02  0.00000000000E+00 0.  1.
         11    1    4    4    0    0 -0.65117051822E+02  0.64680842498E+02 -0.25290095814E+03  0.26904039929E+03  0.00000000000E+00 0. -1.
</event>
<event>
 8    1  0.6860461E-009  0.1119435E+03  0.7561462E-02  0.1257013E+00
          2   -1    0    0  501    0  0.00000000000E+00  0.00000000000E+00  0.38326954113E+02  0.38326954113E+02  0.00000000000E+00 0. -1.
         -2   -1    0    0    0  501 -0.00000000000E+00 -0.00000000000E+00 -0.96098443494E+03  0.96098443494E+03  0.00000000000E+00 0.  1.
         25    2    1    2    0    0  0.11946313873E+02 -0.66006718784E+02 -0.85798705783E+03  0.86964839694E+03  0.12508773540E+03 0.  0.
         23    2    1    2    0    0 -0.11946313873E+02  0.66006718784E+02 -0.64670422996E+02  0.12966299212E+03  0.90169987105E+02 0.  0.
          5    1    3    3  502    0 -0.35354870780E+02  0.21868130356E+02 -0.22911657381E+03  0.23289495230E+03  0.41800000000E+01 0.  1.
         -5    1    3    3    0  502  0.47301184653E+02 -0.87874849140E+02 -0.62887048402E+03  0.63675344463E+03  0.41800000000E+01 0.  1.
        -11    1    4    4    0    0 -0.25180231419E+02  0.64078181611E+02 -0.55752693661E+01  0.69073446717E+02  0.00000000000E+00 0. -1.
         11    1    4    4    0    0  0.13233917546E+02  0.19285371729E+01 -0.59095153629E+02  0.60589545400E+02  0.00000000000E+00 0.  1.
</event>
<event>
 8    1  0.6860461E-009  0.1461440E+03  0.7561462E-02  0.1205293E+00
         -1   -1    0    0    0  501 -0.00000000000E+00  0.00000000000E+00  0.51304259973E+02  0.51304259973E+02  0.00000000000E+00 0.  1.
          1   -1    0    0  501    0  0.00000000000E+00 -0.00000000000E+00 -0.93543344414E+03  0.93543344414E+03  0.00000000000E+00 0. -1.
         25    2    1    2    0    0 -0.12893642776E+03  0.54455016356E+02 -0.75081968292E+03  0.77393002838E+03  0.12509013291E+03 0.  0.
         23    2    1    2    0    0  0.12893642776E+03 -0.54455016356E+02 -0.13330950124E+03  0.21280767573E+03  0.89026583215E+02 0.  0.
          5    1    3    3  502    0 -0.66612157582E+02  0.46285813997E+02 -0.64994589169E+03  0.65500129056E+03  0.41800000000E+01 0.  1.
         -5    1    3    3    0  502 -0.62324270180E+02  0.81692023593E+01 -0.10087379123E+03  0.11892873782E+03  0.41800000000E+01 0.  1.
        -11    1    4    4    0    0  0.66712372313E+02 -0.54024878071E+02 -0.12260155341E+03  0.14966752811E+03  0.00000000000E+00 0. -1.
         11    1    4    4    0    0  0.62224055449E+02 -0.43013828533E+00 -0.10707947828E+02  0.63140147625E+02  0.00000000000E+00 0.  1.
</event>
<event>
 8    1  0.6860461E-009  0.7285956E+02  0.7561462E-02  0.1350630E+00
         -1   -1    0    0    0  501 -0.00000000000E+00  0.00000000000E+00  0.51172808903E+02  0.51172808903E+02  0.00000000000E+00 0.  1.
          1   -1    0    0  501    0  0.00000000000E+00 -0.00000000000E+00 -0.37061458689E+03  0.37061458689E+03  0.00000000000E+00 0. -1.
         25    2    1    2    0    0 -0.88745330294E+01 -0.31862420525E+02 -0.29246229865E+03  0.31980328250E+03  0.12508386062E+03 0.  0.
         23    2    1    2    0    0  0.88745330294E+01  0.31862420525E+02 -0.26979479334E+02  0.10198411329E+03  0.92622329272E+02 0.  0.
          5    1    3    3  502    0  0.23978800522E+02  0.19639653516E+02 -0.13268518011E+02  0.33973884602E+02  0.41800000000E+01 0. -1.
         -5    1    3    3    0  502 -0.32853333552E+02 -0.51502074041E+02 -0.27919378064E+03  0.28582939790E+03  0.41800000000E+01 0. -1.
        -11    1    4    4    0    0  0.24420571078E+02  0.10006580799E+02 -0.56341487953E+02  0.62216229521E+02  0.00000000000E+00 0. -1.
         11    1    4    4    0    0 -0.15546038049E+02  0.21855839726E+02  0.29362008619E+02  0.39767883767E+02  0.00000000000E+00 0.  1.
</event>
<event>
 8    1  0.6860461E-009  0.1674407E+03  0.7561462E-02  0.1180543E+00
          1   -1    0    0  501    0  0.00000000000E+00  0.00000000000E+00  0.73837467964E+03  0.73837467964E+03  0.00000000000E+00 0. -1.
         -1   -1    0    0    0  501 -0.00000000000E+00 -0.00000000000E+00 -0.52444471382E+02  0.52444471382E+02  0.00000000000E+00 0.  1.
         25    2    1    2    0    0 -0.10740374209E+03  0.97059686580E+02  0.20608141867E+03  0.28119983131E+03  0.12509055693E+03 0.  0.
         23    2    1    2    0    0  0.10740374209E+03 -0.97059686580E+02  0.47984878959E+03  0.50961931971E+03  0.92200019422E+02 0.  0.
          5    1    3    3  502    0 -0.10850147018E+03  0.11467629879E+03  0.13475923120E+03  0.20760718997E+03  0.41800000000E+01 0.  1.
         -5    1    3    3    0  502  0.10977280928E+01 -0.17616612210E+02  0.71322187478E+02  0.73592641340E+02  0.41800000000E+01 0.  1.
        -11    1    4    4    0    0  0.97664700879E+02 -0.48043535011E+02  0.22532393550E+03  0.25023479168E+03  0.00000000000E+00 0.  1.
         11    1    4    4    0    0  0.97390412112E+01 -0.49016151569E+02  0.25452485408E+03  0.25938452804E+03  0.00000000000E+00 0. -1.
</event>
<event>
 8    1  0.6860461E-009  0.3679638E+03  0.7561462E-02  0.1055474E+00
          1   -1    0    0  501    0  0.00000000000E+00  0.00000000000E+00  0.10497060439E+04  0.10497060439E+04  0.00000000000E+00 0. -1.
         -1   -1    0    0    0  501 -0.00000000000E+00 -0.00000000000E+00 -0.14605031603E+03  0.14605031603E+03  0.00000000000E+00 0.  1.
         25    2    1    2    0    0 -0.41149687561E+02 -0.35340349974E+03  0.27108104296E+03  0.46445558915E+03  0.12508689789E+03 0.  0.
         23    2    1    2    0    0  0.41149687561E+02  0.35340349974E+03  0.63257468493E+03  0.73130077081E+03  0.89792844721E+02 0.  0.
          5    1    3    3  502    0  0.34978869002E+02 -0.48794548179E+02  0.23586681348E+02  0.64639253907E+02  0.41800000000E+01 0. -1.
         -5    1    3    3    0  502 -0.76128556563E+02 -0.30460895156E+03  0.24749436161E+03  0.39981633524E+03  0.41800000000E+01 0. -1.
        -11    1    4    4    0    0  0.56847998879E+02  0.21280255605E+03  0.44318747136E+03  0.49490580681E+03  0.00000000000E+00 0. -1.
         11    1    4    4    0    0 -0.15698311318E+02  0.14060094369E+03  0.18938721356E+03  0.23639496400E+03  0.00000000000E+00 0.  1.
</event>
<event>
 8    1  0.6860461E-009  0.1593255E+03  0.7561462E-02  0.1189460E+00
          3   -1    0    0  501    0  0.00000000000E+00  0.00000000000E+00  0.34352436070E+02  0.34352436070E+02  0.00000000000E+00 0.  1.
         -3   -1    0    0    0  501 -0.00000000000E+00 -0.00000000000E+00 -0.10367916291E+04  0.10367916291E+04  0.00000000000E+00 0. -1.
         25    2    1    2    0    0 -0.14543073670E+03  0.28393233531E+02 -0.64435693455E+03  0.67290342432E+03  0.12508750725E+03 0.  0.
         23    2    1    2    0    0  0.14543073670E+03 -0.28393233531E+02 -0.35808225847E+03  0.39824064084E+03  0.91741099292E+02 0.  0.
          5    1    3    3  502    0 -0.35132953828E+02  0.12613845400E+02 -0.28806729688E+02  0.47336387862E+02  0.41800000000E+01 0. -1.
         -5    1    3    3    0  502 -0.11029778287E+03  0.15779388131E+02 -0.61555020486E+03  0.62556703646E+03  0.41800000000E+01 0. -1.
        -11    1    4    4    0    0  0.11936571473E+03  0.13627951200E+02 -0.20778257594E+03  0.24001561151E+03  0.00000000000E+00 0.  1.
         11    1    4    4    0    0  0.26065021969E+02 -0.42021184731E+02 -0.15029968253E+03  0.15822502932E+03  0.00000000000E+00 0. -1.
</event>
<event>
 8    1  0.6860461E-009  0.1072905E+03  0.7561462E-02  0.1265671E+00
         -2   -1    0    0    0  501 -0.00000000000E+00  0.00000000000E+00  0.62254410299E+02  0.62254410299E+02  0.00000000000E+00 0.  1.
          2   -1    0    0  501    0  0.00000000000E+00 -0.00000000000E+00 -0.20887439982E+03  0.20887439982E+03  0.00000000000E+00 0. -1.
         25    2    1    2    0    0  0.33185367123E+02 -0.94637931113E+01 -0.80828711120E+02  0.15287987437E+03  0.12509253964E+03 0.  0.
         23    2    1    2    0    0 -0.33185367123E+02  0.94637931113E+01 -0.65791278406E+02  0.11824893575E+03  0.91997209315E+02 0.  0.
          5    1    3    3  502    0  0.25776549154E+02 -0.59826521370E+02 -0.78020467083E+02  0.10172663776E+03  0.41800000000E+01 0.  1.
         -5    1    3    3    0  502  0.74088179692E+01  0.50362728258E+02 -0.28082440369E+01  0.51153236612E+02  0.41800000000E+01 0.  1.
        -11    1    4    4    0    0 -0.24588133149E+02 -0.40581464272E+02 -0.30350924483E+02  0.56325927877E+02  0.00000000000E+00 0. -1.
         11    1    4    4    0    0 -0.85972339741E+01  0.50045257383E+02 -0.35440353923E+02  0.61923007878E+02  0.00000000000E+00 0.  1.
</event>
<event>
 8    1  0.6860461E-009  0.8318803E+02  0.7561462E-02  0.1320240E+00
         -1   -1    0    0    0  501 -0.00000000000E+00  0.00000000000E+00  0.54642317591E+02  0.54642317591E+02  0.00000000000E+00 0.  1.
          1   -1    0    0  501    0  0.00000000000E+00 -0.00000000000E+00 -0.24503846225E+03  0.24503846225E+03  0.00000000000E+00 0. -1.
         25    2    1    2    0    0  0.24891074501E+02 -0.10567717927E+02 -0.91398405227E+02  0.15726452651E+03  0.12508885070E+03 0.  0.
         23    2    1    2    0    0 -0.24891074501E+02  0.10567717927E+02 -0.98997739433E+02  0.14241625333E+03  0.98745098854E+02 0.  0.
          5    1    3    3  502    0 -0.11698782813E+02 -0.31507206624E+02  0.19128622438E+02  0.38896557494E+02  0.41800000000E+01 0. -1.
         -5    1    3    3    0  502  0.36589857314E+02  0.20939488697E+02 -0.11052702767E+03  0.11836796902E+03  0.41800000000E+01 0. -1.
        -11    1    4    4    0    0 -0.55258798761E+02  0.19321529407E+02 -0.28394669750E+02  0.65062382444E+02  0.00000000000E+00 0.  1.
         11    1    4    4    0    0  0.30367724260E+02 -0.87538114805E+01 -0.70603069684E+02  0.77353870886E+02  0.00000000000E+00 0. -1.
</event>
<event>
 8    1  0.6860461E-009  0.1196219E+03  0.7561462E-02  0.1243722E+00
         -4   -1    0    0    0  501 -0.00000000000E+00  0.00000000000E+00  0.30745929459E+03  0.30745929459E+03  0.00000000000E+00 0.  1.
          4   -1    0    0  501    0  0.00000000000E+00 -0.00000000000E+00 -0.59408104408E+02  0.59408104408E+02  0.00000000000E+00 0. -1.
         25    2    1    2    0    0  0.34705871893E+02 -0.62413185322E+02  0.18181978558E+03  0.23195948283E+03  0.12508742543E+03 0.  0.
         23    2    1    2    0    0 -0.34705871893E+02  0.62413185322E+02  0.66231404599E+02  0.13490791616E+03  0.93346899482E+02 0.  0.
          5    1    3    3  502    0 -0.12008502538E+02 -0.82607461832E+02  0.15022825472E+03  0.17191334387E+03  0.41800000000E+01 0.  1.
         -5    1    3    3    0  502  0.46714374431E+02  0.20194276510E+02  0.31591530861E+02  0.60046138964E+02  0.41800000000E+01 0.  1.
        -11    1    4    4    0    0 -0.48786080292E+02  0.72424290257E+02  0.25980904001E+02  0.91106348967E+02  0.00000000000E+00 0. -1.
         11    1    4    4    0    0  0.14080208399E+02 -0.10011104935E+02  0.40250500598E+02  0.43801567197E+02  0.00000000000E+00 0.  1.
</event>
<event>
 8    1  0.6860461E-009  0.9139911E+02  0.7561462E-02  0.1299499E+00
         -1   -1    0    0    0  501 -0.00000000000E+00  0.00000000000E+00  0.43747467307E+02  0.43747467307E+02  0.00000000000E+00 0.  1.
          1   -1    0    0  501    0  0.00000000000E+00 -0.00000000000E+00 -0.41452845195E+03  0.41452845195E+03  0.00000000000E+00 0. -1.
         25    2    1    2    0    0  0.43521719138E+02  0.63170188207E+02 -0.17087228795E+03  0.22523157968E+03  0.12508922009E+03 0.  0.
         23    2    1    2    0    0 -0.43521719138E+02 -0.63170188207E+02 -0.19990869669E+03  0.23304433957E+03  0.91986762525E+02 0.  0.
          5    1    3    3  502    0  0.60250159649E+02  0.37631045976E+02 -0.17961758202E+03  0.19319970375E+03  0.41800000000E+01 0.  1.
         -5    1    3    3    0  502 -0.16728440511E+02  0.25539142232E+02  0.87452940615E+01  0.32031875938E+02  0.41800000000E+01 0.  1.
        -11    1    4    4    0    0 -0.15388080009E+02 -0.49534735682E+01  0.59840308998E+01  0.17237706708E+02  0.00000000000E+00 0.  1.
         11    1    4    4    0    0 -0.28133639129E+02 -0.58216714639E+02 -0.20589272759E+03  0.21580663286E+03  0.00000000000E+00 0. -1.
</event>
<event>
 8    1  0.6860461E-009  0.1292079E+03  0.7561462E-02  0.1228636E+00
         -1   -1    0    0    0  501 -0.00000000000E+00  0.00000000000E+00  0.46441578914E+03  0.46441578914E+03  0.00000000000E+00 0.  1.
          1   -1    0    0  501    0  0.00000000000E+00 -0.00000000000E+00 -0.38674452084E+02  0.38674452084E+02  0.00000000000E+00 0. -1.
         25    2    1    2    0    0  0.64149774200E+02 -0.48202080597E+02  0.24147482095E+03  0.28354181027E+03  0.12508890805E+03 0.  0.
         23    2    1    2    0    0 -0.64149774200E+02  0.48202080597E+02  0.18426651610E+03  0.21954843095E+03  0.88367021399E+02 0.  0.
          5    1    3    3  502    0  0.34251486307E+02 -0.87612392813E+02  0.18985703367E+03  0.21192513141E+03  0.41800000000E+01 0. -1.
         -5    1    3    3    0  502  0.29898287893E+02  0.39410312215E+02  0.51617787280E+02  0.71616678864E+02  0.41800000000E+01 0. -1.
        -11    1    4    4    0    0 -0.17348921934E+02 -0.23362687816E+02  0.23297296171E+02  0.37276859889E+02  0.00000000000E+00 0. -1.
         11    1    4    4    0    0 -0.46800852266E+02  0.71564768413E+02  0.16096921993E+03  0.18227157106E+03  0.00000000000E+00 0.  1.
</event>
<event>
 8    1  0.6860461E-009  0.1156731E+03  0.7561462E-02  0.1250411E+00
          4   -1    0    0  501    0  0.00000000000E+00  0.00000000000E+00  0.26861302153E+02  0.26861302153E+02  0.00000000000E+00 0. -1.
         -4   -1    0    0    0  501 -0.00000000000E+00 -0.00000000000E+00 -0.64328222090E+03  0.64328222090E+03  0.00000000000E+00 0.  1.
         25    2    1    2    0    0  0.49169129636E+02 -0.92059794347E+01 -0.20235566067E+03  0.24309976171E+03  0.12508927760E+03 0.  0.
         23    2    1    2    0    0 -0.49169129636E+02  0.92059794347E+01 -0.41406525808E+03  0.42704376135E+03  0.91727764560E+02 0.  0.
          5    1    3    3  502    0  0.23904605799E+02  0.54106403108E+02 -0.55857241354E+02  0.81464328681E+02  0.41800000000E+01 0. -1.
         -5    1    3    3    0  502  0.25264523837E+02 -0.63312382543E+02 -0.14649841931E+03  0.16163543303E+03  0.41800000000E+01 0. -1.
        -11    1    4    4    0    0  0.97705108162E+01  0.37228775306E+02 -0.13000519470E+03  0.13558316725E+03  0.00000000000E+00 0.  1.
         11    1    4    4    0    0 -0.58939640453E+02 -0.28022795871E+02 -0.28406006338E+03  0.29146059410E+03  0.00000000000E+00 0. -1.
</event>
<event>
 8    1  0.6860461E-009  0.9188309E+02  0.7561462E-02  0.1298355E+00
         -3   -1    0    0    0  501 -0.00000000000E+00  0.00000000000E+00  0.21966583552E+03  0.21966583552E+03  0.00000000000E+00 0.  1.
          3   -1    0    0  501    0  0.00000000000E+00 -0.00000000000E+00 -0.53196140145E+02  0.53196140145E+02  0.00000000000E+00 0. -1.
         25    2    1    2    0    0  0.96691881268E+01  0.79437305962E+01  0.81755991638E+02  0.14996091463E+03  0.12509051799E+03 0.  0.
         23    2    1    2    0    0 -0.96691881268E+01 -0.79437305962E+01  0.84713703739E+02  0.12290106104E+03  0.88157036866E+02 0.  0.
          5    1    3    3  502    0 -0.31744760498E+02  0.33267912927E+02  0.89421623590E+02  0.10063887427E+03  0.41800000000E+01 0.  1.
         -5    1    3    3    0  502  0.41413948625E+02 -0.25324182331E+02 -0.76656319520E+01  0.49322040353E+02  0.41800000000E+01 0.  1.
        -11    1    4    4    0    0  0.83549627097E+01  0.38319636190E+02  0.33630633114E+02  0.51664488803E+02  0.00000000000E+00 0. -1.
         11    1    4    4    0    0 -0.18024150837E+02 -0.46263366786E+02  0.51083070625E+02  0.71236572238E+02  0.00000000000E+00 0.  1.
</event>
<event>
 8    1  0.6860461E-009  0.1062452E+03  0.7561462E-02  0.1267685E+00
         -2   -1    0    0    0  501 -0.00000000000E+00  0.00000000000E+00  0.98279878557E+02  0.98279878557E+02  0.00000000000E+00 0.  1.
          2   -1    0    0  501    0  0.00000000000E+00 -0.00000000000E+00 -0.23024175410E+03  0.23024175410E+03  0.00000000000E+00 0. -1.
         25    2    1    2    0    0 -0.24541228513E+02 -0.55842697537E+02  0.20512636272E+02  0.14067057505E+03  0.12508702440E+03 0.  0.
         23    2    1    2    0    0  0.24541228513E+02  0.55842697537E+02 -0.15247451181E+03  0.18785105760E+03  0.91207808460E+02 0.  0.
          5    1    3    3  502    0 -0.68619621988E+02 -0.37451326609E+01  0.22017007889E+02  0.72283466829E+02  0.41800000000E+01 0. -1.
         -5    1    3    3    0  502  0.44078393475E+02 -0.52097564876E+02 -0.15043716170E+01  0.68387108224E+02  0.41800000000E+01 0. -1.
        -11    1    4    4    0    0  0.56126976068E+01  0.56061063481E+02 -0.15831430091E+03  0.16804095657E+03  0.00000000000E+00 0.  1.
         11    1    4    4    0    0  0.18928530906E+02 -0.21836594422E+00  0.58397890998E+01  0.19810101027E+02  0.00000000000E+00 0. -1.
</event>
<event>
 8    1  0.6860461E-009  0.1018959E+03  0.7561462E-02  0.1276359E+00
         -2   -1    0    0    0  501 -0.00000000000E+00  0.00000000000E+00  0.38599480238E+02  0.38599480238E+02  0.00000000000E+00 0.  1.
          2   -1    0    0  501    0  0.00000000000E+00 -0.00000000000E+00 -0.43798870109E+03  0.43798870109E+03  0.00000000000E+00 0. -1.
         25    2    1    2    0    0  0.22154838135E+02  0.29861925473E+02 -0.33477149341E+03  0.35930708688E+03  0.12508820263E+03 0.  0.
         23    2    1    2    0    0 -0.22154838135E+02 -0.29861925473E+02 -0.64617727439E+02  0.11728109444E+03  0.90536362686E+02 0.  0.
          5    1    3    3  502    0  0.71667375094E+02  0.95086054101E+01 -0.23629778067E+03  0.24714517956E+03  0.41800000000E+01 0. -1.
         -5    1    3    3    0  502 -0.49512536959E+02  0.20353320063E+02 -0.98473712744E+02  0.11216190733E+03  0.41800000000E+01 0. -1.
        -11    1    4    4    0    0  0.13453565010E+02  0.15166346098E+02  0.10426500612E+02  0.22797552071E+02  0.00000000000E+00 0.  1.
         11    1    4    4    0    0 -0.35608403145E+02 -0.45028271571E+02 -0.75044228051E+02  0.94483542371E+02  0.00000000000E+00 0. -1.
</event>
<event>
 8    1  0.6860461E-009  0.1333233E+03  0.7561462E-02  0.1222606E+00
          1   -1    0    0  501    0  0.00000000000E+00  0.00000000000E+00  0.58465334108E+02  0.58465334108E+02  0.00000000000E+00 0. -1.
         -1   -1    0    0    0  501 -0.00000000000E+00 -0.00000000000E+00 -0.46759103033E+03  0.46759103033E+03  0.00000000000E+00 0.  1.
         25    2    1    2    0    0  0.92231882460E+02 -0.83426801165E+02 -0.23406631726E+03  0.29308842258E+03  0.12508809407E+03 0.  0.
         23    2    1    2    0    0 -0.92231882460E+02  0.83426801165E+02 -0.17505937896E+03  0.23296794186E+03  0.90341156054E+02 0.  0.
          5    1    3    3  502    0  0.59105373445E+02 -0.96873665259E+01 -0.19339174986E+03  0.20249723838E+03  0.41800000000E+01 0.  1.
         -5    1    3    3    0  502  0.33126509015E+02 -0.73739434639E+02 -0.40674567405E+02  0.90591184196E+02  0.41800000000E+01 0.  1.
        -11    1    4    4    0    0 -0.39318650778E+02  0.47695035955E+02 -0.19499893377E+02  0.64815265142E+02  0.00000000000E+00 0. -1.
         11    1    4    4    0    0 -0.52913231682E+02  0.35731765210E+02 -0.15555948558E+03  0.16815267672E+03  0.00000000000E+00 0.  1.
</event>
<event>
 8    1  0.6860461E-009  0.6613615E+02  0.7561462E-02  0.1373748E+00
          2   -1    0    0  501    0  0.00000000000E+00  0.00000000000E+00  0.56134899725E+03  0.56134899725E+03  0.00000000000E+00 0. -1.
         -2   -1    0    0    0  501 -0.00000000000E+00 -0.00000000000E+00 -0.24008180652E+02  0.24008180652E+02  0.00000000000E+00 0.  1.
         25    2    1    2    0    0 -0.23364377101E+02  0.99529224194E+01  0.39167964147E+03  0.41195273747E+03  0.12508861494E+03 0.  0.
         23    2    1    2    0    0  0.23364377101E+02 -0.99529224194E+01  0.14566117513E+03  0.17340444043E+03  0.90592313357E+02 0.  0.
          5    1    3    3  502    0  0.20025851665E+02 -0.30849425704E-01  0.29615519107E+01  0.20670725103E+02  0.41800000000E+01 0.  1.
         -5    1    3    3    0  502 -0.43390228766E+02  0.99837718452E+01  0.38871808956E+03  0.39128201237E+03  0.41800000000E+01 0.  1.
        -11    1    4    4    0    0 -0.21481250495E+02 -0.23485822461E+01  0.11844071344E+03  0.12039585774E+03  0.00000000000E+00 0. -1.
         11    1    4    4    0    0  0.44845627596E+02 -0.76043401734E+01  0.27220461685E+02  0.53008582686E+02  0.00000000000E+00 0.  1.
</event>
<event>
 8    1  0.6860461E-009  0.1258203E+03  0.7561462E-02  0.1233793E+00
          2   -1    0    0  501    0  0.00000000000E+00  0.00000000000E+00  0.66318530377E+03  0.66318530377E+03  0.00000000000E+00 0. -1.
         -2   -1    0    0    0  501 -0.00000000000E+00 -0.00000000000E+00 -0.31318491139E+02  0.31318491139E+02  0.00000000000E+00 0.  1.
         25    2    1    2    0    0  0.83824234520E+02 -0.41179291006E+02  0.37403956333E+03  0.40531084142E+03  0.12509615076E+03 0.  0.
         23    2    1    2    0    0 -0.83824234520E+02  0.41179291006E+02  0.25782724930E+03  0.28919295349E+03  0.91844638194E+02 0.  0.
          5    1    3    3  502    0  0.69001915310E+02 -0.71387008438E+02  0.34977246419E+03  0.36361465646E+03  0.41800000000E+01 0. -1.
         -5    1    3    3    0  502  0.14822319210E+02  0.30207717432E+02  0.24267099143E+02  0.41696184957E+02  0.41800000000E+01 0. -1.
        -11    1    4    4    0    0 -0.55246321793E+02 -0.13315121307E+02  0.62830698401E+02  0.84718033432E+02  0.00000000000E+00 0.  1.
         11    1    4    4    0    0 -0.28577912727E+02  0.54494412314E+02  0.19499655090E+03  0.20447492006E+03  0.00000000000E+00 0. -1.
</event>
<event>
 8    1  0.6860461E-009  0.1616552E+03  0.7561462E-02  0.1186841E+00
          2   -1    0    0  501    0  0.00000000000E+00  0.00000000000E+00  0.17258280759E+03  0.17258280759E+03  0.00000000000E+00 0. -1.
         -2   -1    0    0    0  501 -0.00000000000E+00 -0.00000000000E+00 -0.25652442182E+03  0.25652442182E+03  0.00000000000E+00 0.  1.
         25    2    1    2    0    0  0.10730954056E+03 -0.91980407739E+02 -0.15668298281E+03  0.24530147949E+03  0.12509007088E+03 0.  0.
         23    2    1    2    0    0 -0.10730954056E+03  0.91980407739E+02  0.72741368588E+02  0.18380574992E+03  0.92290379219E+02 0.  0.
          5    1    3    3  502    0  0.62917513242E+02 -0.98593656474E+02 -0.45923685079E+02  0.12572103969E+03  0.41800000000E+01 0. -1.
         -5    1    3    3    0  502  0.44392027318E+02  0.66132487344E+01 -0.11075929773E+03  0.11958043980E+03  0.41800000000E+01 0. -1.
        -11    1    4    4    0    0 -0.62796181959E+02  0.97886414137E+02  0.26356581056E+02  0.11924671864E+03  0.00000000000E+00 0.  1.
         11    1    4    4    0    0 -0.44513358602E+02 -0.59060063972E+01  0.46384787532E+02  0.64559031281E+02  0.00000000000E+00 0. -1.
</event>
<event>
 8    1  0.6860461E-009  0.6257110E+02  0.7561462E-02  0.1387348E+00
          1   -1    0    0  501    0  0.00000000000E+00  0.00000000000E+00  0.21815460533E+03  0.21815460533E+03  0.00000000000E+00 0. -1.
         -1   -1    0    0    0  501 -0.00000000000E+00 -0.00000000000E+00 -0.61180647061E+02  0.61180647061E+02  0.00000000000E+00 0.  1.
         25    2    1    2    0    0  0.15414014128E+02 -0.27660785627E+02  0.57021937181E+02  0.14106932871E+03  0.12508534402E+03 0.  0.
         23    2    1    2    0    0 -0.15414014128E+02  0.27660785627E+02  0.99952021089E+02  0.13826592368E+03  0.90135166496E+02 0.  0.
          5    1    3    3  502    0  0.15940751186E+02 -0.18495344961E+02  0.96858148529E+02  0.99975790420E+02  0.41800000000E+01 0.  1.
         -5    1    3    3    0  502 -0.52673705717E+00 -0.91654406667E+01 -0.39836211348E+02  0.41093538289E+02  0.41800000000E+01 0.  1.
        -11    1    4    4    0    0 -0.12312541336E+00 -0.30319633636E+02  0.56814317599E+02  0.64398462931E+02  0.00000000000E+00 0. -1.
         11    1    4    4    0    0 -0.15290888715E+02  0.57980419263E+02  0.43137703490E+02  0.73867460752E+02  0.00000000000E+00 0.  1.
</event>
<event>
 8    1  0.6860461E-009  0.1434235E+03  0.7561462E-02  0.1208795E+00
         -2   -1    0    0    0  501 -0.00000000000E+00  0.00000000000E+00  0.15611489977E+03  0.15611489977E+03  0.00000000000E+00 0.  1.
          2   -1    0    0  501    0  0.00000000000E+00 -0.00000000000E+00 -0.27278359561E+03  0.27278359561E+03  0.00000000000E+00 0. -1.
         25    2    1    2    0    0  0.11851919185E+03 -0.25464758998E+00 -0.19532760279E+03  0.26047573015E+03  0.12509144616E+03 0.  0.
         23    2    1    2    0    0 -0.11851919185E+03  0.25464758998E+00  0.78658906946E+02  0.16842276523E+03  0.90178381680E+02 0.  0.
          5    1    3    3  502    0  0.45480399411E+02 -0.51135219354E+02 -0.34836745040E+02  0.76904802152E+02  0.41800000000E+01 0. -1.
         -5    1    3    3    0  502  0.73038792443E+02  0.50880571764E+02 -0.16049085775E+03  0.18357092800E+03  0.41800000000E+01 0. -1.
        -11    1    4    4    0    0 -0.74351728897E+02  0.25128081601E+02  0.86869605593E+02  0.11707232146E+03  0.00000000000E+00 0.  1.
         11    1    4    4    0    0 -0.44167462957E+02 -0.24873434011E+02 -0.82106986471E+01  0.51350443774E+02  0.00000000000E+00 0. -1.
</event>
<event>
 8    1  0.6860461E-009  0.9878848E+02  0.7561462E-02  0.1282864E+00
          1   -1    0    0  501    0  0.00000000000E+00  0.00000000000E+00  0.39259889055E+02  0.39259889055E+02  0.00000000000E+00 0. -1.
         -1   -1    0    0    0  501 -0.00000000000E+00 -0.00000000000E+00 -0.30277989052E+03  0.30277989052E+03  0.00000000000E+00 0.  1.
         25    2    1    2    0    0 -0.18797513360E+02 -0.51710328187E+01 -0.15643989753E+03  0.20124856517E+03  0.12508979716E+03 0.  0.
         23    2    1    2    0    0  0.18797513360E+02  0.51710328187E+01 -0.10708010394E+03  0.14079121441E+03  0.89308069661E+02 0.  0.
          5    1    3    3  502    0 -0.60409933608E+02  0.28919677420E+02 -0.11526638877E+03  0.13337736165E+03  0.41800000000E+01 0. -1.
         -5    1    3    3    0  502  0.41612420248E+02 -0.34090710239E+02 -0.41173508759E+02  0.67871203519E+02  0.41800000000E+01 0. -1.
        -11    1    4    4    0    0 -0.20226333666E+02  0.25472784407E+02 -0.86132319170E+02  0.92069233323E+02  0.00000000000E+00 0.  1.
         11    1    4    4    0    0  0.39023847026E+02 -0.20301751588E+02 -0.20947784766E+02  0.48721981086E+02  0.00000000000E+00 0. -1.
</event>
<event>
 8    1  0.6860461E-009  0.8621641E+02  0.7561462E-02  0.1312282E+00
          2   -1    0    0  501    0  0.00000000000E+00  0.00000000000E+00  0.38424120827E+03  0.38424120827E+03  0.00000000000E+00 0.  1.
         -2   -1    0    0    0  501 -0.00000000000E+00 -0.00000000000E+00 -0.36674113456E+02  0.36674113456E+02  0.00000000000E+00 0. -1.
         25    2    1    2    0    0 -0.20133527821E+02  0.76382791439E+01  0.26991490479E+03  0.29827046834E+03  0.12509002439E+03 0.  0.
         23    2    1    2    0    0  0.20133527821E+02 -0.76382791439E+01  0.77652190027E+02  0.12264485339E+03  0.92456450275E+02 0.  0.
          5    1    3    3  502    0  0.93063248113E+01  0.42563570138E+02  0.27805774427E+02  0.51854591657E+02  0.41800000000E+01 0.  1.
         -5    1    3    3    0  502 -0.29439852632E+02 -0.34925290994E+02  0.24210913036E+03  0.24641587668E+03  0.41800000000E+01 0.  1.
        -11    1    4    4    0    0  0.48531876626E+02 -0.19121038331E+02  0.17287593801E+02  0.54952871218E+02  0.00000000000E+00 0. -1.
         11    1    4    4    0    0 -0.28398348805E+02  0.11482759187E+02  0.60364596227E+02  0.67691982177E+02  0.00000000000E+00 0.  1.
</event>
<event>
 8    1  0.6860461E-009  0.1508251E+03  0.7561462E-02  0.1199463E+00
          1   -1    0    0  501    0  0.00000000000E+00  0.00000000000E+00  0.39139438561E+03  0.39139438561E+03  0.00000000000E+00 0. -1.
         -1   -1    0    0    0  501 -0.00000000000E+00 -0.00000000000E+00 -0.10191137186E+03  0.10191137186E+03  0.00000000000E+00 0.  1.
         25    2    1    2    0    0 -0.66929965620E+02  0.10327294283E+03  0.11782790062E+02  0.17587108746E+03  0.12508750634E+03 0.  0.
         23    2    1    2    0    0  0.66929965620E+02 -0.10327294283E+03  0.27770022369E+03  0.31743467002E+03  0.92208646418E+02 0.  0.
          5    1    3    3  502    0  0.20438933165E+02  0.69344860507E+02 -0.22741404797E+02  0.75901933834E+02  0.41800000000E+01 0. -1.
         -5    1    3    3    0  502 -0.87368898785E+02  0.33928082325E+02  0.34524194858E+02  0.99969153621E+02  0.41800000000E+01 0. -1.
        -11    1    4    4    0    0  0.14763077388E+02 -0.74283059554E+02  0.76818357658E+02  0.10787484166E+03  0.00000000000E+00 0.  1.
         11    1    4    4    0    0  0.52166888232E+02 -0.28989883278E+02  0.20088186603E+03  0.20955982836E+03  0.00000000000E+00 0. -1.
</event>
<event>
 8    1  0.6860461E-009  0.1361152E+03  0.7561462E-02  0.1218654E+00
          1   -1    0    0  501    0  0.00000000000E+00  0.00000000000E+00  0.13067914155E+03  0.13067914155E+03  0.00000000000E+00 0. -1.
         -1   -1    0    0    0  501 -0.00000000000E+00 -0.00000000000E+00 -0.18440321521E+03  0.18440321521E+03  0.00000000000E+00 0.  1.
         25    2    1    2    0    0 -0.10581580814E+03  0.53011226324E+01 -0.36487891524E+02  0.16793751123E+03  0.12508618748E+03 0.  0.
         23    2    1    2    0    0  0.10581580814E+03 -0.53011226324E+01 -0.17236182138E+02  0.14714484553E+03  0.10064508154E+03 0.  0.
          5    1    3    3  502    0  0.12337836826E+02 -0.10904581443E+02  0.27656391706E+02  0.32457364591E+02  0.41800000000E+01 0. -1.
         -5    1    3    3    0  502 -0.11815364496E+03  0.16205704075E+02 -0.64144283230E+02  0.13548014664E+03  0.41800000000E+01 0. -1.
        -11    1    4    4    0    0  0.88115398834E+02  0.32700339739E+02 -0.36733880884E+02  0.10091091980E+03  0.00000000000E+00 0. -1.
         11    1    4    4    0    0  0.17700409302E+02 -0.38001462372E+02  0.19497698745E+02  0.46233925728E+02  0.00000000000E+00 0.  1.
</event>
<event>
 8    1  0.6860461E-009  0.4213796E+03  0.7561462E-02  0.1036618E+00
          2   -1    0    0  501    0  0.00000000000E+00  0.00000000000E+00  0.33081490513E+03  0.33081490513E+03  0.00000000000E+00 0. -1.
         -2   -1    0    0    0  501 -0.00000000000E+00 -0.00000000000E+00 -0.55598712374E+03  0.55598712374E+03  0.00000000000E+00 0.  1.
         25    2    1    2    0    0  0.22958104462E+03 -0.33877530031E+03 -0.18341337464E+03  0.46557966589E+03  0.12509116336E+03 0.  0.
         23    2    1    2    0    0 -0.22958104462E+03  0.33877530031E+03 -0.41758843977E+02  0.42122236298E+03  0.90599767521E+02 0.  0.
          5    1    3    3  502    0  0.85450942102E+02 -0.22608327748E+03 -0.13232994996E+03  0.27557975238E+03  0.41800000000E+01 0. -1.
         -5    1    3    3    0  502  0.14413010252E+03 -0.11269202282E+03 -0.51083424681E+02  0.18999991352E+03  0.41800000000E+01 0. -1.
        -11    1    4    4    0    0 -0.13609792631E+03  0.12536121176E+03 -0.32030850726E+01  0.18506306685E+03  0.00000000000E+00 0.  1.
         11    1    4    4    0    0 -0.93483118308E+02  0.21341408855E+03 -0.38555758904E+02  0.23615929612E+03  0.00000000000E+00 0. -1.
</event>
<event>
 8    1  0.6860461E-009  0.1183213E+03  0.7561462E-02  0.1245892E+00
         -3   -1    0    0    0  501 -0.00000000000E+00  0.00000000000E+00  0.19144529694E+03  0.19144529694E+03  0.00000000000E+00 0.  1.
          3   -1    0    0  501    0  0.00000000000E+00 -0.00000000000E+00 -0.19679622528E+03  0.19679622528E+03  0.00000000000E+00 0. -1.
         25    2    1    2    0    0 -0.10582485408E+03  0.37727263636E+02 -0.11822519406E+03  0.20553478676E+03  0.12508039772E+03 0.  0.
         23    2    1    2    0    0  0.10582485408E+03 -0.37727263636E+02  0.11287426572E+03  0.18270673547E+03  0.89548339795E+02 0.  0.
          5    1    3    3  502    0 -0.40023040595E+02  0.41415702680E+02 -0.12642638163E+03  0.13898995136E+03  0.41800000000E+01 0.  1.
         -5    1    3    3    0  502 -0.65801813486E+02 -0.36884390445E+01  0.82011875647E+01  0.66544835398E+02  0.41800000000E+01 0.  1.
        -11    1    4    4    0    0  0.37991788968E+02 -0.19058291304E+02 -0.76148769080E+01  0.43180792567E+02  0.00000000000E+00 0. -1.
         11    1    4    4    0    0  0.67833065114E+02 -0.18668972332E+02  0.12048914263E+03  0.13952594290E+03  0.00000000000E+00 0.  1.
</event>
<event>
 8    1  0.6860461E-009  0.1706200E+03  0.7561462E-02  0.1177203E+00
         -2   -1    0    0    0  501 -0.00000000000E+00  0.00000000000E+00  0.13679884190E+03  0.13679884190E+03  0.00000000000E+00 0.  1.
          2   -1    0    0  501    0  0.00000000000E+00 -0.00000000000E+00 -0.53111779643E+03  0.53111779643E+03  0.00000000000E+00 0. -1.
         25    2    1    2    0    0 -0.11195816418E+03 -0.12462655489E+03  0.21737216063E+02  0.21020561411E+03  0.12508990739E+03 0.  0.
         23    2    1    2    0    0  0.11195816418E+03  0.12462655489E+03 -0.41605617059E+03  0.45771102422E+03  0.91270125990E+02 0.  0.
          5    1    3    3  502    0 -0.62502242052E+02 -0.77519531967E+02  0.73973303606E+02  0.12411821037E+03  0.41800000000E+01 0.  1.
         -5    1    3    3    0  502 -0.49455922125E+02 -0.47107022920E+02 -0.52236087542E+02  0.86087403744E+02  0.41800000000E+01 0.  1.
        -11    1    4    4    0    0  0.17348911256E+02  0.49138686251E+02 -0.22942505959E+03  0.23526889547E+03  0.00000000000E+00 0. -1.
         11    1    4    4    0    0  0.94609252921E+02  0.75487868635E+02 -0.18663111100E+03  0.22244212875E+03  0.00000000000E+00 0.  1.
</event>
<event>
 8    1  0.6860461E-009  0.1286792E+03  0.7561462E-02  0.1229429E+00
         -1   -1    0    0    0  501 -0.00000000000E+00  0.00000000000E+00  0.21137494413E+03  0.21137494413E+03  0.00000000000E+00 0. -1.
          1   -1    0    0  501    0  0.00000000000E+00 -0.00000000000E+00 -0.14782630391E+03  0.14782630391E+03  0.00000000000E+00 0.  1.
         25    2    1    2    0    0  0.97149699304E+02  0.36467075499E+02 -0.59332781333E+02  0.17301791429E+03  0.12508760153E+03 0.  0.
         23    2    1    2    0    0 -0.97149699304E+02 -0.36467075499E+02  0.12288142154E+03  0.18618333374E+03  0.93789542768E+02 0.  0.
          5    1    3    3  502    0  0.17048695898E+02 -0.23145012326E+02  0.27965168139E+02  0.40322111259E+02  0.41800000000E+01 0.  1.
         -5    1    3    3    0  502  0.80101003406E+02  0.59612087824E+02 -0.87297949471E+02  0.13269580304E+03  0.41800000000E+01 0.  1.
        -11    1    4    4    0    0 -0.10726475490E+03 -0.20097937251E+02  0.69359140309E+02  0.12930717331E+03  0.00000000000E+00 0.  1.
         11    1    4    4    0    0  0.10115055597E+02 -0.16369138248E+02  0.53522281236E+02  0.56876160431E+02  0.00000000000E+00 0. -1.
</event>
<event>
 8    1  0.6860461E-009  0.1216206E+03  0.7561462E-02  0.1240447E+00
         -1   -1    0    0    0  501 -0.00000000000E+00  0.00000000000E+00  0.36992286165E+02  0.36992286165E+02  0.00000000000E+00 0.  1.
          1   -1    0    0  501    0  0.00000000000E+00 -0.00000000000E+00 -0.52119310974E+03  0.52119310974E+03  0.00000000000E+00 0. -1.
         25    2    1    2    0    0  0.34533497075E+01 -0.85683048272E+02 -0.27241068616E+03  0.31178317133E+03  0.12509058161E+03 0.  0.
         23    2    1    2    0    0 -0.34533497075E+01  0.85683048272E+02 -0.21179013741E+03  0.24640222457E+03  0.92225178672E+02 0.  0.
          5    1    3    3  502    0  0.34559958312E+02 -0.61451307968E+01 -0.11430024780E+02  0.37152001528E+02  0.41800000000E+01 0.  1.
         -5    1    3    3    0  502 -0.31106608605E+02 -0.79537917475E+02 -0.26098066138E+03  0.27463116981E+03  0.41800000000E+01 0.  1.
        -11    1    4    4    0    0 -0.45291723212E+02  0.39848060519E+02 -0.75443948586E+02  0.96597088449E+02  0.00000000000E+00 0. -1.
         11    1    4    4    0    0  0.41838373504E+02  0.45834987753E+02 -0.13634618883E+03  0.14980513612E+03  0.00000000000E+00 0.  1.
</event>
<event>
 8    1  0.6860461E-009  0.1279814E+03  0.7561462E-02  0.1230482E+00
         -1   -1    0    0    0  501 -0.00000000000E+00  0.00000000000E+00  0.29975995056E+02  0.29975995056E+02  0.00000000000E+00 0. -1.
          1   -1    0    0  501    0  0.00000000000E+00 -0.00000000000E+00 -0.58000649438E+03  0.58000649438E+03  0.00000000000E+00 0.  1.
         25    2    1    2    0    0 -0.33064275459E+02  0.68405706049E+02 -0.28679904235E+03  0.32198250738E+03  0.12508580029E+03 0.  0.
         23    2    1    2    0    0  0.33064275459E+02 -0.68405706049E+02 -0.26323145698E+03  0.28799998206E+03  0.88772759282E+02 0.  0.
          5    1    3    3  502    0  0.41097614016E+02  0.45601508488E+02 -0.17762809739E+03  0.18798330999E+03  0.41800000000E+01 0. -1.
         -5    1    3    3    0  502 -0.74161889475E+02  0.22804197560E+02 -0.10917094496E+03  0.13399919739E+03  0.41800000000E+01 0. -1.
        -11    1    4    4    0    0  0.63722100973E+02 -0.49754211914E+02 -0.17629342029E+03  0.19394679114E+03  0.00000000000E+00 0.  1.
         11    1    4    4    0    0 -0.30657825514E+02 -0.18651494135E+02 -0.86938036685E+02  0.94053190915E+02  0.00000000000E+00 0. -1.
</event>
<event>
 8    1  0.6860461E-009  0.9876297E+02  0.7561462E-02  0.1282919E+00
         -1   -1    0    0    0  501 -0.00000000000E+00  0.00000000000E+00  0.18133550481E+02  0.18133550481E+02  0.00000000000E+00 0.  1.
          1   -1    0    0  501    0  0.00000000000E+00 -0.00000000000E+00 -0.98852413163E+03  0.98852413163E+03  0.00000000000E+00 0. -1.
         25    2    1    2    0    0  0.37890938570E+01 -0.72368201038E+02 -0.56672274038E+03  0.58487029991E+03  0.12508832679E+03 0.  0.
         23    2    1    2    0    0 -0.37890938570E+01  0.72368201038E+02 -0.40366784077E+03  0.42178738220E+03  0.98515767058E+02 0.  0.
          5    1    3    3  502    0  0.28078916054E+02 -0.57266100236E+02 -0.54494097510E+03  0.54867656275E+03  0.41800000000E+01 0.  1.
         -5    1    3    3    0  502 -0.24289822197E+02 -0.15102100801E+02 -0.21781765272E+02  0.36193737156E+02  0.41800000000E+01 0.  1.
        -11    1    4    4    0    0 -0.39691260279E+02  0.35664480205E+02 -0.95719230687E+02  0.10958796656E+03  0.00000000000E+00 0.  1.
         11    1    4    4    0    0  0.35902166422E+02  0.36703720833E+02 -0.30794861008E+03  0.31219941564E+03  0.00000000000E+00 0. -1.
</event>
<event>
 8    1  0.6860461E-009  0.1216584E+03  0.7561462E-02  0.1240386E+00
         -1   -1    0    0    0  501 -0.00000000000E+00  0.00000000000E+00  0.10898575525E+02  0.10898575525E+02  0.00000000000E+00 0.  1.
          1   -1    0    0  501    0  0.00000000000E+00 -0.00000000000E+00 -0.15362606485E+04  0.15362606485E+04  0.00000000000E+00 0. -1.
         25    2    1    2    0    0 -0.39930828755E+02  0.48945977289E+02 -0.96711387350E+03  0.97721269589E+03  0.12508088949E+03 0.  0.
         23    2    1    2    0    0  0.39930828755E+02 -0.48945977289E+02 -0.55824819950E+03  0.56994652816E+03  0.95957349583E+02 0.  0.
          5    1    3    3  502    0  0.18466475412E+02  0.65594848118E+02 -0.31772479237E+03  0.32497724674E+03  0.41800000000E+01 0. -1.
         -5    1    3    3    0  502 -0.58397304167E+02 -0.16648870829E+02 -0.64938908113E+03  0.65223544915E+03  0.41800000000E+01 0. -1.
        -11    1    4    4    0    0 -0.27388147967E+02 -0.36634691975E+02 -0.19339194794E+03  0.19872759455E+03  0.00000000000E+00 0.  1.
         11    1    4    4    0    0  0.67318976721E+02 -0.12311285314E+02 -0.36485625155E+03  0.37121893361E+03  0.00000000000E+00 0. -1.
</event>
<event>
 8    1  0.6860461E-009  0.2503980E+03  0.7561462E-02  0.1113054E+00
          1   -1    0    0  501    0  0.00000000000E+00  0.00000000000E+00  0.17907503485E+04  0.17907503485E+04  0.00000000000E+00 0. -1.
         -1   -1    0    0    0  501 -0.00000000000E+00 -0.00000000000E+00 -0.40349705098E+02  0.40349705098E+02  0.00000000000E+00 0.  1.
         25    2    1    2    0    0 -0.20347208381E+03 -0.13786233017E+03  0.91758971204E+03  0.95813585656E+03  0.12508608639E+03 0.  0.
         23    2    1    2    0    0  0.20347208381E+03  0.13786233017E+03  0.83281093139E+03  0.87296419707E+03  0.89919580441E+02 0.  0.
          5    1    3    3  502    0 -0.12082940689E+03 -0.64991912100E+02  0.28890007926E+03  0.31985062514E+03  0.41800000000E+01 0.  1.
         -5    1    3    3    0  502 -0.82642676928E+02 -0.72870418069E+02  0.62868963278E+03  0.63828523142E+03  0.41800000000E+01 0.  1.
        -11    1    4    4    0    0  0.11195901378E+03  0.11156534309E+03  0.61989204612E+03  0.63972478097E+03  0.00000000000E+00 0. -1.
         11    1    4    4    0    0  0.91513070032E+02  0.26296987080E+02  0.21291888527E+03  0.23323941610E+03  0.00000000000E+00 0.  1.
</event>
<event>
 8    1  0.6860461E-009  0.1544195E+03  0.7561462E-02  0.1195145E+00
          2   -1    0    0  501    0  0.00000000000E+00  0.00000000000E+00  0.14175513515E+03  0.14175513515E+03  0.00000000000E+00 0. -1.
         -2   -1    0    0    0  501 -0.00000000000E+00 -0.00000000000E+00 -0.20263181929E+03  0.20263181929E+03  0.00000000000E+00 0.  1.
         25    2    1    2    0    0 -0.12467078835E+03 -0.36818638521E+02 -0.25404367765E+02  0.18218252244E+03  0.12508665784E+03 0.  0.
         23    2    1    2    0    0  0.12467078835E+03  0.36818638521E+02 -0.35472316384E+02  0.16220443200E+03  0.90297147915E+02 0.  0.
          5    1    3    3  502    0 -0.75884876884E+02  0.27117600399E+02 -0.53582753475E+02  0.96863113006E+02  0.41800000000E+01 0.  1.
         -5    1    3    3    0  502 -0.48785911465E+02 -0.63936238920E+02  0.28178385711E+02  0.85319409433E+02  0.41800000000E+01 0.  1.
        -11    1    4    4    0    0  0.64992419629E+02  0.55092263915E+02 -0.49078256494E+02  0.98325212499E+02  0.00000000000E+00 0. -1.
         11    1    4    4    0    0  0.59678368720E+02 -0.18273625394E+02  0.13605940110E+02  0.63879219504E+02  0.00000000000E+00 0.  1.
</event>
<event>
 8    1  0.6860461E-009  0.1176367E+03  0.7561462E-02  0.1247047E+00
          3   -1    0    0  501    0  0.00000000000E+00  0.00000000000E+00  0.27096062269E+02  0.27096062269E+02  0.00000000000E+00 0. -1.
         -3   -1    0    0    0  501 -0.00000000000E+00 -0.00000000000E+00 -0.94229476782E+03  0.94229476782E+03  0.00000000000E+00 0.  1.
         25    2    1    2    0    0  0.80963909578E+02 -0.40635324475E+02 -0.71678216734E+03  0.73323292610E+03  0.12508982476E+03 0.  0.
         23    2    1    2    0    0 -0.80963909578E+02  0.40635324475E+02 -0.19841653821E+03  0.23615790398E+03  0.90526508435E+02 0.  0.
          5    1    3    3  502    0 -0.16019196717E+01 -0.25366767807E+02 -0.50085624665E+03  0.50151818638E+03  0.41800000000E+01 0.  1.
         -5    1    3    3    0  502  0.82565829250E+02 -0.15268556668E+02 -0.21592592068E+03  0.23171473972E+03  0.41800000000E+01 0.  1.
        -11    1    4    4    0    0 -0.21622579744E+02  0.59395520357E+02 -0.12372143428E+03  0.13893292300E+03  0.00000000000E+00 0.  1.
         11    1    4    4    0    0 -0.59341329834E+02 -0.18760195882E+02 -0.74695103927E+02  0.97224980980E+02  0.00000000000E+00 0. -1.
</event>
<event>
 8    1  0.6860461E-009  0.1531201E+03  0.7561462E-02  0.1196691E+00
         -1   -1    0    0    0  501 -0.00000000000E+00  0.00000000000E+00  0.12628686811E+03  0.12628686811E+03  0.00000000000E+00 0.  1.
          1   -1    0    0  501    0  0.00000000000E+00 -0.00000000000E+00 -0.23452509407E+03  0.23452509407E+03  0.00000000000E+00 0. -1.
         25    2    1    2    0    0 -0.77211667103E+02 -0.86402616889E+02  0.10890300630E+02  0.17085775398E+03  0.12508684864E+03 0.  0.
         23    2    1    2    0    0  0.77211667103E+02  0.86402616889E+02 -0.11912852660E+03  0.18995420820E+03  0.91999682735E+02 0.  0.
          5    1    3    3  502    0 -0.53622049220E+02 -0.11442239952E+03  0.29102640239E+02  0.12973914499E+03  0.41800000000E+01 0.  1.
         -5    1    3    3    0  502 -0.23589617883E+02  0.28019782633E+02 -0.18212339609E+02  0.41118608983E+02  0.41800000000E+01 0.  1.
        -11    1    4    4    0    0 -0.10565754684E+02  0.44386757964E+02 -0.16489319943E+02  0.48515122661E+02  0.00000000000E+00 0.  1.
         11    1    4    4    0    0  0.87777421787E+02  0.42015858924E+02 -0.10263920665E+03  0.14143908554E+03  0.00000000000E+00 0. -1.
</event>
<event>
 8    1  0.6860461E-009  0.8351812E+02  0.7561462E-02  0.1319354E+00
         -2   -1    0    0    0  501 -0.00000000000E+00  0.00000000000E+00  0.78819007479E+02  0.78819007479E+02  0.00000000000E+00 0.  1.
          2   -1    0    0  501    0  0.00000000000E+00 -0.00000000000E+00 -0.18552936094E+03  0.18552936094E+03  0.00000000000E+00 0. -1.
         25    2    1    2    0    0  0.35402559052E+02  0.14670019209E+02 -0.11179663919E+02  0.13130613907E+03  0.12509103334E+03 0.  0.
         23    2    1    2    0    0 -0.35402559052E+02 -0.14670019209E+02 -0.95530689539E+02  0.13304222934E+03  0.84294551983E+02 0.  0.
          5    1    3    3  502    0 -0.19944381137E+02  0.19628752078E+02  0.44369356522E+02  0.52622984002E+02  0.41800000000E+01 0. -1.
         -5    1    3    3    0  502  0.55346940189E+02 -0.49587328683E+01 -0.55549020441E+02  0.78683155071E+02  0.41800000000E+01 0. -1.
        -11    1    4    4    0    0 -0.51116625283E+02 -0.31458717401E+02 -0.91896672265E+02  0.10976137141E+03  0.00000000000E+00 0. -1.
         11    1    4    4    0    0  0.15714066232E+02  0.16788698192E+02 -0.36340172746E+01  0.23280857932E+02  0.00000000000E+00 0.  1.
</event>
<event>
 8    1  0.6860461E-009  0.1571632E+03  0.7561462E-02  0.1191937E+00
          2   -1    0    0  501    0  0.00000000000E+00  0.00000000000E+00  0.55284208589E+03  0.55284208589E+03  0.00000000000E+00 0. -1.
         -2   -1    0    0    0  501 -0.00000000000E+00 -0.00000000000E+00 -0.51926448611E+02  0.51926448611E+02  0.00000000000E+00 0.  1.
         25    2    1    2    0    0 -0.12313919292E+03  0.26751754975E+02  0.21088664744E+03  0.27567837975E+03  0.12508586556E+03 0.  0.
         23    2    1    2    0    0  0.12313919292E+03 -0.26751754975E+02  0.29002898984E+03  0.32909015476E+03  0.91129565902E+02 0.  0.
          5    1    3    3  502    0 -0.76883612399E+02  0.77059464605E+02  0.13498933812E+03  0.17346136384E+03  0.41800000000E+01 0.  1.
         -5    1    3    3    0  502 -0.46255580525E+02 -0.50307709631E+02  0.75897309322E+02  0.10221701590E+03  0.41800000000E+01 0.  1.
        -11    1    4    4    0    0  0.66468394563E+02 -0.41506500838E+02  0.23864771066E+03  0.25118432852E+03  0.00000000000E+00 0. -1.
         11    1    4    4    0    0  0.56670798360E+02  0.14754745864E+02  0.51381279181E+02  0.77905826243E+02  0.00000000000E+00 0.  1.
</event>
<event>
 8    1  0.6860461E-009  0.1476718E+03  0.7561462E-02  0.1203363E+00
          3   -1    0    0  501    0  0.00000000000E+00  0.00000000000E+00  0.35938182206E+03  0.35938182206E+03  0.00000000000E+00 0. -1.
         -3   -1    0    0    0  501 -0.00000000000E+00 -0.00000000000E+00 -0.10843203826E+03  0.10843203826E+03  0.00000000000E+00 0.  1.
         25    2    1    2    0    0 -0.11687996444E+02 -0.13437497747E+03  0.24010156506E+03  0.30247168842E+03  0.12508843640E+03 0.  0.
         23    2    1    2    0    0  0.11687996444E+02  0.13437497747E+03  0.10848218738E+02  0.16534217189E+03  0.95011084222E+02 0.  0.
          5    1    3    3  502    0  0.16911575060E+02 -0.35453268249E+02  0.17760477670E+03  0.18194467485E+03  0.41800000000E+01 0.  1.
         -5    1    3    3    0  502 -0.28599571504E+02 -0.98921709221E+02  0.62496788367E+02  0.12052701358E+03  0.41800000000E+01 0.  1.
        -11    1    4    4    0    0 -0.25660156904E+02  0.20204736258E+02 -0.23695293491E+02  0.40350241055E+02  0.00000000000E+00 0.  1.
         11    1    4    4    0    0  0.37348153348E+02  0.11417024121E+03  0.34543512229E+02  0.12499193084E+03  0.00000000000E+00 0. -1.
</event>
<event>
 8    1  0.6860461E-009  0.1480402E+03  0.7561462E-02  0.1202902E+00
          1   -1    0    0  501    0  0.00000000000E+00  0.00000000000E+00  0.12887219407E+03  0.12887219407E+03  0.00000000000E+00 0. -1.
         -1   -1    0    0    0  501 -0.00000000000E+00 -0.00000000000E+00 -0.28072203036E+03  0.28072203036E+03  0.00000000000E+00 0.  1.
         25    2    1    2    0    0 -0.11415895568E+03  0.61474069732E+02  0.13925612840E+02  0.18070371999E+03  0.12509429769E+03 0.  0.
         23    2    1    2    0    0  0.11415895568E+03 -0.61474069732E+02 -0.16577544914E+03  0.22889050444E+03  0.89989083085E+02 0.  0.
          5    1    3    3  502    0 -0.10642684883E+03  0.37721199144E+02 -0.41016029037E+02  0.12020544936E+03  0.41800000000E+01 0.  1.
         -5    1    3    3    0  502 -0.77321068460E+01  0.23752870588E+02  0.54941641877E+02  0.60498270633E+02  0.41800000000E+01 0.  1.
        -11    1    4    4    0    0  0.78249839064E+02  0.89015201939E+01 -0.79471572488E+02  0.11188389164E+03  0.00000000000E+00 0. -1.
         11    1    4    4    0    0  0.35909116617E+02 -0.70375589926E+02 -0.86303876648E+02  0.11700661280E+03  0.00000000000E+00 0.  1.
</event>
<event>
 8    1  0.6860461E-009  0.2344795E+03  0.7561462E-02  0.1123526E+00
         -1   -1    0    0    0  501 -0.00000000000E+00  0.00000000000E+00  0.66568506160E+02  0.66568506160E+02  0.00000000000E+00 0.  1.
          1   -1    0    0  501    0  0.00000000000E+00 -0.00000000000E+00 -0.10174600552E+04  0.10174600552E+04  0.00000000000E+00 0. -1.
         25    2    1    2    0    0 -0.19250258944E+03 -0.96661478003E+02 -0.28656319789E+03  0.37969671544E+03  0.12510172285E+03 0.  0.
         23    2    1    2    0    0  0.19250258944E+03  0.96661478003E+02 -0.66432835118E+03  0.70433184595E+03  0.91381085395E+02 0.  0.
          5    1    3    3  502    0 -0.14758406281E+03 -0.12129038948E+02 -0.13523372519E+03  0.20058365339E+03  0.41800000000E+01 0. -1.
         -5    1    3    3    0  502 -0.44918526633E+02 -0.84532439055E+02 -0.15132947270E+03  0.17911306205E+03  0.41800000000E+01 0. -1.
        -11    1    4    4    0    0  0.85060562109E+02  0.75152405387E+01 -0.16411634967E+03  0.18500257916E+03  0.00000000000E+00 0.  1.
         11    1    4    4    0    0  0.10744202733E+03  0.89146237465E+02 -0.50021200151E+03  0.51932926679E+03  0.00000000000E+00 0. -1.
</event>
<event>
 8    1  0.6860461E-009  0.1477841E+03  0.7561462E-02  0.1203223E+00
          2   -1    0    0  501    0  0.00000000000E+00  0.00000000000E+00  0.62000584814E+03  0.62000584814E+03  0.00000000000E+00 0. -1.
         -2   -1    0    0    0  501 -0.00000000000E+00 -0.00000000000E+00 -0.54818637520E+02  0.54818637520E+02  0.00000000000E+00 0.  1.
         25    2    1    2    0    0  0.45671204582E+02  0.11880280199E+03  0.43810371149E+03  0.47305709629E+03  0.12509272417E+03 0.  0.
         23    2    1    2    0    0 -0.45671204582E+02 -0.11880280199E+03  0.12708349914E+03  0.20176738937E+03  0.91432483142E+02 0.  0.
          5    1    3    3  502    0 -0.18242780440E+02  0.52625254357E+02  0.52663726415E+02  0.76766899861E+02  0.41800000000E+01 0. -1.
         -5    1    3    3    0  502  0.63913985022E+02  0.66177547633E+02  0.38543998507E+03  0.39629019643E+03  0.41800000000E+01 0. -1.
        -11    1    4    4    0    0  0.27587148296E+01  0.98084693691E+01 -0.48288935016E+01  0.11275406482E+02  0.00000000000E+00 0.  1.
         11    1    4    4    0    0 -0.48429919412E+02 -0.12861127136E+03  0.13191239264E+03  0.19049198289E+03  0.00000000000E+00 0. -1.
</event>
<event>
 8    1  0.6860461E-009  0.1221439E+03  0.7561462E-02  0.1239602E+00
         -2   -1    0    0    0  501 -0.00000000000E+00  0.00000000000E+00  0.88427932733E+02  0.88427932733E+02  0.00000000000E+00 0.  1.
          2   -1    0    0  501    0  0.00000000000E+00 -0.00000000000E+00 -0.17357979126E+03  0.17357979126E+03  0.00000000000E+00 0. -1.
         25    2    1    2    0    0 -0.49411005545E+02  0.34660635702E+02 -0.46895228407E+02  0.14659284559E+03  0.12508993882E+03 0.  0.
         23    2    1    2    0    0  0.49411005545E+02 -0.34660635702E+02 -0.38256630119E+02  0.11541487840E+03  0.90632319140E+02 0.  0.
          5    1    3    3  502    0 -0.85710338514E+02  0.46019162801E+02 -0.18922639551E+02  0.99194577274E+02  0.41800000000E+01 0.  1.
         -5    1    3    3    0  502  0.36299332969E+02 -0.11358527099E+02 -0.27972588856E+02  0.47398268314E+02  0.41800000000E+01 0.  1.
        -11    1    4    4    0    0  0.66628134393E+02  0.35684400550E+01 -0.19752788581E+02  0.69586023840E+02  0.00000000000E+00 0. -1.
         11    1    4    4    0    0 -0.17217128848E+02 -0.38229075757E+02 -0.18503841538E+02  0.45828854564E+02  0.00000000000E+00 0.  1.
</event>
<event>
 8    1  0.6860461E-009  0.1888940E+03  0.7561462E-02  0.1159463E+00
          1   -1    0    0  501    0  0.00000000000E+00  0.00000000000E+00  0.20663095788E+03  0.20663095788E+03  0.00000000000E+00 0. -1.
         -1   -1    0    0    0  501 -0.00000000000E+00 -0.00000000000E+00 -0.19550466198E+03  0.19550466198E+03  0.00000000000E+00 0.  1.
         25    2    1    2    0    0 -0.16440584867E+03 -0.35743040876E+02  0.20622142581E+02  0.21066474547E+03  0.12509002427E+03 0.  0.
         23    2    1    2    0    0  0.16440584867E+03  0.35743040876E+02 -0.94958466832E+01  0.19147087439E+03  0.90906966663E+02 0.  0.
          5    1    3    3  502    0 -0.14133669548E+03  0.24865280600E+02  0.41654913586E+01  0.14362857441E+03  0.41800000000E+01 0.  1.
         -5    1    3    3    0  502 -0.23069153185E+02 -0.60608321476E+02  0.16456651222E+02  0.67036171060E+02  0.41800000000E+01 0.  1.
        -11    1    4    4    0    0  0.11224098506E+03  0.33027702777E+02 -0.48117931038E+02  0.12650771978E+03  0.00000000000E+00 0.  1.
         11    1    4    4    0    0  0.52164863608E+02  0.27153380993E+01  0.38622084354E+02  0.64963154604E+02  0.00000000000E+00 0. -1.
</event>
<event>
 8    1  0.6860461E-009  0.1537715E+03  0.7561462E-02  0.1195914E+00
         -2   -1    0    0    0  501 -0.00000000000E+00  0.00000000000E+00  0.85476412665E+02  0.85476412665E+02  0.00000000000E+00 0.  1.
          2   -1    0    0  501    0  0.00000000000E+00 -0.00000000000E+00 -0.55573049081E+03  0.55573049081E+03  0.00000000000E+00 0. -1.
         25    2    1    2    0    0 -0.13940984761E+03  0.70204710369E+01 -0.42902407158E+03  0.46818103130E+03  0.12508969361E+03 0.  0.
         23    2    1    2    0    0  0.13940984761E+03 -0.70204710369E+01 -0.41230006569E+02  0.17302587218E+03  0.93560923343E+02 0.  0.
          5    1    3    3  502    0  0.75903498122E+01  0.70186878276E+01 -0.16966171416E+03  0.17002777726E+03  0.41800000000E+01 0.  1.
         -5    1    3    3    0  502 -0.14700019743E+03  0.17832093436E-02 -0.25936235742E+03  0.29815325404E+03  0.41800000000E+01 0.  1.
        -11    1    4    4    0    0  0.10955909312E+03  0.17187760306E+02 -0.64308506647E+02  0.12819593604E+03  0.00000000000E+00 0. -1.
         11    1    4    4    0    0  0.29850754490E+02 -0.24208231343E+02  0.23078500078E+02  0.44829936139E+02  0.00000000000E+00 0.  1.
</event>
<event>
 8    1  0.6860461E-009  0.8656366E+02  0.7561462E-02  0.1311393E+00
          1   -1    0    0  501    0  0.00000000000E+00  0.00000000000E+00  0.20797393627E+03  0.20797393627E+03  0.00000000000E+00 0. -1.
         -1   -1    0    0    0  501 -0.00000000000E+00 -0.00000000000E+00 -0.98113223993E+02  0.98113223993E+02  0.00000000000E+00 0.  1.
         25    2    1    2    0    0 -0.26641813978E+02  0.67630927227E+01 -0.34432579427E+02  0.13262338330E+03  0.12509130104E+03 0.  0.
         23    2    1    2    0    0  0.26641813978E+02 -0.67630927227E+01  0.14429329170E+03  0.17346377696E+03  0.92269183440E+02 0.  0.
          5    1    3    3  502    0 -0.34499736674E+02 -0.49396158486E+02  0.90131943563E+01  0.61064902983E+02  0.41800000000E+01 0.  1.
         -5    1    3    3    0  502  0.78579226964E+01  0.56159251209E+02 -0.43445773783E+02  0.71558480315E+02  0.41800000000E+01 0.  1.
        -11    1    4    4    0    0  0.28041158114E+02  0.16520235865E+02  0.58475781561E+01  0.33066885425E+02  0.00000000000E+00 0.  1.
         11    1    4    4    0    0 -0.13993441363E+01 -0.23283328588E+02  0.13844571355E+03  0.14039689154E+03  0.00000000000E+00 0. -1.
</event>
<event>
 8    1  0.6860461E-009  0.1143437E+03  0.7561462E-02  0.1252731E+00
         -1   -1    0    0    0  501 -0.00000000000E+00  0.00000000000E+00  0.26191893489E+03  0.26191893489E+03  0.00000000000E+00 0.  1.
          1   -1    0    0  501    0  0.00000000000E+00 -0.00000000000E+00 -0.59270671621E+02  0.59270671621E+02  0.00000000000E+00 0. -1.
         25    2    1    2    0    0  0.28991091032E+02 -0.51873334599E+02  0.13398577065E+03  0.19269384410E+03  0.12508958636E+03 0.  0.
         23    2    1    2    0    0 -0.28991091032E+02  0.51873334599E+02  0.68662492614E+02  0.12849576241E+03  0.90913678087E+02 0.  0.
          5    1    3    3  502    0  0.36792455636E+02 -0.83564485024E+02  0.13089023725E+03  0.15964471352E+03  0.41800000000E+01 0.  1.
         -5    1    3    3    0  502 -0.78013646036E+01  0.31691150425E+02  0.30955334074E+01  0.33049130579E+02  0.41800000000E+01 0.  1.
        -11    1    4    4    0    0 -0.38729195851E+02  0.72150538172E+02  0.37508477366E+02  0.90069621094E+02  0.00000000000E+00 0. -1.
         11    1    4    4    0    0  0.97381048187E+01 -0.20277203573E+02  0.31154015248E+02  0.38426141314E+02  0.00000000000E+00 0.  1.
</event>
<event>
 8    1  0.6860461E-009  0.1888124E+03  0.7561462E-02  0.1159537E+00
         -2   -1    0    0    0  501 -0.00000000000E+00  0.00000000000E+00  0.78273456731E+03  0.78273456731E+03  0.00000000000E+00 0.  1.
          2   -1    0    0  501    0  0.00000000000E+00 -0.00000000000E+00 -0.53958431285E+02  0.53958431285E+02  0.00000000000E+00 0. -1.
         25    2    1    2    0    0 -0.31793062684E+02  0.17109603056E+03  0.36192885659E+03  0.42062430979E+03  0.12509061613E+03 0.  0.
         23    2    1    2    0    0  0.31793062684E+02 -0.17109603056E+03  0.36684727943E+03  0.41606868880E+03  0.90838190591E+02 0.  0.
          5    1    3    3  502    0 -0.68757550218E+02  0.10236517507E+03  0.14694760713E+03  0.19187835058E+03  0.41800000000E+01 0.  1.
         -5    1    3    3    0  502  0.36964487535E+02  0.68730855490E+02  0.21498124946E+03  0.22874595921E+03  0.41800000000E+01 0.  1.
        -11    1    4    4    0    0  0.18781158943E+02 -0.38307678923E+02  0.25817343298E+02  0.49867277955E+02  0.00000000000E+00 0. -1.
         11    1    4    4    0    0  0.13011903740E+02 -0.13278835164E+03  0.34102993613E+03  0.36620141085E+03  0.00000000000E+00 0.  1.
</event>
<event>
 8    1  0.6860461E-009  0.1308714E+03  0.7561462E-02  0.1226168E+00
         -2   -1    0    0    0  501 -0.00000000000E+00  0.00000000000E+00  0.28889501638E+02  0.28889501638E+02  0.00000000000E+00 0.  1.
          2   -1    0    0  501    0  0.00000000000E+00 -0.00000000000E+00 -0.88849819394E+03  0.88849819394E+03  0.00000000000E+00 0. -1.
         25    2    1    2    0    0  0.23196414624E+02  0.11128336739E+03 -0.54087464041E+03  0.56667021309E+03  0.12509073609E+03 0.  0.
         23    2    1    2    0    0 -0.23196414624E+02 -0.11128336739E+03 -0.31873405189E+03  0.35071748249E+03  0.92137371242E+02 0.  0.
          5    1    3    3  502    0  0.13428048034E+02  0.10222516996E+02 -0.34999669033E+03  0.35042826366E+03  0.41800000000E+01 0. -1.
         -5    1    3    3    0  502  0.97683665892E+01  0.10106085039E+03 -0.19087795008E+03  0.21624194943E+03  0.41800000000E+01 0. -1.
        -11    1    4    4    0    0 -0.33853596100E+02 -0.30598851417E+01 -0.11312208251E+03  0.11811873017E+03  0.00000000000E+00 0. -1.
         11    1    4    4    0    0  0.10657181477E+02 -0.10822348225E+03 -0.20561196938E+03  0.23259875232E+03  0.00000000000E+00 0.  1.
</event>
<event>
 8    1  0.6860461E-009  0.6844919E+02  0.7561462E-02  0.1365447E+00
         -1   -1    0    0    0  501 -0.00000000000E+00  0.00000000000E+00  0.12421483735E+03  0.12421483735E+03  0.00000000000E+00 0.  1.
          1   -1    0    0  501    0  0.00000000000E+00 -0.00000000000E+00 -0.11109868756E+03  0.11109868756E+03  0.00000000000E+00 0. -1.
         25    2    1    2    0    0  0.20795368966E+02 -0.26782272083E+02 -0.22669448411E+02  0.13157816878E+03  0.12509665519E+03 0.  0.
         23    2    1    2    0    0 -0.20795368966E+02  0.26782272083E+02  0.35785598203E+02  0.10373535613E+03  0.91272545727E+02 0.  0.
          5    1    3    3  502    0  0.25274318562E+02 -0.63638371858E+01 -0.72620162947E+02  0.77268687507E+02  0.41800000000E+01 0. -1.
         -5    1    3    3    0  502 -0.44789495959E+01 -0.20418434897E+02  0.49950714537E+02  0.54309481270E+02  0.41800000000E+01 0. -1.
        -11    1    4    4    0    0 -0.44017304797E+02  0.42465623083E+02  0.43041638034E+02  0.74789269753E+02  0.00000000000E+00 0.  1.
         11    1    4    4    0    0  0.23221935831E+02 -0.15683351000E+02 -0.72560398315E+01  0.28946086374E+02  0.00000000000E+00 0. -1.
</event>
<event>
 8    1  0.6860461E-009  0.1159387E+03  0.7561462E-02  0.1249951E+00
          2   -1    0    0  501    0  0.00000000000E+00  0.00000000000E+00  0.96325951068E+02  0.96325951068E+02  0.00000000000E+00 0. -1.
         -2   -1    0    0    0  501 -0.00000000000E+00 -0.00000000000E+00 -0.21650137976E+03  0.21650137976E+03  0.00000000000E+00 0.  1.
         25    2    1    2    0    0 -0.88194160194E+02  0.26709703128E+02 -0.32692127471E+02  0.15877577952E+03  0.12509738138E+03 0.  0.
         23    2    1    2    0    0  0.88194160194E+02 -0.26709703128E+02 -0.87483301217E+02  0.15405155131E+03  0.87103009908E+02 0.  0.
          5    1    3    3  502    0 -0.97940848570E+02  0.52247340676E+02  0.59679912709E+01  0.11124425264E+03  0.41800000000E+01 0.  1.
         -5    1    3    3    0  502  0.97466883753E+01 -0.25537637548E+02 -0.38660118742E+02  0.47531526874E+02  0.41800000000E+01 0.  1.
        -11    1    4    4    0    0  0.13398161302E+02 -0.94046310492E+01  0.17519313373E+02  0.23976741908E+02  0.00000000000E+00 0. -1.
         11    1    4    4    0    0  0.74795998892E+02 -0.17305072079E+02 -0.10500261459E+03  0.13007480940E+03  0.00000000000E+00 0.  1.
</event>
<event>
 8    1  0.6860461E-009  0.8541841E+02  0.7561462E-02  0.1314342E+00
         -1   -1    0    0    0  501 -0.00000000000E+00  0.00000000000E+00  0.10427863096E+03  0.10427863096E+03  0.00000000000E+00 0.  1.
          1   -1    0    0  501    0  0.00000000000E+00 -0.00000000000E+00 -0.19864831298E+03  0.19864831298E+03  0.00000000000E+00 0. -1.
         25    2    1    2    0    0  0.31821249740E+02  0.14792016551E+00  0.44494246449E+02  0.13652258105E+03  0.12508422504E+03 0.  0.
         23    2    1    2    0    0 -0.31821249740E+02 -0.14792016551E+00 -0.13886392847E+03  0.16640436288E+03  0.85991903924E+02 0.  0.
          5    1    3    3  502    0  0.34247617591E+02 -0.53782819087E+02 -0.37401951592E+01  0.64007440188E+02  0.41800000000E+01 0. -1.
         -5    1    3    3    0  502 -0.24263678504E+01  0.53930739253E+02  0.48234441608E+02  0.72515140864E+02  0.41800000000E+01 0. -1.
        -11    1    4    4    0    0 -0.51211438614E+01 -0.19277566649E+02  0.35431923459E+01  0.20258452615E+02  0.00000000000E+00 0.  1.
         11    1    4    4    0    0 -0.26700105879E+02  0.19129646484E+02 -0.14240712082E+03  0.14614591027E+03  0.00000000000E+00 0. -1.
</event>
<event>
 8    1  0.6860461E-009  0.1380457E+03  0.7561462E-02  0.1215983E+00
          1   -1    0    0  501    0  0.00000000000E+00  0.00000000000E+00  0.14173051188E+03  0.14173051188E+03  0.00000000000E+00 0. -1.
         -1   -1    0    0    0  501 -0.00000000000E+00 -0.00000000000E+00 -0.28238738012E+03  0.28238738012E+03  0.00000000000E+00 0.  1.
         25    2    1    2    0    0  0.12350619729E+03 -0.12435362988E+02  0.45638039764E+02  0.18204033583E+03  0.12508970451E+03 0.  0.
         23    2    1    2    0    0 -0.12350619729E+03  0.12435362988E+02 -0.18629490799E+03  0.24207755617E+03  0.92126714003E+02 0.  0.
          5    1    3    3  502    0  0.69796564533E+02 -0.50242611540E+02 -0.20741599035E+02  0.88563913450E+02  0.41800000000E+01 0.  1.
         -5    1    3    3    0  502  0.53709632760E+02  0.37807248552E+02  0.66379638799E+02  0.93476422382E+02  0.41800000000E+01 0.  1.
        -11    1    4    4    0    0 -0.87413180160E+02  0.72696052514E+01 -0.18596700569E+03  0.20561526800E+03  0.00000000000E+00 0.  1.
         11    1    4    4    0    0 -0.36093017133E+02  0.51657577364E+01 -0.32790229981E+00  0.36462288171E+02  0.00000000000E+00 0. -1.
</event>
<event>
 8    1  0.6860461E-009  0.1124646E+03  0.7561462E-02  0.1256073E+00
          2   -1    0    0  501    0  0.00000000000E+00  0.00000000000E+00  0.13455726409E+03  0.13455726409E+03  0.00000000000E+00 0. -1.
         -2   -1    0    0    0  501 -0.00000000000E+00 -0.00000000000E+00 -0.12905879824E+03  0.12905879824E+03  0.00000000000E+00 0.  1.
         25    2    1    2    0    0 -0.29834513394E+02  0.59736086334E+02  0.40104016688E+02  0.14735452180E+03  0.12508606934E+03 0.  0.
         23    2    1    2    0    0  0.29834513394E+02 -0.59736086334E+02 -0.34605550837E+02  0.11626154052E+03  0.88660608248E+02 0.  0.
          5    1    3    3  502    0 -0.75811061488E+02  0.37847963359E+02  0.42610465003E+01  0.84943594765E+02  0.41800000000E+01 0. -1.
         -5    1    3    3    0  502  0.45976548094E+02  0.21888122975E+02  0.35842970187E+02  0.62410927039E+02  0.41800000000E+01 0. -1.
        -11    1    4    4    0    0  0.51189384017E+01 -0.63755068788E+02  0.10360107049E+02  0.64793858849E+02  0.00000000000E+00 0. -1.
         11    1    4    4    0    0  0.24715574993E+02  0.40189824541E+01 -0.44965657886E+02  0.51467681668E+02  0.00000000000E+00 0.  1.
</event>
<event>
 8    1  0.6860461E-009  0.1476665E+03  0.7561462E-02  0.1203370E+00
         -1   -1    0    0    0  501 -0.00000000000E+00  0.00000000000E+00  0.58248881481E+03  0.58248881481E+03  0.00000000000E+00 0.  1.
          1   -1    0    0  501    0  0.00000000000E+00 -0.00000000000E+00 -0.39841008691E+02  0.39841008691E+02  0.00000000000E+00 0. -1.
         25    2    1    2    0    0  0.40783257674E+02 -0.92066893397E+02  0.22274056529E+03  0.27459075179E+03  0.12508850698E+03 0.  0.
         23    2    1    2    0    0 -0.40783257674E+02  0.92066893397E+02  0.31990724083E+03  0.34773907171E+03  0.91881621080E+02 0.  0.
          5    1    3    3  502    0  0.69371839204E+02 -0.10720626716E+03  0.17172957290E+03  0.21404241262E+03  0.41800000000E+01 0.  1.
         -5    1    3    3    0  502 -0.28588581529E+02  0.15139373760E+02  0.51010992384E+02  0.60548339165E+02  0.41800000000E+01 0.  1.
        -11    1    4    4    0    0  0.26327714348E+02  0.47756734629E+02  0.10580468527E+03  0.11903144824E+03  0.00000000000E+00 0.  1.
         11    1    4    4    0    0 -0.67110972022E+02  0.44310158768E+02  0.21410255556E+03  0.22870762347E+03  0.00000000000E+00 0. -1.
</event>
<event>
 8    1  0.6860461E-009  0.1263589E+03  0.7561462E-02  0.1232961E+00
          2   -1    0    0  501    0  0.00000000000E+00  0.00000000000E+00  0.65148260945E+03  0.65148260945E+03  0.00000000000E+00 0. -1.
         -2   -1    0    0    0  501 -0.00000000000E+00 -0.00000000000E+00 -0.24930806447E+02  0.24930806447E+02  0.00000000000E+00 0.  1.
         25    2    1    2    0    0 -0.62486994163E+02 -0.25556408079E+02  0.33841749671E+03  0.36706015711E+03  0.12509597286E+03 0.  0.
         23    2    1    2    0    0  0.62486994163E+02  0.25556408079E+02  0.28813430629E+03  0.30935325878E+03  0.90112739525E+02 0.  0.
          5    1    3    3  502    0 -0.83155534004E+02 -0.58621641246E+02  0.22264190356E+03  0.24482285285E+03  0.41800000000E+01 0.  1.
         -5    1    3    3    0  502  0.20668539841E+02  0.33065233166E+02  0.11577559315E+03  0.12223730426E+03  0.41800000000E+01 0.  1.
        -11    1    4    4    0    0  0.14113897344E+02  0.53825994838E+02  0.16334993101E+03  0.17256778315E+03  0.00000000000E+00 0.  1.
         11    1    4    4    0    0  0.48373096819E+02 -0.28269586759E+02  0.12478437527E+03  0.13678547563E+03  0.00000000000E+00 0. -1.
</event>
<event>
 8    1  0.6860461E-009  0.6932248E+02  0.7561462E-02  0.1362412E+00
          2   -1    0    0  501    0  0.00000000000E+00  0.00000000000E+00  0.77392075190E+02  0.77392075190E+02  0.00000000000E+00 0. -1.
         -2   -1    0    0    0  501 -0.00000000000E+00 -0.00000000000E+00 -0.22894901675E+03  0.22894901675E+03  0.00000000000E+00 0.  1.
         25    2    1    2    0    0  0.23664676995E+02  0.19404921660E+02 -0.16333267486E+01  0.12878772981E+03  0.12508814361E+03 0.  0.
         23    2    1    2    0    0 -0.23664676995E+02 -0.19404921660E+02 -0.14992361481E+03  0.17755336212E+03  0.90064078311E+02 0.  0.
          5    1    3    3  502    0 -0.45662931605E+01  0.24647984821E+02 -0.59143374049E+02  0.64372240002E+02  0.41800000000E+01 0.  1.
         -5    1    3    3    0  502  0.28230970155E+02 -0.52430631618E+01  0.57510047300E+02  0.64415489812E+02  0.41800000000E+01 0.  1.
        -11    1    4    4    0    0 -0.47004681288E+00 -0.47658182677E+02 -0.41716895202E+02  0.63338950618E+02  0.00000000000E+00 0.  1.
         11    1    4    4    0    0 -0.23194630182E+02  0.28253261018E+02 -0.10820671961E+03  0.11421441150E+03  0.00000000000E+00 0. -1.
</event>
<event>
 8    1  0.6860461E-009  0.9867494E+02  0.7561462E-02  0.1283107E+00
         -1   -1    0    0    0  501 -0.00000000000E+00  0.00000000000E+00  0.25680906791E+03  0.25680906791E+03  0.00000000000E+00 0.  1.
          1   -1    0    0  501    0  0.00000000000E+00 -0.00000000000E+00 -0.61801372627E+02  0.61801372627E+02  0.00000000000E+00 0. -1.
         25    2    1    2    0    0  0.31271689820E+01 -0.62015209628E+02  0.97330044683E+02  0.17021086701E+03  0.12507172437E+03 0.  0.
         23    2    1    2    0    0 -0.31271689820E+01  0.62015209628E+02  0.97677650604E+02  0.14839957353E+03  0.92875425095E+02 0.  0.
          5    1    3    3  502    0  0.51476594701E+02 -0.59881924860E+02  0.92043689523E+02  0.12134742646E+03  0.41800000000E+01 0.  1.
         -5    1    3    3    0  502 -0.48349425719E+02 -0.21332847683E+01  0.52863551593E+01  0.48863440548E+02  0.41800000000E+01 0.  1.
        -11    1    4    4    0    0  0.13716939329E+02  0.37690146361E+02 -0.60249892699E+01  0.40558624890E+02  0.00000000000E+00 0. -1.
         11    1    4    4    0    0 -0.16844108311E+02  0.24325063267E+02  0.10370263987E+03  0.10784094864E+03  0.00000000000E+00 0.  1.
</event>
<event>
 8    1  0.6860461E-009  0.1044767E+03  0.7561462E-02  0.1271154E+00
         -1   -1    0    0    0  501 -0.00000000000E+00  0.00000000000E+00  0.28721709021E+02  0.28721709021E+02  0.00000000000E+00 0.  1.
          1   -1    0    0  501    0  0.00000000000E+00 -0.00000000000E+00 -0.52465923704E+03  0.52465923704E+03  0.00000000000E+00 0. -1.
         25    2    1    2    0    0 -0.51231904342E+02  0.19137776887E+02 -0.22829016524E+03  0.26599629504E+03  0.12508663759E+03 0.  0.
         23    2    1    2    0    0  0.51231904342E+02 -0.19137776887E+02 -0.26764736278E+03  0.28738465102E+03  0.89240485833E+02 0.  0.
          5    1    3    3  502    0 -0.92013228895E+02  0.99153429307E+01 -0.17621190113E+03  0.19908002114E+03  0.41800000000E+01 0. -1.
         -5    1    3    3    0  502  0.40781324553E+02  0.92224339559E+01 -0.52078264107E+02  0.66916273900E+02  0.41800000000E+01 0. -1.
        -11    1    4    4    0    0  0.21482660618E+02  0.17064980657E+02 -0.16740263313E+02  0.32139612441E+02  0.00000000000E+00 0.  1.
         11    1    4    4    0    0  0.29749243724E+02 -0.36202757544E+02 -0.25090709947E+03  0.25524503858E+03  0.00000000000E+00 0. -1.
</event>
<event>
 8    1  0.6860461E-009  0.9320921E+02  0.7561462E-02  0.1295261E+00
         -1   -1    0    0    0  501 -0.00000000000E+00  0.00000000000E+00  0.61866484136E+03  0.61866484136E+03  0.00000000000E+00 0.  1.
          1   -1    0    0  501    0  0.00000000000E+00 -0.00000000000E+00 -0.19851530547E+02  0.19851530547E+02  0.00000000000E+00 0. -1.
         25    2    1    2    0    0  0.90108581868E-01  0.10790814290E+02  0.29688207814E+03  0.32234040699E+03  0.12509164586E+03 0.  0.
         23    2    1    2    0    0 -0.90108581868E-01 -0.10790814290E+02  0.30193123268E+03  0.31617596492E+03  0.93211167438E+02 0.  0.
          5    1    3    3  502    0 -0.47930842894E+02 -0.19434149757E+02  0.62903005692E+02  0.81543316111E+02  0.41800000000E+01 0. -1.
         -5    1    3    3    0  502  0.48020951476E+02  0.30224964047E+02  0.23397907245E+03  0.24079709088E+03  0.41800000000E+01 0. -1.
        -11    1    4    4    0    0  0.36141402215E+02 -0.18485296757E+02  0.24442818780E+03  0.24777620172E+03  0.00000000000E+00 0.  1.
         11    1    4    4    0    0 -0.36231510797E+02  0.76944824668E+01  0.57503044878E+02  0.68399763197E+02  0.00000000000E+00 0. -1.
</event>
<event>
 8    1  0.6860461E-009  0.9669658E+02  0.7561462E-02  0.1287400E+00
         -1   -1    0    0    0  501 -0.00000000000E+00  0.00000000000E+00  0.10174648531E+03  0.10174648531E+03  0.00000000000E+00 0.  1.
          1   -1    0    0  501    0  0.00000000000E+00 -0.00000000000E+00 -0.15841008379E+03  0.15841008379E+03  0.00000000000E+00 0. -1.
         25    2    1    2    0    0 -0.43548609540E+01 -0.54731850406E+02 -0.66951092280E+02  0.15213160927E+03  0.12508811902E+03 0.  0.
         23    2    1    2    0    0  0.43548609540E+01  0.54731850406E+02  0.10287493799E+02  0.10802495983E+03  0.92460906087E+02 0.  0.
          5    1    3    3  502    0 -0.51971955442E+02 -0.24004008325E+02 -0.75314777584E+02  0.94694586385E+02  0.41800000000E+01 0. -1.
         -5    1    3    3    0  502  0.47617094488E+02 -0.30727842080E+02  0.83636853039E+01  0.57437022888E+02  0.41800000000E+01 0. -1.
        -11    1    4    4    0    0  0.27338292206E+02  0.10431378810E+02  0.40289225202E+02  0.49793750130E+02  0.00000000000E+00 0.  1.
         11    1    4    4    0    0 -0.22983431252E+02  0.44300471595E+02 -0.30001731403E+02  0.58231209697E+02  0.00000000000E+00 0. -1.
</event>
<event>
 8    1  0.6860461E-009  0.2304064E+03  0.7561462E-02  0.1126354E+00
         -1   -1    0    0    0  501 -0.00000000000E+00  0.00000000000E+00  0.27710922660E+03  0.27710922660E+03  0.00000000000E+00 0.  1.
          1   -1    0    0  501    0  0.00000000000E+00 -0.00000000000E+00 -0.32006222723E+03  0.32006222723E+03  0.00000000000E+00 0. -1.
         25    2    1    2    0    0  0.21301577101E+03 -0.14240327050E+01  0.15852239450E+03  0.29352105875E+03  0.12509003080E+03 0.  0.
         23    2    1    2    0    0 -0.21301577101E+03  0.14240327050E+01 -0.20147539513E+03  0.30365039508E+03  0.78952397190E+02 0.  0.
          5    1    3    3  502    0  0.19973673955E+03  0.33954815957E+02  0.15540529244E+03  0.25537418032E+03  0.41800000000E+01 0. -1.
         -5    1    3    3    0  502  0.13279031457E+02 -0.35378848662E+02  0.31171020577E+01  0.38146878435E+02  0.41800000000E+01 0. -1.
        -11    1    4    4    0    0 -0.95004000396E+02  0.28270764734E+02 -0.12863489806E+03  0.16239437561E+03  0.00000000000E+00 0.  1.
         11    1    4    4    0    0 -0.11801177061E+03 -0.26846732029E+02 -0.72840497064E+02  0.14125601947E+03  0.00000000000E+00 0. -1.
</event>
<event>
 8    1  0.6860461E-009  0.7935072E+02  0.7561462E-02  0.1330904E+00
          1   -1    0    0  501    0  0.00000000000E+00  0.00000000000E+00  0.33395012739E+03  0.33395012739E+03  0.00000000000E+00 0. -1.
         -1   -1    0    0    0  501 -0.00000000000E+00 -0.00000000000E+00 -0.54690031965E+02  0.54690031965E+02  0.00000000000E+00 0.  1.
         25    2    1    2    0    0  0.41260203439E+02 -0.49417900467E+02  0.22270560007E+03  0.26341820792E+03  0.12508730825E+03 0.  0.
         23    2    1    2    0    0 -0.41260203439E+02  0.49417900467E+02  0.56554495359E+02  0.12522195144E+03  0.91310420563E+02 0.  0.
          5    1    3    3  502    0  0.25027431844E+02 -0.17781082112E+02 -0.63106832952E+01  0.31620188953E+02  0.41800000000E+01 0. -1.
         -5    1    3    3    0  502  0.16232771595E+02 -0.31636818354E+02  0.22901628336E+03  0.23179801896E+03  0.41800000000E+01 0. -1.
        -11    1    4    4    0    0 -0.47142846278E+02  0.62080745893E+02  0.70778360581E+02  0.10529028109E+03  0.00000000000E+00 0. -1.
         11    1    4    4    0    0  0.58826428398E+01 -0.12662845427E+02 -0.14223865222E+02  0.19931670350E+02  0.00000000000E+00 0.  1.
</event>
<event>
 8    1  0.6860461E-009  0.9021996E+02  0.7561462E-02  0.1302320E+00
          4   -1    0    0  501    0  0.00000000000E+00  0.00000000000E+00  0.79064590312E+02  0.79064590312E+02  0.00000000000E+00 0. -1.
         -4   -1    0    0    0  501 -0.00000000000E+00 -0.00000000000E+00 -0.21999550421E+03  0.21999550421E+03  0.00000000000E+00 0.  1.
         25    2    1    2    0    0  0.64102713002E+02  0.21569515541E+02 -0.33609466733E+02  0.14611912091E+03  0.12508716731E+03 0.  0.
         23    2    1    2    0    0 -0.64102713002E+02 -0.21569515541E+02 -0.10732144717E+03  0.15294097362E+03  0.85432116763E+02 0.  0.
          5    1    3    3  502    0  0.66282212021E+02 -0.18069525338E+02 -0.65509713383E+02  0.95020178508E+02  0.41800000000E+01 0.  1.
         -5    1    3    3    0  502 -0.21794990182E+01  0.39639040879E+02  0.31900246649E+02  0.51098942397E+02  0.41800000000E+01 0.  1.
        -11    1    4    4    0    0 -0.18127998929E+02 -0.18053837245E+02 -0.10356601173E+03  0.10667935212E+03  0.00000000000E+00 0.  1.
         11    1    4    4    0    0 -0.45974714073E+02 -0.35156782964E+01 -0.37554354394E+01  0.46261621495E+02  0.00000000000E+00 0. -1.
</event>
<event>
 8    1  0.6860461E-009  0.1693936E+03  0.7561462E-02  0.1178482E+00
          2   -1    0    0  501    0  0.00000000000E+00  0.00000000000E+00  0.42854204739E+03  0.42854204739E+03  0.00000000000E+00 0. -1.
         -2   -1    0    0    0  501 -0.00000000000E+00 -0.00000000000E+00 -0.88901317137E+02  0.88901317137E+02  0.00000000000E+00 0.  1.
         25    2    1    2    0    0 -0.14817261121E+03 -0.27107005721E+02  0.10005138515E+03  0.21988034878E+03  0.12508867111E+03 0.  0.
         23    2    1    2    0    0  0.14817261121E+03  0.27107005721E+02  0.23958934510E+03  0.29756301574E+03  0.91928132690E+02 0.  0.
          5    1    3    3  502    0 -0.14791412759E+03  0.12240887435E+02  0.51299903954E+02  0.15709099596E+03  0.41800000000E+01 0. -1.
         -5    1    3    3    0  502 -0.25848362299E+00 -0.39347893155E+02  0.48751481197E+02  0.62789352827E+02  0.41800000000E+01 0. -1.
        -11    1    4    4    0    0  0.98159223298E+02  0.20677559356E+02  0.74521431552E+02  0.12496494845E+03  0.00000000000E+00 0.  1.
         11    1    4    4    0    0  0.50013387912E+02  0.64294463644E+01  0.16506791355E+03  0.17259806730E+03  0.00000000000E+00 0. -1.
</event>
<event>
 8    1  0.6860461E-009  0.7721753E+02  0.7561462E-02  0.1337138E+00
          1   -1    0    0  501    0  0.00000000000E+00  0.00000000000E+00  0.70050950511E+02  0.70050950511E+02  0.00000000000E+00 0. -1.
         -1   -1    0    0    0  501 -0.00000000000E+00 -0.00000000000E+00 -0.24719601869E+03  0.24719601869E+03  0.00000000000E+00 0.  1.
         25    2    1    2    0    0 -0.17520343247E+02 -0.67154207041E+02 -0.72895744695E+02  0.16055481938E+03  0.12508960980E+03 0.  0.
         23    2    1    2    0    0  0.17520343247E+02  0.67154207041E+02 -0.10424932348E+03  0.15669214982E+03  0.94169307197E+02 0.  0.
          5    1    3    3  502    0 -0.20251697156E+02 -0.36140389794E+02  0.31066355382E+02  0.51950455714E+02  0.41800000000E+01 0. -1.
         -5    1    3    3    0  502  0.27313539087E+01 -0.31013817247E+02 -0.10396210008E+03  0.10860436366E+03  0.41800000000E+01 0. -1.
        -11    1    4    4    0    0 -0.71316533325E+01  0.51913358311E+02 -0.11452328706E+03  0.12594221107E+03  0.00000000000E+00 0.  1.
         11    1    4    4    0    0  0.24651996580E+02  0.15240848730E+02  0.10273963579E+02  0.30749938748E+02  0.00000000000E+00 0. -1.
</event>
<event>
 8    1  0.6860461E-009  0.1001576E+03  0.7561462E-02  0.1279965E+00
         -1   -1    0    0    0  501 -0.00000000000E+00  0.00000000000E+00  0.16201604739E+03  0.16201604739E+03  0.00000000000E+00 0.  1.
          1   -1    0    0  501    0  0.00000000000E+00 -0.00000000000E+00 -0.94993090100E+02  0.94993090100E+02  0.00000000000E+00 0. -1.
         25    2    1    2    0    0 -0.18032858276E+02 -0.50858758535E+02  0.10662149979E+02  0.13665027460E+03  0.12509124194E+03 0.  0.
         23    2    1    2    0    0  0.18032858276E+02  0.50858758535E+02  0.56360807307E+02  0.12035886288E+03  0.91640154827E+02 0.  0.
          5    1    3    3  502    0 -0.59586508183E+02 -0.48740148431E+02 -0.25668217043E+02  0.81255669295E+02  0.41800000000E+01 0. -1.
         -5    1    3    3    0  502  0.41553649907E+02 -0.21186101040E+01  0.36330367021E+02  0.55394605308E+02  0.41800000000E+01 0. -1.
        -11    1    4    4    0    0  0.27412442856E+02 -0.22199351481E+01 -0.14687359306E+02  0.31178336370E+02  0.00000000000E+00 0. -1.
         11    1    4    4    0    0 -0.93795845800E+01  0.53078693683E+02  0.71048166613E+02  0.89180526513E+02  0.00000000000E+00 0.  1.
</event>
<event>
 8    1  0.6860461E-009  0.1103742E+03  0.7561462E-02  0.1259878E+00
          3   -1    0    0  501    0  0.00000000000E+00  0.00000000000E+00  0.44345414123E+03  0.44345414123E+03  0.00000000000E+00 0. -1.
         -3   -1    0    0    0  501 -0.00000000000E+00 -0.00000000000E+00 -0.51474920318E+02  0.51474920318E+02  0.00000000000E+00 0.  1.
         25    2    1    2    0    0 -0.12852655014E+02 -0.89489494233E+02  0.29900449315E+03  0.33648780619E+03  0.12508715551E+03 0.  0.
         23    2    1    2    0    0  0.12852655014E+02  0.89489494233E+02  0.92974727768E+02  0.15844125536E+03  0.91026210938E+02 0.  0.
          5    1    3    3  502    0  0.20266193215E+02 -0.25878548015E+02  0.46081421301E+01  0.33453328813E+02  0.41800000000E+01 0.  1.
         -5    1    3    3    0  502 -0.33118848229E+02 -0.63610946218E+02  0.29439635102E+03  0.30303447738E+03  0.41800000000E+01 0.  1.
        -11    1    4    4    0    0  0.28595913046E+02  0.94911179887E+02  0.47312156272E+02  0.10983760031E+03  0.00000000000E+00 0.  1.
         11    1    4    4    0    0 -0.15743258032E+02 -0.54216856537E+01  0.45662571496E+02  0.48603655052E+02  0.00000000000E+00 0. -1.
</event>
<event>
 8    1  0.6860461E-009  0.1283497E+03  0.7561462E-02  0.1229925E+00
         -2   -1    0    0    0  501 -0.00000000000E+00  0.00000000000E+00  0.35037259978E+03  0.35037259978E+03  0.00000000000E+00 0.  1.
          2   -1    0    0  501    0  0.00000000000E+00 -0.00000000000E+00 -0.55096848922E+02  0.55096848922E+02  0.00000000000E+00 0. -1.
         25    2    1    2    0    0  0.40543624294E+02  0.61556415114E+02  0.93895229843E+02  0.17290877512E+03  0.12509257617E+03 0.  0.
         23    2    1    2    0    0 -0.40543624294E+02 -0.61556415114E+02  0.20138052101E+03  0.23256067358E+03  0.89985415154E+02 0.  0.
          5    1    3    3  502    0  0.28942832699E+02 -0.34570441974E+02  0.14258735461E+02  0.47471959723E+02  0.41800000000E+01 0.  1.
         -5    1    3    3    0  502  0.11600791595E+02  0.96126857088E+02  0.79636494382E+02  0.12543681540E+03  0.41800000000E+01 0.  1.
        -11    1    4    4    0    0 -0.57173976897E+02 -0.71569578749E+01  0.12177866003E+03  0.13472240987E+03  0.00000000000E+00 0.  1.
         11    1    4    4    0    0  0.16630352603E+02 -0.54399457239E+02  0.79601860979E+02  0.97838263716E+02  0.00000000000E+00 0. -1.
</event>
<event>
 8    1  0.6860461E-009  0.9260920E+02  0.7561462E-02  0.1296653E+00
         -1   -1    0    0    0  501 -0.00000000000E+00  0.00000000000E+00  0.15684912461E+03  0.15684912461E+03  0.00000000000E+00 0.  1.
          1   -1    0    0  501    0  0.00000000000E+00 -0.00000000000E+00 -0.11683318298E+03  0.11683318298E+03  0.00000000000E+00 0. -1.
         25    2    1    2    0    0  0.12605941887E+02 -0.41077541513E+02 -0.45913473904E+02  0.14000662804E+03  0.12509010601E+03 0.  0.
         23    2    1    2    0    0 -0.12605941887E+02  0.41077541513E+02  0.85929415537E+02  0.13367567955E+03  0.92946482786E+02 0.  0.
          5    1    3    3  502    0  0.62208320310E+02 -0.27871587216E+02 -0.55028816415E+02  0.87706006212E+02  0.41800000000E+01 0. -1.
         -5    1    3    3    0  502 -0.49602378423E+02 -0.13205954297E+02  0.91153425104E+01  0.52300621824E+02  0.41800000000E+01 0. -1.
        -11    1    4    4    0    0 -0.11945882665E+02 -0.92395331236E+01  0.81803016711E+02  0.83185375085E+02  0.00000000000E+00 0.  1.
         11    1    4    4    0    0 -0.66005922138E+00  0.50317074637E+02  0.41263988257E+01  0.50490304470E+02  0.00000000000E+00 0. -1.
</event>
<event>
 8    1  0.6860461E-009  0.2195698E+03  0.7561462E-02  0.1134204E+00
          1   -1    0    0  501    0  0.00000000000E+00  0.00000000000E+00  0.25076839454E+03  0.25076839454E+03  0.00000000000E+00 0. -1.
         -1   -1    0    0    0  501 -0.00000000000E+00 -0.00000000000E+00 -0.22735212618E+03  0.22735212618E+03  0.00000000000E+00 0.  1.
         25    2    1    2    0    0 -0.53697622441E+02  0.19352770819E+03 -0.58651009397E+02  0.24376972618E+03  0.12508928814E+03 0.  0.
         23    2    1    2    0    0  0.53697622441E+02 -0.19352770819E+03  0.82067277762E+02  0.23435079453E+03  0.88593726219E+02 0.  0.
          5    1    3    3  502    0 -0.85664912179E+02  0.18158063025E+03 -0.59274243967E+02  0.20938221238E+03  0.41800000000E+01 0. -1.
         -5    1    3    3    0  502  0.31967289738E+02  0.11947077937E+02  0.62323457018E+00  0.34387513806E+02  0.41800000000E+01 0. -1.
        -11    1    4    4    0    0  0.13059908756E+02 -0.11288031768E+03  0.19854414365E+01  0.11365064591E+03  0.00000000000E+00 0. -1.
         11    1    4    4    0    0  0.40637713686E+02 -0.80647390506E+02  0.80081836326E+02  0.12070014863E+03  0.00000000000E+00 0.  1.
</event>
<event>
 8    1  0.6860461E-009  0.1514558E+03  0.7561462E-02  0.1198695E+00
          2   -1    0    0  501    0  0.00000000000E+00  0.00000000000E+00  0.23559937325E+03  0.23559937325E+03  0.00000000000E+00 0. -1.
         -2   -1    0    0    0  501 -0.00000000000E+00 -0.00000000000E+00 -0.13865621958E+03  0.13865621958E+03  0.00000000000E+00 0.  1.
         25    2    1    2    0    0  0.14617802886E+02  0.12481481200E+03 -0.22358316054E+02  0.17871498710E+03  0.12508690923E+03 0.  0.
         23    2    1    2    0    0 -0.14617802886E+02 -0.12481481200E+03  0.11930146973E+03  0.19554060573E+03  0.90613852992E+02 0.  0.
          5    1    3    3  502    0  0.60931003952E+02  0.22943072105E+02 -0.10922050931E+02  0.66149341620E+02  0.41800000000E+01 0.  1.
         -5    1    3    3    0  502 -0.46313201066E+02  0.10187173990E+03 -0.11436265123E+02  0.11256564548E+03  0.41800000000E+01 0.  1.
        -11    1    4    4    0    0 -0.56376745130E+01 -0.57515504704E+02 -0.54990982126E+00  0.57793763124E+02  0.00000000000E+00 0.  1.
         11    1    4    4    0    0 -0.89801283727E+01 -0.67299307297E+02  0.11985137955E+03  0.13774684260E+03  0.00000000000E+00 0. -1.
</event>
<event>
 8    1  0.6860461E-009  0.8212073E+02  0.7561462E-02  0.1323139E+00
          2   -1    0    0  501    0  0.00000000000E+00  0.00000000000E+00  0.22431278037E+03  0.22431278037E+03  0.00000000000E+00 0.  1.
         -2   -1    0    0    0  501 -0.00000000000E+00 -0.00000000000E+00 -0.93711769936E+02  0.93711769936E+02  0.00000000000E+00 0. -1.
         25    2    1    2    0    0  0.92826511994E+01 -0.53193666163E+02 -0.15361955440E+02  0.13710952546E+03  0.12508916246E+03 0.  0.
         23    2    1    2    0    0 -0.92826511994E+01  0.53193666163E+02  0.14596296587E+03  0.18091502484E+03  0.92246003026E+02 0.  0.
          5    1    3    3  502    0 -0.98775797478E+01 -0.36340962272E+02 -0.68349468635E+02  0.78149564191E+02  0.41800000000E+01 0. -1.
         -5    1    3    3    0  502  0.19160230947E+02 -0.16852703891E+02  0.52987513195E+02  0.58959961271E+02  0.41800000000E+01 0. -1.
        -11    1    4    4    0    0 -0.45967298947E+02  0.41664759783E+02  0.11818090707E+03  0.13347535943E+03  0.00000000000E+00 0.  1.
         11    1    4    4    0    0  0.36684647748E+02  0.11528906380E+02  0.27782058802E+02  0.47439665408E+02  0.00000000000E+00 0. -1.
</event>
<event>
 8    1  0.6860461E-009  0.1214963E+03  0.7561462E-02  0.1240649E+00
         -3   -1    0    0    0  501 -0.00000000000E+00  0.00000000000E+00  0.11320290637E+03  0.11320290637E+03  0.00000000000E+00 0.  1.
          3   -1    0    0  501    0  0.00000000000E+00 -0.00000000000E+00 -0.15781998443E+03  0.15781998443E+03  0.00000000000E+00 0. -1.
         25    2    1    2    0    0 -0.18441928328E+02  0.67091602029E+02 -0.57944152883E+02  0.15442098884E+03  0.12508768588E+03 0.  0.
         23    2    1    2    0    0  0.18441928328E+02 -0.67091602029E+02  0.13327074826E+02  0.11660190196E+03  0.92612120343E+02 0.  0.
          5    1    3    3  502    0 -0.69134860591E+02  0.21390151523E+02 -0.43475607756E+02  0.84526731871E+02  0.41800000000E+01 0. -1.
         -5    1    3    3    0  502  0.50692932262E+02  0.45701450505E+02 -0.14468545127E+02  0.69894256973E+02  0.41800000000E+01 0. -1.
        -11    1    4    4    0    0  0.74982979029E+01 -0.82711867245E+02 -0.13031107400E+02  0.84067158954E+02  0.00000000000E+00 0. -1.
         11    1    4    4    0    0  0.10943630425E+02  0.15620265216E+02  0.26358182226E+02  0.32534743007E+02  0.00000000000E+00 0.  1.
</event>
<event>
 8    1  0.6860461E-009  0.1162737E+03  0.7561462E-02  0.1249374E+00
          3   -1    0    0  501    0  0.00000000000E+00  0.00000000000E+00  0.56172006436E+02  0.56172006436E+02  0.00000000000E+00 0. -1.
         -3   -1    0    0    0  501 -0.00000000000E+00 -0.00000000000E+00 -0.35266167441E+03  0.35266167441E+03  0.00000000000E+00 0.  1.
         25    2    1    2    0    0  0.73852141881E+02 -0.50260932179E+02 -0.16196315424E+03  0.22329225561E+03  0.12508824053E+03 0.  0.
         23    2    1    2    0    0 -0.73852141881E+02  0.50260932179E+02 -0.13452651374E+03  0.18554142524E+03  0.91367047771E+02 0.  0.
          5    1    3    3  502    0 -0.29178590783E+02 -0.70486935292E+01 -0.77363054142E+02  0.83087837779E+02  0.41800000000E+01 0.  1.
         -5    1    3    3    0  502  0.10303073266E+03 -0.43212238650E+02 -0.84600100098E+02  0.14020441783E+03  0.41800000000E+01 0.  1.
        -11    1    4    4    0    0 -0.36361440266E+02  0.16289727180E+02 -0.12856681849E+03  0.13459916926E+03  0.00000000000E+00 0.  1.
         11    1    4    4    0    0 -0.37490701614E+02  0.33971204999E+02 -0.59596952468E+01  0.50942255977E+02  0.00000000000E+00 0. -1.
</event>
<event>
 8    1  0.6860461E-009  0.3066630E+03  0.7561462E-02  0.1081956E+00
          1   -1    0    0  501    0  0.00000000000E+00  0.00000000000E+00  0.30568110379E+03  0.30568110379E+03  0.00000000000E+00 0. -1.
         -1   -1    0    0    0  501 -0.00000000000E+00 -0.00000000000E+00 -0.40574255651E+03  0.40574255651E+03  0.00000000000E+00 0.  1.
         25    2    1    2    0    0  0.60905546005E+02  0.28717316349E+03 -0.21327499384E+03  0.38381210587E+03  0.12509036033E+03 0.  0.
         23    2    1    2    0    0 -0.60905546005E+02 -0.28717316349E+03  0.11321354111E+03  0.32761155443E+03  0.91291365088E+02 0.  0.
          5    1    3    3  502    0 -0.30994024223E+02  0.21510526136E+02 -0.25933971451E+02  0.45971464490E+02  0.41800000000E+01 0.  1.
         -5    1    3    3    0  502  0.91899570228E+02  0.26566263736E+03 -0.18734102239E+03  0.33784064137E+03  0.41800000000E+01 0.  1.
        -11    1    4    4    0    0 -0.52785968218E+02 -0.20621303523E+03  0.36858467156E+02  0.21602944461E+03  0.00000000000E+00 0.  1.
         11    1    4    4    0    0 -0.81195777862E+01 -0.80960128267E+02  0.76355073958E+02  0.11158210982E+03  0.00000000000E+00 0. -1.
</event>
<event>
 8    1  0.6860461E-009  0.9912124E+02  0.7561462E-02  0.1282155E+00
          2   -1    0    0  501    0  0.00000000000E+00  0.00000000000E+00  0.89261202001E+02  0.89261202001E+02  0.00000000000E+00 0.  1.
         -2   -1    0    0    0  501 -0.00000000000E+00 -0.00000000000E+00 -0.19891511680E+03  0.19891511680E+03  0.00000000000E+00 0. -1.
         25    2    1    2    0    0 -0.25330565892E+02  0.63359290033E+02 -0.15431487202E+02  0.14332635705E+03  0.12509307185E+03 0.  0.
         23    2    1    2    0    0  0.25330565892E+02 -0.63359290033E+02 -0.94222427594E+02  0.14484996175E+03  0.86299526971E+02 0.  0.
          5    1    3    3  502    0 -0.44337864350E+02  0.45367523794E+02 -0.62600739082E+02  0.89220980514E+02  0.41800000000E+01 0.  1.
         -5    1    3    3    0  502  0.19007298458E+02  0.17991766238E+02  0.47169251880E+02  0.54105376535E+02  0.41800000000E+01 0.  1.
        -11    1    4    4    0    0 -0.27060072959E+02 -0.45267924656E+02 -0.59205353734E+02  0.79288753692E+02  0.00000000000E+00 0. -1.
         11    1    4    4    0    0  0.52390638851E+02 -0.18091365376E+02 -0.35017073861E+02  0.65561208059E+02  0.00000000000E+00 0.  1.
</event>
<event>
 8    1  0.6860461E-009  0.8783402E+02  0.7561462E-02  0.1308183E+00
         -2   -1    0    0    0  501 -0.00000000000E+00  0.00000000000E+00  0.26460304196E+02  0.26460304196E+02  0.00000000000E+00 0.  1.
          2   -1    0    0  501    0  0.00000000000E+00 -0.00000000000E+00 -0.62465169425E+03  0.62465169425E+03  0.00000000000E+00 0. -1.
         25    2    1    2    0    0  0.33049896216E+02  0.16012882941E+02 -0.47228352285E+03  0.48994806806E+03  0.12509466570E+03 0.  0.
         23    2    1    2    0    0 -0.33049896216E+02 -0.16012882941E+02 -0.12590786721E+03  0.16116393039E+03  0.93660628720E+02 0.  0.
          5    1    3    3  502    0  0.28731099500E+02 -0.28546031087E+02 -0.41563541348E+03  0.41762497687E+03  0.41800000000E+01 0. -1.
         -5    1    3    3    0  502  0.43187967167E+01  0.44558914028E+02 -0.56648109363E+02  0.72323091187E+02  0.41800000000E+01 0. -1.
        -11    1    4    4    0    0 -0.40930005673E+02  0.25176162399E+02 -0.10233757554E+03  0.11305787848E+03  0.00000000000E+00 0.  1.
         11    1    4    4    0    0  0.78801094566E+01 -0.41189045341E+02 -0.23570291668E+02  0.48106051911E+02  0.00000000000E+00 0. -1.
</event>
<event>
 8    1  0.6860461E-009  0.1019442E+03  0.7561462E-02  0.1276260E+00
          1   -1    0    0  501    0  0.00000000000E+00  0.00000000000E+00  0.44546583975E+02  0.44546583975E+02  0.00000000000E+00 0. -1.
         -1   -1    0    0    0  501 -0.00000000000E+00 -0.00000000000E+00 -0.49072696709E+03  0.49072696709E+03  0.00000000000E+00 0.  1.
         25    2    1    2    0    0 -0.21876594003E+02  0.93474991473E+02 -0.19176237812E+03  0.24826676600E+03  0.12508964002E+03 0.  0.
         23    2    1    2    0    0  0.21876594003E+02 -0.93474991473E+02 -0.25441800499E+03  0.28700678506E+03  0.91805304924E+02 0.  0.
          5    1    3    3  502    0 -0.31036355128E+02  0.34709371917E+02 -0.18192903164E+03  0.18783940159E+03  0.41800000000E+01 0. -1.
         -5    1    3    3    0  502  0.91597611248E+01  0.58765619556E+02 -0.98333464820E+01  0.60427364403E+02  0.41800000000E+01 0. -1.
        -11    1    4    4    0    0  0.16832478742E+02 -0.35125223792E+02 -0.17046944365E+02  0.42517196511E+02  0.00000000000E+00 0. -1.
         11    1    4    4    0    0  0.50441152617E+01 -0.58349767682E+02 -0.23737106063E+03  0.24448958855E+03  0.00000000000E+00 0.  1.
</event>
<event>
 8    1  0.6860461E-009  0.1513089E+03  0.7561462E-02  0.1198874E+00
          2   -1    0    0  501    0  0.00000000000E+00  0.00000000000E+00  0.57434947018E+02  0.57434947018E+02  0.00000000000E+00 0. -1.
         -2   -1    0    0    0  501 -0.00000000000E+00 -0.00000000000E+00 -0.45949067496E+03  0.45949067496E+03  0.00000000000E+00 0.  1.
         25    2    1    2    0    0 -0.11529887254E+03 -0.30132343601E+02 -0.22025273594E+03  0.27992974738E+03  0.12509039786E+03 0.  0.
         23    2    1    2    0    0  0.11529887254E+03  0.30132343601E+02 -0.18180299200E+03  0.23699587460E+03  0.94408307562E+02 0.  0.
          5    1    3    3  502    0 -0.10186514936E+03  0.33531355050E+02 -0.12968914390E+03  0.16833777612E+03  0.41800000000E+01 0.  1.
         -5    1    3    3    0  502 -0.13433723185E+02 -0.63663698651E+02 -0.90563592044E+02  0.11159197125E+03  0.41800000000E+01 0.  1.
        -11    1    4    4    0    0  0.60070149036E+02  0.42391277214E+02 -0.38633079193E+02  0.83053946306E+02  0.00000000000E+00 0. -1.
         11    1    4    4    0    0  0.55228723507E+02 -0.12258933613E+02 -0.14316991281E+03  0.15394192830E+03  0.00000000000E+00 0.  1.
</event>
<event>
 8    1  0.6860461E-009  0.2026339E+03  0.7561462E-02  0.1147536E+00
          1   -1    0    0  501    0  0.00000000000E+00  0.00000000000E+00  0.72909969133E+02  0.72909969133E+02  0.00000000000E+00 0. -1.
         -1   -1    0    0    0  501 -0.00000000000E+00 -0.00000000000E+00 -0.84255546934E+03  0.84255546934E+03  0.00000000000E+00 0.  1.
         25    2    1    2    0    0 -0.16402296316E+03 -0.94045520270E+02 -0.18070309364E+03  0.28991215004E+03  0.12508938549E+03 0.  0.
         23    2    1    2    0    0  0.16402296316E+03  0.94045520270E+02 -0.58894240657E+03  0.62555328844E+03  0.93357731846E+02 0.  0.
          5    1    3    3  502    0 -0.17555937511E+03 -0.70665896714E+02 -0.18315194414E+03  0.26339489401E+03  0.41800000000E+01 0. -1.
         -5    1    3    3    0  502  0.11536411954E+02 -0.23379623556E+02  0.24488505009E+01  0.26517256027E+02  0.41800000000E+01 0. -1.
        -11    1    4    4    0    0  0.54850159087E+02  0.24091905049E+02 -0.77637129921E+02  0.98063672086E+02  0.00000000000E+00 0. -1.
         11    1    4    4    0    0  0.10917280407E+03  0.69953615221E+02 -0.51130527665E+03  0.52748961635E+03  0.00000000000E+00 0.  1.
</event>
<event>
 8    1  0.6860461E-009  0.2393896E+03  0.7561462E-02  0.1120200E+00
          1   -1    0    0  501    0  0.00000000000E+00  0.00000000000E+00  0.19103597612E+03  0.19103597612E+03  0.00000000000E+00 0. -1.
         -1   -1    0    0    0  501 -0.00000000000E+00 -0.00000000000E+00 -0.33946912228E+03  0.33946912228E+03  0.00000000000E+00 0.  1.
         25    2    1    2    0    0 -0.10087606157E+03  0.19569931165E+03 -0.69027889118E+01  0.25331612783E+03  0.12508881544E+03 0.  0.
         23    2    1    2    0    0  0.10087606157E+03 -0.19569931165E+03 -0.14153035725E+03  0.27718897056E+03  0.91261618434E+02 0.  0.
          5    1    3    3  502    0  0.13601396941E+02  0.86088988604E+02 -0.31710828801E+02  0.92840513898E+02  0.41800000000E+01 0.  1.
         -5    1    3    3    0  502 -0.11447745851E+03  0.10961032304E+03  0.24808039889E+02  0.16047561394E+03  0.41800000000E+01 0.  1.
        -11    1    4    4    0    0  0.62290987521E+02 -0.43537282233E+02 -0.19778092938E+02  0.78529198588E+02  0.00000000000E+00 0. -1.
         11    1    4    4    0    0  0.38585074049E+02 -0.15216202942E+03 -0.12175226431E+03  0.19865977197E+03  0.00000000000E+00 0.  1.
</event>
<event>
 8    1  0.6860461E-009  0.9795197E+02  0.7561462E-02  0.1284663E+00
         -3   -1    0    0    0  501 -0.00000000000E+00  0.00000000000E+00  0.15074746027E+03  0.15074746027E+03  0.00000000000E+00 0.  1.
          3   -1    0    0  501    0  0.00000000000E+00 -0.00000000000E+00 -0.97070241922E+02  0.97070241922E+02  0.00000000000E+00 0. -1.
         25    2    1    2    0    0 -0.22199546002E+02  0.27592453091E+02 -0.10063481685E+02  0.13039314534E+03  0.12508771074E+03 0.  0.
         23    2    1    2    0    0  0.22199546002E+02 -0.27592453091E+02  0.63740700030E+02  0.11742455685E+03  0.92040677965E+02 0.  0.
          5    1    3    3  502    0  0.21558704323E+01  0.67184723836E+02 -0.36655142967E+02  0.76677942071E+02  0.41800000000E+01 0. -1.
         -5    1    3    3    0  502 -0.24355416434E+02 -0.39592270746E+02  0.26591661282E+02  0.53715203269E+02  0.41800000000E+01 0. -1.
        -11    1    4    4    0    0  0.32872062659E+02 -0.48394778648E+02  0.10719363506E+02  0.59477154083E+02  0.00000000000E+00 0.  1.
         11    1    4    4    0    0 -0.10672516657E+02  0.20802325557E+02  0.53021336524E+02  0.57947402764E+02  0.00000000000E+00 0. -1.
</event>
<event>
 8    1  0.6860461E-009  0.1447280E+03  0.7561462E-02  0.1207105E+00
         -1   -1    0    0    0  501 -0.00000000000E+00  0.00000000000E+00  0.30964951158E+02  0.30964951158E+02  0.00000000000E+00 0.  1.
          1   -1    0    0  501    0  0.00000000000E+00 -0.00000000000E+00 -0.68190686292E+03  0.68190686292E+03  0.00000000000E+00 0. -1.
         25    2    1    2    0    0  0.88079344883E+02  0.38458245182E+02 -0.36491101547E+03  0.39754837883E+03  0.12509059388E+03 0.  0.
         23    2    1    2    0    0 -0.88079344883E+02 -0.38458245182E+02 -0.28603089629E+03  0.31532343526E+03  0.91532439987E+02 0.  0.
          5    1    3    3  502    0 -0.27053799652E+02 -0.14441901446E+02 -0.74419830615E+02  0.80599380778E+02  0.41800000000E+01 0.  1.
         -5    1    3    3    0  502  0.11513314454E+03  0.52900146628E+02 -0.29049118486E+03  0.31694899805E+03  0.41800000000E+01 0.  1.
        -11    1    4    4    0    0 -0.98135083950E+02 -0.66369165882E+01 -0.19575522798E+03  0.21907681905E+03  0.00000000000E+00 0.  1.
         11    1    4    4    0    0  0.10055739067E+02 -0.31821328594E+02 -0.90275668308E+02  0.96246616201E+02  0.00000000000E+00 0. -1.
</event>
<event>
 8    1  0.6860461E-009  0.1073245E+03  0.7561462E-02  0.1265606E+00
         -2   -1    0    0    0  501 -0.00000000000E+00  0.00000000000E+00  0.27412065177E+02  0.27412065177E+02  0.00000000000E+00 0.  1.
          2   -1    0    0  501    0  0.00000000000E+00 -0.00000000000E+00 -0.46006656003E+03  0.46006656003E+03  0.00000000000E+00 0. -1.
         25    2    1    2    0    0 -0.18115060746E+02 -0.20584956415E+02 -0.28345274950E+03  0.31103704340E+03  0.12508671116E+03 0.  0.
         23    2    1    2    0    0  0.18115060746E+02  0.20584956415E+02 -0.14920174535E+03  0.17644158181E+03  0.90103136010E+02 0.  0.
          5    1    3    3  502    0  0.27858164952E+02  0.41759931809E+02 -0.11791012969E+03  0.12821950063E+03  0.41800000000E+01 0. -1.
         -5    1    3    3    0  502 -0.45973225698E+02 -0.62344888224E+02 -0.16554261982E+03  0.18281754277E+03  0.41800000000E+01 0. -1.
        -11    1    4    4    0    0  0.19637041617E+02  0.51826646499E+02 -0.58896693340E+02  0.80872957020E+02  0.00000000000E+00 0.  1.
         11    1    4    4    0    0 -0.15219808718E+01 -0.31241690084E+02 -0.90305052013E+02  0.95568624790E+02  0.00000000000E+00 0. -1.
</event>
<event>
 8    1  0.6860461E-009  0.1369918E+03  0.7561462E-02  0.1217435E+00
         -1   -1    0    0    0  501 -0.00000000000E+00  0.00000000000E+00  0.36085108314E+03  0.36085108314E+03  0.00000000000E+00 0.  1.
          1   -1    0    0  501    0  0.00000000000E+00 -0.00000000000E+00 -0.62186435847E+02  0.62186435847E+02  0.00000000000E+00 0. -1.
         25    2    1    2    0    0 -0.27467920756E+02 -0.99441619955E+02  0.16104407877E+03  0.22853186676E+03  0.12509395018E+03 0.  0.
         23    2    1    2    0    0  0.27467920756E+02  0.99441619955E+02  0.13762056852E+03  0.19450565222E+03  0.90828989948E+02 0.  0.
          5    1    3    3  502    0  0.46867986372E+02 -0.62764767043E+02  0.67625725512E+02  0.10356995356E+03  0.41800000000E+01 0. -1.
         -5    1    3    3    0  502 -0.74335907127E+02 -0.36676852912E+02  0.93418353255E+02  0.12496191321E+03  0.41800000000E+01 0. -1.
        -11    1    4    4    0    0  0.40059946945E+02  0.77640036850E+02  0.14409337555E+03  0.16851016453E+03  0.00000000000E+00 0.  1.
         11    1    4    4    0    0 -0.12592026189E+02  0.21801583105E+02 -0.64728070305E+01  0.25995487691E+02  0.00000000000E+00 0. -1.
</event>
<event>
 8    1  0.6860461E-009  0.9423012E+02  0.7561462E-02  0.1292920E+00
         -2   -1    0    0    0  501 -0.00000000000E+00  0.00000000000E+00  0.51650677579E+02  0.51650677579E+02  0.00000000000E+00 0. -1.
          2   -1    0    0  501    0  0.00000000000E+00 -0.00000000000E+00 -0.29265397241E+03  0.29265397241E+03  0.00000000000E+00 0.  1.
         25    2    1    2    0    0  0.15947701953E+02 -0.35170151881E+02 -0.18966153727E+03  0.23045675224E+03  0.12509015609E+03 0.  0.
         23    2    1    2    0    0 -0.15947701953E+02  0.35170151881E+02 -0.51341757562E+02  0.11384789775E+03  0.93989887608E+02 0.  0.
          5    1    3    3  502    0 -0.20393193301E+02 -0.67309805782E+02 -0.15625625662E+03  0.17140589961E+03  0.41800000000E+01 0. -1.
         -5    1    3    3    0  502  0.36340895254E+02  0.32139653901E+02 -0.33405280649E+02  0.59050852627E+02  0.41800000000E+01 0. -1.
        -11    1    4    4    0    0  0.11717663578E+02 -0.10618766654E+02 -0.57834767263E+02  0.59957669646E+02  0.00000000000E+00 0.  1.
         11    1    4    4    0    0 -0.27665365531E+02  0.45788918535E+02  0.64930097014E+01  0.53890228108E+02  0.00000000000E+00 0. -1.
</event>
<event>
 8    1  0.6860461E-009  0.9816375E+02  0.7561462E-02  0.1284205E+00
         -4   -1    0    0    0  501 -0.00000000000E+00  0.00000000000E+00  0.62943625609E+03  0.62943625609E+03  0.00000000000E+00 0.  1.
          4   -1    0    0  501    0  0.00000000000E+00 -0.00000000000E+00 -0.20944447576E+02  0.20944447576E+02  0.00000000000E+00 0. -1.
         25    2    1    2    0    0 -0.15093090290E+02 -0.28979013964E+02  0.40859627826E+03  0.42855934511E+03  0.12507841158E+03 0.  0.
         23    2    1    2    0    0  0.15093090290E+02  0.28979013964E+02  0.19989553025E+03  0.22182135855E+03  0.90437312394E+02 0.  0.
          5    1    3    3  502    0 -0.23411881306E+01  0.46936645729E+02  0.21628664681E+03  0.22137279838E+03  0.41800000000E+01 0. -1.
         -5    1    3    3    0  502 -0.12751902159E+02 -0.75915659693E+02  0.19230963145E+03  0.20718654672E+03  0.41800000000E+01 0. -1.
        -11    1    4    4    0    0 -0.20644963029E+02 -0.65515970015E+01  0.74782442230E+01  0.22914232660E+02  0.00000000000E+00 0. -1.
         11    1    4    4    0    0  0.35738053319E+02  0.35530610965E+02  0.19241728602E+03  0.19890712589E+03  0.00000000000E+00 0.  1.
</event>
<event>
 8    1  0.6860461E-009  0.1158665E+03  0.7561462E-02  0.1250076E+00
          2   -1    0    0  501    0  0.00000000000E+00  0.00000000000E+00  0.32976171377E+03  0.32976171377E+03  0.00000000000E+00 0. -1.
         -2   -1    0    0    0  501 -0.00000000000E+00 -0.00000000000E+00 -0.49356660838E+02  0.49356660838E+02  0.00000000000E+00 0.  1.
         25    2    1    2    0    0  0.60117974370E+02  0.11560630491E+02  0.19557198582E+03  0.24009055199E+03  0.12508897833E+03 0.  0.
         23    2    1    2    0    0 -0.60117974370E+02 -0.11560630491E+02  0.84833067115E+02  0.13902782262E+03  0.91565644027E+02 0.  0.
          5    1    3    3  502    0  0.42731319244E+02  0.67635260365E+02  0.10493334167E+03  0.13201883458E+03  0.41800000000E+01 0. -1.
         -5    1    3    3    0  502  0.17386655126E+02 -0.56074629874E+02  0.90638644147E+02  0.10807171741E+03  0.41800000000E+01 0. -1.
        -11    1    4    4    0    0  0.24131668977E+01 -0.28003371750E+02 -0.47939724484E+01  0.28513056232E+02  0.00000000000E+00 0.  1.
         11    1    4    4    0    0 -0.62531141268E+02  0.16442741260E+02  0.89627039563E+02  0.11051476639E+03  0.00000000000E+00 0. -1.
</event>
<event>
 8    1  0.6860461E-009  0.5967006E+02  0.7561462E-02  0.1399222E+00
          2   -1    0    0  501    0  0.00000000000E+00  0.00000000000E+00  0.82382716470E+02  0.82382716470E+02  0.00000000000E+00 0.  1.
         -2   -1    0    0    0  501 -0.00000000000E+00 -0.00000000000E+00 -0.14518616339E+03  0.14518616339E+03  0.00000000000E+00 0. -1.
         25    2    1    2    0    0  0.14004280756E+02 -0.69075643362E+01 -0.27074153998E+02  0.12893879364E+03  0.12509343854E+03 0.  0.
         23    2    1    2    0    0 -0.14004280756E+02  0.69075643362E+01 -0.35729292919E+02  0.98630086217E+02  0.90595127960E+02 0.  0.
          5    1    3    3  502    0  0.33870576742E+02 -0.94782595286E+01  0.43131935106E+02  0.55811195996E+02  0.41800000000E+01 0.  1.
         -5    1    3    3    0  502 -0.19866295986E+02  0.25706951924E+01 -0.70206089104E+02  0.73127597645E+02  0.41800000000E+01 0.  1.
        -11    1    4    4    0    0 -0.38418859848E+02  0.14829029284E+01  0.15631513301E+02  0.41503638409E+02  0.00000000000E+00 0.  1.
         11    1    4    4    0    0  0.24414579091E+02  0.54246614078E+01 -0.51360806220E+02  0.57126447808E+02  0.00000000000E+00 0. -1.
</event>
<event>
 8    1  0.6860461E-009  0.1080792E+03  0.7561462E-02  0.1264169E+00
          1   -1    0    0  501    0  0.00000000000E+00  0.00000000000E+00  0.12704715073E+03  0.12704715073E+03  0.00000000000E+00 0. -1.
         -1   -1    0    0    0  501 -0.00000000000E+00 -0.00000000000E+00 -0.13131306362E+03  0.13131306362E+03  0.00000000000E+00 0.  1.
         25    2    1    2    0    0  0.58684447582E+02 -0.14754593260E+02  0.33155357261E+02  0.14285710947E+03  0.12508922256E+03 0.  0.
         23    2    1    2    0    0 -0.58684447582E+02  0.14754593260E+02 -0.37421270152E+02  0.11550310489E+03  0.90989303596E+02 0.  0.
          5    1    3    3  502    0  0.73341798315E+02 -0.35769903984E+02  0.63092884543E+02  0.10323124474E+03  0.41800000000E+01 0. -1.
         -5    1    3    3    0  502 -0.14657350733E+02  0.21015310724E+02 -0.29937527282E+02  0.39625864723E+02  0.41800000000E+01 0. -1.
        -11    1    4    4    0    0 -0.43621474105E+02 -0.35365514608E+02 -0.12468019783E+02  0.57523944092E+02  0.00000000000E+00 0. -1.
         11    1    4    4    0    0 -0.15062973477E+02  0.50120107869E+02 -0.24953250370E+02  0.57979160797E+02  0.00000000000E+00 0.  1.
</event>
<event>
 8    1  0.6860461E-009  0.7661989E+02  0.7561462E-02  0.1338927E+00
         -2   -1    0    0    0  501 -0.00000000000E+00  0.00000000000E+00  0.24872545340E+03  0.24872545340E+03  0.00000000000E+00 0.  1.
          2   -1    0    0  501    0  0.00000000000E+00 -0.00000000000E+00 -0.61444673972E+02  0.61444673972E+02  0.00000000000E+00 0. -1.
         25    2    1    2    0    0 -0.58869279212E+01 -0.41836695253E+02  0.16009921407E+03  0.20752088362E+03  0.12509274081E+03 0.  0.
         23    2    1    2    0    0  0.58869279212E+01  0.41836695253E+02  0.27181565360E+02  0.10264924375E+03  0.89515723522E+02 0.  0.
          5    1    3    3  502    0 -0.13629643638E+02 -0.31298735886E+01 -0.19065863103E+02  0.24011306300E+02  0.41800000000E+01 0. -1.
         -5    1    3    3    0  502  0.77427157164E+01 -0.38706821664E+02  0.17916507717E+03  0.18350957732E+03  0.41800000000E+01 0. -1.
        -11    1    4    4    0    0  0.44475606187E+02  0.40787920767E+02  0.17912068863E+02  0.62948997110E+02  0.00000000000E+00 0.  1.
         11    1    4    4    0    0 -0.38588678266E+02  0.10487744861E+01  0.92694964970E+01  0.39700246643E+02  0.00000000000E+00 0. -1.
</event>
<event>
 8    1  0.6860461E-009  0.1159885E+03  0.7561462E-02  0.1249865E+00
          1   -1    0    0  501    0  0.00000000000E+00  0.00000000000E+00  0.66427074700E+02  0.66427074700E+02  0.00000000000E+00 0. -1.
         -1   -1    0    0    0  501 -0.00000000000E+00 -0.00000000000E+00 -0.31741897894E+03  0.31741897894E+03  0.00000000000E+00 0.  1.
         25    2    1    2    0    0  0.71523830993E+02  0.95012998150E+01 -0.52435354561E+02  0.15362965865E+03  0.12508666000E+03 0.  0.
         23    2    1    2    0    0 -0.71523830993E+02 -0.95012998150E+01 -0.19855654968E+03  0.23021639500E+03  0.91481976397E+02 0.  0.
          5    1    3    3  502    0  0.25314277914E+00  0.41432828383E+02  0.20742721333E+02  0.46523931878E+02  0.41800000000E+01 0. -1.
         -5    1    3    3    0  502  0.71270688214E+02 -0.31931528568E+02 -0.73178075894E+02  0.10710572677E+03  0.41800000000E+01 0. -1.
        -11    1    4    4    0    0 -0.90307863923E+02  0.15678600124E+01 -0.18077053186E+03  0.20207907774E+03  0.00000000000E+00 0. -1.
         11    1    4    4    0    0  0.18784032931E+02 -0.11069159827E+02 -0.17786017822E+02  0.28137317256E+02  0.00000000000E+00 0.  1.
</event>
<event>
 8    1  0.6860461E-009  0.9253504E+02  0.7561462E-02  0.1296826E+00
          2   -1    0    0  501    0  0.00000000000E+00  0.00000000000E+00  0.38222527622E+03  0.38222527622E+03  0.00000000000E+00 0. -1.
         -2   -1    0    0    0  501 -0.00000000000E+00 -0.00000000000E+00 -0.46785907969E+02  0.46785907969E+02  0.00000000000E+00 0.  1.
         25    2    1    2    0    0  0.69204497791E+02 -0.29391002297E+02  0.22003887785E+03  0.26403998680E+03  0.12508762262E+03 0.  0.
         23    2    1    2    0    0 -0.69204497791E+02  0.29391002297E+02  0.11540049040E+03  0.16497119739E+03  0.90802694080E+02 0.  0.
          5    1    3    3  502    0  0.18443421440E+02 -0.34777119270E+01  0.20369812813E+03  0.20460365119E+03  0.41800000000E+01 0.  1.
         -5    1    3    3    0  502  0.50761076350E+02 -0.25913290370E+02  0.16340749722E+02  0.59436335617E+02  0.41800000000E+01 0.  1.
        -11    1    4    4    0    0 -0.34896660102E+02 -0.26016021750E+02  0.79327957862E+02  0.90484999710E+02  0.00000000000E+00 0.  1.
         11    1    4    4    0    0 -0.34307837688E+02  0.55407024047E+02  0.36072532536E+02  0.74486197676E+02  0.00000000000E+00 0. -1.
</event>
<event>
 8    1  0.6860461E-009  0.4193554E+03  0.7561462E-02  0.1037276E+00
          2   -1    0    0  501    0  0.00000000000E+00  0.00000000000E+00  0.11957863360E+04  0.11957863360E+04  0.00000000000E+00 0.  1.
         -2   -1    0    0    0  501 -0.00000000000E+00 -0.00000000000E+00 -0.17793731389E+03  0.17793731389E+03  0.00000000000E+00 0. -1.
         25    2    1    2    0    0  0.26799985460E+03  0.31101763484E+03  0.24609378495E+03  0.49473721772E+03  0.12508745885E+03 0.  0.
         23    2    1    2    0    0 -0.26799985460E+03 -0.31101763484E+03  0.77175523717E+03  0.87898643218E+03  0.91951675450E+02 0.  0.
          5    1    3    3  502    0  0.11517189580E+03  0.75118266207E+02  0.13418121581E+03  0.19217021251E+03  0.41800000000E+01 0.  1.
         -5    1    3    3    0  502  0.15282795880E+03  0.23589936863E+03  0.11191256914E+03  0.30256700521E+03  0.41800000000E+01 0.  1.
        -11    1    4    4    0    0 -0.20805330321E+03 -0.17676385602E+03  0.52527654176E+03  0.59198571190E+03  0.00000000000E+00 0.  1.
         11    1    4    4    0    0 -0.59946551381E+02 -0.13425377883E+03  0.24647869541E+03  0.28700072028E+03  0.00000000000E+00 0. -1.
</event>
<event>
 8    1  0.6860461E-009  0.1250135E+03  0.7561462E-02  0.1235048E+00
          1   -1    0    0  501    0  0.00000000000E+00  0.00000000000E+00  0.58603238791E+03  0.58603238791E+03  0.00000000000E+00 0. -1.
         -1   -1    0    0    0  501 -0.00000000000E+00 -0.00000000000E+00 -0.42153184445E+02  0.42153184445E+02  0.00000000000E+00 0.  1.
         25    2    1    2    0    0  0.71641375453E+02 -0.13787880451E+02  0.11666296898E+03  0.18596067704E+03  0.12509409559E+03 0.  0.
         23    2    1    2    0    0 -0.71641375453E+02  0.13787880451E+02  0.42721623449E+03  0.44222489531E+03  0.87900823105E+02 0.  0.
          5    1    3    3  502    0  0.70676423978E+02 -0.63145080821E+02  0.69955128702E+02  0.11787133057E+03  0.41800000000E+01 0.  1.
         -5    1    3    3    0  502  0.96495147498E+00  0.49357200370E+02  0.46707840277E+02  0.68089346472E+02  0.41800000000E+01 0.  1.
        -11    1    4    4    0    0 -0.29242190849E+02  0.44509721703E+02  0.13091177338E+03  0.14132980386E+03  0.00000000000E+00 0.  1.
         11    1    4    4    0    0 -0.42399184604E+02 -0.30721841251E+02  0.29630446111E+03  0.30089509145E+03  0.00000000000E+00 0. -1.
</event>
<event>
 8    1  0.6860461E-009  0.8956218E+02  0.7561462E-02  0.1303915E+00
         -1   -1    0    0    0  501 -0.00000000000E+00  0.00000000000E+00  0.63307660020E+02  0.63307660020E+02  0.00000000000E+00 0.  1.
          1   -1    0    0  501    0  0.00000000000E+00 -0.00000000000E+00 -0.22938010471E+03  0.22938010471E+03  0.00000000000E+00 0. -1.
         25    2    1    2    0    0 -0.38525839328E+01 -0.48702279811E+02 -0.70365859372E+02  0.15160905348E+03  0.12508875437E+03 0.  0.
         23    2    1    2    0    0  0.38525839328E+01  0.48702279811E+02 -0.95706585319E+02  0.14107871126E+03  0.91414975984E+02 0.  0.
          5    1    3    3  502    0 -0.44786768737E+01  0.15153835702E+02  0.29075438647E+02  0.33354921909E+02  0.41800000000E+01 0. -1.
         -5    1    3    3    0  502  0.62609294090E+00 -0.63856115514E+02 -0.99441298019E+02  0.11825413157E+03  0.41800000000E+01 0. -1.
        -11    1    4    4    0    0 -0.29997300394E+02  0.56569741643E+02 -0.40243485823E+02  0.75627454351E+02  0.00000000000E+00 0.  1.
         11    1    4    4    0    0  0.33849884326E+02 -0.78674618319E+01 -0.55463099496E+02  0.65451256904E+02  0.00000000000E+00 0. -1.
</event>
<event>
 8    1  0.6860461E-009  0.1443790E+03  0.7561462E-02  0.1207555E+00
         -1   -1    0    0    0  501 -0.00000000000E+00  0.00000000000E+00  0.19208086433E+03  0.19208086433E+03  0.00000000000E+00 0.  1.
          1   -1    0    0  501    0  0.00000000000E+00 -0.00000000000E+00 -0.17418425264E+03  0.17418425264E+03  0.00000000000E+00 0. -1.
         25    2    1    2    0    0 -0.54600137044E+02 -0.11520557637E+03 -0.63590956259E+02  0.18959401737E+03  0.12509429209E+03 0.  0.
         23    2    1    2    0    0  0.54600137044E+02  0.11520557637E+03  0.81487567953E+02  0.17667109960E+03  0.91208299579E+02 0.  0.
          5    1    3    3  502    0  0.11359066894E+02  0.46482134089E+01  0.23872318946E+02  0.27166050513E+02  0.41800000000E+01 0.  1.
         -5    1    3    3    0  502 -0.65959203938E+02 -0.11985378978E+03 -0.87463275205E+02  0.16242796686E+03  0.41800000000E+01 0.  1.
        -11    1    4    4    0    0  0.28013514172E+02  0.10772077370E+03  0.94620669332E+02  0.14608762141E+03  0.00000000000E+00 0.  1.
         11    1    4    4    0    0  0.26586622871E+02  0.74848026652E+01 -0.13133101379E+02  0.30583478195E+02  0.00000000000E+00 0. -1.
</event>
<event>
 8    1  0.6860461E-009  0.8680896E+02  0.7561462E-02  0.1310769E+00
          4   -1    0    0  501    0  0.00000000000E+00  0.00000000000E+00  0.12063692616E+03  0.12063692616E+03  0.00000000000E+00 0. -1.
         -4   -1    0    0    0  501 -0.00000000000E+00 -0.00000000000E+00 -0.98878481833E+02  0.98878481833E+02  0.00000000000E+00 0.  1.
         25    2    1    2    0    0 -0.24354327590E+01  0.16128007286E+02  0.21342910915E+02  0.12793956514E+03  0.12508784326E+03 0.  0.
         23    2    1    2    0    0  0.24354327590E+01 -0.16128007286E+02  0.41553340971E+00  0.91575842848E+02  0.90110589686E+02 0.  0.
          5    1    3    3  502    0  0.35957276200E+02 -0.35974934086E+02  0.34711399042E+02  0.61720946345E+02  0.41800000000E+01 0. -1.
         -5    1    3    3    0  502 -0.38392708959E+02  0.52102941371E+02 -0.13368488127E+02  0.66218618798E+02  0.41800000000E+01 0. -1.
        -11    1    4    4    0    0  0.28259281460E+02 -0.14725203737E+02 -0.35251499273E+02  0.47519330958E+02  0.00000000000E+00 0.  1.
         11    1    4    4    0    0 -0.25823848701E+02 -0.14028035486E+01  0.35667032683E+02  0.44056511890E+02  0.00000000000E+00 0. -1.
</event>
<event>
 8    1  0.6860461E-009  0.1206996E+03  0.7561462E-02  0.1241947E+00
          2   -1    0    0  501    0  0.00000000000E+00  0.00000000000E+00  0.33117550491E+03  0.33117550491E+03  0.00000000000E+00 0.  1.
         -2   -1    0    0    0  501 -0.00000000000E+00 -0.00000000000E+00 -0.54513442161E+02  0.54513442161E+02  0.00000000000E+00 0. -1.
         25    2    1    2    0    0  0.18531745146E+02  0.57065144946E+02  0.23382245189E+03  0.27188498613E+03  0.12509456555E+03 0.  0.
         23    2    1    2    0    0 -0.18531745146E+02 -0.57065144946E+02  0.42839610863E+02  0.11380396094E+03  0.86696325883E+02 0.  0.
          5    1    3    3  502    0 -0.32191671709E+02  0.76012651622E+02  0.11926118885E+03  0.14510317191E+03  0.41800000000E+01 0.  1.
         -5    1    3    3    0  502  0.50723416855E+02 -0.18947506676E+02  0.11456126304E+03  0.12678181422E+03  0.41800000000E+01 0.  1.
        -11    1    4    4    0    0 -0.74541029213E+01  0.22707162456E+02  0.16602618555E+02  0.29100271821E+02  0.00000000000E+00 0. -1.
         11    1    4    4    0    0 -0.11077642225E+02 -0.79772307402E+02  0.26236992309E+02  0.84703689122E+02  0.00000000000E+00 0.  1.
</event>
<event>
 8    1  0.6860461E-009  0.1081616E+03  0.7561462E-02  0.1264013E+00
          2   -1    0    0  501    0  0.00000000000E+00  0.00000000000E+00  0.23942665031E+03  0.23942665031E+03  0.00000000000E+00 0.  1.
         -2   -1    0    0    0  501 -0.00000000000E+00 -0.00000000000E+00 -0.55672726412E+02  0.55672726412E+02  0.00000000000E+00 0. -1.
         25    2    1    2    0    0  0.35617426746E+02  0.14155216417E+02  0.97609931225E+02  0.16323159706E+03  0.12509150396E+03 0.  0.
         23    2    1    2    0    0 -0.35617426746E+02 -0.14155216417E+02  0.86143992668E+02  0.13186777966E+03  0.92191933487E+02 0.  0.
          5    1    3    3  502    0  0.17755791578E+01  0.61949303885E+02  0.18686766603E+02  0.64865526895E+02  0.41800000000E+01 0. -1.
         -5    1    3    3    0  502  0.33841847588E+02 -0.47794087468E+02  0.78923164622E+02  0.98366070162E+02  0.41800000000E+01 0. -1.
        -11    1    4    4    0    0 -0.25124839591E+00 -0.47137021588E+02  0.61806046960E+02  0.77729977298E+02  0.00000000000E+00 0.  1.
         11    1    4    4    0    0 -0.35366178350E+02  0.32981805170E+02  0.24337945708E+02  0.54137802363E+02  0.00000000000E+00 0. -1.
</event>
<event>
 8    1  0.6860461E-009  0.1267863E+03  0.7561462E-02  0.1232304E+00
         -2   -1    0    0    0  501 -0.00000000000E+00  0.00000000000E+00  0.29362596587E+02  0.29362596587E+02  0.00000000000E+00 0.  1.
          2   -1    0    0  501    0  0.00000000000E+00 -0.00000000000E+00 -0.76255843838E+03  0.76255843838E+03  0.00000000000E+00 0. -1.
         25    2    1    2    0    0  0.85762411993E+01 -0.79192588032E+02 -0.56664897641E+03  0.58573391628E+03  0.12509252699E+03 0.  0.
         23    2    1    2    0    0 -0.85762411993E+01  0.79192588032E+02 -0.16654686538E+03  0.20618711868E+03  0.91816401743E+02 0.  0.
          5    1    3    3  502    0 -0.21160999766E+02 -0.95469959058E+02 -0.51212624138E+03  0.52139530158E+03  0.41800000000E+01 0. -1.
         -5    1    3    3    0  502  0.29737240965E+02  0.16277371026E+02 -0.54522735024E+02  0.64338614706E+02  0.41800000000E+01 0. -1.
        -11    1    4    4    0    0 -0.48632193136E+02  0.59672307329E+02 -0.10393694141E+03  0.12933971648E+03  0.00000000000E+00 0.  1.
         11    1    4    4    0    0  0.40055951936E+02  0.19520280703E+02 -0.62609923977E+02  0.76847402199E+02  0.00000000000E+00 0. -1.
</event>
<event>
 8    1  0.6860461E-009  0.1105850E+03  0.7561462E-02  0.1259490E+00
          2   -1    0    0  501    0  0.00000000000E+00  0.00000000000E+00  0.56189662241E+03  0.56189662241E+03  0.00000000000E+00 0. -1.
         -2   -1    0    0    0  501 -0.00000000000E+00 -0.00000000000E+00 -0.22878951599E+02  0.22878951599E+02  0.00000000000E+00 0.  1.
         25    2    1    2    0    0 -0.16165683264E+02  0.29304226291E+02  0.29894001435E+03  0.32578053172E+03  0.12509098958E+03 0.  0.
         23    2    1    2    0    0  0.16165683264E+02 -0.29304226291E+02  0.24007765646E+03  0.25899504228E+03  0.91219974806E+02 0.  0.
          5    1    3    3  502    0 -0.61033374154E+02 -0.13622051158E+02  0.10701773409E+03  0.12401975991E+03  0.41800000000E+01 0.  1.
         -5    1    3    3    0  502  0.44867690890E+02  0.42926277449E+02  0.19192228026E+03  0.20176077181E+03  0.41800000000E+01 0.  1.
        -11    1    4    4    0    0  0.13278577783E+02 -0.62015706004E+02  0.14072633372E+03  0.15435727849E+03  0.00000000000E+00 0.  1.
         11    1    4    4    0    0  0.28871054805E+01  0.32711479713E+02  0.99351322734E+02  0.10463776380E+03  0.00000000000E+00 0. -1.
</event>
<event>
 8    1  0.6860461E-009  0.9530326E+02  0.7561462E-02  0.1290495E+00
         -3   -1    0    0    0  501 -0.00000000000E+00  0.00000000000E+00  0.13766933869E+03  0.13766933869E+03  0.00000000000E+00 0.  1.
          3   -1    0    0  501    0  0.00000000000E+00 -0.00000000000E+00 -0.88532176763E+02  0.88532176763E+02  0.00000000000E+00 0. -1.
         25    2    1    2    0    0  0.21176131350E+01 -0.19857565871E+02  0.27457572169E+02  0.12960430276E+03  0.12507817482E+03 0.  0.
         23    2    1    2    0    0 -0.21176131350E+01  0.19857565871E+02  0.21679589758E+02  0.96597212693E+02  0.91990269487E+02 0.  0.
          5    1    3    3  502    0 -0.24882414632E+02  0.31080738704E+02  0.52991133094E+02  0.66412946501E+02  0.41800000000E+01 0. -1.
         -5    1    3    3    0  502  0.27000027767E+02 -0.50938304575E+02 -0.25533560925E+02  0.63191356260E+02  0.41800000000E+01 0. -1.
        -11    1    4    4    0    0 -0.43141647598E+02  0.27332707037E+02  0.20049522607E+02  0.54865854484E+02  0.00000000000E+00 0. -1.
         11    1    4    4    0    0  0.41024034463E+02 -0.74751411669E+01  0.16300671509E+01  0.41731358209E+02  0.00000000000E+00 0.  1.
</event>
<event>
 8    1  0.6860461E-009  0.1195400E+03  0.7561462E-02  0.1243858E+00
          3   -1    0    0  501    0  0.00000000000E+00  0.00000000000E+00  0.10792919101E+03  0.10792919101E+03  0.00000000000E+00 0. -1.
         -3   -1    0    0    0  501 -0.00000000000E+00 -0.00000000000E+00 -0.22794742836E+03  0.22794742836E+03  0.00000000000E+00 0.  1.
         25    2    1    2    0    0 -0.44946038943E+02  0.60337551873E+02 -0.15470703558E+03  0.21270257330E+03  0.12508937305E+03 0.  0.
         23    2    1    2    0    0  0.44946038943E+02 -0.60337551873E+02  0.34688798234E+02  0.12317404606E+03  0.91146949034E+02 0.  0.
          5    1    3    3  502    0  0.35104091561E+02  0.23188017287E+02 -0.10465882564E+02  0.43554431323E+02  0.41800000000E+01 0. -1.
         -5    1    3    3    0  502 -0.80050130504E+02  0.37149534587E+02 -0.14424115301E+03  0.16914814198E+03  0.41800000000E+01 0. -1.
        -11    1    4    4    0    0  0.58662760490E+01  0.19068675050E+02  0.28052959462E+02  0.34423772272E+02  0.00000000000E+00 0. -1.
         11    1    4    4    0    0  0.39079762894E+02 -0.79406226923E+02  0.66358387714E+01  0.88750273792E+02  0.00000000000E+00 0.  1.
</event>
<event>
 8    1  0.6860461E-009  0.2130608E+03  0.7561462E-02  0.1139165E+00
         -2   -1    0    0    0  501 -0.00000000000E+00  0.00000000000E+00  0.68470119892E+02  0.68470119892E+02  0.00000000000E+00 0.  1.
          2   -1    0    0  501    0  0.00000000000E+00 -0.00000000000E+00 -0.74190682161E+03  0.74190682161E+03  0.00000000000E+00 0. -1.
         25    2    1    2    0    0 -0.18148328936E+03 -0.76686676004E+02 -0.33843066012E+03  0.41109719062E+03  0.12509419583E+03 0.  0.
         23    2    1    2    0    0  0.18148328936E+03  0.76686676004E+02 -0.33500604160E+03  0.39927975088E+03  0.91532731644E+02 0.  0.
          5    1    3    3  502    0 -0.10059216301E+03 -0.78938698804E+02 -0.28932477983E+03  0.31634854520E+03  0.41800000000E+01 0.  1.
         -5    1    3    3    0  502 -0.80891126353E+02  0.22520227994E+01 -0.49105880293E+02  0.94748645419E+02  0.41800000000E+01 0.  1.
        -11    1    4    4    0    0  0.17985917001E+03  0.44968354596E+02 -0.28186359053E+03  0.33737006035E+03  0.00000000000E+00 0. -1.
         11    1    4    4    0    0  0.16241193535E+01  0.31718321408E+02 -0.53142451069E+02  0.61909690536E+02  0.00000000000E+00 0.  1.
</event>
<event>
 8    1  0.6860461E-009  0.2225927E+03  0.7561462E-02  0.1131965E+00
          1   -1    0    0  501    0  0.00000000000E+00  0.00000000000E+00  0.61978864763E+03  0.61978864763E+03  0.00000000000E+00 0.  1.
         -1   -1    0    0    0  501 -0.00000000000E+00 -0.00000000000E+00 -0.86390310990E+02  0.86390310990E+02  0.00000000000E+00 0. -1.
         25    2    1    2    0    0  0.20342737568E+03  0.87771719958E+01  0.28457933995E+03  0.37160793406E+03  0.12508924816E+03 0.  0.
         23    2    1    2    0    0 -0.20342737568E+03 -0.87771719958E+01  0.24881899668E+03  0.33457102456E+03  0.92558853926E+02 0.  0.
          5    1    3    3  502    0  0.84338210597E+02  0.55905413434E+02  0.75240646951E+02  0.12616249986E+03  0.41800000000E+01 0.  1.
         -5    1    3    3    0  502  0.11908916508E+03 -0.47128241438E+02  0.20933869300E+03  0.24544543420E+03  0.41800000000E+01 0.  1.
        -11    1    4    4    0    0 -0.72868543933E+02  0.31144008574E+02  0.13626030770E+03  0.15762818727E+03  0.00000000000E+00 0.  1.
         11    1    4    4    0    0 -0.13055883174E+03 -0.39921180570E+02  0.11255868898E+03  0.17694283729E+03  0.00000000000E+00 0. -1.
</event>
<event>
 8    1  0.6860461E-009  0.1741895E+03  0.7561462E-02  0.1173548E+00
         -2   -1    0    0    0  501 -0.00000000000E+00  0.00000000000E+00  0.11114428244E+03  0.11114428244E+03  0.00000000000E+00 0.  1.
          2   -1    0    0  501    0  0.00000000000E+00 -0.00000000000E+00 -0.31736791580E+03  0.31736791580E+03  0.00000000000E+00 0. -1.
         25    2    1    2    0    0  0.42233687761E+02  0.14695411348E+03 -0.11011294874E+03  0.22616739487E+03  0.12509049993E+03 0.  0.
         23    2    1    2    0    0 -0.42233687761E+02 -0.14695411348E+03 -0.96110684620E+02  0.20234480337E+03  0.91252177520E+02 0.  0.
          5    1    3    3  502    0  0.55507644580E+02  0.51315951103E+02 -0.10491874852E+03  0.12938253992E+03  0.41800000000E+01 0.  1.
         -5    1    3    3    0  502 -0.13273956819E+02  0.95638162379E+02 -0.51942002160E+01  0.96784854956E+02  0.41800000000E+01 0.  1.
        -11    1    4    4    0    0 -0.87357661352E+01 -0.14187484822E+03 -0.89056450916E+02  0.16773740674E+03  0.00000000000E+00 0.  1.
         11    1    4    4    0    0 -0.33497921626E+02 -0.50792652582E+01 -0.70542337044E+01  0.34607396636E+02  0.00000000000E+00 0. -1.
</event>
<event>
 8    1  0.6860461E-009  0.1130650E+03  0.7561462E-02  0.1254997E+00
          2   -1    0    0  501    0  0.00000000000E+00  0.00000000000E+00  0.57406616077E+02  0.57406616077E+02  0.00000000000E+00 0. -1.
         -2   -1    0    0    0  501 -0.00000000000E+00 -0.00000000000E+00 -0.23900476916E+03  0.23900476916E+03  0.00000000000E+00 0.  1.
         25    2    1    2    0    0  0.51972384004E+01  0.37524845240E+02 -0.12981246033E+03  0.18421246937E+03  0.12509130152E+03 0.  0.
         23    2    1    2    0    0 -0.51972384004E+01 -0.37524845240E+02 -0.51785692758E+02  0.11219891587E+03  0.92041911386E+02 0.  0.
          5    1    3    3  502    0  0.58364677674E+02 -0.98198908732E+01 -0.61612862154E+02  0.85536442757E+02  0.41800000000E+01 0.  1.
         -5    1    3    3    0  502 -0.53167439273E+02  0.47344736114E+02 -0.68199598176E+02  0.98676026612E+02  0.41800000000E+01 0.  1.
        -11    1    4    4    0    0  0.40550965732E+02 -0.26445375155E+02 -0.10388701540E+02  0.49514278835E+02  0.00000000000E+00 0. -1.
         11    1    4    4    0    0 -0.45748204132E+02 -0.11079470085E+02 -0.41396991219E+02  0.62684637039E+02  0.00000000000E+00 0.  1.
</event>
<event>
 8    1  0.6860461E-009  0.9982563E+02  0.7561462E-02  0.1280663E+00
         -1   -1    0    0    0  501 -0.00000000000E+00  0.00000000000E+00  0.28154890877E+02  0.28154890877E+02  0.00000000000E+00 0.  1.
          1   -1    0    0  501    0  0.00000000000E+00 -0.00000000000E+00 -0.52016682388E+03  0.52016682388E+03  0.00000000000E+00 0. -1.
         25    2    1    2    0    0  0.29482865925E+02 -0.46521429148E+02 -0.26515248442E+03  0.29830654849E+03  0.12508986418E+03 0.  0.
         23    2    1    2    0    0 -0.29482865925E+02  0.46521429148E+02 -0.22685944858E+03  0.25001516627E+03  0.89492408628E+02 0.  0.
          5    1    3    3  502    0 -0.10320267037E+02 -0.56290992864E+02 -0.41310657599E+02  0.70705209289E+02  0.41800000000E+01 0. -1.
         -5    1    3    3    0  502  0.39803132962E+02  0.97695637160E+01 -0.22384182682E+03  0.22760133920E+03  0.41800000000E+01 0. -1.
        -11    1    4    4    0    0 -0.27795445561E+02  0.71149757393E+02 -0.13732816206E+03  0.15714292496E+03  0.00000000000E+00 0.  1.
         11    1    4    4    0    0 -0.16874203640E+01 -0.24628328245E+02 -0.89531286521E+02  0.92872241309E+02  0.00000000000E+00 0. -1.
</event>
<event>
 8    1  0.6860461E-009  0.1235962E+03  0.7561462E-02  0.1237280E+00
         -2   -1    0    0    0  501 -0.00000000000E+00  0.00000000000E+00  0.41030482042E+02  0.41030482042E+02  0.00000000000E+00 0. -1.
          2   -1    0    0  501    0  0.00000000000E+00 -0.00000000000E+00 -0.44368398462E+03  0.44368398462E+03  0.00000000000E+00 0.  1.
         25    2    1    2    0    0  0.12854297942E+02 -0.78477203354E+02 -0.19687024057E+03  0.24643989226E+03  0.12510325517E+03 0.  0.
         23    2    1    2    0    0 -0.12854297942E+02  0.78477203354E+02 -0.20578326201E+03  0.23827457440E+03  0.90022871878E+02 0.  0.
          5    1    3    3  502    0  0.51106532014E+02 -0.73384289927E+02 -0.18553285491E+03  0.20600253463E+03  0.41800000000E+01 0.  1.
         -5    1    3    3    0  502 -0.38252234072E+02 -0.50929134268E+01 -0.11337385657E+02  0.40437357631E+02  0.41800000000E+01 0.  1.
        -11    1    4    4    0    0 -0.21744865172E+02  0.96412752372E+02 -0.15668654866E+03  0.18525369770E+03  0.00000000000E+00 0. -1.
         11    1    4    4    0    0  0.88905672295E+01 -0.17935549018E+02 -0.49096713356E+02  0.53020876705E+02  0.00000000000E+00 0.  1.
</event>
<event>
 8    1  0.6860461E-009  0.1108962E+03  0.7561462E-02  0.1258919E+00
         -1   -1    0    0    0  501 -0.00000000000E+00  0.00000000000E+00  0.27086713063E+02  0.27086713063E+02  0.00000000000E+00 0.  1.
          1   -1    0    0  501    0  0.00000000000E+00 -0.00000000000E+00 -0.84815176679E+03  0.84815176679E+03  0.00000000000E+00 0. -1.
         25    2    1    2    0    0  0.58905052978E+02 -0.50524487862E+02 -0.64436540696E+03  0.66096625236E+03  0.12508828854E+03 0.  0.
         23    2    1    2    0    0 -0.58905052978E+02  0.50524487862E+02 -0.17669964676E+03  0.21427222749E+03  0.93098298415E+02 0.  0.
          5    1    3    3  502    0  0.83838054782E+02  0.36728531217E+01 -0.44342403050E+03  0.45131436106E+03  0.41800000000E+01 0. -1.
         -5    1    3    3    0  502 -0.24933001804E+02 -0.54197340983E+02 -0.20094137646E+03  0.20965189129E+03  0.41800000000E+01 0. -1.
        -11    1    4    4    0    0 -0.16317326917E+02  0.97615259408E+01  0.78234260470E+01  0.20560849728E+02  0.00000000000E+00 0.  1.
         11    1    4    4    0    0 -0.42587726061E+02  0.40762961921E+02 -0.18452307281E+03  0.19371137776E+03  0.00000000000E+00 0. -1.
</event>
<event>
 8    1  0.6860461E-009  0.8909689E+02  0.7561462E-02  0.1305054E+00
          1   -1    0    0  501    0  0.00000000000E+00  0.00000000000E+00  0.22234965794E+03  0.22234965794E+03  0.00000000000E+00 0. -1.
         -1   -1    0    0    0  501 -0.00000000000E+00 -0.00000000000E+00 -0.87226399647E+02  0.87226399647E+02  0.00000000000E+00 0.  1.
         25    2    1    2    0    0 -0.65985343214E+02 -0.10640011430E+02  0.13019744343E+03  0.19252583011E+03  0.12509014997E+03 0.  0.
         23    2    1    2    0    0  0.65985343214E+02  0.10640011430E+02  0.49258148653E+01  0.11705022748E+03  0.95964664013E+02 0.  0.
          5    1    3    3  502    0 -0.13287606517E+02  0.24229419222E+02 -0.16701358889E+02  0.32558148466E+02  0.41800000000E+01 0. -1.
         -5    1    3    3    0  502 -0.52697736697E+02 -0.34869430652E+02  0.14689880232E+03  0.15996768164E+03  0.41800000000E+01 0. -1.
        -11    1    4    4    0    0  0.11150926897E+02 -0.20879111897E+02  0.38688559461E+02  0.45355100236E+02  0.00000000000E+00 0. -1.
         11    1    4    4    0    0  0.54834416316E+02  0.31519123327E+02 -0.33762744596E+02  0.71695127245E+02  0.00000000000E+00 0.  1.
</event>
<event>
 8    1  0.6860461E-009  0.1796289E+03  0.7561462E-02  0.1168163E+00
         -1   -1    0    0    0  501 -0.00000000000E+00  0.00000000000E+00  0.43349286843E+02  0.43349286843E+02  0.00000000000E+00 0.  1.
          1   -1    0    0  501    0  0.00000000000E+00 -0.00000000000E+00 -0.80020525901E+03  0.80020525901E+03  0.00000000000E+00 0. -1.
         25    2    1    2    0    0  0.17291033738E+02  0.15038835358E+03 -0.42939401090E+03  0.47216747766E+03  0.12508906278E+03 0.  0.
         23    2    1    2    0    0 -0.17291033738E+02 -0.15038835358E+03 -0.32746196127E+03  0.37138706819E+03  0.88212139754E+02 0.  0.
          5    1    3    3  502    0 -0.42543896535E+02  0.88342892387E+02 -0.30775842152E+03  0.32302812290E+03  0.41800000000E+01 0.  1.
         -5    1    3    3    0  502  0.59834930273E+02  0.62045461196E+02 -0.12163558937E+03  0.14913935476E+03  0.41800000000E+01 0.  1.
        -11    1    4    4    0    0 -0.12439745565E+02  0.90008099597E+01 -0.22332900794E+02  0.27102035118E+02  0.00000000000E+00 0.  1.
         11    1    4    4    0    0 -0.48512881735E+01 -0.15938916354E+03 -0.30512906048E+03  0.34428503307E+03  0.00000000000E+00 0. -1.
</event>
<event>
 8    1  0.6860461E-009  0.1883154E+03  0.7561462E-02  0.1159990E+00
         -1   -1    0    0    0  501 -0.00000000000E+00  0.00000000000E+00  0.52086872546E+02  0.52086872546E+02  0.00000000000E+00 0.  1.
          1   -1    0    0  501    0  0.00000000000E+00 -0.00000000000E+00 -0.94736441442E+03  0.94736441442E+03  0.00000000000E+00 0. -1.
         25    2    1    2    0    0  0.98681347122E+02  0.13230734216E+03 -0.23717816926E+03  0.31487267902E+03  0.12509228177E+03 0.  0.
         23    2    1    2    0    0 -0.98681347122E+02 -0.13230734216E+03 -0.65809937262E+03  0.68457860795E+03  0.91158352149E+02 0.  0.
          5    1    3    3  502    0  0.11878873247E+03  0.10472265265E+03 -0.13866884192E+03  0.21053293581E+03  0.41800000000E+01 0.  1.
         -5    1    3    3    0  502 -0.20107385345E+02  0.27584689518E+02 -0.98509327337E+02  0.10433974321E+03  0.41800000000E+01 0.  1.
        -11    1    4    4    0    0 -0.71509742012E+02 -0.13857775600E+03 -0.60283088368E+03  0.62267368018E+03  0.00000000000E+00 0. -1.
         11    1    4    4    0    0 -0.27171605110E+02  0.62704138380E+01 -0.55268488931E+02  0.61904927773E+02  0.00000000000E+00 0.  1.
</event>
<event>
 8    1  0.6860461E-009  0.2204838E+03  0.7561462E-02  0.1133523E+00
         -2   -1    0    0    0  501 -0.00000000000E+00  0.00000000000E+00  0.28078746873E+02  0.28078746873E+02  0.00000000000E+00 0.  1.
          2   -1    0    0  501    0  0.00000000000E+00 -0.00000000000E+00 -0.19173852761E+04  0.19173852761E+04  0.00000000000E+00 0. -1.
         25    2    1    2    0    0  0.11186331663E+03 -0.17171710795E+03 -0.97640399625E+03  0.10054909412E+04  0.12508837725E+03 0.  0.
         23    2    1    2    0    0 -0.11186331663E+03  0.17171710795E+03 -0.91290253295E+03  0.93997308177E+03  0.90322715942E+02 0.  0.
          5    1    3    3  502    0  0.97850272833E+02 -0.17631205641E+03 -0.96631921436E+03  0.98714280303E+03  0.41800000000E+01 0. -1.
         -5    1    3    3    0  502  0.14013043793E+02  0.45949484575E+01 -0.10084781889E+02  0.18348138146E+02  0.41800000000E+01 0. -1.
        -11    1    4    4    0    0 -0.13030223133E+02  0.10241833286E+03 -0.41660717531E+03  0.42920955272E+03  0.00000000000E+00 0. -1.
         11    1    4    4    0    0 -0.98833093494E+02  0.69298775091E+02 -0.49629535764E+03  0.51076352906E+03  0.00000000000E+00 0.  1.
</event>
<event>
 8    1  0.6860461E-009  0.1068161E+03  0.7561462E-02  0.1266582E+00
          1   -1    0    0  501    0  0.00000000000E+00  0.00000000000E+00  0.31090860892E+03  0.31090860892E+03  0.00000000000E+00 0. -1.
         -1   -1    0    0    0  501 -0.00000000000E+00 -0.00000000000E+00 -0.39765320538E+02  0.39765320538E+02  0.00000000000E+00 0.  1.
         25    2    1    2    0    0  0.12125528494E+02 -0.93193067092E+01  0.14096089116E+03  0.18908238135E+03  0.12509315002E+03 0.  0.
         23    2    1    2    0    0 -0.12125528494E+02  0.93193067092E+01  0.13018239722E+03  0.16159154811E+03  0.94501290758E+02 0.  0.
          5    1    3    3  502    0 -0.16489466278E+02  0.53733920366E+02  0.56808149247E+02  0.80024214566E+02  0.41800000000E+01 0.  1.
         -5    1    3    3    0  502  0.28614994772E+02 -0.63053227075E+02  0.84152741914E+02  0.10905816678E+03  0.41800000000E+01 0.  1.
        -11    1    4    4    0    0  0.16169093452E+02  0.41803867179E+02  0.34182413171E+02  0.56368788034E+02  0.00000000000E+00 0. -1.
         11    1    4    4    0    0 -0.28294621946E+02 -0.32484560470E+02  0.95999984049E+02  0.10522276007E+03  0.00000000000E+00 0.  1.
</event>
<event>
 8    1  0.6860461E-009  0.1365520E+03  0.7561462E-02  0.1218045E+00
          1   -1    0    0  501    0  0.00000000000E+00  0.00000000000E+00  0.16738885375E+04  0.16738885375E+04  0.00000000000E+00 0. -1.
         -1   -1    0    0    0  501 -0.00000000000E+00 -0.00000000000E+00 -0.16078912354E+02  0.16078912354E+02  0.00000000000E+00 0.  1.
         25    2    1    2    0    0  0.26175602287E+02 -0.11958963218E+03  0.95118104141E+03  0.96715068928E+03  0.12509292529E+03 0.  0.
         23    2    1    2    0    0 -0.26175602287E+02  0.11958963218E+03  0.70662858376E+03  0.72281676059E+03  0.90295469075E+02 0.  0.
          5    1    3    3  502    0  0.20307736469E+02 -0.10829773773E+03  0.94659116096E+03  0.95299165923E+03  0.41800000000E+01 0.  1.
         -5    1    3    3    0  502  0.58678658179E+01 -0.11291894447E+02  0.45898804561E+01  0.14159030054E+02  0.41800000000E+01 0.  1.
        -11    1    4    4    0    0 -0.15882930752E+02 -0.10441070409E+02  0.53127749055E+02  0.56425536419E+02  0.00000000000E+00 0.  1.
         11    1    4    4    0    0 -0.10292671535E+02  0.13003070259E+03  0.65350083470E+03  0.66639122418E+03  0.00000000000E+00 0. -1.
</event>
<event>
 8    1  0.6860461E-009  0.1052035E+03  0.7561462E-02  0.1269719E+00
         -1   -1    0    0    0  501 -0.00000000000E+00  0.00000000000E+00  0.32719684059E+02  0.32719684059E+02  0.00000000000E+00 0.  1.
          1   -1    0    0  501    0  0.00000000000E+00 -0.00000000000E+00 -0.41833908517E+03  0.41833908517E+03  0.00000000000E+00 0. -1.
         25    2    1    2    0    0 -0.17624307886E+02 -0.22982358652E+02 -0.27405419385E+03  0.30264073970E+03  0.12508761377E+03 0.  0.
         23    2    1    2    0    0  0.17624307886E+02  0.22982358652E+02 -0.11156520726E+03  0.14841802953E+03  0.93500326103E+02 0.  0.
          5    1    3    3  502    0 -0.65188456654E+02 -0.16910461580E+02 -0.90530596966E+02  0.11291040687E+03  0.41800000000E+01 0. -1.
         -5    1    3    3    0  502  0.47564148768E+02 -0.60718970718E+01 -0.18352359689E+03  0.18973033283E+03  0.41800000000E+01 0. -1.
        -11    1    4    4    0    0 -0.64066559831E+01  0.54662172995E+02 -0.45958329601E+02  0.71701927848E+02  0.00000000000E+00 0.  1.
         11    1    4    4    0    0  0.24030963869E+02 -0.31679814344E+02 -0.65606877656E+02  0.76716101681E+02  0.00000000000E+00 0. -1.
</event>
<event>
 8    1  0.6860461E-009  0.1830334E+03  0.7561462E-02  0.1164899E+00
         -3   -1    0    0    0  501 -0.00000000000E+00  0.00000000000E+00  0.14533415266E+03  0.14533415266E+03  0.00000000000E+00 0.  1.
          3   -1    0    0  501    0  0.00000000000E+00 -0.00000000000E+00 -0.31744707482E+03  0.31744707482E+03  0.00000000000E+00 0. -1.
         25    2    1    2    0    0  0.54117399321E+02 -0.15728193033E+03 -0.19501412898E+01  0.20812742341E+03  0.12508766049E+03 0.  0.
         23    2    1    2    0    0 -0.54117399321E+02  0.15728193033E+03 -0.17016278087E+03  0.25465380408E+03  0.90702201852E+02 0.  0.
          5    1    3    3  502    0  0.91267894282E+00 -0.12472505087E+03 -0.44511961444E+02  0.13249889965E+03  0.41800000000E+01 0.  1.
         -5    1    3    3    0  502  0.53204720378E+02 -0.32556879457E+02  0.42561820154E+02  0.75628523755E+02  0.41800000000E+01 0.  1.
        -11    1    4    4    0    0  0.14680066823E+02  0.42135963909E+02 -0.84335446362E+02  0.95411798692E+02  0.00000000000E+00 0. -1.
         11    1    4    4    0    0 -0.68797466144E+02  0.11514596642E+03 -0.85827334504E+02  0.15924200538E+03  0.00000000000E+00 0.  1.
</event>
<event>
 8    1  0.6860461E-009  0.1678888E+03  0.7561462E-02  0.1180068E+00
         -3   -1    0    0    0  501 -0.00000000000E+00  0.00000000000E+00  0.65497557575E+02  0.65497557575E+02  0.00000000000E+00 0.  1.
          3   -1    0    0  501    0  0.00000000000E+00 -0.00000000000E+00 -0.49021168468E+03  0.49021168468E+03  0.00000000000E+00 0. -1.
         25    2    1    2    0    0  0.10097791409E+03 -0.97821393881E+02 -0.18936281526E+03  0.26696677101E+03  0.12508963501E+03 0.  0.
         23    2    1    2    0    0 -0.10097791409E+03  0.97821393881E+02 -0.23535131185E+03  0.28874247125E+03  0.90644417810E+02 0.  0.
          5    1    3    3  502    0  0.76980311684E+02 -0.19234775099E+01 -0.37591429820E+02  0.85791935219E+02  0.41800000000E+01 0. -1.
         -5    1    3    3    0  502  0.23997602404E+02 -0.95897916371E+02 -0.15177138544E+03  0.18117483579E+03  0.41800000000E+01 0. -1.
        -11    1    4    4    0    0 -0.31237985964E+02  0.82635243642E+02 -0.17176696737E+03  0.19315353049E+03  0.00000000000E+00 0.  1.
         11    1    4    4    0    0 -0.69739928124E+02  0.15186150238E+02 -0.63584344475E+02  0.95588940763E+02  0.00000000000E+00 0. -1.
</event>
<event>
 8    1  0.6860461E-009  0.5682505E+02  0.7561462E-02  0.1411660E+00
         -4   -1    0    0    0  501 -0.00000000000E+00  0.00000000000E+00  0.92993079817E+02  0.92993079817E+02  0.00000000000E+00 0.  1.
          4   -1    0    0  501    0  0.00000000000E+00 -0.00000000000E+00 -0.13642317450E+03  0.13642317450E+03  0.00000000000E+00 0. -1.
         25    2    1    2    0    0 -0.22751001322E+02  0.10141099863E+02 -0.42461642339E+01  0.12761452154E+03  0.12508791400E+03 0.  0.
         23    2    1    2    0    0  0.22751001322E+02 -0.10141099863E+02 -0.39183930453E+02  0.10180173278E+03  0.90596702062E+02 0.  0.
          5    1    3    3  502    0 -0.12264825431E+02  0.20824097448E+02  0.58256279545E+02  0.63208666208E+02  0.41800000000E+01 0.  1.
         -5    1    3    3    0  502 -0.10486175891E+02 -0.10682997585E+02 -0.62502443779E+02  0.64405855328E+02  0.41800000000E+01 0.  1.
        -11    1    4    4    0    0  0.11684618986E+02 -0.40034904217E+02  0.10282603762E+02  0.42954112918E+02  0.00000000000E+00 0.  1.
         11    1    4    4    0    0  0.11066382336E+02  0.29893804353E+02 -0.49466534214E+02  0.58847619866E+02  0.00000000000E+00 0. -1.
</event>
<event>
 8    1  0.6860461E-009  0.9274098E+02  0.7561462E-02  0.1296347E+00
         -1   -1    0    0    0  501 -0.00000000000E+00  0.00000000000E+00  0.14670707403E+02  0.14670707403E+02  0.00000000000E+00 0.  1.
          1   -1    0    0  501    0  0.00000000000E+00 -0.00000000000E+00 -0.11193121687E+04  0.11193121687E+04  0.00000000000E+00 0. -1.
         25    2    1    2    0    0 -0.12572317308E+02 -0.41743497596E+02 -0.84204748203E+03  0.85240362997E+03  0.12508958246E+03 0.  0.
         23    2    1    2    0    0  0.12572317308E+02  0.41743497596E+02 -0.26259397928E+03  0.28157924614E+03  0.91818795200E+02 0.  0.
          5    1    3    3  502    0  0.49624783719E+02 -0.25134902627E+02 -0.21775455951E+03  0.22478634984E+03  0.41800000000E+01 0. -1.
         -5    1    3    3    0  502 -0.62197101027E+02 -0.16608594970E+02 -0.62429292252E+03  0.62761728013E+03  0.41800000000E+01 0. -1.
        -11    1    4    4    0    0 -0.16481423321E+02  0.29892412791E+01 -0.24070293925E+01  0.16922371837E+02  0.00000000000E+00 0.  1.
         11    1    4    4    0    0  0.29053740629E+02  0.38754256317E+02 -0.26018694988E+03  0.26465687431E+03  0.00000000000E+00 0. -1.
</event>
<event>
 8    1  0.6860461E-009  0.8606755E+02  0.7561462E-02  0.1312664E+00
         -1   -1    0    0    0  501 -0.00000000000E+00  0.00000000000E+00  0.26860135210E+03  0.26860135210E+03  0.00000000000E+00 0.  1.
          1   -1    0    0  501    0  0.00000000000E+00 -0.00000000000E+00 -0.54588643879E+02  0.54588643879E+02  0.00000000000E+00 0. -1.
         25    2    1    2    0    0 -0.17246393148E+02 -0.27960807963E+02  0.17412155392E+03  0.21689990333E+03  0.12509199681E+03 0.  0.
         23    2    1    2    0    0  0.17246393148E+02  0.27960807963E+02  0.39891154301E+02  0.10629009265E+03  0.92881832163E+02 0.  0.
          5    1    3    3  502    0 -0.42837839867E+02  0.14203995465E+02  0.11288281407E+02  0.46709011001E+02  0.41800000000E+01 0. -1.
         -5    1    3    3    0  502  0.25591446718E+02 -0.42164803428E+02  0.16283327252E+03  0.17019089233E+03  0.41800000000E+01 0. -1.
        -11    1    4    4    0    0 -0.16044417208E+02  0.39053008346E+02 -0.11777583225E+02  0.43832319709E+02  0.00000000000E+00 0. -1.
         11    1    4    4    0    0  0.33290810356E+02 -0.11092200383E+02  0.51668737527E+02  0.62457772944E+02  0.00000000000E+00 0.  1.
</event>
<event>
 8    1  0.6860461E-009  0.9586254E+02  0.7561462E-02  0.1289245E+00
         -4   -1    0    0    0  501 -0.00000000000E+00  0.00000000000E+00  0.58122511930E+02  0.58122511930E+02  0.00000000000E+00 0.  1.
          4   -1    0    0  501    0  0.00000000000E+00 -0.00000000000E+00 -0.34409570642E+03  0.34409570642E+03  0.00000000000E+00 0. -1.
         25    2    1    2    0    0 -0.35548941253E+02  0.89991305486E+01 -0.28314826091E+03  0.31171436688E+03  0.12509275472E+03 0.  0.
         23    2    1    2    0    0  0.35548941253E+02 -0.89991305486E+01 -0.28249335832E+01  0.90503851479E+02  0.82693744068E+02 0.  0.
          5    1    3    3  502    0 -0.19863258114E+02 -0.54103996527E+02 -0.18574974685E+03  0.19453080044E+03  0.41800000000E+01 0.  1.
         -5    1    3    3    0  502 -0.15685683139E+02  0.63103127075E+02 -0.97398514060E+02  0.11718356644E+03  0.41800000000E+01 0.  1.
        -11    1    4    4    0    0 -0.30347165943E+01  0.20179616315E+02  0.26871253264E+02  0.33741527402E+02  0.00000000000E+00 0.  1.
         11    1    4    4    0    0  0.38583657847E+02 -0.29178746863E+02 -0.29696186848E+02  0.56762324077E+02  0.00000000000E+00 0. -1.
</event>
<event>
 8    1  0.6860461E-009  0.1102588E+03  0.7561462E-02  0.1260091E+00
         -1   -1    0    0    0  501 -0.00000000000E+00  0.00000000000E+00  0.22984122279E+02  0.22984122279E+02  0.00000000000E+00 0.  1.
          1   -1    0    0  501    0  0.00000000000E+00 -0.00000000000E+00 -0.10507213833E+04  0.10507213833E+04  0.00000000000E+00 0. -1.
         25    2    1    2    0    0 -0.65829981506E+02  0.86812507001E+02 -0.53521446923E+03  0.56033202752E+03  0.12508978836E+03 0.  0.
         23    2    1    2    0    0  0.65829981506E+02 -0.86812507001E+02 -0.49252279177E+03  0.51337347804E+03  0.95412943073E+02 0.  0.
          5    1    3    3  502    0 -0.27512707656E+02  0.36056224604E+02 -0.45779037716E+03  0.46005054313E+03  0.41800000000E+01 0.  1.
         -5    1    3    3    0  502 -0.38317273849E+02  0.50756282397E+02 -0.77424092073E+02  0.10028148439E+03  0.41800000000E+01 0.  1.
        -11    1    4    4    0    0  0.49265593998E+02 -0.78565920940E+02 -0.48434587924E+03  0.49314362353E+03  0.00000000000E+00 0. -1.
         11    1    4    4    0    0  0.16564387508E+02 -0.82465860612E+01 -0.81769125264E+01  0.20229854514E+02  0.00000000000E+00 0.  1.
</event>
<event>
 8    1  0.6860461E-009  0.1133403E+03  0.7561462E-02  0.1254506E+00
         -4   -1    0    0    0  501 -0.00000000000E+00  0.00000000000E+00  0.13248132151E+03  0.13248132151E+03  0.00000000000E+00 0.  1.
          4   -1    0    0  501    0  0.00000000000E+00 -0.00000000000E+00 -0.10291591083E+03  0.10291591083E+03  0.00000000000E+00 0. -1.
         25    2    1    2    0    0  0.51215755692E+01 -0.34011815963E+02 -0.99804610843E+01  0.13011325100E+03  0.12508722685E+03 0.  0.
         23    2    1    2    0    0 -0.51215755692E+01  0.34011815963E+02  0.39545871765E+02  0.10528398133E+03  0.91311590666E+02 0.  0.
          5    1    3    3  502    0  0.64413606861E+02 -0.90219498847E+01 -0.28110228323E+01  0.65237125764E+02  0.41800000000E+01 0. -1.
         -5    1    3    3    0  502 -0.59292031292E+02 -0.24989866079E+02 -0.71694382519E+01  0.64876125240E+02  0.41800000000E+01 0. -1.
        -11    1    4    4    0    0 -0.16394998627E+02 -0.28837845666E+02  0.82946637120E+01  0.34193841093E+02  0.00000000000E+00 0.  1.
         11    1    4    4    0    0  0.11273423057E+02  0.62849661629E+02  0.31251208053E+02  0.71090140238E+02  0.00000000000E+00 0. -1.
</event>
<event>
 8    1  0.6860461E-009  0.2257523E+03  0.7561462E-02  0.1129666E+00
          2   -1    0    0  501    0  0.00000000000E+00  0.00000000000E+00  0.44776751394E+03  0.44776751394E+03  0.00000000000E+00 0. -1.
         -2   -1    0    0    0  501 -0.00000000000E+00 -0.00000000000E+00 -0.14711104565E+03  0.14711104565E+03  0.00000000000E+00 0.  1.
         25    2    1    2    0    0  0.66977151028E+02 -0.20119395602E+03  0.44770712017E+02  0.25022769892E+03  0.12507812740E+03 0.  0.
         23    2    1    2    0    0 -0.66977151028E+02  0.20119395602E+03  0.25588575628E+03  0.34465086067E+03  0.91333174678E+02 0.  0.
          5    1    3    3  502    0  0.36889734655E+02 -0.20524738612E+03  0.58530416638E+02  0.21663477123E+03  0.41800000000E+01 0. -1.
         -5    1    3    3    0  502  0.30087416372E+02  0.40534301029E+01 -0.13759704621E+02  0.33592927690E+02  0.41800000000E+01 0. -1.
        -11    1    4    4    0    0 -0.63147908947E+02  0.18029371511E+03  0.26037122585E+03  0.32293444747E+03  0.00000000000E+00 0. -1.
         11    1    4    4    0    0 -0.38292420803E+01  0.20900240916E+02 -0.44854695702E+01  0.21716413206E+02  0.00000000000E+00 0.  1.
</event>
<event>
 8    1  0.6860461E-009  0.1444241E+03  0.7561462E-02  0.1207497E+00
          2   -1    0    0  501    0  0.00000000000E+00  0.00000000000E+00  0.61479146862E+03  0.61479146862E+03  0.00000000000E+00 0. -1.
         -2   -1    0    0    0  501 -0.00000000000E+00 -0.00000000000E+00 -0.71236629345E+02  0.71236629345E+02  0.00000000000E+00 0.  1.
         25    2    1    2    0    0 -0.93224608288E+02 -0.10706601563E+03  0.10619732527E+03  0.21697803215E+03  0.12509050823E+03 0.  0.
         23    2    1    2    0    0  0.93224608288E+02  0.10706601563E+03  0.43735751401E+03  0.46905006581E+03  0.92587309518E+02 0.  0.
          5    1    3    3  502    0 -0.54563977299E+02 -0.70582337922E+02  0.13069652608E+03  0.15829765751E+03  0.41800000000E+01 0.  1.
         -5    1    3    3    0  502 -0.38660630989E+02 -0.36483677708E+02 -0.24499200812E+02  0.58680374641E+02  0.41800000000E+01 0.  1.
        -11    1    4    4    0    0  0.63174825950E+02  0.45973111763E+02  0.11146272391E+03  0.13611952270E+03  0.00000000000E+00 0.  1.
         11    1    4    4    0    0  0.30049782338E+02  0.61092903867E+02  0.32589479010E+03  0.33293054311E+03  0.00000000000E+00 0. -1.
</event>
<event>
 8    1  0.6860461E-009  0.1313212E+03  0.7561462E-02  0.1225508E+00
          2   -1    0    0  501    0  0.00000000000E+00  0.00000000000E+00  0.62182311181E+03  0.62182311181E+03  0.00000000000E+00 0. -1.
         -2   -1    0    0    0  501 -0.00000000000E+00 -0.00000000000E+00 -0.46276475915E+02  0.46276475915E+02  0.00000000000E+00 0.  1.
         25    2    1    2    0    0 -0.95446263206E+02  0.90162036611E+01  0.48799852219E+03  0.51281761939E+03  0.12509225398E+03 0.  0.
         23    2    1    2    0    0  0.95446263206E+02 -0.90162036611E+01  0.87548113708E+02  0.15528196834E+03  0.85185306182E+02 0.  0.
          5    1    3    3  502    0  0.29189316872E+02 -0.10046253833E+02  0.84594312686E+02  0.90147731942E+02  0.41800000000E+01 0.  1.
         -5    1    3    3    0  502 -0.12463558008E+03  0.19062457494E+02  0.40340420950E+03  0.42266988745E+03  0.41800000000E+01 0.  1.
        -11    1    4    4    0    0  0.64020171141E+02  0.15036559527E+02  0.94471335757E+02  0.11510653203E+03  0.00000000000E+00 0. -1.
         11    1    4    4    0    0  0.31426092065E+02 -0.24052763189E+02 -0.69232220491E+01  0.40175436314E+02  0.00000000000E+00 0.  1.
</event>
<event>
 8    1  0.6860461E-009  0.1278704E+03  0.7561462E-02  0.1230650E+00
          4   -1    0    0  501    0  0.00000000000E+00  0.00000000000E+00  0.12429339549E+03  0.12429339549E+03  0.00000000000E+00 0. -1.
         -4   -1    0    0    0  501 -0.00000000000E+00 -0.00000000000E+00 -0.16651971278E+03  0.16651971278E+03  0.00000000000E+00 0.  1.
         25    2    1    2    0    0  0.62995243831E+02  0.69188772743E+02 -0.35780081131E+02  0.16024942234E+03  0.12507668103E+03 0.  0.
         23    2    1    2    0    0 -0.62995243831E+02 -0.69188772743E+02 -0.64462361624E+01  0.13056368592E+03  0.90828602880E+02 0.  0.
          5    1    3    3  502    0 -0.38002456287E+02  0.25004420490E+02 -0.14210816180E+02  0.47841691278E+02  0.41800000000E+01 0.  1.
         -5    1    3    3    0  502  0.10099770012E+03  0.44184352253E+02 -0.21569264952E+02  0.11240773107E+03  0.41800000000E+01 0.  1.
        -11    1    4    4    0    0 -0.13408777843E+02  0.13926390999E+01  0.33049277909E+02  0.35692990029E+02  0.00000000000E+00 0. -1.
         11    1    4    4    0    0 -0.49586465987E+02 -0.70581411842E+02 -0.39495514072E+02  0.94870695890E+02  0.00000000000E+00 0.  1.
</event>
<event>
 8    1  0.6860461E-009  0.1262293E+03  0.7561462E-02  0.1233161E+00
         -2   -1    0    0    0  501 -0.00000000000E+00  0.00000000000E+00  0.15102149474E+02  0.15102149474E+02  0.00000000000E+00 0.  1.
          2   -1    0    0  501    0  0.00000000000E+00 -0.00000000000E+00 -0.11147661920E+04  0.11147661920E+04  0.00000000000E+00 0. -1.
         25    2    1    2    0    0  0.15757218037E+02  0.62031968092E+02 -0.68402899926E+03  0.69831291736E+03  0.12509597811E+03 0.  0.
         23    2    1    2    0    0 -0.15757218037E+02 -0.62031968092E+02 -0.41563504322E+03  0.43155542407E+03  0.96908925819E+02 0.  0.
          5    1    3    3  502    0 -0.52931589556E+02  0.18949938226E+02 -0.35296416122E+03  0.35743814127E+03  0.41800000000E+01 0.  1.
         -5    1    3    3    0  502  0.68688807593E+02  0.43082029866E+02 -0.33106483805E+03  0.34087477609E+03  0.41800000000E+01 0.  1.
        -11    1    4    4    0    0  0.24217742396E+02  0.14730063850E+02 -0.13203496030E+03  0.13504334330E+03  0.00000000000E+00 0.  1.
         11    1    4    4    0    0 -0.39974960432E+02 -0.76762031942E+02 -0.28360008292E+03  0.29651208077E+03  0.00000000000E+00 0. -1.
</event>
<event>
 8    1  0.6860461E-009  0.1552005E+03  0.7561462E-02  0.1194224E+00
          1   -1    0    0  501    0  0.00000000000E+00  0.00000000000E+00  0.48922921138E+03  0.48922921138E+03  0.00000000000E+00 0. -1.
         -1   -1    0    0    0  501 -0.00000000000E+00 -0.00000000000E+00 -0.58843842727E+02  0.58843842727E+02  0.00000000000E+00 0.  1.
         25    2    1    2    0    0 -0.18713018298E+02  0.12369701368E+03  0.17129712419E+03  0.24625271752E+03  0.12508624177E+03 0.  0.
         23    2    1    2    0    0  0.18713018298E+02 -0.12369701368E+03  0.25908824446E+03  0.30182033659E+03  0.91201254997E+02 0.  0.
          5    1    3    3  502    0 -0.33580371195E+02 -0.11058523648E+02  0.13259388613E+02  0.37989683616E+02  0.41800000000E+01 0.  1.
         -5    1    3    3    0  502  0.14867352896E+02  0.13475553733E+03  0.15803773558E+03  0.20826303390E+03  0.41800000000E+01 0.  1.
        -11    1    4    4    0    0  0.40352744076E+02 -0.63943961616E+02  0.72687594181E+02  0.10488403372E+03  0.00000000000E+00 0.  1.
         11    1    4    4    0    0 -0.21639725778E+02 -0.59753052066E+02  0.18640065028E+03  0.19693630287E+03  0.00000000000E+00 0. -1.
</event>
<event>
 8    1  0.6860461E-009  0.9774358E+02  0.7561462E-02  0.1285114E+00
          1   -1    0    0  501    0  0.00000000000E+00  0.00000000000E+00  0.42832362185E+02  0.42832362185E+02  0.00000000000E+00 0. -1.
         -1   -1    0    0    0  501 -0.00000000000E+00 -0.00000000000E+00 -0.30085496059E+03  0.30085496059E+03  0.00000000000E+00 0.  1.
         25    2    1    2    0    0 -0.15219700764E+02 -0.21746320762E+02 -0.18131541201E+03  0.22187164638E+03  0.12508879677E+03 0.  0.
         23    2    1    2    0    0  0.15219700764E+02  0.21746320762E+02 -0.76707186396E+02  0.12181567640E+03  0.90832399577E+02 0.  0.
          5    1    3    3  502    0  0.38774193073E+02 -0.25695538718E+02 -0.18488312576E+02  0.50229362532E+02  0.41800000000E+01 0.  1.
         -5    1    3    3    0  502 -0.53993893837E+02  0.39492179561E+01 -0.16282709943E+03  0.17164228384E+03  0.41800000000E+01 0.  1.
        -11    1    4    4    0    0  0.40709605625E+02  0.44503437303E+02 -0.45679180333E+02  0.75659866758E+02  0.00000000000E+00 0.  1.
         11    1    4    4    0    0 -0.25489904861E+02 -0.22757116542E+02 -0.31028006063E+02  0.46155809638E+02  0.00000000000E+00 0. -1.
</event>
<event>
 8    1  0.6860461E-009  0.1182211E+03  0.7561462E-02  0.1246061E+00
          2   -1    0    0  501    0  0.00000000000E+00  0.00000000000E+00  0.11395641666E+04  0.11395641666E+04  0.00000000000E+00 0. -1.
         -2   -1    0    0    0  501 -0.00000000000E+00 -0.00000000000E+00 -0.13250069863E+02  0.13250069863E+02  0.00000000000E+00 0.  1.
         25    2    1    2    0    0 -0.39362737627E+02 -0.38639676126E+02  0.61812065820E+03  0.63305844228E+03  0.12508954217E+03 0.  0.
         23    2    1    2    0    0  0.39362737627E+02  0.38639676126E+02  0.50819343858E+03  0.51975579423E+03  0.94037571928E+02 0.  0.
          5    1    3    3  502    0  0.41847305419E+02 -0.23611655030E+02  0.32261232796E+03  0.32619762993E+03  0.41800000000E+01 0.  1.
         -5    1    3    3    0  502 -0.81210043046E+02 -0.15028021096E+02  0.29550833024E+03  0.30686081234E+03  0.41800000000E+01 0.  1.
        -11    1    4    4    0    0 -0.77451420805E+01 -0.25094842013E+02  0.77444164594E+02  0.81776139254E+02  0.00000000000E+00 0.  1.
         11    1    4    4    0    0  0.47107879707E+02  0.63734518140E+02  0.43074927399E+03  0.43797965498E+03  0.00000000000E+00 0. -1.
</event>
<event>
 8    1  0.6860461E-009  0.1196791E+03  0.7561462E-02  0.1243627E+00
         -1   -1    0    0    0  501 -0.00000000000E+00  0.00000000000E+00  0.67159978375E+02  0.67159978375E+02  0.00000000000E+00 0.  1.
          1   -1    0    0  501    0  0.00000000000E+00 -0.00000000000E+00 -0.27237379925E+03  0.27237379925E+03  0.00000000000E+00 0. -1.
         25    2    1    2    0    0  0.45250872646E+02 -0.64544996097E+02 -0.13331210945E+03  0.19907880087E+03  0.12508618002E+03 0.  0.
         23    2    1    2    0    0 -0.45250872646E+02  0.64544996097E+02 -0.71901711432E+02  0.14045497676E+03  0.91345751922E+02 0.  0.
          5    1    3    3  502    0  0.78518117122E+02 -0.45031588888E+01 -0.64570603689E+02  0.10184403967E+03  0.41800000000E+01 0. -1.
         -5    1    3    3    0  502 -0.33267244475E+02 -0.60041837208E+02 -0.68741505758E+02  0.97234761192E+02  0.41800000000E+01 0. -1.
        -11    1    4    4    0    0 -0.36977689058E+02  0.12351987354E+02 -0.78058594953E+02  0.87252881475E+02  0.00000000000E+00 0. -1.
         11    1    4    4    0    0 -0.82731835880E+01  0.52193008743E+02  0.61568835204E+01  0.53202095288E+02  0.00000000000E+00 0.  1.
</event>
<event>
 8    1  0.6860461E-009  0.1312324E+03  0.7561462E-02  0.1225638E+00
         -1   -1    0    0    0  501 -0.00000000000E+00  0.00000000000E+00  0.90938061441E+02  0.90938061441E+02  0.00000000000E+00 0.  1.
          1   -1    0    0  501    0  0.00000000000E+00 -0.00000000000E+00 -0.28766351919E+03  0.28766351919E+03  0.00000000000E+00 0. -1.
         25    2    1    2    0    0  0.81535742189E+02 -0.85673359305E+02 -0.81036150084E+02  0.19027287325E+03  0.12509559115E+03 0.  0.
         23    2    1    2    0    0 -0.81535742189E+02  0.85673359305E+02 -0.11568930766E+03  0.18832870738E+03  0.89976021067E+02 0.  0.
          5    1    3    3  502    0  0.70725355234E+02 -0.96261360849E+02 -0.10667869989E+03  0.16020656315E+03  0.41800000000E+01 0. -1.
         -5    1    3    3    0  502  0.10810386955E+02  0.10588001544E+02  0.25642549803E+02  0.30066310103E+02  0.41800000000E+01 0. -1.
        -11    1    4    4    0    0 -0.62425271428E+02  0.88104911190E+02 -0.12643613178E+03  0.16626931560E+03  0.00000000000E+00 0. -1.
         11    1    4    4    0    0 -0.19110470761E+02 -0.24315518851E+01  0.10746824119E+02  0.22059391785E+02  0.00000000000E+00 0.  1.
</event>
<event>
 8    1  0.6860461E-009  0.1197797E+03  0.7561462E-02  0.1243461E+00
          3   -1    0    0  501    0  0.00000000000E+00  0.00000000000E+00  0.38341215276E+02  0.38341215276E+02  0.00000000000E+00 0. -1.
         -3   -1    0    0    0  501 -0.00000000000E+00 -0.00000000000E+00 -0.46413354550E+03  0.46413354550E+03  0.00000000000E+00 0.  1.
         25    2    1    2    0    0  0.30741932547E+02  0.64514493695E+02 -0.18059288739E+03  0.23101537810E+03  0.12508847920E+03 0.  0.
         23    2    1    2    0    0 -0.30741932547E+02 -0.64514493695E+02 -0.24519944283E+03  0.27145938267E+03  0.91979581231E+02 0.  0.
          5    1    3    3  502    0  0.33718843965E+02  0.90474651874E+02 -0.18028041316E+03  0.20455102747E+03  0.41800000000E+01 0. -1.
         -5    1    3    3    0  502 -0.29769114178E+01 -0.25960158179E+02 -0.31247423453E+00  0.26464350633E+02  0.41800000000E+01 0. -1.
        -11    1    4    4    0    0 -0.57822828539E-01 -0.81419809542E+02 -0.16875343728E+03  0.18736838400E+03  0.00000000000E+00 0. -1.
         11    1    4    4    0    0 -0.30684109719E+02  0.16905315846E+02 -0.76446005543E+02  0.84090998665E+02  0.00000000000E+00 0.  1.
</event>
<event>
 8    1  0.6860461E-009  0.2213656E+03  0.7561462E-02  0.1132869E+00
         -1   -1    0    0    0  501 -0.00000000000E+00  0.00000000000E+00  0.86837444807E+03  0.86837444807E+03  0.00000000000E+00 0.  1.
          1   -1    0    0  501    0  0.00000000000E+00 -0.00000000000E+00 -0.10228990355E+03  0.10228990355E+03  0.00000000000E+00 0. -1.
         25    2    1    2    0    0 -0.14371417254E+02  0.20415804191E+03  0.69591110775E+03  0.73608943499E+03  0.12509333593E+03 0.  0.
         23    2    1    2    0    0  0.14371417254E+02 -0.20415804191E+03  0.70173436760E+02  0.23457491663E+03  0.90631322274E+02 0.  0.
          5    1    3    3  502    0  0.30738152271E+02  0.14837753789E+03  0.58191348378E+03  0.60133310466E+03  0.41800000000E+01 0.  1.
         -5    1    3    3    0  502 -0.45109569525E+02  0.55780504018E+02  0.11399762397E+03  0.13475633033E+03  0.41800000000E+01 0.  1.
        -11    1    4    4    0    0 -0.32502205478E+02 -0.97727333277E+02  0.95647505967E+01  0.10343359940E+03  0.00000000000E+00 0.  1.
         11    1    4    4    0    0  0.46873622733E+02 -0.10643070863E+03  0.60608686163E+02  0.13114131723E+03  0.00000000000E+00 0. -1.
</event>
<event>
 8    1  0.6860461E-009  0.1041653E+03  0.7561462E-02  0.1271773E+00
         -2   -1    0    0    0  501 -0.00000000000E+00  0.00000000000E+00  0.82801500076E+02  0.82801500076E+02  0.00000000000E+00 0.  1.
          2   -1    0    0  501    0  0.00000000000E+00 -0.00000000000E+00 -0.20806620044E+03  0.20806620044E+03  0.00000000000E+00 0. -1.
         25    2    1    2    0    0 -0.63249236139E+02  0.18762638966E+02 -0.34473788936E+02  0.14556424031E+03  0.12509197992E+03 0.  0.
         23    2    1    2    0    0  0.63249236139E+02 -0.18762638966E+02 -0.90790911423E+02  0.14530346020E+03  0.92290863340E+02 0.  0.
          5    1    3    3  502    0 -0.84965665345E+01  0.36117042503E+02 -0.68974122473E+02  0.78431717901E+02  0.41800000000E+01 0.  1.
         -5    1    3    3    0  502 -0.54752669605E+02 -0.17354403537E+02  0.34500333537E+02  0.67132522410E+02  0.41800000000E+01 0.  1.
        -11    1    4    4    0    0 -0.24001023294E+02 -0.88991085656E+01 -0.22180021456E+02  0.33870290878E+02  0.00000000000E+00 0.  1.
         11    1    4    4    0    0  0.87250259433E+02 -0.98635304005E+01 -0.68610889967E+02  0.11143316932E+03  0.00000000000E+00 0. -1.
</event>
<event>
 8    1  0.6860461E-009  0.8925973E+02  0.7561462E-02  0.1304654E+00
          1   -1    0    0  501    0  0.00000000000E+00  0.00000000000E+00  0.13611380985E+03  0.13611380985E+03  0.00000000000E+00 0. -1.
         -1   -1    0    0    0  501 -0.00000000000E+00 -0.00000000000E+00 -0.12281518773E+03  0.12281518773E+03  0.00000000000E+00 0.  1.
         25    2    1    2    0    0 -0.26002132080E+02 -0.57744666170E+02  0.40774933875E+02  0.14601371245E+03  0.12508737605E+03 0.  0.
         23    2    1    2    0    0  0.26002132080E+02  0.57744666170E+02 -0.27476311759E+02  0.11291528513E+03  0.89355226838E+02 0.  0.
          5    1    3    3  502    0 -0.20194061601E+02  0.21293740028E+01  0.74218907096E+02  0.77060060525E+02  0.41800000000E+01 0. -1.
         -5    1    3    3    0  502 -0.58080704789E+01 -0.59874040173E+02 -0.33443973220E+02  0.68953651927E+02  0.41800000000E+01 0. -1.
        -11    1    4    4    0    0 -0.23468768303E+02  0.37060880704E+02 -0.38275600871E+02  0.58217811589E+02  0.00000000000E+00 0.  1.
         11    1    4    4    0    0  0.49470900383E+02  0.20683785466E+02  0.10799289112E+02  0.54697473536E+02  0.00000000000E+00 0. -1.
</event>
<event>
 8    1  0.6860461E-009  0.8440828E+02  0.7561462E-02  0.1316987E+00
          1   -1    0    0  501    0  0.00000000000E+00  0.00000000000E+00  0.52177284560E+03  0.52177284560E+03  0.00000000000E+00 0. -1.
         -1   -1    0    0    0  501 -0.00000000000E+00 -0.00000000000E+00 -0.28763732139E+02  0.28763732139E+02  0.00000000000E+00 0.  1.
         25    2    1    2    0    0 -0.25185866201E+02 -0.56263108313E+02  0.28309342957E+03  0.31558379380E+03  0.12510545884E+03 0.  0.
         23    2    1    2    0    0  0.25185866201E+02  0.56263108313E+02  0.20991568389E+03  0.23495278393E+03  0.85664176423E+02 0.  0.
          5    1    3    3  502    0 -0.50705322577E+01 -0.49905609882E+02  0.28894420818E+03  0.29329593934E+03  0.41800000000E+01 0. -1.
         -5    1    3    3    0  502 -0.20115333944E+02 -0.63574984302E+01 -0.58507786110E+01  0.22287854457E+02  0.41800000000E+01 0. -1.
        -11    1    4    4    0    0 -0.13544758752E+02 -0.12255636770E+02  0.11725611930E+02  0.21706015236E+02  0.00000000000E+00 0.  1.
         11    1    4    4    0    0  0.38730624953E+02  0.68518745083E+02  0.19819007196E+03  0.21324676870E+03  0.00000000000E+00 0. -1.
</event>
<event>
 8    1  0.6860461E-009  0.7550058E+02  0.7561462E-02  0.1342328E+00
         -2   -1    0    0    0  501 -0.00000000000E+00  0.00000000000E+00  0.84051140680E+03  0.84051140680E+03  0.00000000000E+00 0. -1.
          2   -1    0    0  501    0  0.00000000000E+00 -0.00000000000E+00 -0.14580335401E+02  0.14580335401E+02  0.00000000000E+00 0.  1.
         25    2    1    2    0    0 -0.42531426015E+01 -0.20505476332E+02  0.45146042657E+03  0.46893805122E+03  0.12509122809E+03 0.  0.
         23    2    1    2    0    0  0.42531426015E+01  0.20505476332E+02  0.37447064484E+03  0.38615369099E+03  0.91912161521E+02 0.  0.
          5    1    3    3  502    0 -0.14735658823E+02 -0.35329162749E+02  0.44840893649E+03  0.45005925844E+03  0.41800000000E+01 0.  1.
         -5    1    3    3    0  502  0.10482516222E+02  0.14823686416E+02  0.30514900789E+01  0.18878792785E+02  0.41800000000E+01 0.  1.
        -11    1    4    4    0    0  0.39841721641E+02 -0.15951520759E+02  0.18913829053E+03  0.19394614392E+03  0.00000000000E+00 0.  1.
         11    1    4    4    0    0 -0.35588579040E+02  0.36456997091E+02  0.18533235431E+03  0.19220754707E+03  0.00000000000E+00 0. -1.
</event>
<event>
 8    1  0.6860461E-009  0.1151071E+03  0.7561462E-02  0.1251394E+00
          2   -1    0    0  501    0  0.00000000000E+00  0.00000000000E+00  0.97162564513E+03  0.97162564513E+03  0.00000000000E+00 0. -1.
         -2   -1    0    0    0  501 -0.00000000000E+00 -0.00000000000E+00 -0.13922709282E+02  0.13922709282E+02  0.00000000000E+00 0.  1.
         25    2    1    2    0    0  0.36443067882E+02  0.17388994115E+02  0.54190284073E+03  0.55761692011E+03  0.12508983367E+03 0.  0.
         23    2    1    2    0    0 -0.36443067882E+02 -0.17388994115E+02  0.41580009511E+03  0.42793143430E+03  0.92763780921E+02 0.  0.
          5    1    3    3  502    0  0.72313867094E+02  0.43587846505E+02  0.30242073648E+03  0.31401428310E+03  0.41800000000E+01 0. -1.
         -5    1    3    3    0  502 -0.35870799212E+02 -0.26198852390E+02  0.23948210425E+03  0.24360263701E+03  0.41800000000E+01 0. -1.
        -11    1    4    4    0    0 -0.28359261398E+02  0.36694579189E+02  0.18087448959E+03  0.18672525494E+03  0.00000000000E+00 0.  1.
         11    1    4    4    0    0 -0.80838064834E+01 -0.54083573304E+02  0.23492560552E+03  0.24120617935E+03  0.00000000000E+00 0. -1.
</event>
<event>
 8    1  0.6860461E-009  0.1561496E+03  0.7561462E-02  0.1193114E+00
          3   -1    0    0  501    0  0.00000000000E+00  0.00000000000E+00  0.15229721223E+03  0.15229721223E+03  0.00000000000E+00 0. -1.
         -3   -1    0    0    0  501 -0.00000000000E+00 -0.00000000000E+00 -0.38940307771E+03  0.38940307771E+03  0.00000000000E+00 0.  1.
         25    2    1    2    0    0  0.36710691881E+02  0.14514421789E+03  0.53473712703E+02  0.20228968218E+03  0.12508860332E+03 0.  0.
         23    2    1    2    0    0 -0.36710691881E+02 -0.14514421789E+03 -0.29057957818E+03  0.33941060776E+03  0.91370402866E+02 0.  0.
          5    1    3    3  502    0  0.20924550527E+02  0.12914492990E+03 -0.13434557512E+02  0.13158346959E+03  0.41800000000E+01 0. -1.
         -5    1    3    3    0  502  0.15786141354E+02  0.15999287983E+02  0.66908270215E+02  0.70706212584E+02  0.41800000000E+01 0. -1.
        -11    1    4    4    0    0 -0.30702886250E+02 -0.28972015715E+02 -0.15558182920E+03  0.16120716639E+03  0.00000000000E+00 0.  1.
         11    1    4    4    0    0 -0.60078056302E+01 -0.11617220217E+03 -0.13499774898E+03  0.17820344137E+03  0.00000000000E+00 0. -1.
</event>
<event>
 8    1  0.6860461E-009  0.8824772E+02  0.7561462E-02  0.1307151E+00
          1   -1    0    0  501    0  0.00000000000E+00  0.00000000000E+00  0.54110265999E+03  0.54110265999E+03  0.00000000000E+00 0. -1.
         -1   -1    0    0    0  501 -0.00000000000E+00 -0.00000000000E+00 -0.46527829081E+02  0.46527829081E+02  0.00000000000E+00 0.  1.
         25    2    1    2    0    0  0.83360344632E+02  0.15732042560E+02  0.41459949779E+03  0.44129021467E+03  0.12509142968E+03 0.  0.
         23    2    1    2    0    0 -0.83360344632E+02 -0.15732042560E+02  0.79975333123E+02  0.14634027440E+03  0.88447599082E+02 0.  0.
          5    1    3    3  502    0  0.71656486946E+02  0.23078005388E+00  0.85688458653E+02  0.11177964809E+03  0.41800000000E+01 0. -1.
         -5    1    3    3    0  502  0.11703857686E+02  0.15501262506E+02  0.32891103913E+03  0.32951056658E+03  0.41800000000E+01 0. -1.
        -11    1    4    4    0    0 -0.26586022705E+02 -0.42175986454E+01  0.84061358254E+02  0.88266169584E+02  0.00000000000E+00 0. -1.
         11    1    4    4    0    0 -0.56774321927E+02 -0.11514443915E+02 -0.40860251305E+01  0.58074104817E+02  0.00000000000E+00 0.  1.
</event>
<event>
 8    1  0.6860461E-009  0.1752008E+03  0.7561462E-02  0.1172530E+00
         -2   -1    0    0    0  501 -0.00000000000E+00  0.00000000000E+00  0.32185095233E+02  0.32185095233E+02  0.00000000000E+00 0.  1.
          2   -1    0    0  501    0  0.00000000000E+00 -0.00000000000E+00 -0.12351943188E+04  0.12351943188E+04  0.00000000000E+00 0. -1.
         25    2    1    2    0    0  0.92834711958E+02  0.13858602318E+03 -0.62356207348E+03  0.65749771732E+03  0.12509683943E+03 0.  0.
         23    2    1    2    0    0 -0.92834711958E+02 -0.13858602318E+03 -0.57944715012E+03  0.60988169675E+03  0.91500353415E+02 0.  0.
          5    1    3    3  502    0  0.46861566898E+02  0.12759511093E+03 -0.28679833228E+03  0.31740711174E+03  0.41800000000E+01 0.  1.
         -5    1    3    3    0  502  0.45973145060E+02  0.10990912256E+02 -0.33676374120E+03  0.34009060559E+03  0.41800000000E+01 0.  1.
        -11    1    4    4    0    0 -0.12161101548E+02 -0.22736592592E+02 -0.19269391172E+02  0.32189353359E+02  0.00000000000E+00 0.  1.
         11    1    4    4    0    0 -0.80673610410E+02 -0.11584943059E+03 -0.56017775895E+03  0.57769234339E+03  0.00000000000E+00 0. -1.
</event>
<event>
 8    1  0.6860461E-009  0.1677627E+03  0.7561462E-02  0.1180201E+00
          3   -1    0    0  501    0  0.00000000000E+00  0.00000000000E+00  0.16854791753E+03  0.16854791753E+03  0.00000000000E+00 0. -1.
         -3   -1    0    0    0  501 -0.00000000000E+00 -0.00000000000E+00 -0.23402141535E+03  0.23402141535E+03  0.00000000000E+00 0.  1.
         25    2    1    2    0    0  0.16245821865E+03  0.13134249204E+02 -0.15811997231E+01  0.20546156080E+03  0.12508705555E+03 0.  0.
         23    2    1    2    0    0 -0.16245821865E+03 -0.13134249204E+02 -0.63892298094E+02  0.19710777208E+03  0.90576303473E+02 0.  0.
          5    1    3    3  502    0  0.90954244864E+02  0.31591928393E+02  0.56233371411E+02  0.11158131142E+03  0.41800000000E+01 0.  1.
         -5    1    3    3    0  502  0.71503973783E+02 -0.18457679189E+02 -0.57814571134E+02  0.93880249378E+02  0.41800000000E+01 0.  1.
        -11    1    4    4    0    0 -0.51311490624E+02  0.83313504202E+01  0.20532907554E+02  0.55891687776E+02  0.00000000000E+00 0. -1.
         11    1    4    4    0    0 -0.11114672802E+03 -0.21465599624E+02 -0.84425205649E+02  0.14121608430E+03  0.00000000000E+00 0.  1.
</event>
<event>
 8    1  0.6860461E-009  0.2006653E+03  0.7561462E-02  0.1149179E+00
          1   -1    0    0  501    0  0.00000000000E+00  0.00000000000E+00  0.11450371744E+04  0.11450371744E+04  0.00000000000E+00 0. -1.
         -1   -1    0    0    0  501 -0.00000000000E+00 -0.00000000000E+00 -0.41533611888E+02  0.41533611888E+02  0.00000000000E+00 0.  1.
         25    2    1    2    0    0  0.13223890805E+03 -0.12528743525E+03  0.43793010085E+03  0.49052418079E+03  0.12508848260E+03 0.  0.
         23    2    1    2    0    0 -0.13223890805E+03  0.12528743525E+03  0.66557346162E+03  0.69604660545E+03  0.91152476182E+02 0.  0.
          5    1    3    3  502    0  0.68521185111E+02 -0.12040935339E+03  0.19464410779E+03  0.23895055198E+03  0.41800000000E+01 0. -1.
         -5    1    3    3    0  502  0.63717722935E+02 -0.48780818685E+01  0.24328599305E+03  0.25157362882E+03  0.41800000000E+01 0. -1.
        -11    1    4    4    0    0 -0.10526011708E+03  0.45887176660E+02  0.30630145429E+03  0.32711757233E+03  0.00000000000E+00 0.  1.
         11    1    4    4    0    0 -0.26978790970E+02  0.79400258594E+02  0.35927200733E+03  0.36892903312E+03  0.00000000000E+00 0. -1.
</event>
<event>
 8    1  0.6860461E-009  0.1034928E+03  0.7561462E-02  0.1273118E+00
         -2   -1    0    0    0  501 -0.00000000000E+00  0.00000000000E+00  0.88015277623E+02  0.88015277623E+02  0.00000000000E+00 0.  1.
          2   -1    0    0  501    0  0.00000000000E+00 -0.00000000000E+00 -0.36670285549E+03  0.36670285549E+03  0.00000000000E+00 0. -1.
         25    2    1    2    0    0 -0.60607469070E+02  0.77435014465E+01  0.15971027263E+02  0.14012825338E+03  0.12509047351E+03 0.  0.
         23    2    1    2    0    0  0.60607469070E+02 -0.77435014465E+01 -0.29465860513E+03  0.31458987973E+03  0.91705352781E+02 0.  0.
          5    1    3    3  502    0 -0.29834994672E+02 -0.46718561462E+02 -0.29261006772E+02  0.62820616118E+02  0.41800000000E+01 0. -1.
         -5    1    3    3    0  502 -0.30772474398E+02  0.54462062908E+02  0.45232034035E+02  0.77307637266E+02  0.41800000000E+01 0. -1.
        -11    1    4    4    0    0  0.32156869148E+02 -0.36229126690E+02 -0.63062050452E+02  0.79520035597E+02  0.00000000000E+00 0.  1.
         11    1    4    4    0    0  0.28450599922E+02  0.28485625244E+02 -0.23159655467E+03  0.23506984413E+03  0.00000000000E+00 0. -1.
</event>
<event>
 8    1  0.6860461E-009  0.1311416E+03  0.7561462E-02  0.1225772E+00
          2   -1    0    0  501    0  0.00000000000E+00  0.00000000000E+00  0.15427148956E+04  0.15427148956E+04  0.00000000000E+00 0.  1.
         -2   -1    0    0    0  501 -0.00000000000E+00 -0.00000000000E+00 -0.22947979752E+02  0.22947979752E+02  0.00000000000E+00 0. -1.
         25    2    1    2    0    0  0.31333201248E+02 -0.77133398537E+02  0.13337972045E+04  0.13422346864E+04  0.12509052799E+03 0.  0.
         23    2    1    2    0    0 -0.31333201248E+02  0.77133398537E+02  0.18596971141E+03  0.22342818893E+03  0.91673831476E+02 0.  0.
          5    1    3    3  502    0 -0.39558996509E+01 -0.97476394904E+02  0.11391433343E+04  0.11433207360E+04  0.41800000000E+01 0. -1.
         -5    1    3    3    0  502  0.35289100899E+02  0.20342996367E+02  0.19465387011E+03  0.19891395048E+03  0.41800000000E+01 0. -1.
        -11    1    4    4    0    0  0.21432250688E+01  0.88356706508E+02  0.13768794173E+03  0.16361378394E+03  0.00000000000E+00 0.  1.
         11    1    4    4    0    0 -0.33476426317E+02 -0.11223307971E+02  0.48281769682E+02  0.59814404990E+02  0.00000000000E+00 0. -1.
</event>
<event>
 8    1  0.6860461E-009  0.1588854E+03  0.7561462E-02  0.1189961E+00
         -1   -1    0    0    0  501 -0.00000000000E+00  0.00000000000E+00  0.85407356276E+02  0.85407356276E+02  0.00000000000E+00 0.  1.
          1   -1    0    0  501    0  0.00000000000E+00 -0.00000000000E+00 -0.37537151659E+03  0.37537151659E+03  0.00000000000E+00 0. -1.
         25    2    1    2    0    0  0.11958271730E+03  0.74965916452E+01 -0.25459873689E+03  0.30793500840E+03  0.12508887803E+03 0.  0.
         23    2    1    2    0    0 -0.11958271730E+03 -0.74965916452E+01 -0.35365423426E+02  0.15284386447E+03  0.88058551947E+02 0.  0.
          5    1    3    3  502    0 -0.23446732952E+02 -0.12838991485E+02 -0.26292747824E+02  0.37727575811E+02  0.41800000000E+01 0.  1.
         -5    1    3    3    0  502  0.14302945025E+03  0.20335583130E+02 -0.22830598907E+03  0.27020743258E+03  0.41800000000E+01 0.  1.
        -11    1    4    4    0    0 -0.98856059093E+02 -0.40811957899E+02 -0.13149801077E+02  0.10775459895E+03  0.00000000000E+00 0. -1.
         11    1    4    4    0    0 -0.20726658204E+02  0.33315366254E+02 -0.22215622349E+02  0.45089265522E+02  0.00000000000E+00 0.  1.
</event>
<event>
 8    1  0.6860461E-009  0.1218346E+03  0.7561462E-02  0.1240101E+00
         -3   -1    0    0    0  501 -0.00000000000E+00  0.00000000000E+00  0.94643741465E+02  0.94643741465E+02  0.00000000000E+00 0.  1.
          3   -1    0    0  501    0  0.00000000000E+00 -0.00000000000E+00 -0.21456968454E+03  0.21456968454E+03  0.00000000000E+00 0. -1.
         25    2    1    2    0    0  0.84650286727E+02  0.32137477925E+02 -0.83223079369E+02  0.17541848021E+03  0.12508826375E+03 0.  0.
         23    2    1    2    0    0 -0.84650286727E+02 -0.32137477925E+02 -0.36702863709E+02  0.13379494580E+03  0.91408417484E+02 0.  0.
          5    1    3    3  502    0 -0.29356806966E+02 -0.41262989847E+01 -0.35774909883E+02  0.46649384087E+02  0.41800000000E+01 0.  1.
         -5    1    3    3    0  502  0.11400709369E+03  0.36263776909E+02 -0.47448169486E+02  0.12876909612E+03  0.41800000000E+01 0.  1.
        -11    1    4    4    0    0 -0.42189729953E+02 -0.29498439230E+02 -0.64838797310E+02  0.82790101262E+02  0.00000000000E+00 0.  1.
         11    1    4    4    0    0 -0.42460556774E+02 -0.26390386951E+01  0.28135933600E+02  0.51004844538E+02  0.00000000000E+00 0. -1.
</event>
<event>
 8    1  0.6860461E-009  0.1118416E+03  0.7561462E-02  0.1257197E+00
          1   -1    0    0  501    0  0.00000000000E+00  0.00000000000E+00  0.12209848189E+04  0.12209848189E+04  0.00000000000E+00 0. -1.
         -1   -1    0    0    0  501 -0.00000000000E+00 -0.00000000000E+00 -0.21936932296E+02  0.21936932296E+02  0.00000000000E+00 0.  1.
         25    2    1    2    0    0 -0.30993005795E+02  0.53549101690E+02  0.10350740991E+04  0.10444395834E+04  0.12509028778E+03 0.  0.
         23    2    1    2    0    0  0.30993005795E+02 -0.53549101690E+02  0.16397378757E+03  0.19848216783E+03  0.93164882003E+02 0.  0.
          5    1    3    3  502    0  0.40353735075E+01  0.85598144146E+02  0.50589307177E+03  0.51311655497E+03  0.41800000000E+01 0. -1.
         -5    1    3    3    0  502 -0.35028379302E+02 -0.32049042457E+02  0.52918102730E+03  0.53132302843E+03  0.41800000000E+01 0. -1.
        -11    1    4    4    0    0  0.18174624639E+02  0.13069678022E+02  0.10868122889E+03  0.11096279997E+03  0.00000000000E+00 0. -1.
         11    1    4    4    0    0  0.12818381156E+02 -0.66618779711E+02  0.55292558673E+02  0.87519367858E+02  0.00000000000E+00 0.  1.
</event>
<event>
 8    1  0.6860461E-009  0.8058864E+02  0.7561462E-02  0.1327389E+00
         -1   -1    0    0    0  501 -0.00000000000E+00  0.00000000000E+00  0.68007165991E+02  0.68007165991E+02  0.00000000000E+00 0.  1.
          1   -1    0    0  501    0  0.00000000000E+00 -0.00000000000E+00 -0.19645470177E+03  0.19645470177E+03  0.00000000000E+00 0. -1.
         25    2    1    2    0    0 -0.24027811124E+02  0.31935319756E+02 -0.60952034407E+02  0.14477526817E+03  0.12509007722E+03 0.  0.
         23    2    1    2    0    0  0.24027811124E+02 -0.31935319756E+02 -0.67495501372E+02  0.11968659959E+03  0.90399331090E+02 0.  0.
          5    1    3    3  502    0  0.12354239583E+02 -0.91235151151E+01  0.32580908712E+02  0.36260912512E+02  0.41800000000E+01 0. -1.
         -5    1    3    3    0  502 -0.36382050706E+02  0.41058834871E+02 -0.93532943119E+02  0.10851435565E+03  0.41800000000E+01 0. -1.
        -11    1    4    4    0    0  0.44450655483E+02  0.82089857497E+01 -0.93879246477E+01  0.46166885850E+02  0.00000000000E+00 0. -1.
         11    1    4    4    0    0 -0.20422844359E+02 -0.40144305506E+02 -0.58107576725E+02  0.73519713744E+02  0.00000000000E+00 0.  1.
</event>
<event>
 8    1  0.6860461E-009  0.1399614E+03  0.7561462E-02  0.1213381E+00
          1   -1    0    0  501    0  0.00000000000E+00  0.00000000000E+00  0.10523299284E+04  0.10523299284E+04  0.00000000000E+00 0. -1.
         -1   -1    0    0    0  501 -0.00000000000E+00 -0.00000000000E+00 -0.30768442036E+02  0.30768442036E+02  0.00000000000E+00 0.  1.
         25    2    1    2    0    0  0.12799419434E+03  0.99129597064E+01  0.73092343782E+03  0.75258080963E+03  0.12509205618E+03 0.  0.
         23    2    1    2    0    0 -0.12799419434E+03 -0.99129597064E+01  0.29063804852E+03  0.33051756078E+03  0.91052743956E+02 0.  0.
          5    1    3    3  502    0  0.44452230341E+01  0.16715216265E+02  0.38074401791E+03  0.38115959654E+03  0.41800000000E+01 0. -1.
         -5    1    3    3    0  502  0.12354897130E+03 -0.68022565589E+01  0.35017941991E+03  0.37142121309E+03  0.41800000000E+01 0. -1.
        -11    1    4    4    0    0 -0.49607412016E+02 -0.29245401845E+02  0.20452101822E+03  0.21247361189E+03  0.00000000000E+00 0. -1.
         11    1    4    4    0    0 -0.78386782323E+02  0.19332442138E+02  0.86117030303E+02  0.11804394889E+03  0.00000000000E+00 0.  1.
</event>
<event>
 8    1  0.6860461E-009  0.1312109E+03  0.7561462E-02  0.1225670E+00
         -2   -1    0    0    0  501 -0.00000000000E+00  0.00000000000E+00  0.15107431765E+02  0.15107431765E+02  0.00000000000E+00 0.  1.
          2   -1    0    0  501    0  0.00000000000E+00 -0.00000000000E+00 -0.13690627552E+04  0.13690627552E+04  0.00000000000E+00 0. -1.
         25    2    1    2    0    0 -0.72001741936E+02 -0.52654060998E+02 -0.84192854376E+03  0.85583160530E+03  0.12508941936E+03 0.  0.
         23    2    1    2    0    0  0.72001741936E+02  0.52654060998E+02 -0.51202677966E+03  0.52833858166E+03  0.94939627123E+02 0.  0.
          5    1    3    3  502    0 -0.75839508656E+02  0.90983716387E+01 -0.27241948677E+03  0.28295628746E+03  0.41800000000E+01 0.  1.
         -5    1    3    3    0  502  0.38377667202E+01 -0.61752432637E+02 -0.56950905699E+03  0.57287531784E+03  0.41800000000E+01 0.  1.
        -11    1    4    4    0    0  0.33143505143E+02  0.72910804703E+02 -0.40211189592E+03  0.41001030989E+03  0.00000000000E+00 0. -1.
         11    1    4    4    0    0  0.38858236793E+02 -0.20256743704E+02 -0.10991488374E+03  0.11832827177E+03  0.00000000000E+00 0.  1.
</event>
<event>
 8    1  0.6860461E-009  0.1090593E+03  0.7561462E-02  0.1262322E+00
         -2   -1    0    0    0  501 -0.00000000000E+00  0.00000000000E+00  0.11403910144E+03  0.11403910144E+03  0.00000000000E+00 0.  1.
          2   -1    0    0  501    0  0.00000000000E+00 -0.00000000000E+00 -0.20428823937E+03  0.20428823937E+03  0.00000000000E+00 0. -1.
         25    2    1    2    0    0 -0.43298755889E+01  0.26177578690E+02 -0.15676186104E+03  0.20230214237E+03  0.12509141570E+03 0.  0.
         23    2    1    2    0    0  0.43298755889E+01 -0.26177578690E+02  0.66512723118E+02  0.11602519843E+03  0.91290146711E+02 0.  0.
          5    1    3    3  502    0 -0.39196521963E+02 -0.37442793198E+02 -0.78683606806E+02  0.95639492243E+02  0.41800000000E+01 0.  1.
         -5    1    3    3    0  502  0.34866646374E+02  0.63620371887E+02 -0.78078254237E+02  0.10666265013E+03  0.41800000000E+01 0.  1.
        -11    1    4    4    0    0  0.45517507348E+02 -0.87051385696E+01  0.17175489694E+02  0.49422872832E+02  0.00000000000E+00 0. -1.
         11    1    4    4    0    0 -0.41187631759E+02 -0.17472440120E+02  0.49337233424E+02  0.66602325603E+02  0.00000000000E+00 0.  1.
</event>
<event>
 8    1  0.6860461E-009  0.1034838E+03  0.7561462E-02  0.1273136E+00
         -1   -1    0    0    0  501 -0.00000000000E+00  0.00000000000E+00  0.29585013137E+03  0.29585013137E+03  0.00000000000E+00 0.  1.
          1   -1    0    0  501    0  0.00000000000E+00 -0.00000000000E+00 -0.76555302406E+02  0.76555302406E+02  0.00000000000E+00 0. -1.
         25    2    1    2    0    0 -0.40157845113E+02  0.23057024987E+02  0.41400898578E+01  0.13345170621E+03  0.12509172083E+03 0.  0.
         23    2    1    2    0    0  0.40157845113E+02 -0.23057024987E+02  0.21515473910E+03  0.23895372757E+03  0.93075470636E+02 0.  0.
          5    1    3    3  502    0 -0.57820820444E+02 -0.31884821713E+02  0.26701197973E+02  0.71346447043E+02  0.41800000000E+01 0.  1.
         -5    1    3    3    0  502  0.17662975331E+02  0.54941846700E+02 -0.22561108115E+02  0.62105259164E+02  0.41800000000E+01 0.  1.
        -11    1    4    4    0    0  0.59913487045E+02 -0.17753082310E+02  0.20815774444E+03  0.21733486704E+03  0.00000000000E+00 0.  1.
         11    1    4    4    0    0 -0.19755641932E+02 -0.53039426773E+01  0.69969946615E+01  0.21618860524E+02  0.00000000000E+00 0. -1.
</event>
<event>
 8    1  0.6860461E-009  0.2135527E+03  0.7561462E-02  0.1138783E+00
          1   -1    0    0  501    0  0.00000000000E+00  0.00000000000E+00  0.15220091657E+04  0.15220091657E+04  0.00000000000E+00 0. -1.
         -1   -1    0    0    0  501 -0.00000000000E+00 -0.00000000000E+00 -0.34240413814E+02  0.34240413814E+02  0.00000000000E+00 0.  1.
         25    2    1    2    0    0 -0.16712856791E+03 -0.98774559591E+02  0.94148277397E+03  0.96939414015E+03  0.12508722331E+03 0.  0.
         23    2    1    2    0    0  0.16712856791E+03  0.98774559591E+02  0.54628597796E+03  0.58685543941E+03  0.91008599684E+02 0.  0.
          5    1    3    3  502    0 -0.12922474936E+03 -0.12868876477E+02  0.42459190252E+03  0.44402747653E+03  0.41800000000E+01 0. -1.
         -5    1    3    3    0  502 -0.37903818550E+02 -0.85905683114E+02  0.51689087145E+03  0.52536666362E+03  0.41800000000E+01 0. -1.
        -11    1    4    4    0    0  0.77562169491E+02  0.12013696026E+02  0.12586594435E+03  0.14833224523E+03  0.00000000000E+00 0.  1.
         11    1    4    4    0    0  0.89566398416E+02  0.86760863565E+02  0.42042003361E+03  0.43852319418E+03  0.00000000000E+00 0. -1.
</event>
<event>
 8    1  0.6860461E-009  0.1335358E+03  0.7561462E-02  0.1222302E+00
         -1   -1    0    0    0  501 -0.00000000000E+00  0.00000000000E+00  0.21049847097E+03  0.21049847097E+03  0.00000000000E+00 0.  1.
          1   -1    0    0  501    0  0.00000000000E+00 -0.00000000000E+00 -0.16624221264E+03  0.16624221264E+03  0.00000000000E+00 0. -1.
         25    2    1    2    0    0  0.64815698535E+02 -0.93584322433E+02 -0.77570967553E+02  0.18607442516E+03  0.12508931412E+03 0.  0.
         23    2    1    2    0    0 -0.64815698535E+02  0.93584322433E+02  0.12182722588E+03  0.19066625846E+03  0.92480532906E+02 0.  0.
          5    1    3    3  502    0  0.74803061528E+02 -0.11024174048E+03 -0.91620143416E+02  0.16174196252E+03  0.41800000000E+01 0. -1.
         -5    1    3    3    0  502 -0.99873629929E+01  0.16657418051E+02  0.14049175863E+02  0.24332462640E+02  0.41800000000E+01 0. -1.
        -11    1    4    4    0    0 -0.48923045793E+02  0.67380495711E+02  0.21835689876E+02  0.86083639353E+02  0.00000000000E+00 0.  1.
         11    1    4    4    0    0 -0.15892652742E+02  0.26203826722E+02  0.99991536006E+02  0.10458261911E+03  0.00000000000E+00 0. -1.
</event>
<event>
 8    1  0.6860461E-009  0.1440915E+03  0.7561462E-02  0.1207927E+00
         -2   -1    0    0    0  501 -0.00000000000E+00  0.00000000000E+00  0.17726762219E+03  0.17726762219E+03  0.00000000000E+00 0.  1.
          2   -1    0    0  501    0  0.00000000000E+00 -0.00000000000E+00 -0.13679677346E+03  0.13679677346E+03  0.00000000000E+00 0. -1.
         25    2    1    2    0    0 -0.88275875394E+02  0.47817371957E+02  0.68591971694E+02  0.17445384452E+03  0.12510057573E+03 0.  0.
         23    2    1    2    0    0  0.88275875394E+02 -0.47817371957E+02 -0.28121122964E+02  0.13961055114E+03  0.92850294534E+02 0.  0.
          5    1    3    3  502    0 -0.40342236700E+02 -0.39904874555E+02  0.42608589638E+02  0.71083467741E+02  0.41800000000E+01 0. -1.
         -5    1    3    3    0  502 -0.47933638694E+02  0.87722246512E+02  0.25983382056E+02  0.10337037678E+03  0.41800000000E+01 0. -1.
        -11    1    4    4    0    0  0.76966168050E+02  0.50867815922E+01 -0.35677970441E+02  0.84985786730E+02  0.00000000000E+00 0. -1.
         11    1    4    4    0    0  0.11309707344E+02 -0.52904153549E+02  0.75568474766E+01  0.54624764409E+02  0.00000000000E+00 0.  1.
</event>
<event>
 8    1  0.6860461E-009  0.9302847E+02  0.7561462E-02  0.1295679E+00
          1   -1    0    0  501    0  0.00000000000E+00  0.00000000000E+00  0.10948407513E+03  0.10948407513E+03  0.00000000000E+00 0. -1.
         -1   -1    0    0    0  501 -0.00000000000E+00 -0.00000000000E+00 -0.12464788044E+03  0.12464788044E+03  0.00000000000E+00 0.  1.
         25    2    1    2    0    0 -0.24841511247E+02 -0.36729546058E+02 -0.39513568154E+01  0.13277556493E+03  0.12509027614E+03 0.  0.
         23    2    1    2    0    0  0.24841511247E+02  0.36729546058E+02 -0.11212448493E+02  0.10135639065E+03  0.90450200049E+02 0.  0.
          5    1    3    3  502    0 -0.52594799876E+02 -0.28918900459E+02  0.45463894325E+02  0.75411894718E+02  0.41800000000E+01 0.  1.
         -5    1    3    3    0  502  0.27753288629E+02 -0.78106455993E+01 -0.49415251140E+02  0.57363670207E+02  0.41800000000E+01 0.  1.
        -11    1    4    4    0    0  0.40073580037E+02 -0.15033044397E+02 -0.19021572063E+02  0.46836998672E+02  0.00000000000E+00 0.  1.
         11    1    4    4    0    0 -0.15232068790E+02  0.51762590455E+02  0.78091235705E+01  0.54519391974E+02  0.00000000000E+00 0. -1.
</event>
<event>
 8    1  0.6860461E-009  0.1565538E+03  0.7561462E-02  0.1192643E+00
         -2   -1    0    0    0  501 -0.00000000000E+00  0.00000000000E+00  0.26983436837E+02  0.26983436837E+02  0.00000000000E+00 0. -1.
          2   -1    0    0  501    0  0.00000000000E+00 -0.00000000000E+00 -0.15310712794E+04  0.15310712794E+04  0.00000000000E+00 0.  1.
         25    2    1    2    0    0  0.70308198555E+02  0.10592455912E+03 -0.12256989999E+04  0.12386075873E+04  0.12508981501E+03 0.  0.
         23    2    1    2    0    0 -0.70308198555E+02 -0.10592455912E+03 -0.27838884262E+03  0.31944712895E+03  0.91557989751E+02 0.  0.
          5    1    3    3  502    0 -0.22562250620E+02  0.56484782959E+01 -0.53840054629E+02  0.58797826002E+02  0.41800000000E+01 0.  1.
         -5    1    3    3    0  502  0.92870449175E+02  0.10027608083E+03 -0.11718589453E+04  0.11798097613E+04  0.41800000000E+01 0.  1.
        -11    1    4    4    0    0 -0.87963855841E+02 -0.68961489508E+02 -0.23225806935E+03  0.25775402567E+03  0.00000000000E+00 0.  1.
         11    1    4    4    0    0  0.17655657287E+02 -0.36963069615E+02 -0.46130773266E+02  0.61693103275E+02  0.00000000000E+00 0. -1.
</event>
<event>
 8    1  0.6860461E-009  0.1101998E+03  0.7561462E-02  0.1260200E+00
          2   -1    0    0  501    0  0.00000000000E+00  0.00000000000E+00  0.11520477353E+04  0.11520477353E+04  0.00000000000E+00 0. -1.
         -2   -1    0    0    0  501 -0.00000000000E+00 -0.00000000000E+00 -0.12185449281E+02  0.12185449281E+02  0.00000000000E+00 0.  1.
         25    2    1    2    0    0  0.42676322149E+02  0.97254651052E+01  0.74436776623E+03  0.75607423867E+03  0.12509608243E+03 0.  0.
         23    2    1    2    0    0 -0.42676322149E+02 -0.97254651052E+01  0.39549451982E+03  0.40815894594E+03  0.90895306799E+02 0.  0.
          5    1    3    3  502    0  0.21468330444E+01  0.57993798359E+02  0.51125123055E+03  0.51455143832E+03  0.41800000000E+01 0. -1.
         -5    1    3    3    0  502  0.40529489105E+02 -0.48268333253E+02  0.23311653568E+03  0.24152280035E+03  0.41800000000E+01 0. -1.
        -11    1    4    4    0    0 -0.15597216488E+02 -0.48956213062E+02  0.16616584602E+03  0.17392835405E+03  0.00000000000E+00 0. -1.
         11    1    4    4    0    0 -0.27079105661E+02  0.39230747957E+02  0.22932867381E+03  0.23423059189E+03  0.00000000000E+00 0.  1.
</event>
<event>
 8    1  0.6860461E-009  0.1072372E+03  0.7561462E-02  0.1265773E+00
          2   -1    0    0  501    0  0.00000000000E+00  0.00000000000E+00  0.10296632524E+03  0.10296632524E+03  0.00000000000E+00 0.  1.
         -2   -1    0    0    0  501 -0.00000000000E+00 -0.00000000000E+00 -0.14592326906E+03  0.14592326906E+03  0.00000000000E+00 0. -1.
         25    2    1    2    0    0 -0.30045455400E+02  0.24763438233E+02 -0.69326007808E+02  0.14822076433E+03  0.12508933750E+03 0.  0.
         23    2    1    2    0    0  0.30045455400E+02 -0.24763438233E+02  0.26369063992E+02  0.10066882997E+03  0.89010833767E+02 0.  0.
          5    1    3    3  502    0  0.45614699276E+02  0.15135388510E+02 -0.49895792678E+02  0.69403481918E+02  0.41800000000E+01 0.  1.
         -5    1    3    3    0  502 -0.75660154676E+02  0.96280497227E+01 -0.19430215130E+02  0.78817282414E+02  0.41800000000E+01 0.  1.
        -11    1    4    4    0    0 -0.17919936077E+02 -0.36328750564E+02  0.31146600129E+02  0.51098071648E+02  0.00000000000E+00 0.  1.
         11    1    4    4    0    0  0.47965391477E+02  0.11565312331E+02 -0.47775361370E+01  0.49570758320E+02  0.00000000000E+00 0. -1.
</event>
<event>
 8    1  0.6860461E-009  0.1062853E+03  0.7561462E-02  0.1267608E+00
         -1   -1    0    0    0  501 -0.00000000000E+00  0.00000000000E+00  0.10232441353E+03  0.10232441353E+03  0.00000000000E+00 0.  1.
          1   -1    0    0  501    0  0.00000000000E+00 -0.00000000000E+00 -0.16671324511E+03  0.16671324511E+03  0.00000000000E+00 0. -1.
         25    2    1    2    0    0  0.56480368651E+02 -0.94700618277E+01  0.11191503045E+02  0.13802512838E+03  0.12508386071E+03 0.  0.
         23    2    1    2    0    0 -0.56480368651E+02  0.94700618277E+01 -0.75580334631E+02  0.13101253025E+03  0.90400121608E+02 0.  0.
          5    1    3    3  502    0  0.56407564302E+02 -0.62530413781E+02  0.54805126653E+01  0.84494818641E+02  0.41800000000E+01 0. -1.
         -5    1    3    3    0  502  0.72804348407E-01  0.53060351953E+02  0.57109903796E+01  0.53530309741E+02  0.41800000000E+01 0. -1.
        -11    1    4    4    0    0 -0.24315361606E+02 -0.19939488047E+02  0.11622674097E+02  0.33524715461E+02  0.00000000000E+00 0.  1.
         11    1    4    4    0    0 -0.32165007045E+02  0.29409549875E+02 -0.87203008728E+02  0.97487814793E+02  0.00000000000E+00 0. -1.
</event>
<event>
 8    1  0.6860461E-009  0.9292669E+02  0.7561462E-02  0.1295915E+00
          1   -1    0    0  501    0  0.00000000000E+00  0.00000000000E+00  0.84503836568E+02  0.84503836568E+02  0.00000000000E+00 0. -1.
         -1   -1    0    0    0  501 -0.00000000000E+00 -0.00000000000E+00 -0.19499851663E+03  0.19499851663E+03  0.00000000000E+00 0.  1.
         25    2    1    2    0    0  0.52923469344E+02 -0.38897975934E+02 -0.87591598877E+02  0.16623433719E+03  0.12509044939E+03 0.  0.
         23    2    1    2    0    0 -0.52923469344E+02  0.38897975934E+02 -0.22903081180E+02  0.11326801600E+03  0.89393211052E+02 0.  0.
          5    1    3    3  502    0  0.39590677634E+02 -0.47698671557E+02 -0.11701937909E+03  0.13248997134E+03  0.41800000000E+01 0.  1.
         -5    1    3    3    0  502  0.13332791709E+02  0.88006956234E+01  0.29427780214E+02  0.33744365849E+02  0.41800000000E+01 0.  1.
        -11    1    4    4    0    0 -0.62417234717E+02 -0.46972846452E+01 -0.27591847569E+02  0.68405304802E+02  0.00000000000E+00 0.  1.
         11    1    4    4    0    0  0.94937653731E+01  0.43595260579E+02  0.46887663893E+01  0.44862711199E+02  0.00000000000E+00 0. -1.
</event>
<event>
 8    1  0.6860461E-009  0.9388592E+02  0.7561462E-02  0.1293705E+00
          1   -1    0    0  501    0  0.00000000000E+00  0.00000000000E+00  0.68901265295E+02  0.68901265295E+02  0.00000000000E+00 0. -1.
         -1   -1    0    0    0  501 -0.00000000000E+00 -0.00000000000E+00 -0.27355838931E+03  0.27355838931E+03  0.00000000000E+00 0.  1.
         25    2    1    2    0    0  0.24758766169E+02 -0.73719955850E+02 -0.16178430489E+03  0.21878603532E+03  0.12508213122E+03 0.  0.
         23    2    1    2    0    0 -0.24758766169E+02  0.73719955850E+02 -0.42872819123E+02  0.12367361928E+03  0.86078203357E+02 0.  0.
          5    1    3    3  502    0  0.43091543713E+01 -0.80018782676E+02 -0.17553713329E+03  0.19300863182E+03  0.41800000000E+01 0.  1.
         -5    1    3    3    0  502  0.20449611798E+02  0.62988268257E+01  0.13752828406E+02  0.25777403501E+02  0.41800000000E+01 0.  1.
        -11    1    4    4    0    0 -0.26005730747E+02  0.22204830149E+02  0.22123620105E+02  0.40728455412E+02  0.00000000000E+00 0. -1.
         11    1    4    4    0    0  0.12469645779E+01  0.51515125701E+02 -0.64996439228E+02  0.82945163867E+02  0.00000000000E+00 0.  1.
</event>
<event>
 8    1  0.6860461E-009  0.2443257E+03  0.7561462E-02  0.1116944E+00
          1   -1    0    0  501    0  0.00000000000E+00  0.00000000000E+00  0.14390263344E+04  0.14390263344E+04  0.00000000000E+00 0. -1.
         -1   -1    0    0    0  501 -0.00000000000E+00 -0.00000000000E+00 -0.48048700747E+02  0.48048700747E+02  0.00000000000E+00 0.  1.
         25    2    1    2    0    0 -0.20565221140E+03  0.11405647090E+03  0.60136004304E+03  0.65771014496E+03  0.12508806019E+03 0.  0.
         23    2    1    2    0    0  0.20565221140E+03 -0.11405647090E+03  0.78961759060E+03  0.82936489018E+03  0.95123451744E+02 0.  0.
          5    1    3    3  502    0 -0.68883950319E+02  0.27456250653E+02  0.35645054846E+03  0.36410617986E+03  0.41800000000E+01 0. -1.
         -5    1    3    3    0  502 -0.13676826108E+03  0.86600220251E+02  0.24490949458E+03  0.29360396510E+03  0.41800000000E+01 0. -1.
        -11    1    4    4    0    0  0.88164505625E+02  0.76405878176E+00  0.23805140123E+03  0.25385435483E+03  0.00000000000E+00 0. -1.
         11    1    4    4    0    0  0.11748770577E+03 -0.11482052969E+03  0.55156618937E+03  0.57551053535E+03  0.00000000000E+00 0.  1.
</event>
<event>
 8    1  0.6860461E-009  0.7409916E+02  0.7561462E-02  0.1346684E+00
          2   -1    0    0  501    0  0.00000000000E+00  0.00000000000E+00  0.23530429450E+03  0.23530429450E+03  0.00000000000E+00 0. -1.
         -2   -1    0    0    0  501 -0.00000000000E+00 -0.00000000000E+00 -0.51371242768E+02  0.51371242768E+02  0.00000000000E+00 0.  1.
         25    2    1    2    0    0  0.14749769157E+02 -0.19893698745E+01  0.90246415080E+02  0.15497317871E+03  0.12510298718E+03 0.  0.
         23    2    1    2    0    0 -0.14749769157E+02  0.19893698745E+01  0.93686636650E+02  0.13170235856E+03  0.91360889224E+02 0.  0.
          5    1    3    3  502    0 -0.39070515628E+01 -0.30671507374E+02  0.11061733156E+03  0.11493334093E+03  0.41800000000E+01 0. -1.
         -5    1    3    3    0  502  0.18656820720E+02  0.28682137499E+02 -0.20370916481E+02  0.40039837777E+02  0.41800000000E+01 0. -1.
        -11    1    4    4    0    0  0.19947799970E+02 -0.29539798702E+02  0.12168776551E+02  0.37664221135E+02  0.00000000000E+00 0.  1.
         11    1    4    4    0    0 -0.34697569127E+02  0.31529168576E+02  0.81517860099E+02  0.94038137421E+02  0.00000000000E+00 0. -1.
</event>
<event>
 8    1  0.6860461E-009  0.1124560E+03  0.7561462E-02  0.1256088E+00
          1   -1    0    0  501    0  0.00000000000E+00  0.00000000000E+00  0.58666504209E+03  0.58666504209E+03  0.00000000000E+00 0. -1.
         -1   -1    0    0    0  501 -0.00000000000E+00 -0.00000000000E+00 -0.39148574702E+02  0.39148574702E+02  0.00000000000E+00 0.  1.
         25    2    1    2    0    0 -0.31346276324E+02 -0.32156267935E+02  0.97369473769E+02  0.16475551032E+03  0.12508776579E+03 0.  0.
         23    2    1    2    0    0  0.31346276324E+02  0.32156267935E+02  0.45014699362E+03  0.46105810648E+03  0.89026103326E+02 0.  0.
          5    1    3    3  502    0  0.35891655298E+02 -0.45535561043E+02  0.20422768258E+02  0.61613797991E+02  0.41800000000E+01 0. -1.
         -5    1    3    3    0  502 -0.67237931622E+02  0.13379293108E+02  0.76946705511E+02  0.10314171233E+03  0.41800000000E+01 0. -1.
        -11    1    4    4    0    0  0.36732038773E+02  0.59665895947E+02  0.35586822028E+03  0.36270022334E+03  0.00000000000E+00 0. -1.
         11    1    4    4    0    0 -0.53857624492E+01 -0.27509628012E+02  0.94278773347E+02  0.98357883133E+02  0.00000000000E+00 0.  1.
</event>
<event>
 8    1  0.6860461E-009  0.1063702E+03  0.7561462E-02  0.1267443E+00
          2   -1    0    0  501    0  0.00000000000E+00  0.00000000000E+00  0.28568414337E+03  0.28568414337E+03  0.00000000000E+00 0. -1.
         -2   -1    0    0    0  501 -0.00000000000E+00 -0.00000000000E+00 -0.48018752903E+02  0.48018752903E+02  0.00000000000E+00 0.  1.
         25    2    1    2    0    0  0.18904547635E+02 -0.21356435582E+02  0.89828543930E+02  0.15662224639E+03  0.12509149251E+03 0.  0.
         23    2    1    2    0    0 -0.18904547635E+02  0.21356435582E+02  0.14783684654E+03  0.17708064988E+03  0.93211287436E+02 0.  0.
          5    1    3    3  502    0 -0.48917898901E+02 -0.12488289290E+01  0.65143112215E+02  0.81581970285E+02  0.41800000000E+01 0.  1.
         -5    1    3    3    0  502  0.67822446536E+02 -0.20107606653E+02  0.24685431716E+02  0.75040276108E+02  0.41800000000E+01 0.  1.
        -11    1    4    4    0    0 -0.12865252342E+02 -0.34376727477E+02  0.86607074442E+02  0.94064124157E+02  0.00000000000E+00 0. -1.
         11    1    4    4    0    0 -0.60392952923E+01  0.55733163060E+02  0.61229772095E+02  0.83016525723E+02  0.00000000000E+00 0.  1.
</event>
<event>
 8    1  0.6860461E-009  0.9677148E+02  0.7561462E-02  0.1287235E+00
         -2   -1    0    0    0  501 -0.00000000000E+00  0.00000000000E+00  0.11669297754E+02  0.11669297754E+02  0.00000000000E+00 0.  1.
          2   -1    0    0  501    0  0.00000000000E+00 -0.00000000000E+00 -0.16717585222E+04  0.16717585222E+04  0.00000000000E+00 0. -1.
         25    2    1    2    0    0 -0.14301915632E+02  0.29003001117E+02 -0.14021360474E+04  0.14080754165E+04  0.12508063145E+03 0.  0.
         23    2    1    2    0    0  0.14301915632E+02 -0.29003001117E+02 -0.25795317708E+03  0.27535240345E+03  0.90738005586E+02 0.  0.
          5    1    3    3  502    0  0.34455673611E+02  0.33288086268E+02 -0.11605296727E+04  0.11615256707E+04  0.41800000000E+01 0. -1.
         -5    1    3    3    0  502 -0.48757589244E+02 -0.42850851511E+01 -0.24160637469E+03  0.24654974580E+03  0.41800000000E+01 0. -1.
        -11    1    4    4    0    0 -0.34753733557E+02  0.70339395909E+01 -0.95052715762E+02  0.10145105754E+03  0.00000000000E+00 0.  1.
         11    1    4    4    0    0  0.49055649189E+02 -0.36036940708E+02 -0.16290046131E+03  0.17390134591E+03  0.00000000000E+00 0. -1.
</event>
<event>
 8    1  0.6860461E-009  0.1202259E+03  0.7561462E-02  0.1242725E+00
         -1   -1    0    0    0  501 -0.00000000000E+00  0.00000000000E+00  0.53747258409E+03  0.53747258409E+03  0.00000000000E+00 0.  1.
          1   -1    0    0  501    0  0.00000000000E+00 -0.00000000000E+00 -0.48910362962E+02  0.48910362962E+02  0.00000000000E+00 0. -1.
         25    2    1    2    0    0 -0.10336235079E+03 -0.59682570590E+02  0.28831116249E+03  0.33617963944E+03  0.12509052229E+03 0.  0.
         23    2    1    2    0    0  0.10336235079E+03  0.59682570590E+02  0.20025105864E+03  0.25020330761E+03  0.90859363088E+02 0.  0.
          5    1    3    3  502    0 -0.74236577637E+02 -0.34152355071E+02  0.52600384287E+02  0.97271401981E+02  0.41800000000E+01 0.  1.
         -5    1    3    3    0  502 -0.29125773150E+02 -0.25530215519E+02  0.23571077820E+03  0.23890823746E+03  0.41800000000E+01 0.  1.
        -11    1    4    4    0    0  0.21788556746E+02  0.85963675586E+01  0.12728437135E+03  0.12942159762E+03  0.00000000000E+00 0.  1.
         11    1    4    4    0    0  0.81573794041E+02  0.51086203031E+02  0.72966687288E+02  0.12078170999E+03  0.00000000000E+00 0. -1.
</event>
<event>
 8    1  0.6860461E-009  0.1107164E+03  0.7561462E-02  0.1259249E+00
         -3   -1    0    0    0  501 -0.00000000000E+00  0.00000000000E+00  0.14816470088E+03  0.14816470088E+03  0.00000000000E+00 0.  1.
          3   -1    0    0  501    0  0.00000000000E+00 -0.00000000000E+00 -0.14871127147E+03  0.14871127147E+03  0.00000000000E+00 0. -1.
         25    2    1    2    0    0  0.44138631303E+02 -0.53673266055E+00 -0.91310830695E+02  0.16105439654E+03  0.12510932814E+03 0.  0.
         23    2    1    2    0    0 -0.44138631303E+02  0.53673266055E+00  0.90764260105E+02  0.13582157581E+03  0.90889178058E+02 0.  0.
          5    1    3    3  502    0  0.82109108618E+02  0.20375907408E+02 -0.78933151371E+02  0.11577995555E+03  0.41800000000E+01 0. -1.
         -5    1    3    3    0  502 -0.37970477314E+02 -0.20912640068E+02 -0.12377679324E+02  0.45274440997E+02  0.41800000000E+01 0. -1.
        -11    1    4    4    0    0 -0.61031446717E+01  0.38771576495E+02  0.13317591651E+02  0.41446854720E+02  0.00000000000E+00 0. -1.
         11    1    4    4    0    0 -0.38035486632E+02 -0.38234843835E+02  0.77446668454E+02  0.94374721091E+02  0.00000000000E+00 0.  1.
</event>
<event>
 8    1  0.6860461E-009  0.1352984E+03  0.7561462E-02  0.1219799E+00
         -2   -1    0    0    0  501 -0.00000000000E+00  0.00000000000E+00  0.42689300688E+02  0.42689300688E+02  0.00000000000E+00 0.  1.
          2   -1    0    0  501    0  0.00000000000E+00 -0.00000000000E+00 -0.52833569465E+03  0.52833569465E+03  0.00000000000E+00 0. -1.
         25    2    1    2    0    0  0.98736272079E+02  0.23901233641E+02 -0.22395662629E+03  0.27591099919E+03  0.12510071392E+03 0.  0.
         23    2    1    2    0    0 -0.98736272079E+02 -0.23901233641E+02 -0.26168976768E+03  0.29511399615E+03  0.91052818859E+02 0.  0.
          5    1    3    3  502    0  0.46367946793E+02 -0.45709718773E+02 -0.14183315213E+03  0.15612008302E+03  0.41800000000E+01 0. -1.
         -5    1    3    3    0  502  0.52368325286E+02  0.69610952414E+02 -0.82123474161E+02  0.11979091617E+03  0.41800000000E+01 0. -1.
        -11    1    4    4    0    0 -0.94321286306E+02 -0.49437604460E+00 -0.25257080821E+03  0.26960853588E+03  0.00000000000E+00 0. -1.
         11    1    4    4    0    0 -0.44149857727E+01 -0.23406857597E+02 -0.91189594691E+01  0.25505460273E+02  0.00000000000E+00 0.  1.
</event>
<event>
 8    1  0.6860461E-009  0.9608382E+02  0.7561462E-02  0.1288754E+00
         -3   -1    0    0    0  501 -0.00000000000E+00  0.00000000000E+00  0.82165376422E+02  0.82165376422E+02  0.00000000000E+00 0.  1.
          3   -1    0    0  501    0  0.00000000000E+00 -0.00000000000E+00 -0.34467765981E+03  0.34467765981E+03  0.00000000000E+00 0. -1.
         25    2    1    2    0    0 -0.63950365165E+02 -0.70361862228E+02 -0.25303414811E+03  0.29785113366E+03  0.12509427187E+03 0.  0.
         23    2    1    2    0    0  0.63950365165E+02  0.70361862228E+02 -0.94781352751E+01  0.12899190257E+03  0.86652380339E+02 0.  0.
          5    1    3    3  502    0 -0.27746091737E+02 -0.20777099168E+02  0.25077015838E+01  0.35004205801E+02  0.41800000000E+01 0. -1.
         -5    1    3    3    0  502 -0.36204273429E+02 -0.49584763060E+02 -0.25554184969E+03  0.26284692786E+03  0.41800000000E+01 0. -1.
        -11    1    4    4    0    0  0.55283168384E+02  0.54442833718E+02  0.31842887772E+02  0.83870259041E+02  0.00000000000E+00 0.  1.
         11    1    4    4    0    0  0.86671967812E+01  0.15919028509E+02 -0.41321023047E+02  0.45121643525E+02  0.00000000000E+00 0. -1.
</event>
<event>
 8    1  0.6860461E-009  0.1115351E+03  0.7561462E-02  0.1257753E+00
          3   -1    0    0  501    0  0.00000000000E+00  0.00000000000E+00  0.23602284086E+03  0.23602284086E+03  0.00000000000E+00 0. -1.
         -3   -1    0    0    0  501 -0.00000000000E+00 -0.00000000000E+00 -0.74457652211E+02  0.74457652211E+02  0.00000000000E+00 0.  1.
         25    2    1    2    0    0 -0.38692789284E+02  0.29029521075E+02  0.20298749105E+02  0.13564427594E+03  0.12508990904E+03 0.  0.
         23    2    1    2    0    0  0.38692789284E+02 -0.29029521075E+02  0.14126643955E+03  0.17483621713E+03  0.90948616490E+02 0.  0.
          5    1    3    3  502    0 -0.11808051199E+02 -0.44918652495E+02 -0.15441855689E+02  0.49122690503E+02  0.41800000000E+01 0.  1.
         -5    1    3    3    0  502 -0.26884738085E+02  0.73948173570E+02  0.35740604794E+02  0.86521585441E+02  0.41800000000E+01 0.  1.
        -11    1    4    4    0    0  0.28205587384E+02  0.27948898799E+02  0.86200451585E+02  0.94906343082E+02  0.00000000000E+00 0. -1.
         11    1    4    4    0    0  0.10487201900E+02 -0.56978419874E+02  0.55065987964E+02  0.79929874049E+02  0.00000000000E+00 0.  1.
</event>
<event>
 8    1  0.6860461E-009  0.1675931E+03  0.7561462E-02  0.1180381E+00
          1   -1    0    0  501    0  0.00000000000E+00  0.00000000000E+00  0.12063378117E+04  0.12063378117E+04  0.00000000000E+00 0. -1.
         -1   -1    0    0    0  501 -0.00000000000E+00 -0.00000000000E+00 -0.25898630319E+02  0.25898630319E+02  0.00000000000E+00 0.  1.
         25    2    1    2    0    0  0.12881331972E+03  0.51503933971E+02  0.58291419014E+03  0.61211144299E+03  0.12508372805E+03 0.  0.
         23    2    1    2    0    0 -0.12881331972E+03 -0.51503933971E+02  0.59752499124E+03  0.62012499902E+03  0.90958082134E+02 0.  0.
          5    1    3    3  502    0 -0.84203342096E+01 -0.15352924992E+02  0.18542540236E+03  0.18629725327E+03  0.41800000000E+01 0. -1.
         -5    1    3    3    0  502  0.13723365393E+03  0.66856858962E+02  0.39748878778E+03  0.42581418973E+03  0.41800000000E+01 0. -1.
        -11    1    4    4    0    0 -0.68104143740E+02  0.19705808500E+02  0.29829512661E+03  0.30660475509E+03  0.00000000000E+00 0.  1.
         11    1    4    4    0    0 -0.60709175985E+02 -0.71209742471E+02  0.29922986463E+03  0.31352024394E+03  0.00000000000E+00 0. -1.
</event>
<event>
 8    1  0.6860461E-009  0.1078588E+03  0.7561462E-02  0.1264587E+00
         -1   -1    0    0    0  501 -0.00000000000E+00  0.00000000000E+00  0.47552909362E+03  0.47552909362E+03  0.00000000000E+00 0.  1.
          1   -1    0    0  501    0  0.00000000000E+00 -0.00000000000E+00 -0.28826103098E+02  0.28826103098E+02  0.00000000000E+00 0. -1.
         25    2    1    2    0    0 -0.41679521100E+02  0.38703443701E+00  0.23113590982E+03  0.26610083962E+03  0.12509402769E+03 0.  0.
         23    2    1    2    0    0  0.41679521100E+02 -0.38703443701E+00  0.21556708070E+03  0.23825435710E+03  0.92512918663E+02 0.  0.
          5    1    3    3  502    0  0.43493649861E+02  0.97471148842E+01  0.97678775001E+02  0.10744914756E+03  0.41800000000E+01 0. -1.
         -5    1    3    3    0  502 -0.85173170961E+02 -0.93600804472E+01  0.13345713482E+03  0.15865169206E+03  0.41800000000E+01 0. -1.
        -11    1    4    4    0    0 -0.21511660839E+02 -0.39454564697E+01  0.12998197814E+03  0.13180907715E+03  0.00000000000E+00 0.  1.
         11    1    4    4    0    0  0.63191181940E+02  0.35584220327E+01  0.85585102564E+02  0.10644527995E+03  0.00000000000E+00 0. -1.
</event>
<event>
 8    1  0.6860461E-009  0.1123064E+03  0.7561462E-02  0.1256357E+00
          2   -1    0    0  501    0  0.00000000000E+00  0.00000000000E+00  0.13136355354E+04  0.13136355354E+04  0.00000000000E+00 0. -1.
         -2   -1    0    0    0  501 -0.00000000000E+00 -0.00000000000E+00 -0.11228698174E+02  0.11228698174E+02  0.00000000000E+00 0.  1.
         25    2    1    2    0    0 -0.26346859346E+01 -0.27177922157E+02  0.96750654316E+03  0.97594258600E+03  0.12509771821E+03 0.  0.
         23    2    1    2    0    0  0.26346859346E+01  0.27177922157E+02  0.33490029406E+03  0.34892164757E+03  0.94034717807E+02 0.  0.
          5    1    3    3  502    0 -0.63007618940E+02 -0.23515354131E+02  0.52021374798E+03  0.52455957518E+03  0.41800000000E+01 0.  1.
         -5    1    3    3    0  502  0.60372933006E+02 -0.36625680258E+01  0.44729279518E+03  0.45138301082E+03  0.41800000000E+01 0.  1.
        -11    1    4    4    0    0  0.12283976180E+02 -0.33230313421E+02  0.96503032532E+02  0.10280070568E+03  0.00000000000E+00 0.  1.
         11    1    4    4    0    0 -0.96492902449E+01  0.60408235577E+02  0.23839726153E+03  0.24612094188E+03  0.00000000000E+00 0. -1.
</event>
<event>
 8    1  0.6860461E-009  0.1151135E+03  0.7561462E-02  0.1251383E+00
         -2   -1    0    0    0  501 -0.00000000000E+00  0.00000000000E+00  0.32681346461E+02  0.32681346461E+02  0.00000000000E+00 0.  1.
          2   -1    0    0  501    0  0.00000000000E+00 -0.00000000000E+00 -0.49772951263E+03  0.49772951263E+03  0.00000000000E+00 0. -1.
         25    2    1    2    0    0  0.58890876381E+02 -0.30291165478E+02 -0.27753658005E+03  0.31154289906E+03  0.12508690844E+03 0.  0.
         23    2    1    2    0    0 -0.58890876381E+02  0.30291165478E+02 -0.18751158612E+03  0.21886796003E+03  0.91416076107E+02 0.  0.
          5    1    3    3  502    0 -0.11072654545E+02 -0.62526434470E+02 -0.10961608953E+03  0.12674903617E+03  0.41800000000E+01 0. -1.
         -5    1    3    3    0  502  0.69963530926E+02  0.32235268992E+02 -0.16792049052E+03  0.18479386289E+03  0.41800000000E+01 0. -1.
        -11    1    4    4    0    0 -0.70575392366E+02  0.32253469371E+02 -0.19129217172E+03  0.20643126521E+03  0.00000000000E+00 0. -1.
         11    1    4    4    0    0  0.11684515985E+02 -0.19623038930E+01  0.37805856066E+01  0.12436694814E+02  0.00000000000E+00 0.  1.
</event>
<event>
 8    1  0.6860461E-009  0.2334705E+03  0.7561462E-02  0.1124221E+00
         -2   -1    0    0    0  501 -0.00000000000E+00  0.00000000000E+00  0.10725534010E+03  0.10725534010E+03  0.00000000000E+00 0.  1.
          2   -1    0    0  501    0  0.00000000000E+00 -0.00000000000E+00 -0.53853449351E+03  0.53853449351E+03  0.00000000000E+00 0. -1.
         25    2    1    2    0    0 -0.20043311660E+03 -0.74701287300E+02 -0.21493910742E+03  0.32802438761E+03  0.12508981740E+03 0.  0.
         23    2    1    2    0    0  0.20043311660E+03  0.74701287300E+02 -0.21634004600E+03  0.31776544600E+03  0.91750458388E+02 0.  0.
          5    1    3    3  502    0 -0.58360786943E+02 -0.80898016532E+02 -0.12390218817E+03  0.15912163639E+03  0.41800000000E+01 0. -1.
         -5    1    3    3    0  502 -0.14207232966E+03  0.61967292318E+01 -0.91036919243E+02  0.16890275123E+03  0.41800000000E+01 0. -1.
        -11    1    4    4    0    0  0.13766313196E+02  0.29822735777E+02 -0.67452305051E+01  0.33532149988E+02  0.00000000000E+00 0. -1.
         11    1    4    4    0    0  0.18666680340E+03  0.44878551523E+02 -0.20959481549E+03  0.28423329601E+03  0.00000000000E+00 0.  1.
</event>
<event>
 8    1  0.6860461E-009  0.9828262E+02  0.7561462E-02  0.1283949E+00
         -1   -1    0    0    0  501 -0.00000000000E+00  0.00000000000E+00  0.10501684978E+03  0.10501684978E+03  0.00000000000E+00 0.  1.
          1   -1    0    0  501    0  0.00000000000E+00 -0.00000000000E+00 -0.14627674350E+03  0.14627674350E+03  0.00000000000E+00 0. -1.
         25    2    1    2    0    0 -0.56835355005E+02  0.15725177914E+02 -0.59531841293E+02  0.15056430211E+03  0.12509208665E+03 0.  0.
         23    2    1    2    0    0  0.56835355005E+02 -0.15725177914E+02  0.18271947566E+02  0.10072929117E+03  0.79592633031E+02 0.  0.
          5    1    3    3  502    0 -0.60526547530E+02  0.64398865593E+02 -0.30338474350E+02  0.93533802828E+02  0.41800000000E+01 0.  1.
         -5    1    3    3    0  502  0.36911925256E+01 -0.48673687679E+02 -0.29193366943E+02  0.57030499279E+02  0.41800000000E+01 0.  1.
        -11    1    4    4    0    0  0.14400349079E+02 -0.22628005726E+01  0.46018008944E+02  0.48271601042E+02  0.00000000000E+00 0.  1.
         11    1    4    4    0    0  0.42435005925E+02 -0.13462377341E+02 -0.27746061377E+02  0.52457690128E+02  0.00000000000E+00 0. -1.
</event>
<event>
 8    1  0.6860461E-009  0.1099288E+03  0.7561462E-02  0.1260702E+00
         -3   -1    0    0    0  501 -0.00000000000E+00  0.00000000000E+00  0.39610801817E+02  0.39610801817E+02  0.00000000000E+00 0.  1.
          3   -1    0    0  501    0  0.00000000000E+00 -0.00000000000E+00 -0.40412925984E+03  0.40412925984E+03  0.00000000000E+00 0. -1.
         25    2    1    2    0    0  0.42311213582E+02 -0.19174218255E+01 -0.11536993720E+03  0.17535923078E+03  0.12508685826E+03 0.  0.
         23    2    1    2    0    0 -0.42311213582E+02  0.19174218255E+01 -0.24914852082E+03  0.26838083087E+03  0.90329229236E+02 0.  0.
          5    1    3    3  502    0  0.61560480381E+02 -0.42836938106E+02 -0.10444401402E+03  0.12864960348E+03  0.41800000000E+01 0.  1.
         -5    1    3    3    0  502 -0.19249266798E+02  0.40919516281E+02 -0.10925923181E+02  0.46709627298E+02  0.41800000000E+01 0.  1.
        -11    1    4    4    0    0 -0.40098388818E+02 -0.40419228015E+02 -0.15505904381E+03  0.16518142101E+03  0.00000000000E+00 0. -1.
         11    1    4    4    0    0 -0.22128247645E+01  0.42336649841E+02 -0.94089477003E+02  0.10319940986E+03  0.00000000000E+00 0.  1.
</event>
<event>
 8    1  0.6860461E-009  0.2021498E+03  0.7561462E-02  0.1147938E+00
          1   -1    0    0  501    0  0.00000000000E+00  0.00000000000E+00  0.26760017945E+03  0.26760017945E+03  0.00000000000E+00 0. -1.
         -1   -1    0    0    0  501 -0.00000000000E+00 -0.00000000000E+00 -0.18956661254E+03  0.18956661254E+03  0.00000000000E+00 0.  1.
         25    2    1    2    0    0  0.28517352788E+02 -0.19309694485E+03  0.76411347934E+01  0.23195973545E+03  0.12508901795E+03 0.  0.
         23    2    1    2    0    0 -0.28517352788E+02  0.19309694485E+03  0.70392432114E+02  0.22520705653E+03  0.87541157709E+02 0.  0.
          5    1    3    3  502    0  0.28073230842E+02 -0.15874638417E+03 -0.46383201792E+02  0.16780165251E+03  0.41800000000E+01 0.  1.
         -5    1    3    3    0  502  0.44412194587E+00 -0.34350560676E+02  0.54024336586E+02  0.64158082940E+02  0.41800000000E+01 0.  1.
        -11    1    4    4    0    0  0.17729010755E+02  0.12414455607E+03  0.66842915032E+02  0.14210617127E+03  0.00000000000E+00 0.  1.
         11    1    4    4    0    0 -0.46246363543E+02  0.68952388776E+02  0.35495170827E+01  0.83100885256E+02  0.00000000000E+00 0. -1.
</event>
<event>
 8    1  0.6860461E-009  0.1153201E+03  0.7561462E-02  0.1251023E+00
         -2   -1    0    0    0  501 -0.00000000000E+00  0.00000000000E+00  0.33771316636E+02  0.33771316636E+02  0.00000000000E+00 0.  1.
          2   -1    0    0  501    0  0.00000000000E+00 -0.00000000000E+00 -0.44184311805E+03  0.44184311805E+03  0.00000000000E+00 0. -1.
         25    2    1    2    0    0 -0.56100994013E+02  0.58862313404E+01 -0.22898042322E+03  0.26694888963E+03  0.12509079185E+03 0.  0.
         23    2    1    2    0    0  0.56100994013E+02 -0.58862313404E+01 -0.17909137819E+03  0.20866554506E+03  0.91025373954E+02 0.  0.
          5    1    3    3  502    0 -0.57313477259E+02  0.57829848463E+02 -0.10884183277E+03  0.13598949595E+03  0.41800000000E+01 0. -1.
         -5    1    3    3    0  502  0.12124832458E+01 -0.51943617123E+02 -0.12013859045E+03  0.13095939368E+03  0.41800000000E+01 0. -1.
        -11    1    4    4    0    0  0.46968642395E+02 -0.39987429241E+02 -0.66659295072E+02  0.90821305238E+02  0.00000000000E+00 0.  1.
         11    1    4    4    0    0  0.91323516179E+01  0.34101197900E+02 -0.11243208312E+03  0.11784423982E+03  0.00000000000E+00 0. -1.
</event>
<event>
 8    1  0.6860461E-009  0.1105229E+03  0.7561462E-02  0.1259605E+00
          2   -1    0    0  501    0  0.00000000000E+00  0.00000000000E+00  0.41862248821E+03  0.41862248821E+03  0.00000000000E+00 0. -1.
         -2   -1    0    0    0  501 -0.00000000000E+00 -0.00000000000E+00 -0.31973242253E+02  0.31973242253E+02  0.00000000000E+00 0.  1.
         25    2    1    2    0    0 -0.11418070653E+02  0.35163772458E+02  0.19088766870E+03  0.23119761138E+03  0.12508944885E+03 0.  0.
         23    2    1    2    0    0  0.11418070653E+02 -0.35163772458E+02  0.19576157726E+03  0.21939811908E+03  0.91902536944E+02 0.  0.
          5    1    3    3  502    0 -0.51002153512E+02  0.63272313598E+02  0.12727575437E+03  0.15106685732E+03  0.41800000000E+01 0. -1.
         -5    1    3    3    0  502  0.39584082859E+02 -0.28108541140E+02  0.63611914331E+02  0.80130754057E+02  0.41800000000E+01 0. -1.
        -11    1    4    4    0    0  0.33503612378E+02  0.14562007758E+02  0.38882804011E+02  0.53351818714E+02  0.00000000000E+00 0.  1.
         11    1    4    4    0    0 -0.22085541725E+02 -0.49725780216E+02  0.15687877325E+03  0.16604630037E+03  0.00000000000E+00 0. -1.
</event>
<event>
 8    1  0.6860461E-009  0.7744075E+02  0.7561462E-02  0.1336475E+00
         -1   -1    0    0    0  501 -0.00000000000E+00  0.00000000000E+00  0.12468516223E+02  0.12468516223E+02  0.00000000000E+00 0.  1.
          1   -1    0    0  501    0  0.00000000000E+00 -0.00000000000E+00 -0.98437048816E+03  0.98437048816E+03  0.00000000000E+00 0. -1.
         25    2    1    2    0    0 -0.12908295898E+02 -0.14176732281E+02 -0.56779206133E+03  0.58172444529E+03  0.12509157243E+03 0.  0.
         23    2    1    2    0    0  0.12908295898E+02  0.14176732281E+02 -0.40410991061E+03  0.41511455910E+03  0.92992867915E+02 0.  0.
          5    1    3    3  502    0  0.93440817411E+01  0.21520430030E+02 -0.16905266197E+02  0.29218165539E+02  0.41800000000E+01 0.  1.
         -5    1    3    3    0  502 -0.22252377639E+02 -0.35697162311E+02 -0.55088679513E+03  0.55250627975E+03  0.41800000000E+01 0.  1.
        -11    1    4    4    0    0  0.49896931068E+02  0.23776494510E+01 -0.29729259794E+03  0.30146018930E+03  0.00000000000E+00 0. -1.
         11    1    4    4    0    0 -0.36988635169E+02  0.11799082830E+02 -0.10681731267E+03  0.11365436980E+03  0.00000000000E+00 0.  1.
</event>
<event>
 8    1  0.6860461E-009  0.1060639E+03  0.7561462E-02  0.1268038E+00
          1   -1    0    0  501    0  0.00000000000E+00  0.00000000000E+00  0.11824136486E+03  0.11824136486E+03  0.00000000000E+00 0. -1.
         -1   -1    0    0    0  501 -0.00000000000E+00 -0.00000000000E+00 -0.11131162014E+03  0.11131162014E+03  0.00000000000E+00 0.  1.
         25    2    1    2    0    0  0.11829254062E+02  0.25533924282E+02 -0.21501441344E+02  0.12999972838E+03  0.12508279201E+03 0.  0.
         23    2    1    2    0    0 -0.11829254062E+02 -0.25533924282E+02  0.28431186064E+02  0.99553256626E+02  0.91162525322E+02 0.  0.
          5    1    3    3  502    0  0.22178080596E+02  0.69045191988E+02  0.12441272734E+02  0.73697784654E+02  0.41800000000E+01 0. -1.
         -5    1    3    3    0  502 -0.10348826534E+02 -0.43511267706E+02 -0.33942714078E+02  0.56301943723E+02  0.41800000000E+01 0. -1.
        -11    1    4    4    0    0 -0.32408846450E+02 -0.51859132585E+02  0.24616000180E+02  0.65921547506E+02  0.00000000000E+00 0. -1.
         11    1    4    4    0    0  0.20579592388E+02  0.26325208303E+02  0.38151858839E+01  0.33631709121E+02  0.00000000000E+00 0.  1.
</event>
<event>
 8    1  0.6860461E-009  0.1602282E+03  0.7561462E-02  0.1188439E+00
         -2   -1    0    0    0  501 -0.00000000000E+00  0.00000000000E+00  0.32756699798E+02  0.32756699798E+02  0.00000000000E+00 0. -1.
          2   -1    0    0  501    0  0.00000000000E+00 -0.00000000000E+00 -0.14733138014E+04  0.14733138014E+04  0.00000000000E+00 0.  1.
         25    2    1    2    0    0 -0.13091588103E+03  0.42593189480E+02 -0.11980690746E+04  0.12124230193E+04  0.12508765950E+03 0.  0.
         23    2    1    2    0    0  0.13091588103E+03 -0.42593189480E+02 -0.24248802701E+03  0.29364748189E+03  0.92061135558E+02 0.  0.
          5    1    3    3  502    0 -0.60808867060E+01  0.30171523901E+02 -0.61057453902E+02  0.68503891237E+02  0.41800000000E+01 0. -1.
         -5    1    3    3    0  502 -0.12483499432E+03  0.12421665579E+02 -0.11370116207E+04  0.11439191281E+04  0.41800000000E+01 0. -1.
        -11    1    4    4    0    0  0.10521879475E+03  0.96430732365E+01 -0.13527144244E+03  0.17164599259E+03  0.00000000000E+00 0.  1.
         11    1    4    4    0    0  0.25697086280E+02 -0.52236262716E+02 -0.10721658457E+03  0.12200148930E+03  0.00000000000E+00 0. -1.
</event>
<event>
 8    1  0.6860461E-009  0.8472747E+02  0.7561462E-02  0.1316147E+00
         -1   -1    0    0    0  501 -0.00000000000E+00  0.00000000000E+00  0.23998210153E+02  0.23998210153E+02  0.00000000000E+00 0.  1.
          1   -1    0    0  501    0  0.00000000000E+00 -0.00000000000E+00 -0.12808292153E+04  0.12808292153E+04  0.00000000000E+00 0. -1.
         25    2    1    2    0    0  0.46405273177E+00 -0.11823668692E+02 -0.11839848696E+04  0.11906341914E+04  0.12509832839E+03 0.  0.
         23    2    1    2    0    0 -0.46405273177E+00  0.11823668692E+02 -0.72846135535E+02  0.11419323406E+03  0.87140809933E+02 0.  0.
          5    1    3    3  502    0 -0.63139711631E+00 -0.68578370000E+02 -0.63474750503E+03  0.63845536965E+03  0.41800000000E+01 0.  1.
         -5    1    3    3    0  502  0.10954498481E+01  0.56754701308E+02 -0.54923736455E+03  0.55217882172E+03  0.41800000000E+01 0.  1.
        -11    1    4    4    0    0 -0.10600139686E+02 -0.13141067284E+02 -0.83521960410E+02  0.85211316628E+02  0.00000000000E+00 0. -1.
         11    1    4    4    0    0  0.10136086954E+02  0.24964735976E+02  0.10675824876E+02  0.28981917429E+02  0.00000000000E+00 0.  1.
</event>
<event>
 8    1  0.6860461E-009  0.9476435E+02  0.7561462E-02  0.1291708E+00
          1   -1    0    0  501    0  0.00000000000E+00  0.00000000000E+00  0.47125970186E+03  0.47125970186E+03  0.00000000000E+00 0. -1.
         -1   -1    0    0    0  501 -0.00000000000E+00 -0.00000000000E+00 -0.25326015127E+02  0.25326015127E+02  0.00000000000E+00 0.  1.
         25    2    1    2    0    0  0.84738226136E+01 -0.75917096770E+01  0.30241115249E+03  0.32746617437E+03  0.12510855480E+03 0.  0.
         23    2    1    2    0    0 -0.84738226136E+01  0.75917096770E+01  0.14352253424E+03  0.16911954261E+03  0.88731404433E+02 0.  0.
          5    1    3    3  502    0 -0.44913175188E+02  0.29790473980E+02  0.87500612646E+02  0.10285181213E+03  0.41800000000E+01 0.  1.
         -5    1    3    3    0  502  0.53386997801E+02 -0.37382183657E+02  0.21491053984E+03  0.22461436224E+03  0.41800000000E+01 0.  1.
        -11    1    4    4    0    0  0.46209128684E+01 -0.30001778838E+02  0.11797604046E+03  0.12181874113E+03  0.00000000000E+00 0. -1.
         11    1    4    4    0    0 -0.13094735482E+02  0.37593488515E+02  0.25546493788E+02  0.47300801483E+02  0.00000000000E+00 0.  1.
</event>
<event>
 8    1  0.6860461E-009  0.1153244E+03  0.7561462E-02  0.1251016E+00
          2   -1    0    0  501    0  0.00000000000E+00  0.00000000000E+00  0.63865099721E+03  0.63865099721E+03  0.00000000000E+00 0. -1.
         -2   -1    0    0    0  501 -0.00000000000E+00 -0.00000000000E+00 -0.22916507219E+02  0.22916507219E+02  0.00000000000E+00 0.  1.
         25    2    1    2    0    0  0.10637969424E+02 -0.51269302213E+02  0.32307056380E+03  0.35037710976E+03  0.12509125511E+03 0.  0.
         23    2    1    2    0    0 -0.10637969424E+02  0.51269302213E+02  0.29266392618E+03  0.31119039467E+03  0.91899838410E+02 0.  0.
          5    1    3    3  502    0 -0.46353283576E+02 -0.60104852614E+02  0.21085916538E+03  0.22414343674E+03  0.41800000000E+01 0. -1.
         -5    1    3    3    0  502  0.56991253001E+02  0.88355504013E+01  0.11221139842E+03  0.12623367302E+03  0.41800000000E+01 0. -1.
        -11    1    4    4    0    0 -0.18217755547E+02 -0.18888051711E+02  0.14711893331E+03  0.14944104407E+03  0.00000000000E+00 0.  1.
         11    1    4    4    0    0  0.75797861227E+01  0.70157353923E+02  0.14554499287E+03  0.16174935059E+03  0.00000000000E+00 0. -1.
</event>
<event>
 8    1  0.6860461E-009  0.6379329E+02  0.7561462E-02  0.1382569E+00
          2   -1    0    0  501    0  0.00000000000E+00  0.00000000000E+00  0.39172159439E+03  0.39172159439E+03  0.00000000000E+00 0. -1.
         -2   -1    0    0    0  501 -0.00000000000E+00 -0.00000000000E+00 -0.41338262856E+02  0.41338262856E+02  0.00000000000E+00 0.  1.
         25    2    1    2    0    0  0.34190452204E+02 -0.21353513889E+02  0.28662981371E+03  0.31532415653E+03  0.12509082304E+03 0.  0.
         23    2    1    2    0    0 -0.34190452204E+02  0.21353513889E+02  0.63753517831E+02  0.11773570072E+03  0.90400357357E+02 0.  0.
          5    1    3    3  502    0  0.54828022100E+02 -0.31874359520E+02  0.59771312055E+02  0.87247744652E+02  0.41800000000E+01 0.  1.
         -5    1    3    3    0  502 -0.20637569896E+02  0.10520845631E+02  0.22685850165E+03  0.22807641188E+03  0.41800000000E+01 0.  1.
        -11    1    4    4    0    0 -0.90589754214E+01  0.77012784756E+01 -0.23270649603E+02  0.26132314455E+02  0.00000000000E+00 0.  1.
         11    1    4    4    0    0 -0.25131476782E+02  0.13652235413E+02  0.87024167434E+02  0.91603386262E+02  0.00000000000E+00 0. -1.
</event>
<event>
 8    1  0.6860461E-009  0.1297614E+03  0.7561462E-02  0.1227810E+00
          2   -1    0    0  501    0  0.00000000000E+00  0.00000000000E+00  0.69159479503E+03  0.69159479503E+03  0.00000000000E+00 0. -1.
         -2   -1    0    0    0  501 -0.00000000000E+00 -0.00000000000E+00 -0.25785413838E+02  0.25785413838E+02  0.00000000000E+00 0.  1.
         25    2    1    2    0    0  0.34709924458E+02 -0.64547561602E+02  0.28757422848E+03  0.32204970692E+03  0.12508361315E+03 0.  0.
         23    2    1    2    0    0 -0.34709924458E+02  0.64547561602E+02  0.37823515271E+03  0.39533050194E+03  0.88618330254E+02 0.  0.
          5    1    3    3  502    0 -0.29708078765E+02 -0.73880953170E+02  0.15988123235E+03  0.17866293975E+03  0.41800000000E+01 0. -1.
         -5    1    3    3    0  502  0.64418003222E+02  0.93333915676E+01  0.12769299614E+03  0.14338676717E+03  0.41800000000E+01 0. -1.
        -11    1    4    4    0    0 -0.64428562033E+02  0.49492474929E+02  0.25195160056E+03  0.26472656403E+03  0.00000000000E+00 0.  1.
         11    1    4    4    0    0  0.29718637575E+02  0.15055086673E+02  0.12628355215E+03  0.13060393791E+03  0.00000000000E+00 0. -1.
</event>
<event>
 8    1  0.6860461E-009  0.1037926E+03  0.7561462E-02  0.1272517E+00
          1   -1    0    0  501    0  0.00000000000E+00  0.00000000000E+00  0.82020019716E+03  0.82020019716E+03  0.00000000000E+00 0. -1.
         -1   -1    0    0    0  501 -0.00000000000E+00 -0.00000000000E+00 -0.20286988658E+02  0.20286988658E+02  0.00000000000E+00 0.  1.
         25    2    1    2    0    0 -0.55233968534E+02  0.65153410396E+01  0.55668510107E+03  0.57326937200E+03  0.12508489188E+03 0.  0.
         23    2    1    2    0    0  0.55233968534E+02 -0.65153410396E+01  0.24322810743E+03  0.26721781381E+03  0.95667166912E+02 0.  0.
          5    1    3    3  502    0 -0.88534122431E+02  0.17271909519E+02  0.27638549134E+03  0.29076282761E+03  0.41800000000E+01 0. -1.
         -5    1    3    3    0  502  0.33300153897E+02 -0.10756568480E+02  0.28029960972E+03  0.28250654440E+03  0.41800000000E+01 0. -1.
        -11    1    4    4    0    0  0.26049806195E+02 -0.33403163123E+02  0.34161257625E+02  0.54418335439E+02  0.00000000000E+00 0.  1.
         11    1    4    4    0    0  0.29184162339E+02  0.26887822084E+02  0.20906684981E+03  0.21279947837E+03  0.00000000000E+00 0. -1.
</event>
<event>
 8    1  0.6860461E-009  0.1502482E+03  0.7561462E-02  0.1200168E+00
         -2   -1    0    0    0  501 -0.00000000000E+00  0.00000000000E+00  0.23852423328E+02  0.23852423328E+02  0.00000000000E+00 0.  1.
          2   -1    0    0  501    0  0.00000000000E+00 -0.00000000000E+00 -0.11745760090E+04  0.11745760090E+04  0.00000000000E+00 0. -1.
         25    2    1    2    0    0  0.12591796785E+03  0.77599725870E+01 -0.57145398840E+03  0.59843304486E+03  0.12508755540E+03 0.  0.
         23    2    1    2    0    0 -0.12591796785E+03 -0.77599725870E+01 -0.57926959729E+03  0.59999538749E+03  0.92334429467E+02 0.  0.
          5    1    3    3  502    0  0.91465147313E+02 -0.43121624988E+02 -0.22732990601E+03  0.24884072472E+03  0.41800000000E+01 0.  1.
         -5    1    3    3    0  502  0.34452820533E+02  0.50881597575E+02 -0.34412408239E+03  0.34959232013E+03  0.41800000000E+01 0.  1.
        -11    1    4    4    0    0 -0.75644141926E+02 -0.31697895539E+02 -0.47263188024E+03  0.47969541066E+03  0.00000000000E+00 0. -1.
         11    1    4    4    0    0 -0.50273825921E+02  0.23937922952E+02 -0.10663771705E+03  0.12029997683E+03  0.00000000000E+00 0.  1.
</event>
<event>
 8    1  0.6860461E-009  0.1009055E+03  0.7561462E-02  0.1278403E+00
         -1   -1    0    0    0  501 -0.00000000000E+00  0.00000000000E+00  0.34541498231E+03  0.34541498231E+03  0.00000000000E+00 0.  1.
          1   -1    0    0  501    0  0.00000000000E+00 -0.00000000000E+00 -0.55637418747E+02  0.55637418747E+02  0.00000000000E+00 0. -1.
         25    2    1    2    0    0 -0.61618348838E+02 -0.46923849681E+02  0.20734485828E+03  0.25424081601E+03  0.12509130140E+03 0.  0.
         23    2    1    2    0    0  0.61618348838E+02  0.46923849681E+02  0.82432705276E+02  0.14681158504E+03  0.93593920859E+02 0.  0.
          5    1    3    3  502    0 -0.24028168654E+02 -0.50193508214E+02  0.14449773799E+02  0.57645550727E+02  0.41800000000E+01 0. -1.
         -5    1    3    3    0  502 -0.37590180184E+02  0.32696585329E+01  0.19289508448E+03  0.19659526528E+03  0.41800000000E+01 0. -1.
        -11    1    4    4    0    0  0.64518562242E+02  0.35965314081E+01  0.14563907250E+02  0.66239620366E+02  0.00000000000E+00 0. -1.
         11    1    4    4    0    0 -0.29002134037E+01  0.43327318273E+02  0.67868798026E+02  0.80571964678E+02  0.00000000000E+00 0.  1.
</event>
<event>
 8    1  0.6860461E-009  0.1175068E+03  0.7561462E-02  0.1247268E+00
          2   -1    0    0  501    0  0.00000000000E+00  0.00000000000E+00  0.53997974026E+02  0.53997974026E+02  0.00000000000E+00 0.  1.
         -2   -1    0    0    0  501 -0.00000000000E+00 -0.00000000000E+00 -0.38967191391E+03  0.38967191391E+03  0.00000000000E+00 0. -1.
         25    2    1    2    0    0 -0.15016720095E+02  0.72239322405E+02 -0.86865126080E+02  0.16922168023E+03  0.12508559208E+03 0.  0.
         23    2    1    2    0    0  0.15016720095E+02 -0.72239322405E+02 -0.24880881380E+03  0.27444820771E+03  0.89285896446E+02 0.  0.
          5    1    3    3  502    0 -0.67566077627E+02  0.61292796201E+02 -0.52192720192E+02  0.10518333591E+03  0.41800000000E+01 0.  1.
         -5    1    3    3    0  502  0.52549357532E+02  0.10946526204E+02 -0.34672405888E+02  0.64038344318E+02  0.41800000000E+01 0.  1.
        -11    1    4    4    0    0 -0.14009456297E+02 -0.53498900438E+02 -0.22688807285E+03  0.23353071493E+03  0.00000000000E+00 0. -1.
         11    1    4    4    0    0  0.29026176391E+02 -0.18740421967E+02 -0.21920740954E+02  0.40917492779E+02  0.00000000000E+00 0.  1.
</event>
<event>
 8    1  0.6860461E-009  0.1141788E+03  0.7561462E-02  0.1253021E+00
          1   -1    0    0  501    0  0.00000000000E+00  0.00000000000E+00  0.13873207426E+03  0.13873207426E+03  0.00000000000E+00 0. -1.
         -1   -1    0    0    0  501 -0.00000000000E+00 -0.00000000000E+00 -0.10897034323E+03  0.10897034323E+03  0.00000000000E+00 0.  1.
         25    2    1    2    0    0  0.30717436239E+02  0.38486415430E+02  0.45525766477E+02  0.14193570705E+03  0.12509350287E+03 0.  0.
         23    2    1    2    0    0 -0.30717436239E+02 -0.38486415430E+02 -0.15764035440E+02  0.10576671044E+03  0.92267692944E+02 0.  0.
          5    1    3    3  502    0  0.77290156498E+02  0.34737349471E+02  0.42598496340E+02  0.94934482830E+02  0.41800000000E+01 0.  1.
         -5    1    3    3    0  502 -0.46572720259E+02  0.37490659594E+01  0.29272701369E+01  0.47001224222E+02  0.41800000000E+01 0.  1.
        -11    1    4    4    0    0 -0.57244193606E+02 -0.10781862820E+02  0.10621656460E+02  0.59211197027E+02  0.00000000000E+00 0. -1.
         11    1    4    4    0    0  0.26526757367E+02 -0.27704552610E+02 -0.26385691900E+02  0.46555513409E+02  0.00000000000E+00 0.  1.
</event>
<event>
 8    1  0.6860461E-009  0.2082055E+03  0.7561462E-02  0.1142995E+00
          2   -1    0    0  501    0  0.00000000000E+00  0.00000000000E+00  0.86745204013E+03  0.86745204013E+03  0.00000000000E+00 0.  1.
         -2   -1    0    0    0  501 -0.00000000000E+00 -0.00000000000E+00 -0.63293059062E+02  0.63293059062E+02  0.00000000000E+00 0. -1.
         25    2    1    2    0    0 -0.16955505035E+03  0.11066725522E+03  0.48899585172E+03  0.54384048741E+03  0.12509746708E+03 0.  0.
         23    2    1    2    0    0  0.16955505035E+03 -0.11066725522E+03  0.31516312935E+03  0.38690461178E+03  0.96805082716E+02 0.  0.
          5    1    3    3  502    0 -0.15466036085E+03  0.10554235750E+03  0.29677503337E+03  0.35093006323E+03  0.41800000000E+01 0.  1.
         -5    1    3    3    0  502 -0.14894689501E+02  0.51248977204E+01  0.19222081835E+03  0.19291042418E+03  0.41800000000E+01 0.  1.
        -11    1    4    4    0    0  0.81315231434E+02 -0.91720777077E+02  0.23985461864E+03  0.26936055000E+03  0.00000000000E+00 0.  1.
         11    1    4    4    0    0  0.88239818914E+02 -0.18946478148E+02  0.75308510710E+02  0.11754406179E+03  0.00000000000E+00 0. -1.
</event>
<event>
 8    1  0.6860461E-009  0.1049648E+03  0.7561462E-02  0.1270189E+00
         -2   -1    0    0    0  501 -0.00000000000E+00  0.00000000000E+00  0.85412354820E+02  0.85412354820E+02  0.00000000000E+00 0.  1.
          2   -1    0    0  501    0  0.00000000000E+00 -0.00000000000E+00 -0.17512966688E+03  0.17512966688E+03  0.00000000000E+00 0. -1.
         25    2    1    2    0    0 -0.39256865864E+02  0.35396183001E+02 -0.45752050944E+02  0.14330027607E+03  0.12509087763E+03 0.  0.
         23    2    1    2    0    0  0.39256865864E+02 -0.35396183001E+02 -0.43965261119E+02  0.11724174564E+03  0.94966791279E+02 0.  0.
          5    1    3    3  502    0  0.44798429088E+02  0.22735599741E+02 -0.21513911939E+02  0.54809922014E+02  0.41800000000E+01 0.  1.
         -5    1    3    3    0  502 -0.84055294952E+02  0.12660583260E+02 -0.24238139005E+02  0.88490354053E+02  0.41800000000E+01 0.  1.
        -11    1    4    4    0    0  0.14718450554E+01 -0.36579309625E+02 -0.64541497815E+02  0.74201193796E+02  0.00000000000E+00 0. -1.
         11    1    4    4    0    0  0.37785020809E+02  0.11831266236E+01  0.20576236696E+02  0.43040551840E+02  0.00000000000E+00 0.  1.
</event>
<event>
 8    1  0.6860461E-009  0.1238419E+03  0.7561462E-02  0.1236890E+00
         -2   -1    0    0    0  501 -0.00000000000E+00  0.00000000000E+00  0.17766927455E+03  0.17766927455E+03  0.00000000000E+00 0. -1.
          2   -1    0    0  501    0  0.00000000000E+00 -0.00000000000E+00 -0.10393674017E+03  0.10393674017E+03  0.00000000000E+00 0.  1.
         25    2    1    2    0    0 -0.53570656046E+02 -0.30934783014E+02  0.96703501368E+02  0.16977905051E+03  0.12508630152E+03 0.  0.
         23    2    1    2    0    0  0.53570656046E+02  0.30934783014E+02 -0.22970966987E+02  0.11182696420E+03  0.90281939553E+02 0.  0.
          5    1    3    3  502    0  0.34155244212E+02 -0.38117655592E+02  0.38330448726E+02  0.64079888222E+02  0.41800000000E+01 0. -1.
         -5    1    3    3    0  502 -0.87725900258E+02  0.71828725778E+01  0.58373052641E+02  0.10569916229E+03  0.41800000000E+01 0. -1.
        -11    1    4    4    0    0  0.77647490313E+02  0.32300423219E+02 -0.24698376625E+02  0.87649642897E+02  0.00000000000E+00 0. -1.
         11    1    4    4    0    0 -0.24076834267E+02 -0.13656402045E+01  0.17274096378E+01  0.24177321307E+02  0.00000000000E+00 0.  1.
</event>
<event>
 8    1  0.6860461E-009  0.1820001E+03  0.7561462E-02  0.1165881E+00
         -1   -1    0    0    0  501 -0.00000000000E+00  0.00000000000E+00  0.34475666077E+02  0.34475666077E+02  0.00000000000E+00 0.  1.
          1   -1    0    0  501    0  0.00000000000E+00 -0.00000000000E+00 -0.99497121829E+03  0.99497121829E+03  0.00000000000E+00 0. -1.
         25    2    1    2    0    0 -0.13904148709E+03  0.55158827736E+02 -0.53801055838E+03  0.57225686323E+03  0.12509006827E+03 0.  0.
         23    2    1    2    0    0  0.13904148709E+03 -0.55158827736E+02 -0.42248499384E+03  0.45719002114E+03  0.90300132885E+02 0.  0.
          5    1    3    3  502    0 -0.65178278941E+02 -0.35292132338E+02 -0.26697733551E+03  0.27710668113E+03  0.41800000000E+01 0. -1.
         -5    1    3    3    0  502 -0.73863208153E+02  0.90450960075E+02 -0.27103322287E+03  0.29515018210E+03  0.41800000000E+01 0. -1.
        -11    1    4    4    0    0  0.39745682626E+02  0.23553215881E+02 -0.14409642341E+03  0.15132168551E+03  0.00000000000E+00 0.  1.
         11    1    4    4    0    0  0.99295804468E+02 -0.78712043617E+02 -0.27838857043E+03  0.30586833563E+03  0.00000000000E+00 0. -1.
</event>
<event>
 8    1  0.6860461E-009  0.1298437E+03  0.7561462E-02  0.1227688E+00
         -2   -1    0    0    0  501 -0.00000000000E+00  0.00000000000E+00  0.19985165884E+02  0.19985165884E+02  0.00000000000E+00 0.  1.
          2   -1    0    0  501    0  0.00000000000E+00 -0.00000000000E+00 -0.95762820193E+03  0.95762820193E+03  0.00000000000E+00 0. -1.
         25    2    1    2    0    0 -0.27183723212E+02  0.81216907578E+02 -0.47389323300E+03  0.49755111960E+03  0.12508868630E+03 0.  0.
         23    2    1    2    0    0  0.27183723212E+02 -0.81216907578E+02 -0.46374980305E+03  0.48006224822E+03  0.89781632079E+02 0.  0.
          5    1    3    3  502    0  0.99180870033E+01  0.96140868713E+02 -0.21777335932E+03  0.23829423727E+03  0.41800000000E+01 0.  1.
         -5    1    3    3    0  502 -0.37101810215E+02 -0.14923961135E+02 -0.25611987369E+03  0.25925688233E+03  0.41800000000E+01 0.  1.
        -11    1    4    4    0    0  0.32719448624E+02 -0.98918977553E+02 -0.36470331024E+03  0.37929412194E+03  0.00000000000E+00 0.  1.
         11    1    4    4    0    0 -0.55357254120E+01  0.17702069975E+02 -0.99046492805E+02  0.10076812628E+03  0.00000000000E+00 0. -1.
</event>
<event>
 8    1  0.6860461E-009  0.1905049E+03  0.7561462E-02  0.1158007E+00
         -2   -1    0    0    0  501 -0.00000000000E+00  0.00000000000E+00  0.10391309074E+03  0.10391309074E+03  0.00000000000E+00 0.  1.
          2   -1    0    0  501    0  0.00000000000E+00 -0.00000000000E+00 -0.42037402256E+03  0.42037402256E+03  0.00000000000E+00 0. -1.
         25    2    1    2    0    0  0.13936463360E+03  0.83050774472E+02 -0.25666325362E+03  0.32839653249E+03  0.12509326341E+03 0.  0.
         23    2    1    2    0    0 -0.13936463360E+03 -0.83050774472E+02 -0.59797678194E+02  0.19589058081E+03  0.92072933554E+02 0.  0.
          5    1    3    3  502    0 -0.92568320265E+01 -0.18453875860E+02 -0.10802294246E+02  0.23672693856E+02  0.41800000000E+01 0. -1.
         -5    1    3    3    0  502  0.14862146562E+03  0.10150465033E+03 -0.24586095938E+03  0.30472383863E+03  0.41800000000E+01 0. -1.
        -11    1    4    4    0    0  0.17485383909E+01 -0.28620357200E+02  0.85448013556E+01  0.29919823913E+02  0.00000000000E+00 0.  1.
         11    1    4    4    0    0 -0.14111317199E+03 -0.54430417272E+02 -0.68342479550E+02  0.16597075689E+03  0.00000000000E+00 0. -1.
</event>
<event>
 8    1  0.6860461E-009  0.1312057E+03  0.7561462E-02  0.1225678E+00
         -3   -1    0    0    0  501 -0.00000000000E+00  0.00000000000E+00  0.47120079855E+03  0.47120079855E+03  0.00000000000E+00 0.  1.
          3   -1    0    0  501    0  0.00000000000E+00 -0.00000000000E+00 -0.38337980432E+02  0.38337980432E+02  0.00000000000E+00 0. -1.
         25    2    1    2    0    0  0.30468885572E+02 -0.73177842492E+02  0.22974024065E+03  0.27333396481E+03  0.12509008164E+03 0.  0.
         23    2    1    2    0    0 -0.30468885572E+02  0.73177842492E+02  0.20312257747E+03  0.23620481418E+03  0.90832720657E+02 0.  0.
          5    1    3    3  502    0  0.77151650820E+02 -0.63761627178E+02  0.16034248778E+03  0.18906376732E+03  0.41800000000E+01 0.  1.
         -5    1    3    3    0  502 -0.46682765247E+02 -0.94162153143E+01  0.69397752868E+02  0.84270197491E+02  0.41800000000E+01 0.  1.
        -11    1    4    4    0    0 -0.55164899576E+02  0.70602817724E+02  0.18470570481E+03  0.20529033442E+03  0.00000000000E+00 0. -1.
         11    1    4    4    0    0  0.24696014004E+02  0.25750247680E+01  0.18416872664E+02  0.30914479762E+02  0.00000000000E+00 0.  1.
</event>
<event>
 8    1  0.6860461E-009  0.1898498E+03  0.7561462E-02  0.1158597E+00
          2   -1    0    0  501    0  0.00000000000E+00  0.00000000000E+00  0.12111842967E+04  0.12111842967E+04  0.00000000000E+00 0.  1.
         -2   -1    0    0    0  501 -0.00000000000E+00 -0.00000000000E+00 -0.30924250126E+02  0.30924250126E+02  0.00000000000E+00 0. -1.
         25    2    1    2    0    0  0.15541527734E+03 -0.14317107962E+02  0.50549706947E+03  0.54362932355E+03  0.12508663466E+03 0.  0.
         23    2    1    2    0    0 -0.15541527734E+03  0.14317107962E+02  0.67476297706E+03  0.69847922323E+03  0.90604978141E+02 0.  0.
          5    1    3    3  502    0  0.16688059387E+03  0.15529883906E+02  0.43053330441E+03  0.46202457566E+03  0.41800000000E+01 0.  1.
         -5    1    3    3    0  502 -0.11465316532E+02 -0.29846991869E+02  0.74963765057E+02  0.81604747891E+02  0.41800000000E+01 0.  1.
        -11    1    4    4    0    0 -0.64489383761E+02  0.50530760296E+02  0.27782258767E+03  0.28965087360E+03  0.00000000000E+00 0.  1.
         11    1    4    4    0    0 -0.90925893576E+02 -0.36213652333E+02  0.39694038939E+03  0.40882834963E+03  0.00000000000E+00 0. -1.
</event>
<event>
 8    1  0.6860461E-009  0.1009290E+03  0.7561462E-02  0.1278354E+00
          3   -1    0    0  501    0  0.00000000000E+00  0.00000000000E+00  0.15477575645E+03  0.15477575645E+03  0.00000000000E+00 0. -1.
         -3   -1    0    0    0  501 -0.00000000000E+00 -0.00000000000E+00 -0.86863512144E+02  0.86863512144E+02  0.00000000000E+00 0.  1.
         25    2    1    2    0    0  0.85285721830E+00 -0.41030845766E+02  0.60012455796E+02  0.14468218676E+03  0.12508869912E+03 0.  0.
         23    2    1    2    0    0 -0.85285721830E+00  0.41030845766E+02  0.78997885050E+01  0.96957081825E+02  0.87487206995E+02 0.  0.
          5    1    3    3  502    0  0.49574645205E+02 -0.30706217104E+02 -0.93322319654E+01  0.59203717531E+02  0.41800000000E+01 0. -1.
         -5    1    3    3    0  502 -0.48721787987E+02 -0.10324628662E+02  0.69344687762E+02  0.85478469233E+02  0.41800000000E+01 0. -1.
        -11    1    4    4    0    0 -0.24790916172E+02  0.58661975238E+02  0.16908928861E+02  0.65891795686E+02  0.00000000000E+00 0. -1.
         11    1    4    4    0    0  0.23938058954E+02 -0.17631129472E+02 -0.90091403559E+01  0.31065286139E+02  0.00000000000E+00 0.  1.
</event>
<event>
 8    1  0.6860461E-009  0.1494084E+03  0.7561462E-02  0.1201202E+00
         -2   -1    0    0    0  501 -0.00000000000E+00  0.00000000000E+00  0.12616445279E+03  0.12616445279E+03  0.00000000000E+00 0.  1.
          2   -1    0    0  501    0  0.00000000000E+00 -0.00000000000E+00 -0.19526595670E+03  0.19526595670E+03  0.00000000000E+00 0. -1.
         25    2    1    2    0    0 -0.10276778291E+03 -0.36942915214E+02 -0.67896105688E+02  0.17940300538E+03  0.12509820535E+03 0.  0.
         23    2    1    2    0    0  0.10276778291E+03  0.36942915214E+02 -0.12053982253E+01  0.14202740411E+03  0.90798316855E+02 0.  0.
          5    1    3    3  502    0 -0.11071640993E+03 -0.69730424087E+02 -0.45059572612E+02  0.13844960439E+03  0.41800000000E+01 0.  1.
         -5    1    3    3    0  502  0.79486270236E+01  0.32787508873E+02 -0.22836533076E+02  0.40953400989E+02  0.41800000000E+01 0.  1.
        -11    1    4    4    0    0  0.59936361570E+02  0.60386916204E+02 -0.23621239235E+02  0.88300113420E+02  0.00000000000E+00 0.  1.
         11    1    4    4    0    0  0.42831421339E+02 -0.23444000990E+02  0.22415841009E+02  0.53727290687E+02  0.00000000000E+00 0. -1.
</event>
<event>
 8    1  0.6860461E-009  0.9996527E+02  0.7561462E-02  0.1280369E+00
         -1   -1    0    0    0  501 -0.00000000000E+00  0.00000000000E+00  0.10817986192E+03  0.10817986192E+03  0.00000000000E+00 0.  1.
          1   -1    0    0  501    0  0.00000000000E+00 -0.00000000000E+00 -0.14213431116E+03  0.14213431116E+03  0.00000000000E+00 0. -1.
         25    2    1    2    0    0 -0.58034911233E+02  0.10619291608E+02 -0.64533959918E+01  0.13845856371E+03  0.12509319434E+03 0.  0.
         23    2    1    2    0    0  0.58034911233E+02 -0.10619291608E+02 -0.27501053248E+02  0.11185560936E+03  0.90964548807E+02 0.  0.
          5    1    3    3  502    0 -0.14466086437E+02 -0.28868701674E+02  0.48137067391E+02  0.58114707693E+02  0.41800000000E+01 0.  1.
         -5    1    3    3    0  502 -0.43568824796E+02  0.39487993282E+02 -0.54590463383E+02  0.80343856018E+02  0.41800000000E+01 0.  1.
        -11    1    4    4    0    0 -0.15512472988E+02  0.22848860311E+02 -0.68267549507E+01  0.28448406262E+02  0.00000000000E+00 0.  1.
         11    1    4    4    0    0  0.73547384221E+02 -0.33468151919E+02 -0.20674298298E+02  0.83407203099E+02  0.00000000000E+00 0. -1.
</event>
<event>
 8    1  0.6860461E-009  0.1336315E+03  0.7561462E-02  0.1222165E+00
          2   -1    0    0  501    0  0.00000000000E+00  0.00000000000E+00  0.38138068242E+02  0.38138068242E+02  0.00000000000E+00 0. -1.
         -2   -1    0    0    0  501 -0.00000000000E+00 -0.00000000000E+00 -0.84953168488E+03  0.84953168488E+03  0.00000000000E+00 0.  1.
         25    2    1    2    0    0  0.76219046455E+02  0.22991645928E+02 -0.13506369429E+03  0.20056788413E+03  0.12508923137E+03 0.  0.
         23    2    1    2    0    0 -0.76219046455E+02 -0.22991645928E+02 -0.67632992235E+03  0.68710186899E+03  0.91372072755E+02 0.  0.
          5    1    3    3  502    0 -0.28562440719E+02 -0.18074017376E+02 -0.44586897425E+02  0.56106567761E+02  0.41800000000E+01 0.  1.
         -5    1    3    3    0  502  0.10478148717E+03  0.41065663304E+02 -0.90476796862E+02  0.14446131637E+03  0.41800000000E+01 0.  1.
        -11    1    4    4    0    0  0.20692616388E+02 -0.93935117505E+01 -0.10268851577E+03  0.10517297042E+03  0.00000000000E+00 0.  1.
         11    1    4    4    0    0 -0.96911662843E+02 -0.13598134177E+02 -0.57364140658E+03  0.58192889857E+03  0.00000000000E+00 0. -1.
</event>
<event>
 8    1  0.6860461E-009  0.1148104E+03  0.7561462E-02  0.1251912E+00
          1   -1    0    0  501    0  0.00000000000E+00  0.00000000000E+00  0.24170338726E+02  0.24170338726E+02  0.00000000000E+00 0. -1.
         -1   -1    0    0    0  501 -0.00000000000E+00 -0.00000000000E+00 -0.57558745855E+03  0.57558745855E+03  0.00000000000E+00 0.  1.
         25    2    1    2    0    0 -0.47199942500E+02 -0.36261815122E+01 -0.29554690288E+03  0.32440178808E+03  0.12509022562E+03 0.  0.
         23    2    1    2    0    0  0.47199942500E+02  0.36261815122E+01 -0.25587021695E+03  0.27535600919E+03  0.90057648841E+02 0.  0.
          5    1    3    3  502    0 -0.55340707029E+02  0.52179067828E+02 -0.18908629157E+03  0.20385373932E+03  0.41800000000E+01 0. -1.
         -5    1    3    3    0  502  0.81407645290E+01 -0.55805249340E+02 -0.10646061131E+03  0.12054804877E+03  0.41800000000E+01 0. -1.
        -11    1    4    4    0    0 -0.24258098340E+02  0.73277384415E+01 -0.35185221894E+02  0.43360707161E+02  0.00000000000E+00 0.  1.
         11    1    4    4    0    0  0.71458040840E+02 -0.37015569293E+01 -0.22068499505E+03  0.23199530203E+03  0.00000000000E+00 0. -1.
</event>
<event>
 8    1  0.6860461E-009  0.1188585E+03  0.7561462E-02  0.1244992E+00
         -1   -1    0    0    0  501 -0.00000000000E+00  0.00000000000E+00  0.22176856105E+02  0.22176856105E+02  0.00000000000E+00 0.  1.
          1   -1    0    0  501    0  0.00000000000E+00 -0.00000000000E+00 -0.73208214718E+03  0.73208214718E+03  0.00000000000E+00 0. -1.
         25    2    1    2    0    0  0.63725960487E+02  0.19269288599E+02 -0.40749731062E+03  0.43143205443E+03  0.12508899193E+03 0.  0.
         23    2    1    2    0    0 -0.63725960487E+02 -0.19269288599E+02 -0.30240798045E+03  0.32282694886E+03  0.91292654373E+02 0.  0.
          5    1    3    3  502    0  0.85989837623E+02  0.47771284030E+02 -0.22914701143E+03  0.24940363469E+03  0.41800000000E+01 0.  1.
         -5    1    3    3    0  502 -0.22263877136E+02 -0.28501995431E+02 -0.17835029920E+03  0.18202841974E+03  0.41800000000E+01 0.  1.
        -11    1    4    4    0    0 -0.63012260066E+02  0.18033932962E+02 -0.25029933981E+03  0.25873833725E+03  0.00000000000E+00 0. -1.
         11    1    4    4    0    0 -0.71370042115E+00 -0.37303221561E+02 -0.52108640647E+02  0.64088611603E+02  0.00000000000E+00 0.  1.
</event>
<event>
 8    1  0.6860461E-009  0.1056282E+03  0.7561462E-02  0.1268887E+00
         -2   -1    0    0    0  501 -0.00000000000E+00  0.00000000000E+00  0.15327666497E+03  0.15327666497E+03  0.00000000000E+00 0.  1.
          2   -1    0    0  501    0  0.00000000000E+00 -0.00000000000E+00 -0.12042312083E+03  0.12042312083E+03  0.00000000000E+00 0. -1.
         25    2    1    2    0    0  0.42867203034E+01  0.58350173913E+02  0.78491180674E+02  0.15884563006E+03  0.12509176624E+03 0.  0.
         23    2    1    2    0    0 -0.42867203034E+01 -0.58350173913E+02 -0.45637636538E+02  0.11485415574E+03  0.87667351132E+02 0.  0.
          5    1    3    3  502    0  0.30834071675E+02  0.74405585312E+02  0.94044128390E+02  0.12388987685E+03  0.41800000000E+01 0.  1.
         -5    1    3    3    0  502 -0.26547351372E+02 -0.16055411398E+02 -0.15552947716E+02  0.34955753213E+02  0.41800000000E+01 0.  1.
        -11    1    4    4    0    0  0.32525528435E+02 -0.27799560703E+01  0.23370445188E+01  0.32727663112E+02  0.00000000000E+00 0. -1.
         11    1    4    4    0    0 -0.36812248738E+02 -0.55570217843E+02 -0.47974681057E+02  0.82126492624E+02  0.00000000000E+00 0.  1.
</event>
<event>
 8    1  0.6860461E-009  0.1020944E+03  0.7561462E-02  0.1275952E+00
          3   -1    0    0  501    0  0.00000000000E+00  0.00000000000E+00  0.11203220825E+03  0.11203220825E+03  0.00000000000E+00 0. -1.
         -3   -1    0    0    0  501 -0.00000000000E+00 -0.00000000000E+00 -0.17080627524E+03  0.17080627524E+03  0.00000000000E+00 0.  1.
         25    2    1    2    0    0  0.66156226885E+02 -0.51872281887E+02 -0.19840385616E+02  0.15201610712E+03  0.12509147029E+03 0.  0.
         23    2    1    2    0    0 -0.66156226885E+02  0.51872281887E+02 -0.38933681379E+02  0.13082237637E+03  0.92364942643E+02 0.  0.
          5    1    3    3  502    0  0.51380561387E+02 -0.56844842781E+02 -0.67186671880E+02  0.10199421316E+03  0.41800000000E+01 0.  1.
         -5    1    3    3    0  502  0.14775665497E+02  0.49725608938E+01  0.47346286264E+02  0.50021893964E+02  0.41800000000E+01 0.  1.
        -11    1    4    4    0    0 -0.49006807522E+02  0.70583583513E+02 -0.53825564800E+02  0.10139477734E+03  0.00000000000E+00 0.  1.
         11    1    4    4    0    0 -0.17149419362E+02 -0.18711301626E+02  0.14891883421E+02  0.29427599033E+02  0.00000000000E+00 0. -1.
</event>
<event>
 8    1  0.6860461E-009  0.8305220E+02  0.7561462E-02  0.1320606E+00
          2   -1    0    0  501    0  0.00000000000E+00  0.00000000000E+00  0.78205280118E+02  0.78205280118E+02  0.00000000000E+00 0.  1.
         -2   -1    0    0    0  501 -0.00000000000E+00 -0.00000000000E+00 -0.17509922888E+03  0.17509922888E+03  0.00000000000E+00 0. -1.
         25    2    1    2    0    0 -0.34852462820E+02 -0.73250526912E+01 -0.75690140645E+02  0.15047893595E+03  0.12508621911E+03 0.  0.
         23    2    1    2    0    0  0.34852462820E+02  0.73250526912E+01 -0.21203808118E+02  0.10282557305E+03  0.94101787617E+02 0.  0.
          5    1    3    3  502    0 -0.61955709867E+02  0.32844429318E+02 -0.13508663484E+02  0.71534767152E+02  0.41800000000E+01 0. -1.
         -5    1    3    3    0  502  0.27103247048E+02 -0.40169482009E+02 -0.62181477161E+02  0.78944168798E+02  0.41800000000E+01 0. -1.
        -11    1    4    4    0    0  0.94383601601E+01  0.17468464991E+02 -0.55503538659E+02  0.58948050988E+02  0.00000000000E+00 0.  1.
         11    1    4    4    0    0  0.25414102660E+02 -0.10143412299E+02  0.34299730540E+02  0.43877522061E+02  0.00000000000E+00 0. -1.
</event>
<event>
 8    1  0.6860461E-009  0.1253790E+03  0.7561462E-02  0.1234478E+00
          2   -1    0    0  501    0  0.00000000000E+00  0.00000000000E+00  0.61676744648E+03  0.61676744648E+03  0.00000000000E+00 0.  1.
         -2   -1    0    0    0  501 -0.00000000000E+00 -0.00000000000E+00 -0.35166877064E+02  0.35166877064E+02  0.00000000000E+00 0. -1.
         25    2    1    2    0    0 -0.41207629302E+02 -0.64375048199E+02  0.45498930282E+03  0.47802117541E+03  0.12508702139E+03 0.  0.
         23    2    1    2    0    0  0.41207629302E+02  0.64375048199E+02  0.12661126660E+03  0.17391314813E+03  0.91504943689E+02 0.  0.
          5    1    3    3  502    0 -0.59445460369E+02  0.15359757302E+02  0.24538447308E+03  0.25298359024E+03  0.41800000000E+01 0.  1.
         -5    1    3    3    0  502  0.18237831066E+02 -0.79734805501E+02  0.20960482974E+03  0.22503758517E+03  0.41800000000E+01 0.  1.
        -11    1    4    4    0    0 -0.30386127985E+01  0.62975674030E+02  0.10969382806E+03  0.12652234823E+03  0.00000000000E+00 0.  1.
         11    1    4    4    0    0  0.44246242101E+02  0.13993741687E+01  0.16917438532E+02  0.47390799894E+02  0.00000000000E+00 0. -1.
</event>
<event>
 8    1  0.6860461E-009  0.2814882E+03  0.7561462E-02  0.1094879E+00
         -2   -1    0    0    0  501 -0.00000000000E+00  0.00000000000E+00  0.74051385786E+02  0.74051385786E+02  0.00000000000E+00 0.  1.
          2   -1    0    0  501    0  0.00000000000E+00 -0.00000000000E+00 -0.11358109179E+04  0.11358109179E+04  0.00000000000E+00 0. -1.
         25    2    1    2    0    0  0.12963037776E+03  0.22593358806E+03 -0.67648336696E+03  0.73561314451E+03  0.12508769544E+03 0.  0.
         23    2    1    2    0    0 -0.12963037776E+03 -0.22593358806E+03 -0.38527616513E+03  0.47424915915E+03  0.92868296451E+02 0.  0.
          5    1    3    3  502    0 -0.81110946261E+01  0.98150304846E+02 -0.27999944880E+03  0.29684412732E+03  0.41800000000E+01 0. -1.
         -5    1    3    3    0  502  0.13774147238E+03  0.12778328322E+03 -0.39648391816E+03  0.43876901719E+03  0.41800000000E+01 0. -1.
        -11    1    4    4    0    0  0.12829060092E+02 -0.53865438278E+01 -0.17138940490E+02  0.22075844681E+02  0.00000000000E+00 0. -1.
         11    1    4    4    0    0 -0.14245943785E+03 -0.22054704423E+03 -0.36813722464E+03  0.45217331447E+03  0.00000000000E+00 0.  1.
</event>
<event>
 8    1  0.6860461E-009  0.1664102E+03  0.7561462E-02  0.1181644E+00
         -1   -1    0    0    0  501 -0.00000000000E+00  0.00000000000E+00  0.35926046131E+02  0.35926046131E+02  0.00000000000E+00 0.  1.
          1   -1    0    0  501    0  0.00000000000E+00 -0.00000000000E+00 -0.11508871089E+04  0.11508871089E+04  0.00000000000E+00 0. -1.
         25    2    1    2    0    0 -0.43262814899E+02 -0.13382774035E+03 -0.29438917143E+03  0.34941584466E+03  0.12507962667E+03 0.  0.
         23    2    1    2    0    0  0.43262814899E+02  0.13382774035E+03 -0.82057189132E+03  0.83739731035E+03  0.90080471314E+02 0.  0.
          5    1    3    3  502    0 -0.64729329270E+02 -0.54103495586E+02 -0.22878218263E+03  0.24387667743E+03  0.41800000000E+01 0. -1.
         -5    1    3    3    0  502  0.21466514371E+02 -0.79724244763E+02 -0.65606988795E+02  0.10553916724E+03  0.41800000000E+01 0. -1.
        -11    1    4    4    0    0  0.70469401123E+02  0.95794277725E+02 -0.53845747389E+03  0.55143352394E+03  0.00000000000E+00 0.  1.
         11    1    4    4    0    0 -0.27206586224E+02  0.38033462623E+02 -0.28211441743E+03  0.28596378640E+03  0.00000000000E+00 0. -1.
</event>
<event>
 8    1  0.6860461E-009  0.1128913E+03  0.7561462E-02  0.1255307E+00
         -2   -1    0    0    0  501 -0.00000000000E+00  0.00000000000E+00  0.28484600290E+03  0.28484600290E+03  0.00000000000E+00 0.  1.
          2   -1    0    0  501    0  0.00000000000E+00 -0.00000000000E+00 -0.46554260498E+02  0.46554260498E+02  0.00000000000E+00 0. -1.
         25    2    1    2    0    0  0.33902862438E+02  0.92923491468E+01  0.11809958469E+03  0.17557288847E+03  0.12507028196E+03 0.  0.
         23    2    1    2    0    0 -0.33902862438E+02 -0.92923491468E+01  0.12019215772E+03  0.15582737493E+03  0.92737609233E+02 0.  0.
          5    1    3    3  502    0 -0.14170737562E+02 -0.48858501963E+02  0.67518651716E+02  0.84641619471E+02  0.41800000000E+01 0. -1.
         -5    1    3    3    0  502  0.48073599999E+02  0.58150851110E+02  0.50580932973E+02  0.90931269001E+02  0.41800000000E+01 0. -1.
        -11    1    4    4    0    0 -0.41412606365E+02 -0.45890370842E+02  0.74381420504E+02  0.96713627882E+02  0.00000000000E+00 0. -1.
         11    1    4    4    0    0  0.75097439272E+01  0.36598021695E+02  0.45810737212E+02  0.59113747045E+02  0.00000000000E+00 0.  1.
</event>
<event>
 8    1  0.6860461E-009  0.1337346E+03  0.7561462E-02  0.1222017E+00
          2   -1    0    0  501    0  0.00000000000E+00  0.00000000000E+00  0.29718036626E+03  0.29718036626E+03  0.00000000000E+00 0. -1.
         -2   -1    0    0    0  501 -0.00000000000E+00 -0.00000000000E+00 -0.82474919271E+02  0.82474919271E+02  0.00000000000E+00 0.  1.
         25    2    1    2    0    0  0.63031397190E+02 -0.86691501819E+02  0.72389290781E+02  0.17993752173E+03  0.12509567853E+03 0.  0.
         23    2    1    2    0    0 -0.63031397190E+02  0.86691501819E+02  0.14231615621E+03  0.19971776381E+03  0.90249229039E+02 0.  0.
          5    1    3    3  502    0 -0.18405741152E+02 -0.14597767322E+02 -0.24512725333E+02  0.34208364787E+02  0.41800000000E+01 0. -1.
         -5    1    3    3    0  502  0.81437138342E+02 -0.72093734497E+02  0.96902016114E+02  0.14572915694E+03  0.41800000000E+01 0. -1.
        -11    1    4    4    0    0 -0.16501120531E+02  0.86677593902E+02  0.65425824077E+02  0.10984457529E+03  0.00000000000E+00 0. -1.
         11    1    4    4    0    0 -0.46530276659E+02  0.13907916755E-01  0.76890332134E+02  0.89873188522E+02  0.00000000000E+00 0.  1.
</event>
<event>
 8    1  0.6860461E-009  0.1144849E+03  0.7561462E-02  0.1252483E+00
         -2   -1    0    0    0  501 -0.00000000000E+00  0.00000000000E+00  0.56012827454E+02  0.56012827454E+02  0.00000000000E+00 0.  1.
          2   -1    0    0  501    0  0.00000000000E+00 -0.00000000000E+00 -0.26758883421E+03  0.26758883421E+03  0.00000000000E+00 0. -1.
         25    2    1    2    0    0  0.30103274943E+02  0.48816251855E+02 -0.12434751060E+03  0.18547029855E+03  0.12509074564E+03 0.  0.
         23    2    1    2    0    0 -0.30103274943E+02 -0.48816251855E+02 -0.87228496159E+02  0.13813136311E+03  0.90455676031E+02 0.  0.
          5    1    3    3  502    0 -0.32996454282E+02  0.59657762709E+02 -0.38859092776E+02  0.78583179740E+02  0.41800000000E+01 0.  1.
         -5    1    3    3    0  502  0.63099729225E+02 -0.10841510854E+02 -0.85488417820E+02  0.10688711881E+03  0.41800000000E+01 0.  1.
        -11    1    4    4    0    0  0.23539534102E+02 -0.33084819476E+02 -0.67649797063E+02  0.78899999925E+02  0.00000000000E+00 0. -1.
         11    1    4    4    0    0 -0.53642809045E+02 -0.15731432379E+02 -0.19578699096E+02  0.59231363189E+02  0.00000000000E+00 0.  1.
</event>
<event>
 8    1  0.6860461E-009  0.9315892E+02  0.7561462E-02  0.1295377E+00
          2   -1    0    0  501    0  0.00000000000E+00  0.00000000000E+00  0.13771578160E+03  0.13771578160E+03  0.00000000000E+00 0. -1.
         -2   -1    0    0    0  501 -0.00000000000E+00 -0.00000000000E+00 -0.10790152609E+03  0.10790152609E+03  0.00000000000E+00 0.  1.
         25    2    1    2    0    0 -0.30256543914E+02 -0.12225112718E+02  0.63455014722E+02  0.14401244162E+03  0.12509249625E+03 0.  0.
         23    2    1    2    0    0  0.30256543914E+02  0.12225112718E+02 -0.33640759209E+02  0.10160486607E+03  0.90149521896E+02 0.  0.
          5    1    3    3  502    0 -0.54859597529E+02 -0.46111167723E+02  0.71328948942E+02  0.10119835269E+03  0.41800000000E+01 0. -1.
         -5    1    3    3    0  502  0.24603053615E+02  0.33886055005E+02 -0.78739342195E+01  0.42814088932E+02  0.41800000000E+01 0. -1.
        -11    1    4    4    0    0 -0.15882065714E+02  0.20125615852E+02 -0.46466070201E+02  0.53069540272E+02  0.00000000000E+00 0.  1.
         11    1    4    4    0    0  0.46138609628E+02 -0.79005031336E+01  0.12825310992E+02  0.48535325797E+02  0.00000000000E+00 0. -1.
</event>
<event>
 8    1  0.6860461E-009  0.1189158E+03  0.7561462E-02  0.1244896E+00
          2   -1    0    0  501    0  0.00000000000E+00  0.00000000000E+00  0.54468580139E+03  0.54468580139E+03  0.00000000000E+00 0.  1.
         -2   -1    0    0    0  501 -0.00000000000E+00 -0.00000000000E+00 -0.28983860644E+02  0.28983860644E+02  0.00000000000E+00 0. -1.
         25    2    1    2    0    0  0.49792589617E+02  0.28390524201E+02  0.30675654794E+03  0.33620247387E+03  0.12508876805E+03 0.  0.
         23    2    1    2    0    0 -0.49792589617E+02 -0.28390524201E+02  0.20894539281E+03  0.23746718816E+03  0.97196524790E+02 0.  0.
          5    1    3    3  502    0  0.61754931917E+02 -0.34944023226E+02  0.13250886213E+03  0.15036897060E+03  0.41800000000E+01 0.  1.
         -5    1    3    3    0  502 -0.11962342300E+02  0.63334547427E+02  0.17424768580E+03  0.18583350327E+03  0.41800000000E+01 0.  1.
        -11    1    4    4    0    0  0.24059488352E+02 -0.10003705688E+02  0.10769846242E+03  0.11080564929E+03  0.00000000000E+00 0.  1.
         11    1    4    4    0    0 -0.73852077969E+02 -0.18386818513E+02  0.10124693039E+03  0.12666153887E+03  0.00000000000E+00 0. -1.
</event>
<event>
 8    1  0.6860461E-009  0.1043785E+03  0.7561462E-02  0.1271349E+00
         -1   -1    0    0    0  501 -0.00000000000E+00  0.00000000000E+00  0.51213468803E+02  0.51213468803E+02  0.00000000000E+00 0.  1.
          1   -1    0    0  501    0  0.00000000000E+00 -0.00000000000E+00 -0.28027286446E+03  0.28027286446E+03  0.00000000000E+00 0. -1.
         25    2    1    2    0    0 -0.18478772720E+02 -0.36260008913E+02 -0.86232968449E+02  0.15728639706E+03  0.12508650033E+03 0.  0.
         23    2    1    2    0    0  0.18478772720E+02  0.36260008913E+02 -0.14282642721E+03  0.17419993620E+03  0.91049306298E+02 0.  0.
          5    1    3    3  502    0  0.40370102037E+02 -0.14950441365E+01  0.74026056860E+01  0.41282578243E+02  0.41800000000E+01 0. -1.
         -5    1    3    3    0  502 -0.58848874757E+02 -0.34764964776E+02 -0.93635574135E+02  0.11600381881E+03  0.41800000000E+01 0. -1.
        -11    1    4    4    0    0 -0.23577232700E+02  0.50116480654E+02 -0.76225041312E+02  0.94222101749E+02  0.00000000000E+00 0. -1.
         11    1    4    4    0    0  0.42056005420E+02 -0.13856471742E+02 -0.66601385896E+02  0.79977834456E+02  0.00000000000E+00 0.  1.
</event>
<event>
 8    1  0.6860461E-009  0.1245779E+03  0.7561462E-02  0.1235730E+00
          2   -1    0    0  501    0  0.00000000000E+00  0.00000000000E+00  0.91795314347E+03  0.91795314347E+03  0.00000000000E+00 0. -1.
         -2   -1    0    0    0  501 -0.00000000000E+00 -0.00000000000E+00 -0.35882448839E+02  0.35882448839E+02  0.00000000000E+00 0.  1.
         25    2    1    2    0    0 -0.99796095406E+02 -0.18752397298E+02  0.73669937606E+03  0.75411107144E+03  0.12508646738E+03 0.  0.
         23    2    1    2    0    0  0.99796095406E+02  0.18752397298E+02  0.14537131858E+03  0.19972452087E+03  0.91902942882E+02 0.  0.
          5    1    3    3  502    0  0.50304893334E+01 -0.42456800361E+00  0.41871676598E+03  0.41876806062E+03  0.41800000000E+01 0. -1.
         -5    1    3    3    0  502 -0.10482658474E+03 -0.18327829294E+02  0.31798261007E+03  0.33534301082E+03  0.41800000000E+01 0. -1.
        -11    1    4    4    0    0  0.66860997584E+02  0.55399866926E+02  0.10319984838E+03  0.13486936998E+03  0.00000000000E+00 0.  1.
         11    1    4    4    0    0  0.32935097821E+02 -0.36647469628E+02  0.42171470198E+02  0.64855150893E+02  0.00000000000E+00 0. -1.
</event>
<event>
 8    1  0.6860461E-009  0.1390197E+03  0.7561462E-02  0.1214654E+00
         -1   -1    0    0    0  501 -0.00000000000E+00  0.00000000000E+00  0.60401064449E+02  0.60401064449E+02  0.00000000000E+00 0.  1.
          1   -1    0    0  501    0  0.00000000000E+00 -0.00000000000E+00 -0.46098303360E+03  0.46098303360E+03  0.00000000000E+00 0. -1.
         25    2    1    2    0    0  0.10342021893E+03  0.47584180012E+02 -0.12747307390E+03  0.21179408248E+03  0.12508937977E+03 0.  0.
         23    2    1    2    0    0 -0.10342021893E+03 -0.47584180012E+02 -0.27310889524E+03  0.30959001557E+03  0.91090686710E+02 0.  0.
          5    1    3    3  502    0  0.10782965434E+03  0.15985315487E+02 -0.13980933048E+03  0.17733269849E+03  0.41800000000E+01 0.  1.
         -5    1    3    3    0  502 -0.44094354037E+01  0.31598864525E+02  0.12336256577E+02  0.34461383985E+02  0.41800000000E+01 0.  1.
        -11    1    4    4    0    0 -0.49143277340E+02 -0.63421643477E+02 -0.21027688912E+03  0.22506385020E+03  0.00000000000E+00 0. -1.
         11    1    4    4    0    0 -0.54276941593E+02  0.15837463466E+02 -0.62832006120E+02  0.84526165362E+02  0.00000000000E+00 0.  1.
</event>
<event>
 8    1  0.6860461E-009  0.1261419E+03  0.7561462E-02  0.1233295E+00
         -2   -1    0    0    0  501 -0.00000000000E+00  0.00000000000E+00  0.14629831985E+02  0.14629831985E+02  0.00000000000E+00 0.  1.
          2   -1    0    0  501    0  0.00000000000E+00 -0.00000000000E+00 -0.11348592463E+04  0.11348592463E+04  0.00000000000E+00 0. -1.
         25    2    1    2    0    0  0.21368205705E+02  0.65043872868E+02 -0.64420087878E+03  0.65979503983E+03  0.12508963484E+03 0.  0.
         23    2    1    2    0    0 -0.21368205705E+02 -0.65043872868E+02 -0.47602853555E+03  0.48969403848E+03  0.92248463653E+02 0.  0.
          5    1    3    3  502    0  0.50371601836E+02  0.89109750390E+02 -0.51744487171E+03  0.52748887529E+03  0.41800000000E+01 0.  1.
         -5    1    3    3    0  502 -0.29003396132E+02 -0.24065877522E+02 -0.12675600707E+03  0.13230616454E+03  0.41800000000E+01 0.  1.
        -11    1    4    4    0    0  0.34015073056E+02 -0.14636826273E+02 -0.21374040610E+03  0.21692446399E+03  0.00000000000E+00 0. -1.
         11    1    4    4    0    0 -0.55383278761E+02 -0.50407046595E+02 -0.26228812946E+03  0.27276957449E+03  0.00000000000E+00 0.  1.
</event>
<event>
 8    1  0.6860461E-009  0.1381382E+03  0.7561462E-02  0.1215856E+00
         -2   -1    0    0    0  501 -0.00000000000E+00  0.00000000000E+00  0.22136981003E+02  0.22136981003E+02  0.00000000000E+00 0.  1.
          2   -1    0    0  501    0  0.00000000000E+00 -0.00000000000E+00 -0.89208010020E+03  0.89208010020E+03  0.00000000000E+00 0. -1.
         25    2    1    2    0    0  0.19280657876E+02 -0.82799484448E+02 -0.55602186585E+03  0.57622515650E+03  0.12509043644E+03 0.  0.
         23    2    1    2    0    0 -0.19280657876E+02  0.82799484448E+02 -0.31392125334E+03  0.33799192470E+03  0.92002660111E+02 0.  0.
          5    1    3    3  502    0  0.24907988310E+02 -0.11523980132E+03 -0.44159305558E+03  0.45708042928E+03  0.41800000000E+01 0. -1.
         -5    1    3    3    0  502 -0.56273304334E+01  0.32440316869E+02 -0.11442881027E+03  0.11914472723E+03  0.41800000000E+01 0. -1.
        -11    1    4    4    0    0 -0.53356358359E+02  0.71495831395E+02 -0.21606113360E+03  0.23375407662E+03  0.00000000000E+00 0.  1.
         11    1    4    4    0    0  0.34075700482E+02  0.11303653053E+02 -0.97860119743E+02  0.10423784808E+03  0.00000000000E+00 0. -1.
</event>
<event>
 8    1  0.6860461E-009  0.2672258E+03  0.7561462E-02  0.1102878E+00
          3   -1    0    0  501    0  0.00000000000E+00  0.00000000000E+00  0.24803822087E+03  0.24803822087E+03  0.00000000000E+00 0. -1.
         -3   -1    0    0    0  501 -0.00000000000E+00 -0.00000000000E+00 -0.32281771871E+03  0.32281771871E+03  0.00000000000E+00 0.  1.
         25    2    1    2    0    0  0.21114105853E+03 -0.13890197402E+03  0.27559290973E+02  0.28333961749E+03  0.12509004492E+03 0.  0.
         23    2    1    2    0    0 -0.21114105853E+03  0.13890197402E+03 -0.10233878881E+03  0.28751632209E+03  0.91203633654E+02 0.  0.
          5    1    3    3  502    0  0.21824635800E+03 -0.13726486172E+03  0.35288745390E+01  0.25788183418E+03  0.41800000000E+01 0. -1.
         -5    1    3    3    0  502 -0.71052994700E+01 -0.16371123004E+01  0.24030416434E+02  0.25457783314E+02  0.41800000000E+01 0. -1.
        -11    1    4    4    0    0 -0.10023440625E+03  0.14087606827E+02 -0.30195896318E+02  0.10562759590E+03  0.00000000000E+00 0.  1.
         11    1    4    4    0    0 -0.11090665228E+03  0.12481436719E+03 -0.72142892494E+02  0.18188872619E+03  0.00000000000E+00 0. -1.
</event>
<event>
 8    1  0.6860461E-009  0.1000301E+03  0.7561462E-02  0.1280233E+00
          1   -1    0    0  501    0  0.00000000000E+00  0.00000000000E+00  0.89874337147E+02  0.89874337147E+02  0.00000000000E+00 0. -1.
         -1   -1    0    0    0  501 -0.00000000000E+00 -0.00000000000E+00 -0.20710996173E+03  0.20710996173E+03  0.00000000000E+00 0.  1.
         25    2    1    2    0    0  0.33650760001E+02 -0.40648305361E+02 -0.13289586413E+03  0.18998751763E+03  0.12509711338E+03 0.  0.
         23    2    1    2    0    0 -0.33650760001E+02  0.40648305361E+02  0.15660239556E+02  0.10699678124E+03  0.91751892160E+02 0.  0.
          5    1    3    3  502    0  0.54335798372E+02 -0.38852032240E+01 -0.45512733507E+01  0.54823902433E+02  0.41800000000E+01 0. -1.
         -5    1    3    3    0  502 -0.20685038371E+02 -0.36763102137E+02 -0.12834459078E+03  0.13516361520E+03  0.41800000000E+01 0. -1.
        -11    1    4    4    0    0  0.26850744372E+02  0.32233944536E+02  0.18492878319E+02  0.45847314013E+02  0.00000000000E+00 0. -1.
         11    1    4    4    0    0 -0.60501504373E+02  0.84143608243E+01 -0.28326387629E+01  0.61149467225E+02  0.00000000000E+00 0.  1.
</event>
<event>
 8    1  0.6860461E-009  0.1593237E+03  0.7561462E-02  0.1189462E+00
         -2   -1    0    0    0  501 -0.00000000000E+00  0.00000000000E+00  0.77217320087E+02  0.77217320087E+02  0.00000000000E+00 0.  1.
          2   -1    0    0  501    0  0.00000000000E+00 -0.00000000000E+00 -0.45367326080E+03  0.45367326080E+03  0.00000000000E+00 0. -1.
         25    2    1    2    0    0  0.74332547211E+02  0.13247291804E+03 -0.20517364218E+03  0.28428513824E+03  0.12508962703E+03 0.  0.
         23    2    1    2    0    0 -0.74332547211E+02 -0.13247291804E+03 -0.17128229853E+03  0.24660544265E+03  0.91663607635E+02 0.  0.
          5    1    3    3  502    0  0.80959330798E+02  0.84132846541E+02 -0.20425101885E+03  0.23530554650E+03  0.41800000000E+01 0. -1.
         -5    1    3    3    0  502 -0.66267835874E+01  0.48340071495E+02 -0.92262332273E+00  0.48979591736E+02  0.41800000000E+01 0. -1.
        -11    1    4    4    0    0 -0.13558975370E+02 -0.12918435257E+02  0.99022923712E+01  0.21184597631E+02  0.00000000000E+00 0.  1.
         11    1    4    4    0    0 -0.60773571841E+02 -0.11955448278E+03 -0.18118459090E+03  0.22542084502E+03  0.00000000000E+00 0. -1.
</event>
<event>
 8    1  0.6860461E-009  0.1411483E+03  0.7561462E-02  0.1211792E+00
         -2   -1    0    0    0  501 -0.00000000000E+00  0.00000000000E+00  0.28932076297E+02  0.28932076297E+02  0.00000000000E+00 0. -1.
          2   -1    0    0  501    0  0.00000000000E+00 -0.00000000000E+00 -0.10586475634E+04  0.10586475634E+04  0.00000000000E+00 0.  1.
         25    2    1    2    0    0  0.29753106985E+02 -0.13306023565E+03 -0.59809393161E+03  0.62606456958E+03  0.12510084162E+03 0.  0.
         23    2    1    2    0    0 -0.29753106985E+02  0.13306023565E+03 -0.43162155547E+03  0.46151507009E+03  0.90048426359E+02 0.  0.
          5    1    3    3  502    0  0.29559873072E+02 -0.52168175607E+02 -0.47450656796E+03  0.47829829613E+03  0.41800000000E+01 0. -1.
         -5    1    3    3    0  502  0.19323391272E+00 -0.80892060038E+02 -0.12358736365E+03  0.14776627345E+03  0.41800000000E+01 0. -1.
        -11    1    4    4    0    0 -0.32932155360E+02  0.63270592633E+02 -0.33362987775E+03  0.34116944482E+03  0.00000000000E+00 0.  1.
         11    1    4    4    0    0  0.31790483749E+01  0.69789643013E+02 -0.97991677718E+02  0.12034562527E+03  0.00000000000E+00 0. -1.
</event>
<event>
 8    1  0.6860461E-009  0.1181737E+03  0.7561462E-02  0.1246141E+00
         -2   -1    0    0    0  501 -0.00000000000E+00  0.00000000000E+00  0.56500408690E+02  0.56500408690E+02  0.00000000000E+00 0.  1.
          2   -1    0    0  501    0  0.00000000000E+00 -0.00000000000E+00 -0.30788955132E+03  0.30788955132E+03  0.00000000000E+00 0. -1.
         25    2    1    2    0    0 -0.50073108407E+02  0.50514606039E+02 -0.10900984989E+03  0.18052924686E+03  0.12509444428E+03 0.  0.
         23    2    1    2    0    0  0.50073108407E+02 -0.50514606039E+02 -0.14237929274E+03  0.18386071315E+03  0.92053556314E+02 0.  0.
          5    1    3    3  502    0 -0.17011257734E+02  0.79330530735E+02 -0.10965185473E+03  0.13646874237E+03  0.41800000000E+01 0.  1.
         -5    1    3    3    0  502 -0.33061850673E+02 -0.28815924696E+02  0.64200484529E+00  0.44060504494E+02  0.41800000000E+01 0.  1.
        -11    1    4    4    0    0 -0.32265376186E+01  0.21341548717E+02 -0.92961585881E+01  0.23500868306E+02  0.00000000000E+00 0.  1.
         11    1    4    4    0    0  0.53299646026E+02 -0.71856154756E+02 -0.13308313415E+03  0.16035984485E+03  0.00000000000E+00 0. -1.
</event>
<event>
 8    1  0.6860461E-009  0.9598034E+02  0.7561462E-02  0.1288983E+00
         -2   -1    0    0    0  501 -0.00000000000E+00  0.00000000000E+00  0.45472514830E+03  0.45472514830E+03  0.00000000000E+00 0. -1.
          2   -1    0    0  501    0  0.00000000000E+00 -0.00000000000E+00 -0.34927499138E+02  0.34927499138E+02  0.00000000000E+00 0.  1.
         25    2    1    2    0    0 -0.10943409743E+02  0.52915903166E+02  0.17843645815E+03  0.22451680519E+03  0.12509346582E+03 0.  0.
         23    2    1    2    0    0  0.10943409743E+02 -0.52915903166E+02  0.24136119101E+03  0.26513584225E+03  0.95508844056E+02 0.  0.
          5    1    3    3  502    0  0.24855337710E+02  0.11878625140E+02  0.16623364670E+03  0.16855262456E+03  0.41800000000E+01 0.  1.
         -5    1    3    3    0  502 -0.35798747453E+02  0.41037278025E+02  0.12202811445E+02  0.55964180634E+02  0.41800000000E+01 0.  1.
        -11    1    4    4    0    0 -0.42440113952E+02 -0.22365831845E+02  0.11479933999E+03  0.12441978206E+03  0.00000000000E+00 0. -1.
         11    1    4    4    0    0  0.53383523695E+02 -0.30550071321E+02  0.12656185102E+03  0.14071606018E+03  0.00000000000E+00 0.  1.
</event>
<event>
 8    1  0.6860461E-009  0.2722779E+03  0.7561462E-02  0.1099983E+00
         -1   -1    0    0    0  501 -0.00000000000E+00  0.00000000000E+00  0.92991366415E+02  0.92991366415E+02  0.00000000000E+00 0.  1.
          1   -1    0    0  501    0  0.00000000000E+00 -0.00000000000E+00 -0.89833962265E+03  0.89833962265E+03  0.00000000000E+00 0. -1.
         25    2    1    2    0    0 -0.25004290697E+03 -0.38662976649E+02 -0.26339384032E+03  0.38605737097E+03  0.12509075696E+03 0.  0.
         23    2    1    2    0    0  0.25004290697E+03  0.38662976649E+02 -0.54195441592E+03  0.60527361809E+03  0.92872400265E+02 0.  0.
          5    1    3    3  502    0 -0.13378040539E+03  0.41914022489E+02 -0.11990333609E+03  0.18452171838E+03  0.41800000000E+01 0.  1.
         -5    1    3    3    0  502 -0.11626250159E+03 -0.80576999138E+02 -0.14349050422E+03  0.20153565260E+03  0.41800000000E+01 0.  1.
        -11    1    4    4    0    0  0.11671185769E+03 -0.17667520901E+02 -0.31171642197E+03  0.33331805643E+03  0.00000000000E+00 0. -1.
         11    1    4    4    0    0  0.13333104928E+03  0.56330497550E+02 -0.23023799395E+03  0.27195556166E+03  0.00000000000E+00 0.  1.
</event>
<event>
 8    1  0.6860461E-009  0.1034476E+03  0.7561462E-02  0.1273209E+00
          2   -1    0    0  501    0  0.00000000000E+00  0.00000000000E+00  0.75418433858E+03  0.75418433858E+03  0.00000000000E+00 0. -1.
         -2   -1    0    0    0  501 -0.00000000000E+00 -0.00000000000E+00 -0.16877341656E+02  0.16877341656E+02  0.00000000000E+00 0.  1.
         25    2    1    2    0    0  0.25842471816E+02 -0.93040516851E+01  0.44937269306E+03  0.46726599326E+03  0.12508913809E+03 0.  0.
         23    2    1    2    0    0 -0.25842471816E+02  0.93040516851E+01  0.28793430386E+03  0.30379568697E+03  0.92904560447E+02 0.  0.
          5    1    3    3  502    0  0.33781089514E+02 -0.60304602224E+02  0.17797486446E+03  0.19097207083E+03  0.41800000000E+01 0. -1.
         -5    1    3    3    0  502 -0.79386176976E+01  0.51000550539E+02  0.27139782860E+03  0.27629392244E+03  0.41800000000E+01 0. -1.
        -11    1    4    4    0    0 -0.50685329727E+02 -0.13164818731E+02  0.99820573215E+02  0.11272294327E+03  0.00000000000E+00 0.  1.
         11    1    4    4    0    0  0.24842857911E+02  0.22468870416E+02  0.18811373065E+03  0.19107274370E+03  0.00000000000E+00 0. -1.
</event>
<event>
 8    1  0.6860461E-009  0.1177115E+03  0.7561462E-02  0.1246921E+00
          2   -1    0    0  501    0  0.00000000000E+00  0.00000000000E+00  0.10353522016E+04  0.10353522016E+04  0.00000000000E+00 0. -1.
         -2   -1    0    0    0  501 -0.00000000000E+00 -0.00000000000E+00 -0.15428236543E+02  0.15428236543E+02  0.00000000000E+00 0.  1.
         25    2    1    2    0    0  0.45305463179E+02  0.46944272232E+02  0.58933695414E+03  0.60598794121E+03  0.12508792781E+03 0.  0.
         23    2    1    2    0    0 -0.45305463179E+02 -0.46944272232E+02  0.43058701093E+03  0.44479249695E+03  0.90436948603E+02 0.  0.
          5    1    3    3  502    0  0.81337431106E+02  0.95953492983E+01  0.44625586558E+03  0.45372857348E+03  0.41800000000E+01 0. -1.
         -5    1    3    3    0  502 -0.36031967927E+02  0.37348922934E+02  0.14308108856E+03  0.15225936773E+03  0.41800000000E+01 0. -1.
        -11    1    4    4    0    0 -0.52151625488E+01 -0.59199485240E+02  0.33762263673E+03  0.34281310040E+03  0.00000000000E+00 0. -1.
         11    1    4    4    0    0 -0.40090300630E+02  0.12255213008E+02  0.92964374197E+02  0.10197939655E+03  0.00000000000E+00 0.  1.
</event>
<event>
 8    1  0.6860461E-009  0.1023480E+03  0.7561462E-02  0.1275435E+00
          2   -1    0    0  501    0  0.00000000000E+00  0.00000000000E+00  0.86385491667E+02  0.86385491667E+02  0.00000000000E+00 0. -1.
         -2   -1    0    0    0  501 -0.00000000000E+00 -0.00000000000E+00 -0.13649715816E+03  0.13649715816E+03  0.00000000000E+00 0.  1.
         25    2    1    2    0    0 -0.13820967377E+01 -0.25121969645E+02 -0.11493627642E+02  0.12811138813E+03  0.12508957087E+03 0.  0.
         23    2    1    2    0    0  0.13820967377E+01  0.25121969645E+02 -0.38618038847E+02  0.94771261695E+02  0.82808306158E+02 0.  0.
          5    1    3    3  502    0  0.38939498545E+02  0.31586004576E+02 -0.26413681105E+02  0.56825304060E+02  0.41800000000E+01 0. -1.
         -5    1    3    3    0  502 -0.40321595283E+02 -0.56707974221E+02  0.14920053463E+02  0.71286084068E+02  0.41800000000E+01 0. -1.
        -11    1    4    4    0    0 -0.39735307973E+02  0.13018431607E+02 -0.92817707125E+01  0.42831361510E+02  0.00000000000E+00 0. -1.
         11    1    4    4    0    0  0.41117404711E+02  0.12103538038E+02 -0.29336268134E+02  0.51939900185E+02  0.00000000000E+00 0.  1.
</event>
<event>
 8    1  0.6860461E-009  0.1314369E+03  0.7561462E-02  0.1225339E+00
         -1   -1    0    0    0  501 -0.00000000000E+00  0.00000000000E+00  0.11808316176E+03  0.11808316176E+03  0.00000000000E+00 0.  1.
          1   -1    0    0  501    0  0.00000000000E+00 -0.00000000000E+00 -0.20904517092E+03  0.20904517092E+03  0.00000000000E+00 0. -1.
         25    2    1    2    0    0 -0.50101127665E+02  0.83569368861E+02  0.10287063838E+02  0.15889380888E+03  0.12508979340E+03 0.  0.
         23    2    1    2    0    0  0.50101127665E+02 -0.83569368861E+02 -0.10124907300E+03  0.16823452380E+03  0.92506852771E+02 0.  0.
          5    1    3    3  502    0  0.36853689388E+02  0.54428143921E+02  0.12613805945E+02  0.67061149503E+02  0.41800000000E+01 0. -1.
         -5    1    3    3    0  502 -0.86954817053E+02  0.29141224940E+02 -0.23267421074E+01  0.91832659379E+02  0.41800000000E+01 0. -1.
        -11    1    4    4    0    0  0.25192551708E+02 -0.74588883348E+02 -0.11424058041E+03  0.13874104077E+03  0.00000000000E+00 0. -1.
         11    1    4    4    0    0  0.24908575958E+02 -0.89804855132E+01  0.12991507415E+02  0.29493483030E+02  0.00000000000E+00 0.  1.
</event>
<event>
 8    1  0.6860461E-009  0.1434717E+03  0.7561462E-02  0.1208732E+00
          1   -1    0    0  501    0  0.00000000000E+00  0.00000000000E+00  0.10606544258E+04  0.10606544258E+04  0.00000000000E+00 0. -1.
         -1   -1    0    0    0  501 -0.00000000000E+00 -0.00000000000E+00 -0.28717268983E+02  0.28717268983E+02  0.00000000000E+00 0.  1.
         25    2    1    2    0    0  0.12154858673E+03  0.51838984314E+02  0.65792585462E+03  0.68262544876E+03  0.12509889644E+03 0.  0.
         23    2    1    2    0    0 -0.12154858673E+03 -0.51838984314E+02  0.37401130216E+03  0.40674624598E+03  0.89981749525E+02 0.  0.
          5    1    3    3  502    0  0.67528142852E+02 -0.11781494987E+02  0.12011998966E+03  0.13836595686E+03  0.41800000000E+01 0.  1.
         -5    1    3    3    0  502  0.54020443879E+02  0.63620479301E+02  0.53780586496E+03  0.54425949190E+03  0.41800000000E+01 0.  1.
        -11    1    4    4    0    0 -0.37248768717E+02 -0.32222674940E+01  0.26397086486E+02  0.45767455180E+02  0.00000000000E+00 0.  1.
         11    1    4    4    0    0 -0.84299818015E+02 -0.48616716820E+02  0.34761421567E+03  0.36097879080E+03  0.00000000000E+00 0. -1.
</event>
<event>
 8    1  0.6860461E-009  0.7742334E+02  0.7561462E-02  0.1336527E+00
         -1   -1    0    0    0  501 -0.00000000000E+00  0.00000000000E+00  0.23574318527E+03  0.23574318527E+03  0.00000000000E+00 0.  1.
          1   -1    0    0  501    0  0.00000000000E+00 -0.00000000000E+00 -0.62792608968E+02  0.62792608968E+02  0.00000000000E+00 0. -1.
         25    2    1    2    0    0 -0.23233983699E+02 -0.54687298015E+01  0.36271109377E+02  0.13241289721E+03  0.12509139446E+03 0.  0.
         23    2    1    2    0    0  0.23233983699E+02  0.54687298015E+01  0.13667946692E+03  0.16612289703E+03  0.91355433527E+02 0.  0.
          5    1    3    3  502    0  0.32171266139E+02  0.18178079903E+02 -0.26229116208E+02  0.45506833454E+02  0.41800000000E+01 0. -1.
         -5    1    3    3    0  502 -0.55405249838E+02 -0.23646809705E+02  0.62500225586E+02  0.86906063753E+02  0.41800000000E+01 0. -1.
        -11    1    4    4    0    0 -0.11343927328E+02  0.17334781270E+02 -0.37148328290E+01  0.21047073712E+02  0.00000000000E+00 0. -1.
         11    1    4    4    0    0  0.34577911026E+02 -0.11866051468E+02  0.14039429975E+03  0.14507582332E+03  0.00000000000E+00 0.  1.
</event>
<event>
 8    1  0.6860461E-009  0.1235968E+03  0.7561462E-02  0.1237279E+00
          1   -1    0    0  501    0  0.00000000000E+00  0.00000000000E+00  0.42847093406E+03  0.42847093406E+03  0.00000000000E+00 0. -1.
         -1   -1    0    0    0  501 -0.00000000000E+00 -0.00000000000E+00 -0.38944915527E+02  0.38944915527E+02  0.00000000000E+00 0.  1.
         25    2    1    2    0    0 -0.64016657902E+02  0.19801722757E+02  0.24298763500E+03  0.28139224783E+03  0.12509342773E+03 0.  0.
         23    2    1    2    0    0  0.64016657902E+02 -0.19801722757E+02  0.14653838354E+03  0.18602360176E+03  0.92957204401E+02 0.  0.
          5    1    3    3  502    0 -0.97214073768E+02  0.34256546005E+02  0.15539101651E+03  0.18651522054E+03  0.41800000000E+01 0.  1.
         -5    1    3    3    0  502  0.33197415866E+02 -0.14454823248E+02  0.87596618494E+02  0.94877027287E+02  0.41800000000E+01 0.  1.
        -11    1    4    4    0    0  0.12432223904E+02 -0.47456163591E+02  0.35672247967E+02  0.60656054347E+02  0.00000000000E+00 0.  1.
         11    1    4    4    0    0  0.51584433997E+02  0.27654440834E+02  0.11086613557E+03  0.12536754741E+03  0.00000000000E+00 0. -1.
</event>
<event>
 8    1  0.6860461E-009  0.1423963E+03  0.7561462E-02  0.1210140E+00
          2   -1    0    0  501    0  0.00000000000E+00  0.00000000000E+00  0.45043404498E+03  0.45043404498E+03  0.00000000000E+00 0. -1.
         -2   -1    0    0    0  501 -0.00000000000E+00 -0.00000000000E+00 -0.71761579037E+02  0.71761579037E+02  0.00000000000E+00 0.  1.
         25    2    1    2    0    0 -0.92473908815E+01  0.10662554795E+03  0.62127003708E+02  0.17595956339E+03  0.12508989426E+03 0.  0.
         23    2    1    2    0    0  0.92473908815E+01 -0.10662554795E+03  0.31654546223E+03  0.34623606062E+03  0.90685491127E+02 0.  0.
          5    1    3    3  502    0  0.44003534439E+02  0.35078639767E+01  0.35535581707E+02  0.56823112551E+02  0.41800000000E+01 0. -1.
         -5    1    3    3    0  502 -0.53250925321E+02  0.10311768397E+03  0.26591422002E+02  0.11913645084E+03  0.41800000000E+01 0. -1.
        -11    1    4    4    0    0 -0.27340049374E+02 -0.45695706805E+02  0.21999727299E+03  0.22635011827E+03  0.00000000000E+00 0.  1.
         11    1    4    4    0    0  0.36587440255E+02 -0.60929841144E+02  0.96548189245E+02  0.11988594235E+03  0.00000000000E+00 0. -1.
</event>
<event>
 8    1  0.6860461E-009  0.1722969E+03  0.7561462E-02  0.1175474E+00
          3   -1    0    0  501    0  0.00000000000E+00  0.00000000000E+00  0.61331661217E+03  0.61331661217E+03  0.00000000000E+00 0. -1.
         -3   -1    0    0    0  501 -0.00000000000E+00 -0.00000000000E+00 -0.53558602619E+02  0.53558602619E+02  0.00000000000E+00 0.  1.
         25    2    1    2    0    0  0.14192073515E+03  0.25551844358E+02  0.31923554038E+03  0.37195849680E+03  0.12508957304E+03 0.  0.
         23    2    1    2    0    0 -0.14192073515E+03 -0.25551844358E+02  0.24052246917E+03  0.29491671800E+03  0.91271137618E+02 0.  0.
          5    1    3    3  502    0  0.12022539978E+03 -0.29321888123E+02  0.26133090291E+03  0.28918027784E+03  0.41800000000E+01 0.  1.
         -5    1    3    3    0  502  0.21695335369E+02  0.54873732481E+02  0.57904637467E+02  0.82778218955E+02  0.41800000000E+01 0.  1.
        -11    1    4    4    0    0 -0.37855631803E+02 -0.41687133487E+02  0.42197876089E+02  0.70367085374E+02  0.00000000000E+00 0.  1.
         11    1    4    4    0    0 -0.10406510334E+03  0.16135289129E+02  0.19832459308E+03  0.22454963262E+03  0.00000000000E+00 0. -1.
</event>
<event>
 8    1  0.6860461E-009  0.1196095E+03  0.7561462E-02  0.1243743E+00
         -3   -1    0    0    0  501 -0.00000000000E+00  0.00000000000E+00  0.16123810504E+03  0.16123810504E+03  0.00000000000E+00 0.  1.
          3   -1    0    0  501    0  0.00000000000E+00 -0.00000000000E+00 -0.12379924256E+03  0.12379924256E+03  0.00000000000E+00 0. -1.
         25    2    1    2    0    0  0.91561000830E+02  0.38043430255E+01  0.22986676847E+02  0.15675912830E+03  0.12508855700E+03 0.  0.
         23    2    1    2    0    0 -0.91561000830E+02 -0.38043430255E+01  0.14452185635E+02  0.12827821931E+03  0.88592019846E+02 0.  0.
          5    1    3    3  502    0  0.62209937550E+01  0.33593680476E+02  0.51449960664E+02  0.61901591123E+02  0.41800000000E+01 0. -1.
         -5    1    3    3    0  502  0.85340007075E+02 -0.29789337450E+02 -0.28463283816E+02  0.94857537175E+02  0.41800000000E+01 0. -1.
        -11    1    4    4    0    0  0.79944745143E+01  0.11067439518E+02 -0.17931224458E+02  0.22537272479E+02  0.00000000000E+00 0. -1.
         11    1    4    4    0    0 -0.99555475344E+02 -0.14871782544E+02  0.32383410093E+02  0.10574094683E+03  0.00000000000E+00 0.  1.
</event>
<event>
 8    1  0.6860461E-009  0.1299360E+03  0.7561462E-02  0.1227551E+00
         -2   -1    0    0    0  501 -0.00000000000E+00  0.00000000000E+00  0.59368061825E+02  0.59368061825E+02  0.00000000000E+00 0.  1.
          2   -1    0    0  501    0  0.00000000000E+00 -0.00000000000E+00 -0.33794984416E+03  0.33794984416E+03  0.00000000000E+00 0. -1.
         25    2    1    2    0    0  0.59222473895E+00 -0.86136852693E+02 -0.11084645554E+03  0.18802790761E+03  0.12509056404E+03 0.  0.
         23    2    1    2    0    0 -0.59222473895E+00  0.86136852693E+02 -0.16773532679E+03  0.20928999837E+03  0.90814401077E+02 0.  0.
          5    1    3    3  502    0 -0.45256885157E+02 -0.75374369068E+02 -0.10981679107E+03  0.14073621129E+03  0.41800000000E+01 0.  1.
         -5    1    3    3    0  502  0.45849109896E+02 -0.10762483625E+02 -0.10296644689E+01  0.47291696321E+02  0.41800000000E+01 0.  1.
        -11    1    4    4    0    0  0.44585603003E+02  0.47263397528E+02 -0.77280820625E+02  0.10096548904E+03  0.00000000000E+00 0.  1.
         11    1    4    4    0    0 -0.45177827741E+02  0.38873455164E+02 -0.90454506167E+02  0.10832450933E+03  0.00000000000E+00 0. -1.
</event>
<event>
 8    1  0.6860461E-009  0.1094072E+03  0.7561462E-02  0.1261672E+00
         -2   -1    0    0    0  501 -0.00000000000E+00  0.00000000000E+00  0.21103280518E+02  0.21103280518E+02  0.00000000000E+00 0.  1.
          2   -1    0    0  501    0  0.00000000000E+00 -0.00000000000E+00 -0.59338889917E+03  0.59338889917E+03  0.00000000000E+00 0. -1.
         25    2    1    2    0    0 -0.11892811057E+02 -0.24750898281E+02 -0.31009060188E+03  0.33549470829E+03  0.12508585850E+03 0.  0.
         23    2    1    2    0    0  0.11892811057E+02  0.24750898281E+02 -0.26219501676E+03  0.27899747139E+03  0.91319857128E+02 0.  0.
          5    1    3    3  502    0  0.41680374642E+02  0.29002086305E+02 -0.10337116545E+03  0.11524515125E+03  0.41800000000E+01 0. -1.
         -5    1    3    3    0  502 -0.53573185699E+02 -0.53752984587E+02 -0.20671943643E+03  0.22024955704E+03  0.41800000000E+01 0. -1.
        -11    1    4    4    0    0 -0.21201603407E+02  0.47285185148E+02 -0.18386377324E+03  0.19102691913E+03  0.00000000000E+00 0. -1.
         11    1    4    4    0    0  0.33094414464E+02 -0.22534286867E+02 -0.78331243520E+02  0.87970552259E+02  0.00000000000E+00 0.  1.
</event>
<event>
 8    1  0.6860461E-009  0.1020437E+03  0.7561462E-02  0.1276056E+00
          3   -1    0    0  501    0  0.00000000000E+00  0.00000000000E+00  0.12124135421E+03  0.12124135421E+03  0.00000000000E+00 0. -1.
         -3   -1    0    0    0  501 -0.00000000000E+00 -0.00000000000E+00 -0.13282986829E+03  0.13282986829E+03  0.00000000000E+00 0.  1.
         25    2    1    2    0    0  0.17707310121E+02 -0.59409314093E+02  0.18511686106E+02  0.14083230451E+03  0.12509212621E+03 0.  0.
         23    2    1    2    0    0 -0.17707310121E+02  0.59409314093E+02 -0.30100200193E+02  0.11323891799E+03  0.89855523270E+02 0.  0.
          5    1    3    3  502    0  0.49953037714E+02 -0.18965759221E+02 -0.36780710064E+02  0.65002300209E+02  0.41800000000E+01 0. -1.
         -5    1    3    3    0  502 -0.32245727593E+02 -0.40443554872E+02  0.55292396170E+02  0.75830004305E+02  0.41800000000E+01 0. -1.
        -11    1    4    4    0    0  0.12056374541E+02  0.66842069755E+02  0.31561196405E+01  0.67993966993E+02  0.00000000000E+00 0. -1.
         11    1    4    4    0    0 -0.29763684662E+02 -0.74327556623E+01 -0.33256319834E+02  0.45244950992E+02  0.00000000000E+00 0.  1.
</event>
<event>
 8    1  0.6860461E-009  0.1654054E+03  0.7561462E-02  0.1182726E+00
          1   -1    0    0  501    0  0.00000000000E+00  0.00000000000E+00  0.23156298820E+03  0.23156298820E+03  0.00000000000E+00 0. -1.
         -1   -1    0    0    0  501 -0.00000000000E+00 -0.00000000000E+00 -0.12655015224E+03  0.12655015224E+03  0.00000000000E+00 0.  1.
         25    2    1    2    0    0  0.12189443009E+03  0.25588398015E+02  0.11670176178E+02  0.17690599301E+03  0.12508604699E+03 0.  0.
         23    2    1    2    0    0 -0.12189443009E+03 -0.25588398015E+02  0.93342659780E+02  0.18120714743E+03  0.92790947541E+02 0.  0.
          5    1    3    3  502    0 -0.16340018144E+02 -0.23957552620E+02  0.59043656498E+01  0.29888031956E+02  0.41800000000E+01 0.  1.
         -5    1    3    3    0  502  0.13823444823E+03  0.49545950636E+02  0.57658105282E+01  0.14701796106E+03  0.41800000000E+01 0.  1.
        -11    1    4    4    0    0 -0.26166014596E+02  0.33197226879E+02  0.33432570119E+02  0.53892976695E+02  0.00000000000E+00 0.  1.
         11    1    4    4    0    0 -0.95728415492E+02 -0.58785624894E+02  0.59910089661E+02  0.12731417074E+03  0.00000000000E+00 0. -1.
</event>
<event>
 8    1  0.6860461E-009  0.8066008E+02  0.7561462E-02  0.1327189E+00
          1   -1    0    0  501    0  0.00000000000E+00  0.00000000000E+00  0.54631968912E+02  0.54631968912E+02  0.00000000000E+00 0. -1.
         -1   -1    0    0    0  501 -0.00000000000E+00 -0.00000000000E+00 -0.32737524406E+03  0.32737524406E+03  0.00000000000E+00 0.  1.
         25    2    1    2    0    0  0.19764898216E+02  0.47619001498E+02 -0.66812300708E+02  0.15089726767E+03  0.12509149196E+03 0.  0.
         23    2    1    2    0    0 -0.19764898216E+02 -0.47619001498E+02 -0.20593097444E+03  0.23110994530E+03  0.91356554645E+02 0.  0.
          5    1    3    3  502    0  0.35290059232E+02  0.13002629104E+02  0.29056702887E+02  0.47709758194E+02  0.41800000000E+01 0.  1.
         -5    1    3    3    0  502 -0.15525161016E+02  0.34616372394E+02 -0.95869003595E+02  0.10318750948E+03  0.41800000000E+01 0.  1.
        -11    1    4    4    0    0 -0.42965620221E+02 -0.44576232512E+02 -0.71161305229E+02  0.94323996882E+02  0.00000000000E+00 0. -1.
         11    1    4    4    0    0  0.23200722005E+02 -0.30427689856E+01 -0.13476966921E+03  0.13678594841E+03  0.00000000000E+00 0.  1.
</event>
<event>
 8    1  0.6860461E-009  0.1141442E+03  0.7561462E-02  0.1253082E+00
          1   -1    0    0  501    0  0.00000000000E+00  0.00000000000E+00  0.56328138488E+03  0.56328138488E+03  0.00000000000E+00 0. -1.
         -1   -1    0    0    0  501 -0.00000000000E+00 -0.00000000000E+00 -0.26063722303E+02  0.26063722303E+02  0.00000000000E+00 0.  1.
         25    2    1    2    0    0 -0.92461791644E+01 -0.50543376628E+02  0.24409037596E+03  0.27904787863E+03  0.12508989641E+03 0.  0.
         23    2    1    2    0    0  0.92461791644E+01  0.50543376628E+02  0.29312728662E+03  0.31029722855E+03  0.87867167560E+02 0.  0.
          5    1    3    3  502    0  0.44367083662E+02 -0.64832096531E+02  0.12668734787E+03  0.14912677615E+03  0.41800000000E+01 0.  1.
         -5    1    3    3    0  502 -0.53613262827E+02  0.14288719903E+02  0.11740302809E+03  0.12992110249E+03  0.41800000000E+01 0.  1.
        -11    1    4    4    0    0 -0.50465367905E+01 -0.20703309913E+02  0.26826445767E+02  0.34260075415E+02  0.00000000000E+00 0.  1.
         11    1    4    4    0    0  0.14292715955E+02  0.71246686541E+02  0.26630084085E+03  0.27603715314E+03  0.00000000000E+00 0. -1.
</event>
<event>
 8    1  0.6860461E-009  0.1310531E+03  0.7561462E-02  0.1225901E+00
          2   -1    0    0  501    0  0.00000000000E+00  0.00000000000E+00  0.42427776806E+03  0.42427776806E+03  0.00000000000E+00 0.  1.
         -2   -1    0    0    0  501 -0.00000000000E+00 -0.00000000000E+00 -0.53514488203E+02  0.53514488203E+02  0.00000000000E+00 0. -1.
         25    2    1    2    0    0  0.97251258212E+02  0.27024034839E+02  0.15623982616E+03  0.22415847191E+03  0.12509209234E+03 0.  0.
         23    2    1    2    0    0 -0.97251258212E+02 -0.27024034839E+02  0.21452345369E+03  0.25363378435E+03  0.90120356733E+02 0.  0.
          5    1    3    3  502    0  0.23627955635E+02  0.70898216932E+02  0.69250484144E+02  0.10197028688E+03  0.41800000000E+01 0. -1.
         -5    1    3    3    0  502  0.73623302577E+02 -0.43874182093E+02  0.86989342019E+02  0.12218818503E+03  0.41800000000E+01 0. -1.
        -11    1    4    4    0    0 -0.35948892878E+02 -0.15141132255E+02  0.10683531125E+02  0.40443968924E+02  0.00000000000E+00 0. -1.
         11    1    4    4    0    0 -0.61302365335E+02 -0.11882902584E+02  0.20383992257E+03  0.21318981543E+03  0.00000000000E+00 0.  1.
</event>
<event>
 8    1  0.6860461E-009  0.1032808E+03  0.7561462E-02  0.1273544E+00
         -1   -1    0    0    0  501 -0.00000000000E+00  0.00000000000E+00  0.88956351994E+02  0.88956351994E+02  0.00000000000E+00 0.  1.
          1   -1    0    0  501    0  0.00000000000E+00 -0.00000000000E+00 -0.15833133820E+03  0.15833133820E+03  0.00000000000E+00 0. -1.
         25    2    1    2    0    0  0.41092914121E+02  0.25569707693E+02 -0.71758797015E+02  0.15211206485E+03  0.12508524206E+03 0.  0.
         23    2    1    2    0    0 -0.41092914121E+02 -0.25569707693E+02  0.23838108055E+01  0.95175625347E+02  0.81916296082E+02 0.  0.
          5    1    3    3  502    0  0.22354953959E+02 -0.43747053821E+02 -0.62477602497E+02  0.79589395639E+02  0.41800000000E+01 0. -1.
         -5    1    3    3    0  502  0.18737960162E+02  0.69316761514E+02 -0.92811945184E+01  0.72522669211E+02  0.41800000000E+01 0. -1.
        -11    1    4    4    0    0  0.19559422493E+02 -0.12718562202E+02 -0.18477068370E+02  0.29761298498E+02  0.00000000000E+00 0. -1.
         11    1    4    4    0    0 -0.60652336613E+02 -0.12851145491E+02  0.20860879176E+02  0.65414326849E+02  0.00000000000E+00 0.  1.
</event>
<event>
 8    1  0.6860461E-009  0.1096534E+03  0.7561462E-02  0.1261213E+00
         -2   -1    0    0    0  501 -0.00000000000E+00  0.00000000000E+00  0.79698764214E+02  0.79698764214E+02  0.00000000000E+00 0.  1.
          2   -1    0    0  501    0  0.00000000000E+00 -0.00000000000E+00 -0.15995590468E+03  0.15995590468E+03  0.00000000000E+00 0. -1.
         25    2    1    2    0    0 -0.16671267374E+02  0.29217398444E+02 -0.29398166818E+02  0.13282856867E+03  0.12509032303E+03 0.  0.
         23    2    1    2    0    0  0.16671267374E+02 -0.29217398444E+02 -0.50858973645E+02  0.10682610022E+03  0.87713128780E+02 0.  0.
          5    1    3    3  502    0  0.34032303786E+02 -0.31503637931E+02 -0.26461181266E+02  0.53556917554E+02  0.41800000000E+01 0. -1.
         -5    1    3    3    0  502 -0.50703571159E+02  0.60721036374E+02 -0.29369855515E+01  0.79271651117E+02  0.41800000000E+01 0. -1.
        -11    1    4    4    0    0 -0.36017879775E+02 -0.14433682616E+02 -0.16188907334E+02  0.42044019527E+02  0.00000000000E+00 0.  1.
         11    1    4    4    0    0  0.52689147148E+02 -0.14783715828E+02 -0.34670066311E+02  0.64782080693E+02  0.00000000000E+00 0. -1.
</event>
<event>
 8    1  0.6860461E-009  0.1053602E+03  0.7561462E-02  0.1269412E+00
         -1   -1    0    0    0  501 -0.00000000000E+00  0.00000000000E+00  0.23889761221E+03  0.23889761221E+03  0.00000000000E+00 0.  1.
          1   -1    0    0  501    0  0.00000000000E+00 -0.00000000000E+00 -0.61527782340E+02  0.61527782340E+02  0.00000000000E+00 0. -1.
         25    2    1    2    0    0  0.15247446871E+02  0.12825025131E+02  0.42100568383E+02  0.13348110582E+03  0.12509109420E+03 0.  0.
         23    2    1    2    0    0 -0.15247446871E+02 -0.12825025131E+02  0.13526926149E+03  0.16694428873E+03  0.95789647299E+02 0.  0.
          5    1    3    3  502    0 -0.50688448219E+02  0.83006006162E+01 -0.56439014979E+01  0.51841535255E+02  0.41800000000E+01 0.  1.
         -5    1    3    3    0  502  0.65935895090E+02  0.45244245149E+01  0.47744469881E+02  0.81639570569E+02  0.41800000000E+01 0.  1.
        -11    1    4    4    0    0 -0.53653912716E+02 -0.82929043860E+01  0.10358151626E+03  0.11694718946E+03  0.00000000000E+00 0.  1.
         11    1    4    4    0    0  0.38406465845E+02 -0.45321207451E+01  0.31687745231E+02  0.49997099266E+02  0.00000000000E+00 0. -1.
</event>
<event>
 8    1  0.6860461E-009  0.7729821E+02  0.7561462E-02  0.1336898E+00
          1   -1    0    0  501    0  0.00000000000E+00  0.00000000000E+00  0.65988758037E+02  0.65988758037E+02  0.00000000000E+00 0. -1.
         -1   -1    0    0    0  501 -0.00000000000E+00 -0.00000000000E+00 -0.18878903973E+03  0.18878903973E+03  0.00000000000E+00 0.  1.
         25    2    1    2    0    0 -0.20624950855E+02 -0.74653779498E+01 -0.85126226961E+02  0.15289089338E+03  0.12509208727E+03 0.  0.
         23    2    1    2    0    0  0.20624950855E+02  0.74653779498E+01 -0.37674054734E+02  0.10188690439E+03  0.92089556520E+02 0.  0.
          5    1    3    3  502    0  0.49454972206E+02  0.13050671301E+02 -0.20405911919E+02  0.55226695887E+02  0.41800000000E+01 0. -1.
         -5    1    3    3    0  502 -0.70079923061E+02 -0.20516049251E+02 -0.64720315042E+02  0.97664197495E+02  0.41800000000E+01 0. -1.
        -11    1    4    4    0    0  0.12862745828E+02 -0.63086521467E+01 -0.67030054419E+02  0.68543982358E+02  0.00000000000E+00 0.  1.
         11    1    4    4    0    0  0.77622050273E+01  0.13774030096E+02  0.29355999685E+02  0.33342922030E+02  0.00000000000E+00 0. -1.
</event>
<event>
 8    1  0.6860461E-009  0.7733354E+02  0.7561462E-02  0.1336793E+00
          1   -1    0    0  501    0  0.00000000000E+00  0.00000000000E+00  0.20679103297E+03  0.20679103297E+03  0.00000000000E+00 0. -1.
         -1   -1    0    0    0  501 -0.00000000000E+00 -0.00000000000E+00 -0.66284964981E+02  0.66284964981E+02  0.00000000000E+00 0.  1.
         25    2    1    2    0    0  0.26159778117E+02 -0.32295091607E+02  0.61946746333E+02  0.14564247327E+03  0.12508806380E+03 0.  0.
         23    2    1    2    0    0 -0.26159778117E+02  0.32295091607E+02  0.78559321658E+02  0.12743352469E+03  0.91325950647E+02 0.  0.
          5    1    3    3  502    0 -0.10894192912E+02 -0.36426919126E+02 -0.28515097649E+02  0.47709402324E+02  0.41800000000E+01 0. -1.
         -5    1    3    3    0  502  0.37053971030E+02  0.41318275189E+01  0.90461843982E+02  0.97933070943E+02  0.41800000000E+01 0. -1.
        -11    1    4    4    0    0 -0.47022761906E+02  0.94523686291E+01  0.57280645257E+01  0.48304224796E+02  0.00000000000E+00 0.  1.
         11    1    4    4    0    0  0.20862983789E+02  0.22842722978E+02  0.72831257132E+02  0.79129299890E+02  0.00000000000E+00 0. -1.
</event>
<event>
 8    1  0.6860461E-009  0.1791151E+03  0.7561462E-02  0.1168662E+00
          1   -1    0    0  501    0  0.00000000000E+00  0.00000000000E+00  0.50139969125E+03  0.50139969125E+03  0.00000000000E+00 0. -1.
         -1   -1    0    0    0  501 -0.00000000000E+00 -0.00000000000E+00 -0.74524853588E+02  0.74524853588E+02  0.00000000000E+00 0.  1.
         25    2    1    2    0    0  0.71959678159E+02 -0.13914431614E+03  0.19329925847E+03  0.27847990889E+03  0.12508845005E+03 0.  0.
         23    2    1    2    0    0 -0.71959678159E+02  0.13914431614E+03  0.23357557920E+03  0.29744463595E+03  0.96831938233E+02 0.  0.
          5    1    3    3  502    0 -0.35063494425E+02 -0.21478540415E+02  0.38182104370E+02  0.56268302212E+02  0.41800000000E+01 0. -1.
         -5    1    3    3    0  502  0.10702317258E+03 -0.11766577573E+03  0.15511715410E+03  0.22221160668E+03  0.41800000000E+01 0. -1.
        -11    1    4    4    0    0 -0.46019182287E+02  0.68427574728E+02  0.19730137328E+03  0.21384089884E+03  0.00000000000E+00 0. -1.
         11    1    4    4    0    0 -0.25940495872E+02  0.70716741417E+02  0.36274205917E+02  0.83603737104E+02  0.00000000000E+00 0.  1.
</event>
<event>
 8    1  0.6860461E-009  0.2003464E+03  0.7561462E-02  0.1149447E+00
          1   -1    0    0  501    0  0.00000000000E+00  0.00000000000E+00  0.84084293739E+03  0.84084293739E+03  0.00000000000E+00 0. -1.
         -1   -1    0    0    0  501 -0.00000000000E+00 -0.00000000000E+00 -0.86147386842E+02  0.86147386842E+02  0.00000000000E+00 0.  1.
         25    2    1    2    0    0 -0.16455452755E+03  0.75947113431E+02  0.67369008665E+03  0.70876817735E+03  0.12509132583E+03 0.  0.
         23    2    1    2    0    0  0.16455452755E+03 -0.75947113431E+02  0.81005463896E+02  0.21822214688E+03  0.90624851077E+02 0.  0.
          5    1    3    3  502    0 -0.16188698862E+03  0.10266232578E+03  0.56152315186E+03  0.59335712071E+03  0.41800000000E+01 0. -1.
         -5    1    3    3    0  502 -0.26675389255E+01 -0.26715212351E+02  0.11216693479E+03  0.11541105664E+03  0.41800000000E+01 0. -1.
        -11    1    4    4    0    0  0.14789093591E+03 -0.63333340004E+02  0.30749343533E+02  0.16379365985E+03  0.00000000000E+00 0.  1.
         11    1    4    4    0    0  0.16663591643E+02 -0.12613773427E+02  0.50256120363E+02  0.54428487031E+02  0.00000000000E+00 0. -1.
</event>
<event>
 8    1  0.6860461E-009  0.9838110E+02  0.7561462E-02  0.1283738E+00
         -2   -1    0    0    0  501 -0.00000000000E+00  0.00000000000E+00  0.13424572694E+02  0.13424572694E+02  0.00000000000E+00 0.  1.
          2   -1    0    0  501    0  0.00000000000E+00 -0.00000000000E+00 -0.13091716698E+04  0.13091716698E+04  0.00000000000E+00 0. -1.
         25    2    1    2    0    0  0.28602292365E+02 -0.40324238395E+02 -0.10102800866E+04  0.10191943202E+04  0.12508826317E+03 0.  0.
         23    2    1    2    0    0 -0.28602292365E+02  0.40324238395E+02 -0.28546701047E+03  0.30340192228E+03  0.90095377476E+02 0.  0.
          5    1    3    3  502    0  0.44599617832E+01 -0.61410543817E+02 -0.22676654659E+03  0.23501422340E+03  0.41800000000E+01 0. -1.
         -5    1    3    3    0  502  0.24142330582E+02  0.21086305422E+02 -0.78351354004E+03  0.78418009680E+03  0.41800000000E+01 0. -1.
        -11    1    4    4    0    0  0.69869453100E+01 -0.26287097602E+02 -0.79647133414E+02  0.84163500201E+02  0.00000000000E+00 0.  1.
         11    1    4    4    0    0 -0.35589237675E+02  0.66611335997E+02 -0.20581987706E+03  0.21923842207E+03  0.00000000000E+00 0. -1.
</event>
<event>
 8    1  0.6860461E-009  0.1575564E+03  0.7561462E-02  0.1191484E+00
         -1   -1    0    0    0  501 -0.00000000000E+00  0.00000000000E+00  0.24960586690E+03  0.24960586690E+03  0.00000000000E+00 0.  1.
          1   -1    0    0  501    0  0.00000000000E+00 -0.00000000000E+00 -0.11222916277E+03  0.11222916277E+03  0.00000000000E+00 0. -1.
         25    2    1    2    0    0  0.91513490141E+01  0.12250182755E+03  0.10863490096E+03  0.20625239828E+03  0.12509222657E+03 0.  0.
         23    2    1    2    0    0 -0.91513490141E+01 -0.12250182755E+03  0.28741803177E+02  0.15558263139E+03  0.91046246491E+02 0.  0.
          5    1    3    3  502    0 -0.42780048266E+02  0.11435752071E+03  0.69203968512E+02  0.14040810778E+03  0.41800000000E+01 0. -1.
         -5    1    3    3    0  502  0.51931397280E+02  0.81443068339E+01  0.39430932445E+02  0.65844290495E+02  0.41800000000E+01 0. -1.
        -11    1    4    4    0    0  0.27772653494E+02 -0.31446966326E+02  0.38370505195E+02  0.56855322021E+02  0.00000000000E+00 0.  1.
         11    1    4    4    0    0 -0.36924002508E+02 -0.91054861223E+02 -0.96287020184E+01  0.98727309373E+02  0.00000000000E+00 0. -1.
</event>
<event>
 8    1  0.6860461E-009  0.1369421E+03  0.7561462E-02  0.1217504E+00
          2   -1    0    0  501    0  0.00000000000E+00  0.00000000000E+00  0.48386094407E+03  0.48386094407E+03  0.00000000000E+00 0. -1.
         -2   -1    0    0    0  501 -0.00000000000E+00 -0.00000000000E+00 -0.43241353224E+02  0.43241353224E+02  0.00000000000E+00 0.  1.
         25    2    1    2    0    0 -0.20232296644E+02 -0.95326948379E+02  0.20091294761E+03  0.25595123719E+03  0.12509376638E+03 0.  0.
         23    2    1    2    0    0  0.20232296644E+02  0.95326948379E+02  0.23970664324E+03  0.27115106011E+03  0.81037335029E+02 0.  0.
          5    1    3    3  502    0 -0.50078573574E+02  0.79665755186E+00  0.32956331401E+02  0.60100668665E+02  0.41800000000E+01 0.  1.
         -5    1    3    3    0  502  0.29846276931E+02 -0.96123605931E+02  0.16795661620E+03  0.19585056852E+03  0.41800000000E+01 0.  1.
        -11    1    4    4    0    0 -0.13455200071E+02  0.87202404317E+02  0.19905170195E+03  0.21773121452E+03  0.00000000000E+00 0. -1.
         11    1    4    4    0    0  0.33687496715E+02  0.81245440616E+01  0.40654941296E+02  0.53419845590E+02  0.00000000000E+00 0.  1.
</event>
<event>
 8    1  0.6860461E-009  0.7137752E+02  0.7561462E-02  0.1355470E+00
         -3   -1    0    0    0  501 -0.00000000000E+00  0.00000000000E+00  0.18024193065E+03  0.18024193065E+03  0.00000000000E+00 0.  1.
          3   -1    0    0  501    0  0.00000000000E+00 -0.00000000000E+00 -0.73464305905E+02  0.73464305905E+02  0.00000000000E+00 0. -1.
         25    2    1    2    0    0  0.16117079140E+00 -0.23004488357E+02  0.96933975763E+02  0.15991538694E+03  0.12508997906E+03 0.  0.
         23    2    1    2    0    0 -0.16117079140E+00  0.23004488357E+02  0.98436489774E+01  0.93790849616E+02  0.90391335790E+02 0.  0.
          5    1    3    3  502    0 -0.10730229320E+02  0.29194307962E+02 -0.15800201627E+02  0.35136365921E+02  0.41800000000E+01 0.  1.
         -5    1    3    3    0  502  0.10891400111E+02 -0.52198796320E+02  0.11273417739E+03  0.12477902101E+03  0.41800000000E+01 0.  1.
        -11    1    4    4    0    0 -0.15773363667E+01  0.40400630053E+02  0.41313018639E+02  0.57805401199E+02  0.00000000000E+00 0.  1.
         11    1    4    4    0    0  0.14161655753E+01 -0.17396141696E+02 -0.31469369662E+02  0.35985448417E+02  0.00000000000E+00 0. -1.
</event>
<event>
 8    1  0.6860461E-009  0.1443420E+03  0.7561462E-02  0.1207603E+00
          1   -1    0    0  501    0  0.00000000000E+00  0.00000000000E+00  0.20759022336E+03  0.20759022336E+03  0.00000000000E+00 0. -1.
         -1   -1    0    0    0  501 -0.00000000000E+00 -0.00000000000E+00 -0.13084876899E+03  0.13084876899E+03  0.00000000000E+00 0.  1.
         25    2    1    2    0    0 -0.37372462371E+02  0.11575567682E+03  0.16605962936E+02  0.17526860632E+03  0.12508896313E+03 0.  0.
         23    2    1    2    0    0  0.37372462371E+02 -0.11575567682E+03  0.60135491431E+02  0.16317038604E+03  0.90621299318E+02 0.  0.
          5    1    3    3  502    0 -0.59322763592E+02  0.44085699250E+02  0.53775183916E+02  0.91498535310E+02  0.41800000000E+01 0.  1.
         -5    1    3    3    0  502  0.21950301221E+02  0.71669977569E+02 -0.37169220980E+02  0.83770071008E+02  0.41800000000E+01 0.  1.
        -11    1    4    4    0    0  0.56477597797E+02 -0.69616181560E+02  0.64908765840E+01  0.89879159246E+02  0.00000000000E+00 0.  1.
         11    1    4    4    0    0 -0.19105135426E+02 -0.46139495259E+02  0.53644614847E+02  0.73291226791E+02  0.00000000000E+00 0. -1.
</event>
<event>
 8    1  0.6860461E-009  0.1433666E+03  0.7561462E-02  0.1208869E+00
         -2   -1    0    0    0  501 -0.00000000000E+00  0.00000000000E+00  0.52647349474E+02  0.52647349474E+02  0.00000000000E+00 0.  1.
          2   -1    0    0  501    0  0.00000000000E+00 -0.00000000000E+00 -0.53445816068E+03  0.53445816068E+03  0.00000000000E+00 0. -1.
         25    2    1    2    0    0 -0.11837140970E+03 -0.47727129151E+02 -0.24996388709E+03  0.30727908376E+03  0.12509524760E+03 0.  0.
         23    2    1    2    0    0  0.11837140970E+03  0.47727129151E+02 -0.23184692412E+03  0.27982642640E+03  0.90885439976E+02 0.  0.
          5    1    3    3  502    0 -0.10418326864E+03 -0.31346949324E+02 -0.26085713148E+03  0.28266711896E+03  0.41800000000E+01 0.  1.
         -5    1    3    3    0  502 -0.14188141061E+02 -0.16380179827E+02  0.10893244388E+02  0.24611964798E+02  0.41800000000E+01 0.  1.
        -11    1    4    4    0    0 -0.12551520196E+02 -0.64312998186E+01 -0.30757772301E+02  0.33837003909E+02  0.00000000000E+00 0.  1.
         11    1    4    4    0    0  0.13092292989E+03  0.54158428970E+02 -0.20108915182E+03  0.24598942249E+03  0.00000000000E+00 0. -1.
</event>
<event>
 8    1  0.6860461E-009  0.9802340E+02  0.7561462E-02  0.1284508E+00
         -2   -1    0    0    0  501 -0.00000000000E+00  0.00000000000E+00  0.98615865215E+02  0.98615865215E+02  0.00000000000E+00 0.  1.
          2   -1    0    0  501    0  0.00000000000E+00 -0.00000000000E+00 -0.15695379366E+03  0.15695379366E+03  0.00000000000E+00 0. -1.
         25    2    1    2    0    0 -0.99707833498E+01  0.30697523582E+02  0.20429137589E+02  0.13079100430E+03  0.12508869920E+03 0.  0.
         23    2    1    2    0    0  0.99707833498E+01 -0.30697523582E+02 -0.78767066036E+02  0.12477865458E+03  0.91234354669E+02 0.  0.
          5    1    3    3  502    0 -0.32901121948E+02  0.72749080629E+02  0.21164429864E+02  0.82706215300E+02  0.41800000000E+01 0.  1.
         -5    1    3    3    0  502  0.22930338598E+02 -0.42051557046E+02 -0.73529227469E+00  0.48084788998E+02  0.41800000000E+01 0.  1.
        -11    1    4    4    0    0 -0.17260480746E+02  0.93163824458E+01 -0.73523077486E+02  0.76094428840E+02  0.00000000000E+00 0. -1.
         11    1    4    4    0    0  0.27231264096E+02 -0.40013906028E+02 -0.52439885502E+01  0.48684225739E+02  0.00000000000E+00 0.  1.
</event>
<event>
 8    1  0.6860461E-009  0.1350306E+03  0.7561462E-02  0.1220176E+00
         -1   -1    0    0    0  501 -0.00000000000E+00  0.00000000000E+00  0.20999490345E+03  0.20999490345E+03  0.00000000000E+00 0.  1.
          1   -1    0    0  501    0  0.00000000000E+00 -0.00000000000E+00 -0.12507524373E+03  0.12507524373E+03  0.00000000000E+00 0. -1.
         25    2    1    2    0    0 -0.41770470905E+02  0.11233617669E+03  0.66776439669E+02  0.18566302316E+03  0.12508987345E+03 0.  0.
         23    2    1    2    0    0  0.41770470905E+02 -0.11233617669E+03  0.18143220050E+02  0.14940712402E+03  0.87344853541E+02 0.  0.
          5    1    3    3  502    0 -0.35021086409E+02  0.65133379032E+02  0.10212623031E+03  0.12615891913E+03  0.41800000000E+01 0. -1.
         -5    1    3    3    0  502 -0.67493844959E+01  0.47202797661E+02 -0.35349790642E+02  0.59504104031E+02  0.41800000000E+01 0. -1.
        -11    1    4    4    0    0  0.64453493769E+02 -0.49340891181E+02  0.13556642711E+02  0.82295558587E+02  0.00000000000E+00 0. -1.
         11    1    4    4    0    0 -0.22683022864E+02 -0.62995285512E+02  0.45865773386E+01  0.67111565431E+02  0.00000000000E+00 0.  1.
</event>
<event>
 8    1  0.6860461E-009  0.1226333E+03  0.7561462E-02  0.1238815E+00
          1   -1    0    0  501    0  0.00000000000E+00  0.00000000000E+00  0.88821293949E+02  0.88821293949E+02  0.00000000000E+00 0. -1.
         -1   -1    0    0    0  501 -0.00000000000E+00 -0.00000000000E+00 -0.20453762887E+03  0.20453762887E+03  0.00000000000E+00 0.  1.
         25    2    1    2    0    0 -0.56451807703E+02  0.15408825523E+02 -0.12222559773E+03  0.18441996714E+03  0.12508952412E+03 0.  0.
         23    2    1    2    0    0  0.56451807703E+02 -0.15408825523E+02  0.65092628078E+01  0.10893895568E+03  0.91657444130E+02 0.  0.
          5    1    3    3  502    0 -0.50624704807E+02 -0.49700111104E+02 -0.49866511700E+02  0.86816491346E+02  0.41800000000E+01 0. -1.
         -5    1    3    3    0  502 -0.58271028961E+01  0.65108936627E+02 -0.72359086031E+02  0.97603475799E+02  0.41800000000E+01 0. -1.
        -11    1    4    4    0    0  0.12828629576E+02  0.37785310667E+02  0.85060718436E+00  0.39912741971E+02  0.00000000000E+00 0.  1.
         11    1    4    4    0    0  0.43623178127E+02 -0.53194136190E+02  0.56586556235E+01  0.69026213704E+02  0.00000000000E+00 0. -1.
</event>
<event>
 8    1  0.6860461E-009  0.9021080E+02  0.7561462E-02  0.1302342E+00
          3   -1    0    0  501    0  0.00000000000E+00  0.00000000000E+00  0.96427416999E+02  0.96427416999E+02  0.00000000000E+00 0. -1.
         -3   -1    0    0    0  501 -0.00000000000E+00 -0.00000000000E+00 -0.18110532926E+03  0.18110532926E+03  0.00000000000E+00 0.  1.
         25    2    1    2    0    0 -0.49903816354E+02  0.55394478427E+02 -0.56938278239E+02  0.15635908590E+03  0.12508899667E+03 0.  0.
         23    2    1    2    0    0  0.49903816354E+02 -0.55394478427E+02 -0.27739634027E+02  0.12117366036E+03  0.91403662631E+02 0.  0.
          5    1    3    3  502    0 -0.57522187832E+02  0.19087795968E+02  0.25481926253E+02  0.65878274214E+02  0.41800000000E+01 0. -1.
         -5    1    3    3    0  502  0.76183714779E+01  0.36306682459E+02 -0.82420204492E+02  0.90480811687E+02  0.41800000000E+01 0. -1.
        -11    1    4    4    0    0  0.44382742733E+02 -0.23987087205E+02  0.27449361864E+02  0.57434098512E+02  0.00000000000E+00 0. -1.
         11    1    4    4    0    0  0.55210736210E+01 -0.31407391222E+02 -0.55188995890E+02  0.63739561849E+02  0.00000000000E+00 0.  1.
</event>
<event>
 8    1  0.6860461E-009  0.1226222E+03  0.7561462E-02  0.1238833E+00
          2   -1    0    0  501    0  0.00000000000E+00  0.00000000000E+00  0.33760696004E+03  0.33760696004E+03  0.00000000000E+00 0.  1.
         -2   -1    0    0    0  501 -0.00000000000E+00 -0.00000000000E+00 -0.81426230923E+02  0.81426230923E+02  0.00000000000E+00 0. -1.
         25    2    1    2    0    0  0.32908908067E+02 -0.68436921480E+02  0.10746273947E+02  0.14673042314E+03  0.12509087185E+03 0.  0.
         23    2    1    2    0    0 -0.32908908067E+02  0.68436921480E+02  0.24543445517E+03  0.27230276782E+03  0.90244762329E+02 0.  0.
          5    1    3    3  502    0  0.30298389771E+02  0.32229419536E+02 -0.50317733146E+01  0.44715982031E+02  0.41800000000E+01 0.  1.
         -5    1    3    3    0  502  0.26105182959E+01 -0.10066634102E+03  0.15778047262E+02  0.10201444111E+03  0.41800000000E+01 0.  1.
        -11    1    4    4    0    0 -0.16455687573E+02 -0.10415477259E+02  0.71073767773E+01  0.20731295779E+02  0.00000000000E+00 0. -1.
         11    1    4    4    0    0 -0.16453220494E+02  0.78852398739E+02  0.23832707839E+03  0.25157147204E+03  0.00000000000E+00 0.  1.
</event>
<event>
 8    1  0.6860461E-009  0.8571858E+02  0.7561462E-02  0.1313564E+00
         -2   -1    0    0    0  501 -0.00000000000E+00  0.00000000000E+00  0.66307108718E+02  0.66307108718E+02  0.00000000000E+00 0.  1.
          2   -1    0    0  501    0  0.00000000000E+00 -0.00000000000E+00 -0.20734211234E+03  0.20734211234E+03  0.00000000000E+00 0. -1.
         25    2    1    2    0    0  0.22407872980E+02  0.29624049059E+02 -0.11046927184E+03  0.17096956940E+03  0.12508971415E+03 0.  0.
         23    2    1    2    0    0 -0.22407872980E+02 -0.29624049059E+02 -0.30565731784E+02  0.10267965166E+03  0.90714661721E+02 0.  0.
          5    1    3    3  502    0  0.50572879980E+02 -0.12096001927E+02 -0.10853615580E+03  0.12042216975E+03  0.41800000000E+01 0. -1.
         -5    1    3    3    0  502 -0.28165007000E+02  0.41720050985E+02 -0.19331160390E+01  0.50547399648E+02  0.41800000000E+01 0. -1.
        -11    1    4    4    0    0 -0.30239324349E+02  0.72226513530E+01  0.21944921069E+02  0.38054736767E+02  0.00000000000E+00 0.  1.
         11    1    4    4    0    0  0.78314513692E+01 -0.36846700412E+02 -0.52510652853E+02  0.64624914892E+02  0.00000000000E+00 0. -1.
</event>
<event>
 8    1  0.6860461E-009  0.1605429E+03  0.7561462E-02  0.1188085E+00
          2   -1    0    0  501    0  0.00000000000E+00  0.00000000000E+00  0.13672163336E+04  0.13672163336E+04  0.00000000000E+00 0. -1.
         -2   -1    0    0    0  501 -0.00000000000E+00 -0.00000000000E+00 -0.20155463498E+02  0.20155463498E+02  0.00000000000E+00 0.  1.
         25    2    1    2    0    0  0.77180801528E+02  0.96899980343E+02  0.72491036763E+03  0.74598187587E+03  0.12508971069E+03 0.  0.
         23    2    1    2    0    0 -0.77180801528E+02 -0.96899980343E+02  0.62215050250E+03  0.64138992126E+03  0.94674711554E+02 0.  0.
          5    1    3    3  502    0  0.98730085271E+02  0.41614543746E+02  0.57093110306E+03  0.58091238309E+03  0.41800000000E+01 0.  1.
         -5    1    3    3    0  502 -0.21549283743E+02  0.55285436596E+02  0.15397926457E+03  0.16506949278E+03  0.41800000000E+01 0.  1.
        -11    1    4    4    0    0 -0.55104415972E+02 -0.11175818928E+00  0.18073530313E+03  0.18894909089E+03  0.00000000000E+00 0.  1.
         11    1    4    4    0    0 -0.22076385556E+02 -0.96788222153E+02  0.44141519937E+03  0.45244083037E+03  0.00000000000E+00 0. -1.
</event>
<event>
 8    1  0.6860461E-009  0.9928283E+02  0.7561462E-02  0.1281811E+00
          2   -1    0    0  501    0  0.00000000000E+00  0.00000000000E+00  0.12493557951E+03  0.12493557951E+03  0.00000000000E+00 0. -1.
         -2   -1    0    0    0  501 -0.00000000000E+00 -0.00000000000E+00 -0.13777446886E+03  0.13777446886E+03  0.00000000000E+00 0.  1.
         25    2    1    2    0    0  0.49894538503E+02  0.46122411242E+02  0.64953151887E+01  0.14250032405E+03  0.12508961365E+03 0.  0.
         23    2    1    2    0    0 -0.49894538503E+02 -0.46122411242E+02 -0.19334204537E+02  0.12020972432E+03  0.97261629457E+02 0.  0.
          5    1    3    3  502    0  0.22127915241E+02  0.61380354719E+02  0.54305825286E+02  0.84992868161E+02  0.41800000000E+01 0. -1.
         -5    1    3    3    0  502  0.27766623262E+02 -0.15257943476E+02 -0.47810510097E+02  0.57507455884E+02  0.41800000000E+01 0. -1.
        -11    1    4    4    0    0 -0.32745752519E+02  0.16239022515E+02 -0.38168146294E+02  0.52846925661E+02  0.00000000000E+00 0.  1.
         11    1    4    4    0    0 -0.17148785983E+02 -0.62361433757E+02  0.18833941757E+02  0.67362798658E+02  0.00000000000E+00 0. -1.
</event>
<event>
 8    1  0.6860461E-009  0.1575280E+03  0.7561462E-02  0.1191516E+00
          2   -1    0    0  501    0  0.00000000000E+00  0.00000000000E+00  0.22354923166E+02  0.22354923166E+02  0.00000000000E+00 0.  1.
         -2   -1    0    0    0  501 -0.00000000000E+00 -0.00000000000E+00 -0.15148577523E+04  0.15148577523E+04  0.00000000000E+00 0. -1.
         25    2    1    2    0    0  0.68086234879E+02 -0.10535902846E+03 -0.11128431399E+04  0.11268557524E+04  0.12509105648E+03 0.  0.
         23    2    1    2    0    0 -0.68086234879E+02  0.10535902846E+03 -0.37965968927E+03  0.41035692311E+03  0.92277106766E+02 0.  0.
          5    1    3    3  502    0 -0.25841427801E+02 -0.17771846504E+01 -0.37178828730E+03  0.37271294685E+03  0.41800000000E+01 0.  1.
         -5    1    3    3    0  502  0.93927662680E+02 -0.10358184381E+03 -0.74105485256E+03  0.75414280550E+03  0.41800000000E+01 0.  1.
        -11    1    4    4    0    0 -0.12627578180E+02  0.90687336396E+02 -0.17119064930E+03  0.19413883465E+03  0.00000000000E+00 0. -1.
         11    1    4    4    0    0 -0.55458656699E+02  0.14671692062E+02 -0.20846903997E+03  0.21621808846E+03  0.00000000000E+00 0.  1.
</event>
<event>
 8    1  0.6860461E-009  0.1093517E+03  0.7561462E-02  0.1261775E+00
          1   -1    0    0  501    0  0.00000000000E+00  0.00000000000E+00  0.33081076545E+03  0.33081076545E+03  0.00000000000E+00 0. -1.
         -1   -1    0    0    0  501 -0.00000000000E+00 -0.00000000000E+00 -0.48920414708E+02  0.48920414708E+02  0.00000000000E+00 0.  1.
         25    2    1    2    0    0 -0.13412017575E+02  0.14332218564E+01  0.24860880428E+03  0.27863371235E+03  0.12509385179E+03 0.  0.
         23    2    1    2    0    0  0.13412017575E+02 -0.14332218564E+01  0.33281546463E+02  0.10109746780E+03  0.94504498947E+02 0.  0.
          5    1    3    3  502    0 -0.37791685718E+02  0.53867008100E+02  0.15617792469E+03  0.16952546308E+03  0.41800000000E+01 0.  1.
         -5    1    3    3    0  502  0.24379668143E+02 -0.52433786244E+02  0.92430879583E+02  0.10910824927E+03  0.41800000000E+01 0.  1.
        -11    1    4    4    0    0  0.53594567133E+02  0.60000452134E+01  0.24818029717E+02  0.59365922614E+02  0.00000000000E+00 0.  1.
         11    1    4    4    0    0 -0.40182549558E+02 -0.74332670697E+01  0.84635167460E+01  0.41731545191E+02  0.00000000000E+00 0. -1.
</event>
<event>
 8    1  0.6860461E-009  0.1313010E+03  0.7561462E-02  0.1225538E+00
          4   -1    0    0  501    0  0.00000000000E+00  0.00000000000E+00  0.29979504991E+03  0.29979504991E+03  0.00000000000E+00 0.  1.
         -4   -1    0    0    0  501 -0.00000000000E+00 -0.00000000000E+00 -0.65943441647E+02  0.65943441647E+02  0.00000000000E+00 0. -1.
         25    2    1    2    0    0 -0.83823607649E+02 -0.70674222589E+01  0.93460704297E+02  0.17736588166E+03  0.12508959617E+03 0.  0.
         23    2    1    2    0    0  0.83823607649E+02  0.70674222589E+01  0.14039090397E+03  0.18837260990E+03  0.93264615948E+02 0.  0.
          5    1    3    3  502    0 -0.12742203535E+02  0.52643905199E+02  0.53384758709E+02  0.76165276655E+02  0.41800000000E+01 0. -1.
         -5    1    3    3    0  502 -0.71081404114E+02 -0.59711327458E+02  0.40075945588E+02  0.10120060500E+03  0.41800000000E+01 0. -1.
        -11    1    4    4    0    0  0.38389081479E+02  0.42838986108E+02  0.10730274225E+03  0.12174883491E+03  0.00000000000E+00 0. -1.
         11    1    4    4    0    0  0.45434526170E+02 -0.35771563849E+02  0.33088161719E+02  0.66623774994E+02  0.00000000000E+00 0.  1.
</event>
<event>
 8    1  0.6860461E-009  0.1710559E+03  0.7561462E-02  0.1176751E+00
         -2   -1    0    0    0  501 -0.00000000000E+00  0.00000000000E+00  0.31969762083E+02  0.31969762083E+02  0.00000000000E+00 0.  1.
          2   -1    0    0  501    0  0.00000000000E+00 -0.00000000000E+00 -0.13100924063E+04  0.13100924063E+04  0.00000000000E+00 0. -1.
         25    2    1    2    0    0 -0.15143002186E+03  0.23822464190E+02 -0.92904677451E+03  0.94988104092E+03  0.12509005298E+03 0.  0.
         23    2    1    2    0    0  0.15143002186E+03 -0.23822464190E+02 -0.34907586973E+03  0.39218112749E+03  0.91942985624E+02 0.  0.
          5    1    3    3  502    0 -0.49112710718E+02 -0.38059835439E+02 -0.16197269603E+03  0.17353165731E+03  0.41800000000E+01 0.  1.
         -5    1    3    3    0  502 -0.10231731114E+03  0.61882299629E+02 -0.76707407848E+03  0.77634938361E+03  0.41800000000E+01 0.  1.
        -11    1    4    4    0    0  0.14328023415E+03 -0.93564856662E+01 -0.34689226880E+03  0.37543443565E+03  0.00000000000E+00 0. -1.
         11    1    4    4    0    0  0.81497877113E+01 -0.14465978524E+02 -0.21836009381E+01  0.16746691836E+02  0.00000000000E+00 0.  1.
</event>
<event>
 8    1  0.6860461E-009  0.1115663E+03  0.7561462E-02  0.1257697E+00
          2   -1    0    0  501    0  0.00000000000E+00  0.00000000000E+00  0.17630674230E+04  0.17630674230E+04  0.00000000000E+00 0. -1.
         -2   -1    0    0    0  501 -0.00000000000E+00 -0.00000000000E+00 -0.11590223597E+02  0.11590223597E+02  0.00000000000E+00 0.  1.
         25    2    1    2    0    0 -0.43036373094E+02  0.32048321210E+02  0.14166078496E+04  0.14231320060E+04  0.12509069840E+03 0.  0.
         23    2    1    2    0    0  0.43036373094E+02 -0.32048321210E+02  0.33486934983E+03  0.35152564057E+03  0.92485513549E+02 0.  0.
          5    1    3    3  502    0 -0.76403244071E+02 -0.12817461169E+02  0.68523718849E+03  0.68961526948E+03  0.41800000000E+01 0. -1.
         -5    1    3    3    0  502  0.33366870976E+02  0.44865782378E+02  0.73137066107E+03  0.73351673654E+03  0.41800000000E+01 0. -1.
        -11    1    4    4    0    0 -0.11207072306E+02  0.14274596690E+02  0.14269856109E+02  0.23086605937E+02  0.00000000000E+00 0.  1.
         11    1    4    4    0    0  0.54243445401E+02 -0.46322917900E+02  0.32059949372E+03  0.32843903463E+03  0.00000000000E+00 0. -1.
</event>
<event>
 8    1  0.6860461E-009  0.6917885E+02  0.7561462E-02  0.1362908E+00
          2   -1    0    0  501    0  0.00000000000E+00  0.00000000000E+00  0.27075024032E+03  0.27075024032E+03  0.00000000000E+00 0. -1.
         -2   -1    0    0    0  501 -0.00000000000E+00 -0.00000000000E+00 -0.60727962409E+02  0.60727962409E+02  0.00000000000E+00 0.  1.
         25    2    1    2    0    0  0.72798426784E+01  0.34790126984E+02  0.19338775513E+03  0.23303477586E+03  0.12507211473E+03 0.  0.
         23    2    1    2    0    0 -0.72798426784E+01 -0.34790126984E+02  0.16634522782E+02  0.98443426866E+02  0.90283176174E+02 0.  0.
          5    1    3    3  502    0  0.24900029800E+02  0.16038384702E+02  0.20304386033E+03  0.20523528665E+03  0.41800000000E+01 0. -1.
         -5    1    3    3    0  502 -0.17620187121E+02  0.18751742282E+02 -0.96561052033E+01  0.27799489213E+02  0.41800000000E+01 0. -1.
        -11    1    4    4    0    0  0.33045750672E+02 -0.81154819602E+01 -0.18447989773E+02  0.38706730830E+02  0.00000000000E+00 0.  1.
         11    1    4    4    0    0 -0.40325593350E+02 -0.26674645024E+02  0.35082512555E+02  0.59736696036E+02  0.00000000000E+00 0. -1.
</event>
<event>
 8    1  0.6860461E-009  0.1012051E+03  0.7561462E-02  0.1277782E+00
          2   -1    0    0  501    0  0.00000000000E+00  0.00000000000E+00  0.11460209532E+03  0.11460209532E+03  0.00000000000E+00 0. -1.
         -2   -1    0    0    0  501 -0.00000000000E+00 -0.00000000000E+00 -0.13631983684E+03  0.13631983684E+03  0.00000000000E+00 0.  1.
         25    2    1    2    0    0  0.59014194663E+02  0.90488849338E+01  0.87294080300E+01  0.13888203569E+03  0.12508980686E+03 0.  0.
         23    2    1    2    0    0 -0.59014194663E+02 -0.90488849338E+01 -0.30447149550E+02  0.11203989647E+03  0.89785032128E+02 0.  0.
          5    1    3    3  502    0 -0.80802879668E+01 -0.21678294451E+02 -0.42763395085E+02  0.48799793679E+02  0.41800000000E+01 0. -1.
         -5    1    3    3    0  502  0.67094482630E+02  0.30727179385E+02  0.51492803115E+02  0.90082242007E+02  0.41800000000E+01 0. -1.
        -11    1    4    4    0    0 -0.35840546899E+02  0.38187306515E+02 -0.24237949384E+01  0.52427950206E+02  0.00000000000E+00 0.  1.
         11    1    4    4    0    0 -0.23173647765E+02 -0.47236191449E+02 -0.28023354612E+02  0.59611946261E+02  0.00000000000E+00 0. -1.
</event>
<event>
 8    1  0.6860461E-009  0.1283698E+03  0.7561462E-02  0.1229895E+00
         -1   -1    0    0    0  501 -0.00000000000E+00  0.00000000000E+00  0.71367682071E+02  0.71367682071E+02  0.00000000000E+00 0.  1.
          1   -1    0    0  501    0  0.00000000000E+00 -0.00000000000E+00 -0.34395721850E+03  0.34395721850E+03  0.00000000000E+00 0. -1.
         25    2    1    2    0    0 -0.10421809950E+03 -0.46929604255E+02 -0.16928323551E+03  0.23951868262E+03  0.12509430635E+03 0.  0.
         23    2    1    2    0    0  0.10421809950E+03  0.46929604255E+02 -0.10330630092E+03  0.17580621795E+03  0.84686683958E+02 0.  0.
          5    1    3    3  502    0 -0.47190075648E+02 -0.46266625062E+02 -0.59754372573E+01  0.66488210118E+02  0.41800000000E+01 0. -1.
         -5    1    3    3    0  502 -0.57028023853E+02 -0.66297919342E+00 -0.16330779825E+03  0.17303047250E+03  0.41800000000E+01 0. -1.
        -11    1    4    4    0    0  0.50086458120E+02  0.59488838409E+02 -0.89464172310E+02  0.11853865745E+03  0.00000000000E+00 0. -1.
         11    1    4    4    0    0  0.54131641381E+02 -0.12559234154E+02 -0.13842128610E+02  0.57267560500E+02  0.00000000000E+00 0.  1.
</event>
<event>
 8    1  0.6860461E-009  0.1082649E+03  0.7561462E-02  0.1263817E+00
          2   -1    0    0  501    0  0.00000000000E+00  0.00000000000E+00  0.10978296365E+03  0.10978296365E+03  0.00000000000E+00 0. -1.
         -2   -1    0    0    0  501 -0.00000000000E+00 -0.00000000000E+00 -0.16488928368E+03  0.16488928368E+03  0.00000000000E+00 0.  1.
         25    2    1    2    0    0  0.73708845262E+02  0.28135364976E+02 -0.38548476927E+02  0.15283192569E+03  0.12508804821E+03 0.  0.
         23    2    1    2    0    0 -0.73708845262E+02 -0.28135364976E+02 -0.16557843104E+02  0.12184032164E+03  0.91358136896E+02 0.  0.
          5    1    3    3  502    0  0.40042647915E+01  0.56628684672E+02  0.16721303533E+02  0.59328883826E+02  0.41800000000E+01 0. -1.
         -5    1    3    3    0  502  0.69704580471E+02 -0.28493319696E+02 -0.55269780460E+02  0.93503041865E+02  0.41800000000E+01 0. -1.
        -11    1    4    4    0    0 -0.28651253203E+02  0.38804972785E+01  0.35586862426E+02  0.45851688591E+02  0.00000000000E+00 0. -1.
         11    1    4    4    0    0 -0.45057592059E+02 -0.32015862254E+02 -0.52144705531E+02  0.75988633051E+02  0.00000000000E+00 0.  1.
</event>
<event>
 8    1  0.6860461E-009  0.1015701E+03  0.7561462E-02  0.1277029E+00
          2   -1    0    0  501    0  0.00000000000E+00  0.00000000000E+00  0.16022354415E+03  0.16022354415E+03  0.00000000000E+00 0. -1.
         -2   -1    0    0    0  501 -0.00000000000E+00 -0.00000000000E+00 -0.13836497335E+03  0.13836497335E+03  0.00000000000E+00 0.  1.
         25    2    1    2    0    0  0.47126731043E+02 -0.33246532690E+02  0.95946558085E+02  0.16786745614E+03  0.12508988811E+03 0.  0.
         23    2    1    2    0    0 -0.47126731043E+02  0.33246532690E+02 -0.74087987283E+02  0.13072106136E+03  0.90954413355E+02 0.  0.
          5    1    3    3  502    0  0.70827851663E+02 -0.51522024020E+02  0.25663295209E+02  0.91362906320E+02  0.41800000000E+01 0. -1.
         -5    1    3    3    0  502 -0.23701120620E+02  0.18275491330E+02  0.70283262876E+02  0.76504549816E+02  0.41800000000E+01 0. -1.
        -11    1    4    4    0    0 -0.19832562991E+02 -0.18251252975E+02 -0.66738900288E+02  0.71975826509E+02  0.00000000000E+00 0.  1.
         11    1    4    4    0    0 -0.27294168052E+02  0.51497785665E+02 -0.73490869948E+01  0.58745234851E+02  0.00000000000E+00 0. -1.
</event>
<event>
 8    1  0.6860461E-009  0.2681933E+03  0.7561462E-02  0.1102318E+00
          1   -1    0    0  501    0  0.00000000000E+00  0.00000000000E+00  0.94370800058E+03  0.94370800058E+03  0.00000000000E+00 0. -1.
         -1   -1    0    0    0  501 -0.00000000000E+00 -0.00000000000E+00 -0.90454444031E+02  0.90454444031E+02  0.00000000000E+00 0.  1.
         25    2    1    2    0    0 -0.23015624838E+03 -0.12452076747E+03  0.54827988858E+03  0.62027100612E+03  0.12509182472E+03 0.  0.
         23    2    1    2    0    0  0.23015624838E+03  0.12452076747E+03  0.30497366797E+03  0.41389143850E+03  0.99095229465E+02 0.  0.
          5    1    3    3  502    0 -0.70522171232E+01  0.10920033301E+02  0.10469823575E+03  0.10558491304E+03  0.41800000000E+01 0.  1.
         -5    1    3    3    0  502 -0.22310403126E+03 -0.13544080077E+03  0.44358165283E+03  0.51468609307E+03  0.41800000000E+01 0.  1.
        -11    1    4    4    0    0  0.15628739076E+03  0.86236701136E+02  0.26993051847E+03  0.32361242550E+03  0.00000000000E+00 0. -1.
         11    1    4    4    0    0  0.73868857619E+02  0.38284066338E+02  0.35043149505E+02  0.90279013001E+02  0.00000000000E+00 0.  1.
</event>
<event>
 8    1  0.6860461E-009  0.1332033E+03  0.7561462E-02  0.1222779E+00
         -4   -1    0    0    0  501 -0.00000000000E+00  0.00000000000E+00  0.21196734510E+03  0.21196734510E+03  0.00000000000E+00 0.  1.
          4   -1    0    0  501    0  0.00000000000E+00 -0.00000000000E+00 -0.91585127355E+02  0.91585127355E+02  0.00000000000E+00 0. -1.
         25    2    1    2    0    0  0.84564602843E+02 -0.28306090616E+02  0.82836299755E+02  0.17453489372E+03  0.12509264466E+03 0.  0.
         23    2    1    2    0    0 -0.84564602843E+02  0.28306090616E+02  0.37545917991E+02  0.12901757874E+03  0.85343030442E+02 0.  0.
          5    1    3    3  502    0  0.10773782280E+03 -0.63262083278E+00  0.32804564148E+02  0.11270071207E+03  0.41800000000E+01 0. -1.
         -5    1    3    3    0  502 -0.23173219959E+02 -0.27673469783E+02  0.50031735607E+02  0.61834181655E+02  0.41800000000E+01 0. -1.
        -11    1    4    4    0    0 -0.52101615443E+02  0.58203929913E+02  0.15325057853E+02  0.79606112750E+02  0.00000000000E+00 0.  1.
         11    1    4    4    0    0 -0.32462987400E+02 -0.29897839297E+02  0.22220860137E+02  0.49411465985E+02  0.00000000000E+00 0. -1.
</event>
<event>
 8    1  0.6860461E-009  0.9436936E+02  0.7561462E-02  0.1292603E+00
          1   -1    0    0  501    0  0.00000000000E+00  0.00000000000E+00  0.18648369031E+04  0.18648369031E+04  0.00000000000E+00 0. -1.
         -1   -1    0    0    0  501 -0.00000000000E+00 -0.00000000000E+00 -0.80760516312E+01  0.80760516312E+01  0.00000000000E+00 0.  1.
         25    2    1    2    0    0  0.12570609744E+02 -0.13683841001E+02  0.14661859551E+04  0.14716296576E+04  0.12508927346E+03 0.  0.
         23    2    1    2    0    0 -0.12570609744E+02  0.13683841001E+02  0.39057489634E+03  0.40128329715E+03  0.90190172321E+02 0.  0.
          5    1    3    3  502    0  0.65285084096E+01 -0.54833221204E+02  0.32543942226E+03  0.33011754502E+03  0.41800000000E+01 0.  1.
         -5    1    3    3    0  502  0.60421013343E+01  0.41149380202E+02  0.11407465328E+04  0.11415121125E+04  0.41800000000E+01 0.  1.
        -11    1    4    4    0    0 -0.95496733919E+01  0.52128975950E+02  0.20460600850E+03  0.21135809686E+03  0.00000000000E+00 0.  1.
         11    1    4    4    0    0 -0.30209363520E+01 -0.38445134949E+02  0.18596888784E+03  0.18992520028E+03  0.00000000000E+00 0. -1.
</event>
<event>
 8    1  0.6860461E-009  0.1318299E+03  0.7561462E-02  0.1224765E+00
         -3   -1    0    0    0  501 -0.00000000000E+00  0.00000000000E+00  0.35771274966E+03  0.35771274966E+03  0.00000000000E+00 0.  1.
          3   -1    0    0  501    0  0.00000000000E+00 -0.00000000000E+00 -0.84915509735E+02  0.84915509735E+02  0.00000000000E+00 0. -1.
         25    2    1    2    0    0 -0.10024711079E+03 -0.12516282248E+02  0.29720282771E+02  0.16351394827E+03  0.12508947009E+03 0.  0.
         23    2    1    2    0    0  0.10024711079E+03  0.12516282248E+02  0.24307695716E+03  0.27911431113E+03  0.92802214594E+02 0.  0.
          5    1    3    3  502    0 -0.12688450399E+03 -0.12904097020E+01  0.81801128760E+01  0.12722314709E+03  0.41800000000E+01 0.  1.
         -5    1    3    3    0  502  0.26637393196E+02 -0.11225872546E+02  0.21540169895E+02  0.36290801173E+02  0.41800000000E+01 0.  1.
        -11    1    4    4    0    0  0.48709882255E+02 -0.12378410233E+02  0.20328652508E+03  0.20940699355E+03  0.00000000000E+00 0.  1.
         11    1    4    4    0    0  0.51537228538E+02  0.24894692481E+02  0.39790432075E+02  0.69707317577E+02  0.00000000000E+00 0. -1.
</event>
<event>
 8    1  0.6860461E-009  0.1215808E+03  0.7561462E-02  0.1240512E+00
          1   -1    0    0  501    0  0.00000000000E+00  0.00000000000E+00  0.24340421879E+03  0.24340421879E+03  0.00000000000E+00 0. -1.
         -1   -1    0    0    0  501 -0.00000000000E+00 -0.00000000000E+00 -0.83347394270E+02  0.83347394270E+02  0.00000000000E+00 0.  1.
         25    2    1    2    0    0 -0.48789156675E+02  0.39607054855E+02  0.12115176303E+02  0.14051213368E+03  0.12509109325E+03 0.  0.
         23    2    1    2    0    0  0.48789156675E+02 -0.39607054855E+02  0.14794164822E+03  0.18623947939E+03  0.94070780799E+02 0.  0.
          5    1    3    3  502    0 -0.71612147235E+02 -0.19708373017E+02  0.18030338973E+02  0.76545967380E+02  0.41800000000E+01 0. -1.
         -5    1    3    3    0  502  0.22822990560E+02  0.59315427871E+02 -0.59151626702E+01  0.63966166300E+02  0.41800000000E+01 0. -1.
        -11    1    4    4    0    0  0.29398653682E+02 -0.66043914358E+02  0.65631394872E+02  0.97639948048E+02  0.00000000000E+00 0.  1.
         11    1    4    4    0    0  0.19390502993E+02  0.26436859504E+02  0.82310253349E+02  0.88599531337E+02  0.00000000000E+00 0. -1.
</event>
<event>
 8    1  0.6860461E-009  0.1112152E+03  0.7561462E-02  0.1258336E+00
         -2   -1    0    0    0  501 -0.00000000000E+00  0.00000000000E+00  0.60474999200E+02  0.60474999200E+02  0.00000000000E+00 0.  1.
          2   -1    0    0  501    0  0.00000000000E+00 -0.00000000000E+00 -0.22945785424E+03  0.22945785424E+03  0.00000000000E+00 0. -1.
         25    2    1    2    0    0  0.37097433526E+02 -0.51951864782E+01 -0.12970323873E+03  0.18403635661E+03  0.12507294224E+03 0.  0.
         23    2    1    2    0    0 -0.37097433526E+02  0.51951864782E+01 -0.39279616305E+02  0.10589649683E+03  0.90928379764E+02 0.  0.
          5    1    3    3  502    0  0.80042931705E+02  0.32024129798E+01 -0.10929253609E+03  0.13557085679E+03  0.41800000000E+01 0. -1.
         -5    1    3    3    0  502 -0.42945498180E+02 -0.83975994580E+01 -0.20410702636E+02  0.48465499818E+02  0.41800000000E+01 0. -1.
        -11    1    4    4    0    0  0.30218625921E+02 -0.33349191863E+01 -0.10123258858E+02  0.32043211581E+02  0.00000000000E+00 0. -1.
         11    1    4    4    0    0 -0.67316059447E+02  0.85301056645E+01 -0.29156357447E+02  0.73853285247E+02  0.00000000000E+00 0.  1.
</event>
<event>
 8    1  0.6860461E-009  0.2362155E+03  0.7561462E-02  0.1122340E+00
          2   -1    0    0  501    0  0.00000000000E+00  0.00000000000E+00  0.28936068927E+03  0.28936068927E+03  0.00000000000E+00 0. -1.
         -2   -1    0    0    0  501 -0.00000000000E+00 -0.00000000000E+00 -0.21547384835E+03  0.21547384835E+03  0.00000000000E+00 0.  1.
         25    2    1    2    0    0  0.21950117142E+03 -0.18544939718E+02  0.82242025042E+02  0.26634122472E+03  0.12509683553E+03 0.  0.
         23    2    1    2    0    0 -0.21950117142E+03  0.18544939718E+02 -0.83551841266E+01  0.23849331290E+03  0.91019625083E+02 0.  0.
          5    1    3    3  502    0  0.42296159575E+02  0.35436332053E+02  0.56819543560E+02  0.79313502473E+02  0.41800000000E+01 0. -1.
         -5    1    3    3    0  502  0.17720501185E+03 -0.53981271770E+02  0.25422481481E+02  0.18702772225E+03  0.41800000000E+01 0. -1.
        -11    1    4    4    0    0 -0.97646051751E+02 -0.27649008246E+02 -0.31234704248E+02  0.10618298277E+03  0.00000000000E+00 0. -1.
         11    1    4    4    0    0 -0.12185511967E+03  0.46193947964E+02  0.22879520122E+02  0.13231033013E+03  0.00000000000E+00 0.  1.
</event>
<event>
 8    1  0.6860461E-009  0.1061634E+03  0.7561462E-02  0.1267844E+00
          2   -1    0    0  501    0  0.00000000000E+00  0.00000000000E+00  0.10394476515E+04  0.10394476515E+04  0.00000000000E+00 0. -1.
         -2   -1    0    0    0  501 -0.00000000000E+00 -0.00000000000E+00 -0.19631455053E+02  0.19631455053E+02  0.00000000000E+00 0.  1.
         25    2    1    2    0    0  0.49987211726E+02 -0.29066299733E+02  0.81917062882E+03  0.83068114396E+03  0.12508825961E+03 0.  0.
         23    2    1    2    0    0 -0.49987211726E+02  0.29066299733E+02  0.20064556765E+03  0.22839796261E+03  0.92538718347E+02 0.  0.
          5    1    3    3  502    0  0.25608924769E+02 -0.68593978557E+02  0.67920508958E+03  0.68315296753E+03  0.41800000000E+01 0. -1.
         -5    1    3    3    0  502  0.24378286956E+02  0.39527678824E+02  0.13996553923E+03  0.14752817643E+03  0.41800000000E+01 0. -1.
        -11    1    4    4    0    0  0.84783838798E+01  0.32700885287E+02  0.21804668860E+02  0.40207890716E+02  0.00000000000E+00 0.  1.
         11    1    4    4    0    0 -0.58465595606E+02 -0.36345855546E+01  0.17884089879E+03  0.18819007190E+03  0.00000000000E+00 0. -1.
</event>
<event>
 8    1  0.6860461E-009  0.1819900E+03  0.7561462E-02  0.1165891E+00
          1   -1    0    0  501    0  0.00000000000E+00  0.00000000000E+00  0.86040526810E+03  0.86040526810E+03  0.00000000000E+00 0. -1.
         -1   -1    0    0    0  501 -0.00000000000E+00 -0.00000000000E+00 -0.41299762002E+02  0.41299762002E+02  0.00000000000E+00 0.  1.
         25    2    1    2    0    0  0.41861688440E+02  0.14455071730E+03  0.44815338514E+03  0.48901151324E+03  0.12507394867E+03 0.  0.
         23    2    1    2    0    0 -0.41861688440E+02 -0.14455071730E+03  0.37095212096E+03  0.41269351686E+03  0.10031526299E+03 0.  0.
          5    1    3    3  502    0 -0.19857610228E+02  0.12219548141E+03  0.23100844729E+03  0.26212293963E+03  0.41800000000E+01 0.  1.
         -5    1    3    3    0  502  0.61719298669E+02  0.22355235884E+02  0.21714493785E+03  0.22688857361E+03  0.41800000000E+01 0.  1.
        -11    1    4    4    0    0  0.27670572992E+02 -0.35637030483E+02  0.15097185958E+03  0.15756954317E+03  0.00000000000E+00 0. -1.
         11    1    4    4    0    0 -0.69532261432E+02 -0.10891368681E+03  0.21998026138E+03  0.25512397369E+03  0.00000000000E+00 0.  1.
</event>
<event>
 8    1  0.6860461E-009  0.9181041E+02  0.7561462E-02  0.1298526E+00
         -2   -1    0    0    0  501 -0.00000000000E+00  0.00000000000E+00  0.14438776178E+03  0.14438776178E+03  0.00000000000E+00 0.  1.
          2   -1    0    0  501    0  0.00000000000E+00 -0.00000000000E+00 -0.10732923010E+03  0.10732923010E+03  0.00000000000E+00 0. -1.
         25    2    1    2    0    0  0.46869312979E+02  0.29780226563E+02  0.34000253172E+02  0.14102134649E+03  0.12508960211E+03 0.  0.
         23    2    1    2    0    0 -0.46869312979E+02 -0.29780226563E+02  0.30582785079E+01  0.11069564538E+03  0.95710910801E+02 0.  0.
          5    1    3    3  502    0 -0.75876909178E+01  0.34590603889E+02  0.67804443938E+02  0.76609385512E+02  0.41800000000E+01 0.  1.
         -5    1    3    3    0  502  0.54457003896E+02 -0.48103773263E+01 -0.33804190765E+02  0.64411960975E+02  0.41800000000E+01 0.  1.
        -11    1    4    4    0    0 -0.19473983088E+02 -0.53476232585E+02  0.31130315788E+02  0.64869407503E+02  0.00000000000E+00 0.  1.
         11    1    4    4    0    0 -0.27395329891E+02  0.23696006022E+02 -0.28072037280E+02  0.45826237880E+02  0.00000000000E+00 0. -1.
</event>
<event>
 8    1  0.6860461E-009  0.1765260E+03  0.7561462E-02  0.1171208E+00
          1   -1    0    0  501    0  0.00000000000E+00  0.00000000000E+00  0.12978436828E+03  0.12978436828E+03  0.00000000000E+00 0. -1.
         -1   -1    0    0    0  501 -0.00000000000E+00 -0.00000000000E+00 -0.25870564959E+03  0.25870564959E+03  0.00000000000E+00 0.  1.
         25    2    1    2    0    0 -0.28627933162E+02  0.13789866992E+03 -0.11391055358E+03  0.22013384177E+03  0.12509073646E+03 0.  0.
         23    2    1    2    0    0  0.28627933162E+02 -0.13789866992E+03 -0.15010727725E+02  0.16835617611E+03  0.91010320091E+02 0.  0.
          5    1    3    3  502    0 -0.77227087649E+02  0.68645564874E+02 -0.56935905429E+02  0.11804832218E+03  0.41800000000E+01 0. -1.
         -5    1    3    3    0  502  0.48599154487E+02  0.69253105048E+02 -0.56974648155E+02  0.10208551958E+03  0.41800000000E+01 0. -1.
        -11    1    4    4    0    0  0.53401725373E+02 -0.48405015379E+02  0.84790271095E+01  0.72571920792E+02  0.00000000000E+00 0. -1.
         11    1    4    4    0    0 -0.24773792212E+02 -0.89493654544E+02 -0.23489754834E+02  0.95784255315E+02  0.00000000000E+00 0.  1.
</event>
<event>
 8    1  0.6860461E-009  0.1568312E+03  0.7561462E-02  0.1192322E+00
          2   -1    0    0  501    0  0.00000000000E+00  0.00000000000E+00  0.34507139105E+03  0.34507139105E+03  0.00000000000E+00 0. -1.
         -2   -1    0    0    0  501 -0.00000000000E+00 -0.00000000000E+00 -0.10512073305E+03  0.10512073305E+03  0.00000000000E+00 0.  1.
         25    2    1    2    0    0  0.75263948082E+02 -0.12864739208E+03  0.70539124475E+02  0.20697345910E+03  0.12508969310E+03 0.  0.
         23    2    1    2    0    0 -0.75263948082E+02  0.12864739208E+03  0.16941153353E+03  0.24321866500E+03  0.90775756355E+02 0.  0.
          5    1    3    3  502    0  0.41817023383E+02 -0.86500174520E+02 -0.23092168538E+02  0.98902296659E+02  0.41800000000E+01 0. -1.
         -5    1    3    3    0  502  0.33446924699E+02 -0.42147217557E+02  0.93631293013E+02  0.10807116244E+03  0.41800000000E+01 0. -1.
        -11    1    4    4    0    0 -0.27700264683E+01  0.70602754258E+02  0.11672845151E+03  0.13644762126E+03  0.00000000000E+00 0. -1.
         11    1    4    4    0    0 -0.72493921614E+02  0.58044637820E+02  0.52683082026E+02  0.10677104375E+03  0.00000000000E+00 0.  1.
</event>
<event>
 8    1  0.6860461E-009  0.3101635E+03  0.7561462E-02  0.1080268E+00
          2   -1    0    0  501    0  0.00000000000E+00  0.00000000000E+00  0.83735457074E+03  0.83735457074E+03  0.00000000000E+00 0. -1.
         -2   -1    0    0    0  501 -0.00000000000E+00 -0.00000000000E+00 -0.13053891498E+03  0.13053891498E+03  0.00000000000E+00 0.  1.
         25    2    1    2    0    0 -0.12218913954E+03 -0.27452230996E+03  0.48234684266E+03  0.58189198388E+03  0.12508844785E+03 0.  0.
         23    2    1    2    0    0  0.12218913954E+03  0.27452230996E+03  0.22446881309E+03  0.38600150184E+03  0.91204313941E+02 0.  0.
          5    1    3    3  502    0 -0.86607265308E+02 -0.24496516890E+03  0.46428359871E+03  0.53205778334E+03  0.41800000000E+01 0. -1.
         -5    1    3    3    0  502 -0.35581874229E+02 -0.29557141059E+02  0.18063243954E+02  0.49834200539E+02  0.41800000000E+01 0. -1.
        -11    1    4    4    0    0  0.10289079602E+03  0.11902080912E+03  0.11227606862E+03  0.19328317178E+03  0.00000000000E+00 0.  1.
         11    1    4    4    0    0  0.19298343514E+02  0.15550150084E+03  0.11219274448E+03  0.19271833005E+03  0.00000000000E+00 0. -1.
</event>
<event>
 8    1  0.6860461E-009  0.2209049E+03  0.7561462E-02  0.1133210E+00
         -1   -1    0    0    0  501 -0.00000000000E+00  0.00000000000E+00  0.55078180987E+03  0.55078180987E+03  0.00000000000E+00 0.  1.
          1   -1    0    0  501    0  0.00000000000E+00 -0.00000000000E+00 -0.11216455950E+03  0.11216455950E+03  0.00000000000E+00 0. -1.
         25    2    1    2    0    0 -0.11538833564E+03 -0.15635760404E+03  0.37384066562E+03  0.43950710329E+03  0.12508989661E+03 0.  0.
         23    2    1    2    0    0  0.11538833564E+03  0.15635760404E+03  0.64776584751E+02  0.22343926607E+03  0.89257668293E+02 0.  0.
          5    1    3    3  502    0 -0.13316192682E+03 -0.16388490684E+03  0.33723252039E+03  0.39791155632E+03  0.41800000000E+01 0.  1.
         -5    1    3    3    0  502  0.17773591185E+02  0.75273027982E+01  0.36608145230E+02  0.41595546976E+02  0.41800000000E+01 0.  1.
        -11    1    4    4    0    0  0.12673799210E+03  0.12717923750E+03  0.41111335812E+02  0.18419342829E+03  0.00000000000E+00 0. -1.
         11    1    4    4    0    0 -0.11349656466E+02  0.29178366545E+02  0.23665248939E+02  0.39245837785E+02  0.00000000000E+00 0.  1.
</event>
<event>
 8    1  0.6860461E-009  0.1241510E+03  0.7561462E-02  0.1236402E+00
          1   -1    0    0  501    0  0.00000000000E+00  0.00000000000E+00  0.12911500195E+03  0.12911500195E+03  0.00000000000E+00 0. -1.
         -1   -1    0    0    0  501 -0.00000000000E+00 -0.00000000000E+00 -0.16663720624E+03  0.16663720624E+03  0.00000000000E+00 0.  1.
         25    2    1    2    0    0 -0.15524288431E+02  0.90884542633E+02 -0.48330466617E+02  0.16272906330E+03  0.12507561881E+03 0.  0.
         23    2    1    2    0    0  0.15524288431E+02 -0.90884542633E+02  0.10808262323E+02  0.13302314488E+03  0.95275048773E+02 0.  0.
          5    1    3    3  502    0  0.24523756707E+02  0.65627390385E+02 -0.79377802379E+02  0.10595601409E+03  0.41800000000E+01 0. -1.
         -5    1    3    3    0  502 -0.40048045138E+02  0.25257152248E+02  0.31047335761E+02  0.56773049213E+02  0.41800000000E+01 0. -1.
        -11    1    4    4    0    0  0.41924786209E+02 -0.68228551596E+01 -0.72259386049E+01  0.43086578419E+02  0.00000000000E+00 0. -1.
         11    1    4    4    0    0 -0.26400497778E+02 -0.84061687473E+02  0.18034200928E+02  0.89936566461E+02  0.00000000000E+00 0.  1.
</event>
<event>
 8    1  0.6860461E-009  0.1008082E+03  0.7561462E-02  0.1278605E+00
          2   -1    0    0  501    0  0.00000000000E+00  0.00000000000E+00  0.90987019045E+02  0.90987019045E+02  0.00000000000E+00 0.  1.
         -2   -1    0    0    0  501 -0.00000000000E+00 -0.00000000000E+00 -0.14050620438E+03  0.14050620438E+03  0.00000000000E+00 0. -1.
         25    2    1    2    0    0  0.17114479425E+02 -0.37920317127E+01  0.13650465591E+02  0.12704838419E+03  0.12509065434E+03 0.  0.
         23    2    1    2    0    0 -0.17114479425E+02  0.37920317127E+01 -0.63169650929E+02  0.10444483924E+03  0.81308269785E+02 0.  0.
          5    1    3    3  502    0  0.67543866188E+02  0.14007360446E+02 -0.72331372694E+01  0.69485039261E+02  0.41800000000E+01 0.  1.
         -5    1    3    3    0  502 -0.50429386763E+02 -0.17799392158E+02  0.20883602860E+02  0.57563344925E+02  0.41800000000E+01 0.  1.
        -11    1    4    4    0    0 -0.31313872193E+02  0.33551459908E+02 -0.52626230411E+02  0.69826779826E+02  0.00000000000E+00 0. -1.
         11    1    4    4    0    0  0.14199392768E+02 -0.29759428196E+02 -0.10543420518E+02  0.34618059416E+02  0.00000000000E+00 0.  1.
</event>
<event>
 8    1  0.6860461E-009  0.1516148E+03  0.7561462E-02  0.1198503E+00
         -1   -1    0    0    0  501 -0.00000000000E+00  0.00000000000E+00  0.28223110928E+03  0.28223110928E+03  0.00000000000E+00 0.  1.
          1   -1    0    0  501    0  0.00000000000E+00 -0.00000000000E+00 -0.94790162149E+02  0.94790162149E+02  0.00000000000E+00 0. -1.
         25    2    1    2    0    0  0.76903983814E+02 -0.86835330055E+02  0.12339195182E+03  0.21053980500E+03  0.12508732326E+03 0.  0.
         23    2    1    2    0    0 -0.76903983814E+02  0.86835330055E+02  0.64048995307E+02  0.16648146643E+03  0.10079289456E+03 0.  0.
          5    1    3    3  502    0  0.82456290716E+02 -0.11350952850E+03  0.11576113940E+03  0.18193835971E+03  0.41800000000E+01 0. -1.
         -5    1    3    3    0  502 -0.55523069022E+01  0.26674198442E+02  0.76308124289E+01  0.28601445292E+02  0.41800000000E+01 0. -1.
        -11    1    4    4    0    0 -0.30360283906E+02 -0.64636691839E+01  0.53279941151E+02  0.61662614178E+02  0.00000000000E+00 0.  1.
         11    1    4    4    0    0 -0.46543699908E+02  0.93298999239E+02  0.10769054155E+02  0.10481885225E+03  0.00000000000E+00 0. -1.
</event>
<event>
 8    1  0.6860461E-009  0.1111120E+03  0.7561462E-02  0.1258524E+00
          1   -1    0    0  501    0  0.00000000000E+00  0.00000000000E+00  0.45394747293E+02  0.45394747293E+02  0.00000000000E+00 0.  1.
         -1   -1    0    0    0  501 -0.00000000000E+00 -0.00000000000E+00 -0.52929947536E+03  0.52929947536E+03  0.00000000000E+00 0. -1.
         25    2    1    2    0    0  0.65833000493E+02 -0.65084286012E+02 -0.37241459364E+03  0.40362216426E+03  0.12509306008E+03 0.  0.
         23    2    1    2    0    0 -0.65833000493E+02  0.65084286012E+02 -0.11149013442E+03  0.17107205839E+03  0.90915624897E+02 0.  0.
          5    1    3    3  502    0  0.52858830652E+02 -0.30638855576E+02 -0.35905870683E+03  0.36424363110E+03  0.41800000000E+01 0. -1.
         -5    1    3    3    0  502  0.12974169841E+02 -0.34445430437E+02 -0.13355886819E+02  0.39378533159E+02  0.41800000000E+01 0. -1.
        -11    1    4    4    0    0 -0.43494341657E+02 -0.10817528145E+02 -0.66080976923E+02  0.79846553980E+02  0.00000000000E+00 0.  1.
         11    1    4    4    0    0 -0.22338658836E+02  0.75901814158E+02 -0.45409157499E+02  0.91225504415E+02  0.00000000000E+00 0. -1.
</event>
<event>
 8    1  0.6860461E-009  0.1067331E+03  0.7561462E-02  0.1266742E+00
         -4   -1    0    0    0  501 -0.00000000000E+00  0.00000000000E+00  0.34026435356E+02  0.34026435356E+02  0.00000000000E+00 0.  1.
          4   -1    0    0  501    0  0.00000000000E+00 -0.00000000000E+00 -0.53154241257E+03  0.53154241257E+03  0.00000000000E+00 0. -1.
         25    2    1    2    0    0  0.15547330898E+02  0.79268954868E+02 -0.30886776256E+03  0.34289072352E+03  0.12509782901E+03 0.  0.
         23    2    1    2    0    0 -0.15547330898E+02 -0.79268954868E+02 -0.18864821465E+03  0.22267812440E+03  0.86441376045E+02 0.  0.
          5    1    3    3  502    0  0.13144964362E+02  0.86496109200E+02 -0.96413787626E+02  0.13025919484E+03  0.41800000000E+01 0. -1.
         -5    1    3    3    0  502  0.24023665352E+01 -0.72271543320E+01 -0.21245397494E+03  0.21263152869E+03  0.41800000000E+01 0. -1.
        -11    1    4    4    0    0 -0.47707071383E+02 -0.24386377813E+02 -0.71164974197E+02  0.89079254798E+02  0.00000000000E+00 0. -1.
         11    1    4    4    0    0  0.32159740486E+02 -0.54882577055E+02 -0.11748324045E+03  0.13359886960E+03  0.00000000000E+00 0.  1.
</event>
<event>
 8    1  0.6860461E-009  0.1128975E+03  0.7561462E-02  0.1255296E+00
         -1   -1    0    0    0  501 -0.00000000000E+00  0.00000000000E+00  0.27398885444E+02  0.27398885444E+02  0.00000000000E+00 0.  1.
          1   -1    0    0  501    0  0.00000000000E+00 -0.00000000000E+00 -0.58757964432E+03  0.58757964432E+03  0.00000000000E+00 0. -1.
         25    2    1    2    0    0 -0.30006001797E+02  0.52871514709E+02 -0.25367193334E+03  0.28929627738E+03  0.12508848519E+03 0.  0.
         23    2    1    2    0    0  0.30006001797E+02 -0.52871514709E+02 -0.30650882553E+03  0.32568225238E+03  0.91790588715E+02 0.  0.
          5    1    3    3  502    0  0.30628197619E+02  0.51592030486E+02 -0.54888798351E+02  0.81425282828E+02  0.41800000000E+01 0. -1.
         -5    1    3    3    0  502 -0.60634199416E+02  0.12794842229E+01 -0.19878313499E+03  0.20787099455E+03  0.41800000000E+01 0. -1.
        -11    1    4    4    0    0  0.15816922390E+02 -0.76052941013E+02 -0.26430559312E+03  0.27548443046E+03  0.00000000000E+00 0. -1.
         11    1    4    4    0    0  0.14189079407E+02  0.23181426303E+02 -0.42203232407E+02  0.50197821919E+02  0.00000000000E+00 0.  1.
</event>
<event>
 8    1  0.6860461E-009  0.1152146E+03  0.7561462E-02  0.1251207E+00
         -2   -1    0    0    0  501 -0.00000000000E+00  0.00000000000E+00  0.22765784384E+02  0.22765784384E+02  0.00000000000E+00 0.  1.
          2   -1    0    0  501    0  0.00000000000E+00 -0.00000000000E+00 -0.77812227345E+03  0.77812227345E+03  0.00000000000E+00 0. -1.
         25    2    1    2    0    0  0.16323858540E+02 -0.57371989759E+02 -0.56818605978E+03  0.58483966973E+03  0.12507608563E+03 0.  0.
         23    2    1    2    0    0 -0.16323858540E+02  0.57371989759E+02 -0.18717042928E+03  0.21604838810E+03  0.89922871592E+02 0.  0.
          5    1    3    3  502    0 -0.24783602618E+02  0.30606164258E+02 -0.12515029950E+03  0.13126703362E+03  0.41800000000E+01 0. -1.
         -5    1    3    3    0  502  0.41107461158E+02 -0.87978154016E+02 -0.44303576028E+03  0.45357263611E+03  0.41800000000E+01 0. -1.
        -11    1    4    4    0    0 -0.31926332329E+02 -0.22427055568E+01 -0.12294033572E+03  0.12703797295E+03  0.00000000000E+00 0. -1.
         11    1    4    4    0    0  0.15602473789E+02  0.59614695316E+02 -0.64230093565E+02  0.89010415150E+02  0.00000000000E+00 0.  1.
</event>
<event>
 8    1  0.6860461E-009  0.1625145E+03  0.7561462E-02  0.1185887E+00
          1   -1    0    0  501    0  0.00000000000E+00  0.00000000000E+00  0.25553979439E+03  0.25553979439E+03  0.00000000000E+00 0. -1.
         -1   -1    0    0    0  501 -0.00000000000E+00 -0.00000000000E+00 -0.12216175721E+03  0.12216175721E+03  0.00000000000E+00 0.  1.
         25    2    1    2    0    0  0.13156873395E+03 -0.43350244345E+02  0.85282500681E+02  0.20521068545E+03  0.12509494419E+03 0.  0.
         23    2    1    2    0    0 -0.13156873395E+03  0.43350244345E+02  0.48095536497E+02  0.17249086615E+03  0.90831397861E+02 0.  0.
          5    1    3    3  502    0  0.15345871537E+03 -0.52584795458E+02  0.77765779024E+02  0.17994367681E+03  0.41800000000E+01 0.  1.
         -5    1    3    3    0  502 -0.21889981425E+02  0.92345511122E+01  0.75167216564E+01  0.25267008637E+02  0.41800000000E+01 0.  1.
        -11    1    4    4    0    0 -0.28325775057E+02  0.11717861844E+02 -0.27093917807E+02  0.40911345626E+02  0.00000000000E+00 0.  1.
         11    1    4    4    0    0 -0.10324295889E+03  0.31632382501E+02  0.75189454304E+02  0.13157952052E+03  0.00000000000E+00 0. -1.
</event>
<event>
 8    1  0.6860461E-009  0.5960827E+02  0.7561462E-02  0.1399483E+00
         -2   -1    0    0    0  501 -0.00000000000E+00  0.00000000000E+00  0.25904624642E+02  0.25904624642E+02  0.00000000000E+00 0.  1.
          2   -1    0    0  501    0  0.00000000000E+00 -0.00000000000E+00 -0.46930714068E+03  0.46930714068E+03  0.00000000000E+00 0. -1.
         25    2    1    2    0    0  0.18763628579E+02 -0.53641649335E+01 -0.24630174307E+03  0.27694062693E+03  0.12510281445E+03 0.  0.
         23    2    1    2    0    0 -0.18763628579E+02  0.53641649335E+01 -0.19710077297E+03  0.21827113839E+03  0.91720919786E+02 0.  0.
          5    1    3    3  502    0 -0.15289622575E+01  0.22094009044E+02  0.51732685927E+01  0.23123971742E+02  0.41800000000E+01 0. -1.
         -5    1    3    3    0  502  0.20292590836E+02 -0.27458173977E+02 -0.25147501166E+03  0.25381665519E+03  0.41800000000E+01 0. -1.
        -11    1    4    4    0    0  0.17836529311E+02 -0.12274668913E+02 -0.54040427848E+01  0.22316203826E+02  0.00000000000E+00 0.  1.
         11    1    4    4    0    0 -0.36600157890E+02  0.17638833847E+02 -0.19169673018E+03  0.19595493456E+03  0.00000000000E+00 0. -1.
</event>
<event>
 8    1  0.6860461E-009  0.1568666E+03  0.7561462E-02  0.1192280E+00
         -2   -1    0    0    0  501 -0.00000000000E+00  0.00000000000E+00  0.55643428205E+02  0.55643428205E+02  0.00000000000E+00 0. -1.
          2   -1    0    0  501    0  0.00000000000E+00 -0.00000000000E+00 -0.65165481008E+03  0.65165481008E+03  0.00000000000E+00 0.  1.
         25    2    1    2    0    0 -0.20727041342E+02 -0.12963655284E+03 -0.15981359800E+03  0.24170924216E+03  0.12509086924E+03 0.  0.
         23    2    1    2    0    0  0.20727041342E+02  0.12963655284E+03 -0.43619778387E+03  0.46558899612E+03  0.96277518530E+02 0.  0.
          5    1    3    3  502    0 -0.72357562655E+02 -0.92456694669E+02 -0.10732253311E+03  0.15912088416E+03  0.41800000000E+01 0.  1.
         -5    1    3    3    0  502  0.51630521313E+02 -0.37179858174E+02 -0.52491064885E+02  0.82588358003E+02  0.41800000000E+01 0.  1.
        -11    1    4    4    0    0  0.23087122922E+02  0.94590986070E+02 -0.41096067023E+03  0.42233771127E+03  0.00000000000E+00 0.  1.
         11    1    4    4    0    0 -0.23600815802E+01  0.35045566772E+02 -0.25237113647E+02  0.43251284844E+02  0.00000000000E+00 0. -1.
</event>
<event>
 8    1  0.6860461E-009  0.6576614E+02  0.7561462E-02  0.1375113E+00
         -2   -1    0    0    0  501 -0.00000000000E+00  0.00000000000E+00  0.24636679405E+03  0.24636679405E+03  0.00000000000E+00 0.  1.
          2   -1    0    0  501    0  0.00000000000E+00 -0.00000000000E+00 -0.48198143951E+02  0.48198143951E+02  0.00000000000E+00 0. -1.
         25    2    1    2    0    0  0.10087604130E+02  0.13860083991E+02  0.97494026300E+02  0.15952175637E+03  0.12509294108E+03 0.  0.
         23    2    1    2    0    0 -0.10087604130E+02 -0.13860083991E+02  0.10067462380E+03  0.13504318163E+03  0.88359602429E+02 0.  0.
          5    1    3    3  502    0 -0.38527311709E+02 -0.38237470030E+01  0.10025103411E+03  0.10754867283E+03  0.41800000000E+01 0. -1.
         -5    1    3    3    0  502  0.48614915839E+02  0.17683830994E+02 -0.27570078087E+01  0.51973083540E+02  0.41800000000E+01 0. -1.
        -11    1    4    4    0    0 -0.83216643495E+01  0.12091947397E+02 -0.12276353009E+02  0.19135676957E+02  0.00000000000E+00 0. -1.
         11    1    4    4    0    0 -0.17659397808E+01 -0.25952031388E+02  0.11295097681E+03  0.11590750467E+03  0.00000000000E+00 0.  1.
</event>
<event>
 8    1  0.6860461E-009  0.8595593E+02  0.7561462E-02  0.1312951E+00
         -2   -1    0    0    0  501 -0.00000000000E+00  0.00000000000E+00  0.37057936887E+02  0.37057936887E+02  0.00000000000E+00 0.  1.
          2   -1    0    0  501    0  0.00000000000E+00 -0.00000000000E+00 -0.36877086255E+03  0.36877086255E+03  0.00000000000E+00 0. -1.
         25    2    1    2    0    0  0.24244892104E+02  0.30913026669E+02 -0.24691148060E+03  0.27956578881E+03  0.12509324927E+03 0.  0.
         23    2    1    2    0    0 -0.24244892104E+02 -0.30913026669E+02 -0.84801445060E+02  0.12626301062E+03  0.84897778272E+02 0.  0.
          5    1    3    3  502    0  0.47916679481E+02  0.49279070500E+02 -0.23839115383E+03  0.24813756182E+03  0.41800000000E+01 0. -1.
         -5    1    3    3    0  502 -0.23671787377E+02 -0.18366043831E+02 -0.85203267687E+01  0.31428226992E+02  0.41800000000E+01 0. -1.
        -11    1    4    4    0    0 -0.23117069310E+02 -0.49261536897E+02 -0.18522632131E+02  0.57482047737E+02  0.00000000000E+00 0.  1.
         11    1    4    4    0    0 -0.11278227935E+01  0.18348510228E+02 -0.66278812928E+02  0.68780962882E+02  0.00000000000E+00 0. -1.
</event>
<event>
 8    1  0.6860461E-009  0.1474801E+03  0.7561462E-02  0.1203604E+00
         -1   -1    0    0    0  501 -0.00000000000E+00  0.00000000000E+00  0.77369930847E+02  0.77369930847E+02  0.00000000000E+00 0.  1.
          1   -1    0    0  501    0  0.00000000000E+00 -0.00000000000E+00 -0.38527585445E+03  0.38527585445E+03  0.00000000000E+00 0. -1.
         25    2    1    2    0    0  0.28529881659E+02 -0.10326580969E+03 -0.26958918368E+03  0.31591701819E+03  0.12508977906E+03 0.  0.
         23    2    1    2    0    0 -0.28529881659E+02  0.10326580969E+03 -0.38316739917E+02  0.14672876710E+03  0.92646516068E+02 0.  0.
          5    1    3    3  502    0  0.67739896890E+02 -0.87788071928E+02 -0.23950156169E+03  0.26395815891E+03  0.41800000000E+01 0. -1.
         -5    1    3    3    0  502 -0.39210015231E+02 -0.15477737760E+02 -0.30087621995E+02  0.51958859282E+02  0.41800000000E+01 0. -1.
        -11    1    4    4    0    0  0.29769590517E+02  0.66107249314E+02 -0.19988411685E+02  0.75205940810E+02  0.00000000000E+00 0.  1.
         11    1    4    4    0    0 -0.58299472176E+02  0.37158560374E+02 -0.18328328231E+02  0.71522826292E+02  0.00000000000E+00 0. -1.
</event>
<event>
 8    1  0.6860461E-009  0.1565121E+03  0.7561462E-02  0.1192692E+00
          1   -1    0    0  501    0  0.00000000000E+00  0.00000000000E+00  0.87459702515E+03  0.87459702515E+03  0.00000000000E+00 0. -1.
         -1   -1    0    0    0  501 -0.00000000000E+00 -0.00000000000E+00 -0.57515111146E+02  0.57515111146E+02  0.00000000000E+00 0.  1.
         25    2    1    2    0    0 -0.45497432399E+02  0.12588381055E+03  0.72424382807E+03  0.74705558036E+03  0.12508464150E+03 0.  0.
         23    2    1    2    0    0  0.45497432399E+02 -0.12588381055E+03  0.92838085940E+02  0.18505655594E+03  0.87808135054E+02 0.  0.
          5    1    3    3  502    0  0.15050559545E+02  0.95065202850E+00  0.82045150414E+01  0.17669452424E+02  0.41800000000E+01 0. -1.
         -5    1    3    3    0  502 -0.60547991944E+02  0.12493315852E+03  0.71603931303E+03  0.72938612794E+03  0.41800000000E+01 0. -1.
        -11    1    4    4    0    0 -0.13692479468E+02 -0.86054757947E+02  0.37950005797E+02  0.95042665679E+02  0.00000000000E+00 0.  1.
         11    1    4    4    0    0  0.59189911867E+02 -0.39829052604E+02  0.54888080143E+02  0.90013890261E+02  0.00000000000E+00 0. -1.
</event>
<event>
 8    1  0.6860461E-009  0.8741561E+02  0.7561462E-02  0.1309234E+00
         -2   -1    0    0    0  501 -0.00000000000E+00  0.00000000000E+00  0.11162999195E+03  0.11162999195E+03  0.00000000000E+00 0.  1.
          2   -1    0    0  501    0  0.00000000000E+00 -0.00000000000E+00 -0.15277110619E+03  0.15277110619E+03  0.00000000000E+00 0. -1.
         25    2    1    2    0    0  0.21072968804E+01  0.60986039555E+01 -0.96002352605E+02  0.15781480805E+03  0.12508968089E+03 0.  0.
         23    2    1    2    0    0 -0.21072968804E+01 -0.60986039555E+01  0.54861238365E+02  0.10658629008E+03  0.91155077133E+02 0.  0.
          5    1    3    3  502    0 -0.44438221494E+02  0.71158111328E+00 -0.10108083168E+03  0.11049918013E+03  0.41800000000E+01 0. -1.
         -5    1    3    3    0  502  0.46545518374E+02  0.53870228422E+01  0.50784790733E+01  0.47315627920E+02  0.41800000000E+01 0. -1.
        -11    1    4    4    0    0 -0.47747560203E+01  0.38337037652E+02  0.47886471616E+02  0.61527562237E+02  0.00000000000E+00 0.  1.
         11    1    4    4    0    0  0.26674591400E+01 -0.44435641608E+02  0.69747667485E+01  0.45058727840E+02  0.00000000000E+00 0. -1.
</event>
<event>
 8    1  0.6860461E-009  0.1244221E+03  0.7561462E-02  0.1235975E+00
          4   -1    0    0  501    0  0.00000000000E+00  0.00000000000E+00  0.55528224990E+02  0.55528224990E+02  0.00000000000E+00 0.  1.
         -4   -1    0    0    0  501 -0.00000000000E+00 -0.00000000000E+00 -0.64492319100E+03  0.64492319100E+03  0.00000000000E+00 0. -1.
         25    2    1    2    0    0  0.88051651835E+02 -0.15059826762E+02 -0.76033861433E+02  0.17148946845E+03  0.12509035907E+03 0.  0.
         23    2    1    2    0    0 -0.88051651835E+02  0.15059826762E+02 -0.51336110458E+03  0.52896194754E+03  0.91001244377E+02 0.  0.
          5    1    3    3  502    0  0.48518634178E+02 -0.53119455745E+02 -0.89425684907E+02  0.11484842168E+03  0.41800000000E+01 0. -1.
         -5    1    3    3    0  502  0.39533017657E+02  0.38059628983E+02  0.13391823474E+02  0.56641046772E+02  0.41800000000E+01 0. -1.
        -11    1    4    4    0    0  0.11595587723E+02 -0.13778956691E+02 -0.33684955790E+02  0.38196774061E+02  0.00000000000E+00 0.  1.
         11    1    4    4    0    0 -0.99647239558E+02  0.28838783453E+02 -0.47967614879E+03  0.49076517348E+03  0.00000000000E+00 0. -1.
</event>
<event>
 8    1  0.6860461E-009  0.1240556E+03  0.7561462E-02  0.1236553E+00
         -1   -1    0    0    0  501 -0.00000000000E+00  0.00000000000E+00  0.32731020152E+02  0.32731020152E+02  0.00000000000E+00 0.  1.
          1   -1    0    0  501    0  0.00000000000E+00 -0.00000000000E+00 -0.68079051753E+03  0.68079051753E+03  0.00000000000E+00 0. -1.
         25    2    1    2    0    0 -0.75510305768E+02  0.47842411729E+02 -0.46816054073E+03  0.49276016807E+03  0.12509032216E+03 0.  0.
         23    2    1    2    0    0  0.75510305768E+02 -0.47842411729E+02 -0.17989895664E+03  0.22076136961E+03  0.91549140219E+02 0.  0.
          5    1    3    3  502    0 -0.48525335886E+02 -0.30825942634E+02 -0.10114489789E+03  0.11641610598E+03  0.41800000000E+01 0. -1.
         -5    1    3    3    0  502 -0.26984969882E+02  0.78668354363E+02 -0.36701564284E+03  0.37634406209E+03  0.41800000000E+01 0. -1.
        -11    1    4    4    0    0  0.36291719672E+02 -0.56389563680E+02 -0.46886078344E+02  0.81824056068E+02  0.00000000000E+00 0.  1.
         11    1    4    4    0    0  0.39218586096E+02  0.85471519519E+01 -0.13301287830E+03  0.13893731355E+03  0.00000000000E+00 0. -1.
</event>
<event>
 8    1  0.6860461E-009  0.8747130E+02  0.7561462E-02  0.1309093E+00
         -2   -1    0    0    0  501 -0.00000000000E+00  0.00000000000E+00  0.34491856650E+02  0.34491856650E+02  0.00000000000E+00 0.  1.
          2   -1    0    0  501    0  0.00000000000E+00 -0.00000000000E+00 -0.46995154901E+03  0.46995154901E+03  0.00000000000E+00 0. -1.
         25    2    1    2    0    0 -0.58780930802E+01 -0.25209401853E+02 -0.36036094558E+03  0.38233180665E+03  0.12509010096E+03 0.  0.
         23    2    1    2    0    0  0.58780930802E+01  0.25209401853E+02 -0.75098746781E+02  0.12211159901E+03  0.92743489930E+02 0.  0.
          5    1    3    3  502    0  0.59373978855E+02 -0.14917380799E+02 -0.18373081200E+03  0.19370668882E+03  0.41800000000E+01 0.  1.
         -5    1    3    3    0  502 -0.65252071935E+02 -0.10292021054E+02 -0.17663013358E+03  0.18862511783E+03  0.41800000000E+01 0.  1.
        -11    1    4    4    0    0 -0.14194031047E+02 -0.11701876582E+01 -0.86035401629E+02  0.87206250865E+02  0.00000000000E+00 0. -1.
         11    1    4    4    0    0  0.20072124127E+02  0.26379589511E+02  0.10936654848E+02  0.34905348143E+02  0.00000000000E+00 0.  1.
</event>
<event>
 8    1  0.6860461E-009  0.1074588E+03  0.7561462E-02  0.1265349E+00
         -1   -1    0    0    0  501 -0.00000000000E+00  0.00000000000E+00  0.13657295564E+03  0.13657295564E+03  0.00000000000E+00 0.  1.
          1   -1    0    0  501    0  0.00000000000E+00 -0.00000000000E+00 -0.14172947633E+03  0.14172947633E+03  0.00000000000E+00 0. -1.
         25    2    1    2    0    0 -0.58935638746E+02  0.22640829124E+02  0.54842163665E+02  0.15046979234E+03  0.12508988302E+03 0.  0.
         23    2    1    2    0    0  0.58935638746E+02 -0.22640829124E+02 -0.59998684350E+02  0.12783263962E+03  0.93569893508E+02 0.  0.
          5    1    3    3  502    0  0.34387761402E+02 -0.20826280207E+01  0.39578947536E+02  0.52638588144E+02  0.41800000000E+01 0.  1.
         -5    1    3    3    0  502 -0.93323400149E+02  0.24723457144E+02  0.15263216128E+02  0.97831204199E+02  0.41800000000E+01 0.  1.
        -11    1    4    4    0    0  0.64708872686E+02 -0.48654078914E+01  0.10353949955E+00  0.64891610541E+02  0.00000000000E+00 0.  1.
         11    1    4    4    0    0 -0.57732339393E+01 -0.17775421232E+02 -0.60102223849E+02  0.62941029081E+02  0.00000000000E+00 0. -1.
</event>
<event>
 8    1  0.6860461E-009  0.1376114E+03  0.7561462E-02  0.1216580E+00
          3   -1    0    0  501    0  0.00000000000E+00  0.00000000000E+00  0.85689931379E+02  0.85689931379E+02  0.00000000000E+00 0. -1.
         -3   -1    0    0    0  501 -0.00000000000E+00 -0.00000000000E+00 -0.25454215385E+03  0.25454215385E+03  0.00000000000E+00 0.  1.
         25    2    1    2    0    0 -0.39860096417E+02 -0.89080180318E+02 -0.71221830395E+02  0.17390443481E+03  0.12508436157E+03 0.  0.
         23    2    1    2    0    0  0.39860096417E+02  0.89080180318E+02 -0.97630392072E+02  0.16632765042E+03  0.92785171368E+02 0.  0.
          5    1    3    3  502    0 -0.75087097131E+02 -0.70587964099E+02 -0.82792133180E+02  0.13226013212E+03  0.41800000000E+01 0.  1.
         -5    1    3    3    0  502  0.35227000713E+02 -0.18492216219E+02  0.11570302786E+02  0.41644302689E+02  0.41800000000E+01 0.  1.
        -11    1    4    4    0    0  0.54054677603E+02  0.14235814376E+02 -0.25577904838E+02  0.61471910639E+02  0.00000000000E+00 0. -1.
         11    1    4    4    0    0 -0.14194581185E+02  0.74844365941E+02 -0.72052487234E+02  0.10485573978E+03  0.00000000000E+00 0.  1.
</event>
<event>
 8    1  0.6860461E-009  0.1079689E+03  0.7561462E-02  0.1264378E+00
         -1   -1    0    0    0  501 -0.00000000000E+00  0.00000000000E+00  0.31969942402E+02  0.31969942402E+02  0.00000000000E+00 0.  1.
          1   -1    0    0  501    0  0.00000000000E+00 -0.00000000000E+00 -0.50821685885E+03  0.50821685885E+03  0.00000000000E+00 0. -1.
         25    2    1    2    0    0 -0.10276647372E+02  0.15578521460E+02 -0.12686797594E+03  0.17913399922E+03  0.12508080007E+03 0.  0.
         23    2    1    2    0    0  0.10276647372E+02 -0.15578521460E+02 -0.34937894050E+03  0.36105280203E+03  0.89135750256E+02 0.  0.
          5    1    3    3  502    0 -0.92376526106E+01 -0.54873453023E+02 -0.52869599046E+02  0.76870650939E+02  0.41800000000E+01 0. -1.
         -5    1    3    3    0  502 -0.10389947617E+01  0.70451974483E+02 -0.73998376897E+02  0.10226334828E+03  0.41800000000E+01 0. -1.
        -11    1    4    4    0    0 -0.38227613538E+02  0.11473251356E+01 -0.18252053159E+03  0.18648434584E+03  0.00000000000E+00 0. -1.
         11    1    4    4    0    0  0.48504260910E+02 -0.16725846596E+02 -0.16685840891E+03  0.17456845619E+03  0.00000000000E+00 0.  1.
</event>
<event>
 8    1  0.6860461E-009  0.1077453E+03  0.7561462E-02  0.1264803E+00
         -2   -1    0    0    0  501 -0.00000000000E+00  0.00000000000E+00  0.49995881084E+02  0.49995881084E+02  0.00000000000E+00 0.  1.
          2   -1    0    0  501    0  0.00000000000E+00 -0.00000000000E+00 -0.25791657258E+03  0.25791657258E+03  0.00000000000E+00 0. -1.
         25    2    1    2    0    0 -0.30507964319E+02  0.15266899844E+02 -0.13061035389E+03  0.18404310713E+03  0.12509590969E+03 0.  0.
         23    2    1    2    0    0  0.30507964319E+02 -0.15266899844E+02 -0.77310337607E+02  0.12386934653E+03  0.90569932052E+02 0.  0.
          5    1    3    3  502    0 -0.12807174552E+02  0.65672542172E+02 -0.38037660844E+02  0.77079456134E+02  0.41800000000E+01 0.  1.
         -5    1    3    3    0  502 -0.17700789766E+02 -0.50405642328E+02 -0.92572693042E+02  0.10696365099E+03  0.41800000000E+01 0.  1.
        -11    1    4    4    0    0  0.62059787647E+02 -0.92977029157E+01 -0.39012958361E+02  0.73890969965E+02  0.00000000000E+00 0.  1.
         11    1    4    4    0    0 -0.31551823328E+02 -0.59691969284E+01 -0.38297379245E+02  0.49978376568E+02  0.00000000000E+00 0. -1.
</event>
<event>
 8    1  0.6860461E-009  0.9407441E+02  0.7561462E-02  0.1293274E+00
          1   -1    0    0  501    0  0.00000000000E+00  0.00000000000E+00  0.84743577607E+02  0.84743577607E+02  0.00000000000E+00 0. -1.
         -1   -1    0    0    0  501 -0.00000000000E+00 -0.00000000000E+00 -0.19436095257E+03  0.19436095257E+03  0.00000000000E+00 0.  1.
         25    2    1    2    0    0  0.36637751494E+02 -0.28563871755E+02 -0.11843757475E+03  0.17841929840E+03  0.12509103614E+03 0.  0.
         23    2    1    2    0    0 -0.36637751494E+02  0.28563871755E+02  0.88201997874E+01  0.10068523179E+03  0.88890384021E+02 0.  0.
          5    1    3    3  502    0  0.67147534698E+02  0.18848536157E+02 -0.93265525391E+02  0.11653321139E+03  0.41800000000E+01 0. -1.
         -5    1    3    3    0  502 -0.30509783205E+02 -0.47412407912E+02 -0.25172049363E+02  0.61886087002E+02  0.41800000000E+01 0. -1.
        -11    1    4    4    0    0 -0.32802924312E+01  0.28195763607E+02  0.43898868891E+02  0.52276879151E+02  0.00000000000E+00 0. -1.
         11    1    4    4    0    0 -0.33357459062E+02  0.36810814812E+00 -0.35078669104E+02  0.48408352635E+02  0.00000000000E+00 0.  1.
</event>
<event>
 8    1  0.6860461E-009  0.1261198E+03  0.7561462E-02  0.1233329E+00
          1   -1    0    0  501    0  0.00000000000E+00  0.00000000000E+00  0.18857028591E+03  0.18857028591E+03  0.00000000000E+00 0. -1.
         -1   -1    0    0    0  501 -0.00000000000E+00 -0.00000000000E+00 -0.13593308175E+03  0.13593308175E+03  0.00000000000E+00 0.  1.
         25    2    1    2    0    0  0.68092628793E+02 -0.86733995287E+02  0.67381452133E+02  0.17986043173E+03  0.12510045074E+03 0.  0.
         23    2    1    2    0    0 -0.68092628793E+02  0.86733995287E+02 -0.14744247973E+02  0.14464293592E+03  0.92438055098E+02 0.  0.
          5    1    3    3  502    0  0.38814796095E+02 -0.75510884237E+02 -0.19659785529E+02  0.87249421782E+02  0.41800000000E+01 0.  1.
         -5    1    3    3    0  502  0.29277832698E+02 -0.11223111049E+02  0.87041237662E+02  0.92611009944E+02  0.41800000000E+01 0.  1.
        -11    1    4    4    0    0 -0.86071676775E+02  0.74699182462E+02 -0.30383769326E+02  0.11794691536E+03  0.00000000000E+00 0.  1.
         11    1    4    4    0    0  0.17979047982E+02  0.12034812825E+02  0.15639521354E+02  0.26696020570E+02  0.00000000000E+00 0. -1.
</event>
<event>
 8    1  0.6860461E-009  0.1137676E+03  0.7561462E-02  0.1253748E+00
         -1   -1    0    0    0  501 -0.00000000000E+00  0.00000000000E+00  0.50875181234E+02  0.50875181234E+02  0.00000000000E+00 0.  1.
          1   -1    0    0  501    0  0.00000000000E+00 -0.00000000000E+00 -0.42632891121E+03  0.42632891121E+03  0.00000000000E+00 0. -1.
         25    2    1    2    0    0 -0.25374311593E+02 -0.93095158186E+02 -0.24720504541E+03  0.29337426302E+03  0.12509020570E+03 0.  0.
         23    2    1    2    0    0  0.25374311593E+02  0.93095158186E+02 -0.12824868457E+03  0.18382982943E+03  0.89638813719E+02 0.  0.
          5    1    3    3  502    0  0.29575327931E+02 -0.33669953865E+02 -0.15017120936E+02  0.47448415534E+02  0.41800000000E+01 0. -1.
         -5    1    3    3    0  502 -0.54949639525E+02 -0.59425204321E+02 -0.23218792447E+03  0.24592584749E+03  0.41800000000E+01 0. -1.
        -11    1    4    4    0    0  0.18283286744E+02  0.16715132801E+02 -0.98479434440E+02  0.10154739409E+03  0.00000000000E+00 0. -1.
         11    1    4    4    0    0  0.70910248497E+01  0.76380025385E+02 -0.29769250134E+02  0.82282435336E+02  0.00000000000E+00 0.  1.
</event>
<event>
 8    1  0.6860461E-009  0.1858639E+03  0.7561462E-02  0.1162246E+00
          2   -1    0    0  501    0  0.00000000000E+00  0.00000000000E+00  0.84118142367E+03  0.84118142367E+03  0.00000000000E+00 0. -1.
         -2   -1    0    0    0  501 -0.00000000000E+00 -0.00000000000E+00 -0.45805970858E+02  0.45805970858E+02  0.00000000000E+00 0.  1.
         25    2    1    2    0    0  0.89399900162E+02 -0.12769006526E+03  0.31205710665E+03  0.37057365218E+03  0.12509236174E+03 0.  0.
         23    2    1    2    0    0 -0.89399900162E+02  0.12769006526E+03  0.48331834615E+03  0.51641374234E+03  0.93751984680E+02 0.  0.
          5    1    3    3  502    0 -0.16403860288E+02 -0.74576982084E+02  0.16403919205E+03  0.18098934172E+03  0.41800000000E+01 0. -1.
         -5    1    3    3    0  502  0.10580376045E+03 -0.53113083174E+02  0.14801791461E+03  0.18958431046E+03  0.41800000000E+01 0. -1.
        -11    1    4    4    0    0 -0.10274133877E+03  0.89213830883E+02  0.31305185296E+03  0.34134491787E+03  0.00000000000E+00 0.  1.
         11    1    4    4    0    0  0.13341438612E+02  0.38476234375E+02  0.17026649319E+03  0.17506882447E+03  0.00000000000E+00 0. -1.
</event>
<event>
 8    1  0.6860461E-009  0.8977017E+02  0.7561462E-02  0.1303409E+00
         -1   -1    0    0    0  501 -0.00000000000E+00  0.00000000000E+00  0.16004420244E+03  0.16004420244E+03  0.00000000000E+00 0.  1.
          1   -1    0    0  501    0  0.00000000000E+00 -0.00000000000E+00 -0.10601642413E+03  0.10601642413E+03  0.00000000000E+00 0. -1.
         25    2    1    2    0    0 -0.42872290628E+02 -0.47649523022E+02 -0.24666967642E+01  0.14058505196E+03  0.12509820900E+03 0.  0.
         23    2    1    2    0    0  0.42872290628E+02  0.47649523022E+02  0.56494475078E+02  0.12547557460E+03  0.91891151693E+02 0.  0.
          5    1    3    3  502    0 -0.11174826245E+02 -0.58418368921E+02 -0.53033395727E+02  0.79797218193E+02  0.41800000000E+01 0. -1.
         -5    1    3    3    0  502 -0.31697464383E+02  0.10768845899E+02  0.50566698963E+02  0.60787833769E+02  0.41800000000E+01 0. -1.
        -11    1    4    4    0    0  0.26980697355E+02 -0.81309511663E+01  0.61108008450E+02  0.67292340525E+02  0.00000000000E+00 0.  1.
         11    1    4    4    0    0  0.15891593273E+02  0.55780474188E+02 -0.46135333723E+01  0.58183234077E+02  0.00000000000E+00 0. -1.
</event>
<event>
 8    1  0.6860461E-009  0.8871475E+02  0.7561462E-02  0.1305994E+00
         -3   -1    0    0    0  501 -0.00000000000E+00  0.00000000000E+00  0.49405647874E+02  0.49405647874E+02  0.00000000000E+00 0.  1.
          3   -1    0    0  501    0  0.00000000000E+00 -0.00000000000E+00 -0.37557701815E+03  0.37557701815E+03  0.00000000000E+00 0. -1.
         25    2    1    2    0    0  0.71300108688E+02 -0.20680829166E+00 -0.23905588235E+03  0.27906811394E+03  0.12509016373E+03 0.  0.
         23    2    1    2    0    0 -0.71300108688E+02  0.20680829166E+00 -0.87115487923E+02  0.14591455208E+03  0.92834260946E+02 0.  0.
          5    1    3    3  502    0 -0.65042968127E+01 -0.17031464487E+02  0.73446378074E+01  0.20094595396E+02  0.41800000000E+01 0. -1.
         -5    1    3    3    0  502  0.77804405500E+02  0.16824656195E+02 -0.24640052016E+03  0.25897351854E+03  0.41800000000E+01 0. -1.
        -11    1    4    4    0    0 -0.58270804896E+02 -0.13800339178E+02 -0.10425519859E+03  0.12022929135E+03  0.00000000000E+00 0. -1.
         11    1    4    4    0    0 -0.13029303792E+02  0.14007147470E+02  0.17139710666E+02  0.25685260739E+02  0.00000000000E+00 0.  1.
</event>
<event>
 8    1  0.6860461E-009  0.2697150E+03  0.7561462E-02  0.1101443E+00
          1   -1    0    0  501    0  0.00000000000E+00  0.00000000000E+00  0.44282699268E+03  0.44282699268E+03  0.00000000000E+00 0. -1.
         -1   -1    0    0    0  501 -0.00000000000E+00 -0.00000000000E+00 -0.18659491948E+03  0.18659491948E+03  0.00000000000E+00 0.  1.
         25    2    1    2    0    0 -0.26254080118E+03 -0.27349388769E+02  0.97965081148E+02  0.30809081063E+03  0.12508848515E+03 0.  0.
         23    2    1    2    0    0  0.26254080118E+03  0.27349388769E+02  0.15826699205E+03  0.32133110153E+03  0.92355696565E+02 0.  0.
          5    1    3    3  502    0 -0.17653363908E+03 -0.29595713265E+02  0.12436231989E+03  0.21799883251E+03  0.41800000000E+01 0.  1.
         -5    1    3    3    0  502 -0.86007162104E+02  0.22463244959E+01 -0.26397238741E+02  0.90091978111E+02  0.41800000000E+01 0.  1.
        -11    1    4    4    0    0  0.16503347230E+03 -0.19292587174E+02  0.64494503305E+02  0.17823521497E+03  0.00000000000E+00 0.  1.
         11    1    4    4    0    0  0.97507328886E+02  0.46641975943E+02  0.93772488744E+02  0.14309588656E+03  0.00000000000E+00 0. -1.
</event>
<event>
 8    1  0.6860461E-009  0.2130257E+03  0.7561462E-02  0.1139192E+00
          1   -1    0    0  501    0  0.00000000000E+00  0.00000000000E+00  0.52552901108E+03  0.52552901108E+03  0.00000000000E+00 0. -1.
         -1   -1    0    0    0  501 -0.00000000000E+00 -0.00000000000E+00 -0.16116548083E+03  0.16116548083E+03  0.00000000000E+00 0.  1.
         25    2    1    2    0    0 -0.59144214381E+02  0.18778085068E+03 -0.32906547880E+02  0.23556418974E+03  0.12509180875E+03 0.  0.
         23    2    1    2    0    0  0.59144214381E+02 -0.18778085068E+03  0.39727007813E+03  0.45113030217E+03  0.83278740288E+02 0.  0.
          5    1    3    3  502    0 -0.91245936469E+02  0.10917128467E+03 -0.45903471934E+02  0.14956199869E+03  0.41800000000E+01 0.  1.
         -5    1    3    3    0  502  0.32101722087E+02  0.78609566013E+02  0.12996924054E+02  0.86002191045E+02  0.41800000000E+01 0.  1.
        -11    1    4    4    0    0  0.66747543936E+01 -0.62685605529E+02  0.21416462176E+03  0.22324991087E+03  0.00000000000E+00 0. -1.
         11    1    4    4    0    0  0.52469459988E+02 -0.12509524515E+03  0.18310545637E+03  0.22788039131E+03  0.00000000000E+00 0.  1.
</event>
<event>
 8    1  0.6860461E-009  0.9955007E+02  0.7561462E-02  0.1281245E+00
         -2   -1    0    0    0  501 -0.00000000000E+00  0.00000000000E+00  0.83547690913E+02  0.83547690913E+02  0.00000000000E+00 0.  1.
          2   -1    0    0  501    0  0.00000000000E+00 -0.00000000000E+00 -0.16366810669E+03  0.16366810669E+03  0.00000000000E+00 0. -1.
         25    2    1    2    0    0  0.93281925732E+01  0.34536071959E+02 -0.46239404898E+02  0.13807681048E+03  0.12508943834E+03 0.  0.
         23    2    1    2    0    0 -0.93281925732E+01 -0.34536071959E+02 -0.33881010882E+02  0.10913898712E+03  0.97383983120E+02 0.  0.
          5    1    3    3  502    0 -0.17722379153E+02  0.77245228772E+02 -0.29211420694E+02  0.84567650966E+02  0.41800000000E+01 0. -1.
         -5    1    3    3    0  502  0.27050571726E+02 -0.42709156813E+02 -0.17027984204E+02  0.53509159519E+02  0.41800000000E+01 0. -1.
        -11    1    4    4    0    0  0.16864383675E+02 -0.38953913220E+02  0.21599743501E+02  0.47627342054E+02  0.00000000000E+00 0.  1.
         11    1    4    4    0    0 -0.26192576248E+02  0.44178412604E+01 -0.55480754382E+02  0.61511645066E+02  0.00000000000E+00 0. -1.
</event>
<event>
 8    1  0.6860461E-009  0.1534487E+03  0.7561462E-02  0.1196298E+00
          1   -1    0    0  501    0  0.00000000000E+00  0.00000000000E+00  0.46795202526E+03  0.46795202526E+03  0.00000000000E+00 0. -1.
         -1   -1    0    0    0  501 -0.00000000000E+00 -0.00000000000E+00 -0.77113321027E+02  0.77113321027E+02  0.00000000000E+00 0.  1.
         25    2    1    2    0    0  0.15327980516E+02  0.12315319852E+03  0.70800779749E+02  0.18990061318E+03  0.12509130737E+03 0.  0.
         23    2    1    2    0    0 -0.15327980516E+02 -0.12315319852E+03  0.32003792448E+03  0.35516473310E+03  0.91192418768E+02 0.  0.
          5    1    3    3  502    0  0.54713395912E+02  0.48425643279E+02 -0.88563202665E+01  0.73719098122E+02  0.41800000000E+01 0.  1.
         -5    1    3    3    0  502 -0.39385415396E+02  0.74727555244E+02  0.79657100015E+02  0.11618151506E+03  0.41800000000E+01 0.  1.
        -11    1    4    4    0    0 -0.48765279271E+02 -0.88086800509E+02  0.25424503200E+03  0.27345543181E+03  0.00000000000E+00 0.  1.
         11    1    4    4    0    0  0.33437298755E+02 -0.35066398013E+02  0.65792892479E+02  0.81709301297E+02  0.00000000000E+00 0. -1.
</event>
<event>
 8    1  0.6860461E-009  0.1351229E+03  0.7561462E-02  0.1220046E+00
          2   -1    0    0  501    0  0.00000000000E+00  0.00000000000E+00  0.67649084715E+03  0.67649084715E+03  0.00000000000E+00 0.  1.
         -2   -1    0    0    0  501 -0.00000000000E+00 -0.00000000000E+00 -0.27873685908E+02  0.27873685908E+02  0.00000000000E+00 0. -1.
         25    2    1    2    0    0 -0.80042811362E+02 -0.20006835522E+02  0.35476406013E+03  0.38511238512E+03  0.12508751216E+03 0.  0.
         23    2    1    2    0    0  0.80042811362E+02  0.20006835522E+02  0.29385310111E+03  0.31925214793E+03  0.93622453548E+02 0.  0.
          5    1    3    3  502    0  0.26565861278E+02  0.19729014148E+02  0.53403759111E+02  0.62963583696E+02  0.41800000000E+01 0. -1.
         -5    1    3    3    0  502 -0.10660867264E+03 -0.39735849670E+02  0.30136030101E+03  0.32214880142E+03  0.41800000000E+01 0. -1.
        -11    1    4    4    0    0  0.90635308125E+02  0.41039016163E+02  0.25620917589E+03  0.27484923455E+03  0.00000000000E+00 0.  1.
         11    1    4    4    0    0 -0.10592496763E+02 -0.21032180640E+02  0.37643925226E+02  0.44402913379E+02  0.00000000000E+00 0. -1.
</event>
<event>
 8    1  0.6860461E-009  0.1273126E+03  0.7561462E-02  0.1231499E+00
         -1   -1    0    0    0  501 -0.00000000000E+00  0.00000000000E+00  0.50277412430E+02  0.50277412430E+02  0.00000000000E+00 0.  1.
          1   -1    0    0  501    0  0.00000000000E+00 -0.00000000000E+00 -0.12974582757E+04  0.12974582757E+04  0.00000000000E+00 0. -1.
         25    2    1    2    0    0  0.14154224836E+02 -0.10566838581E+03 -0.11805770994E+04  0.11919631570E+04  0.12509088729E+03 0.  0.
         23    2    1    2    0    0 -0.14154224836E+02  0.10566838581E+03 -0.66603763820E+02  0.15577253112E+03  0.91993859882E+02 0.  0.
          5    1    3    3  502    0  0.75295132388E+01 -0.12488428208E+03 -0.71156446195E+03  0.72249168396E+03  0.41800000000E+01 0.  1.
         -5    1    3    3    0  502  0.66247115975E+01  0.19215896271E+02 -0.46901263746E+03  0.46947147301E+03  0.41800000000E+01 0.  1.
        -11    1    4    4    0    0  0.56541155040E+01  0.23031257899E+02  0.22466858481E+02  0.32667531167E+02  0.00000000000E+00 0.  1.
         11    1    4    4    0    0 -0.19808340340E+02  0.82637127911E+02 -0.89070622301E+02  0.12310499995E+03  0.00000000000E+00 0. -1.
</event>
<event>
 8    1  0.6860461E-009  0.5290443E+02  0.7561462E-02  0.1430277E+00
         -1   -1    0    0    0  501 -0.00000000000E+00  0.00000000000E+00  0.17325563056E+02  0.17325563056E+02  0.00000000000E+00 0. -1.
          1   -1    0    0  501    0  0.00000000000E+00 -0.00000000000E+00 -0.66449069109E+03  0.66449069109E+03  0.00000000000E+00 0.  1.
         25    2    1    2    0    0  0.20769256266E+02 -0.11331363532E+02 -0.37623650301E+03  0.39719153642E+03  0.12508976219E+03 0.  0.
         23    2    1    2    0    0 -0.20769256266E+02  0.11331363532E+02 -0.27092862503E+03  0.28462471773E+03  0.83959206020E+02 0.  0.
          5    1    3    3  502    0  0.24202757020E+02  0.32135731328E+00 -0.38222770452E+03  0.38301614485E+03  0.41800000000E+01 0.  1.
         -5    1    3    3    0  502 -0.34335007543E+01 -0.11652720845E+02  0.59912015112E+01  0.14175391567E+02  0.41800000000E+01 0.  1.
        -11    1    4    4    0    0  0.16608335117E+02  0.23777287292E+02 -0.35119660249E+02  0.45547631358E+02  0.00000000000E+00 0. -1.
         11    1    4    4    0    0 -0.37377591383E+02 -0.12445923759E+02 -0.23580896478E+03  0.23907708637E+03  0.00000000000E+00 0.  1.
</event>
<event>
 8    1  0.6860461E-009  0.1295816E+03  0.7561462E-02  0.1228078E+00
         -2   -1    0    0    0  501 -0.00000000000E+00  0.00000000000E+00  0.23968506450E+02  0.23968506450E+02  0.00000000000E+00 0.  1.
          2   -1    0    0  501    0  0.00000000000E+00 -0.00000000000E+00 -0.15536184116E+04  0.15536184116E+04  0.00000000000E+00 0. -1.
         25    2    1    2    0    0 -0.68340640772E+02  0.14140118294E+02 -0.13595942007E+04  0.13671191692E+04  0.12509214987E+03 0.  0.
         23    2    1    2    0    0  0.68340640772E+02 -0.14140118294E+02 -0.17005570445E+03  0.21046774890E+03  0.10250533930E+03 0.  0.
          5    1    3    3  502    0 -0.10097321476E+03  0.51548830843E+01 -0.11788872705E+04  0.11832222242E+04  0.41800000000E+01 0. -1.
         -5    1    3    3    0  502  0.32632573983E+02  0.89852352101E+01 -0.18070693021E+03  0.18389694495E+03  0.41800000000E+01 0. -1.
        -11    1    4    4    0    0 -0.26206550743E+02 -0.13138203520E+02 -0.44583525173E+02  0.53358096016E+02  0.00000000000E+00 0. -1.
         11    1    4    4    0    0  0.94547191514E+02 -0.10019147740E+01 -0.12547217928E+03  0.15710965288E+03  0.00000000000E+00 0.  1.
</event>
<event>
 8    1  0.6860461E-009  0.1289603E+03  0.7561462E-02  0.1229007E+00
          2   -1    0    0  501    0  0.00000000000E+00  0.00000000000E+00  0.37716966748E+03  0.37716966748E+03  0.00000000000E+00 0. -1.
         -2   -1    0    0    0  501 -0.00000000000E+00 -0.00000000000E+00 -0.67096380720E+02  0.67096380720E+02  0.00000000000E+00 0.  1.
         25    2    1    2    0    0 -0.90884438541E+02  0.37717473314E+02  0.24386475455E+03  0.29120483910E+03  0.12509057056E+03 0.  0.
         23    2    1    2    0    0  0.90884438541E+02 -0.37717473314E+02  0.66208532216E+02  0.15306120910E+03  0.96755232580E+02 0.  0.
          5    1    3    3  502    0 -0.11912964717E+03  0.47168716860E+02  0.18463316899E+03  0.22477464309E+03  0.41800000000E+01 0. -1.
         -5    1    3    3    0  502  0.28245208625E+02 -0.94512435456E+01  0.59231585554E+02  0.66430196011E+02  0.41800000000E+01 0. -1.
        -11    1    4    4    0    0  0.42396044051E+02 -0.91571611135E+01 -0.21842716247E+02  0.48563179508E+02  0.00000000000E+00 0.  1.
         11    1    4    4    0    0  0.48488394490E+02 -0.28560312201E+02  0.88051248464E+02  0.10449802960E+03  0.00000000000E+00 0. -1.
</event>
<event>
 8    1  0.6860461E-009  0.1079791E+03  0.7561462E-02  0.1264359E+00
         -2   -1    0    0    0  501 -0.00000000000E+00  0.00000000000E+00  0.35512603359E+03  0.35512603359E+03  0.00000000000E+00 0.  1.
          2   -1    0    0  501    0  0.00000000000E+00 -0.00000000000E+00 -0.55159153721E+02  0.55159153721E+02  0.00000000000E+00 0. -1.
         25    2    1    2    0    0  0.15718989227E+02  0.18868280963E+02  0.40135471716E+02  0.13364771183E+03  0.12509099143E+03 0.  0.
         23    2    1    2    0    0 -0.15718989227E+02 -0.18868280963E+02  0.25983140815E+03  0.27663747548E+03  0.91721499827E+02 0.  0.
          5    1    3    3  502    0 -0.46511734698E+02  0.40032551267E+02  0.16667952124E+02  0.63727856182E+02  0.41800000000E+01 0. -1.
         -5    1    3    3    0  502  0.62230723924E+02 -0.21164270303E+02  0.23467519592E+02  0.69919855645E+02  0.41800000000E+01 0. -1.
        -11    1    4    4    0    0 -0.51135311000E+02 -0.11273770513E+02  0.10144602799E+03  0.11416310493E+03  0.00000000000E+00 0. -1.
         11    1    4    4    0    0  0.35416321774E+02 -0.75945104506E+01  0.15838538016E+03  0.16247437055E+03  0.00000000000E+00 0.  1.
</event>
<event>
 8    1  0.6860461E-009  0.1110374E+03  0.7561462E-02  0.1258661E+00
          1   -1    0    0  501    0  0.00000000000E+00  0.00000000000E+00  0.37593233138E+03  0.37593233138E+03  0.00000000000E+00 0. -1.
         -1   -1    0    0    0  501 -0.00000000000E+00 -0.00000000000E+00 -0.35518217781E+02  0.35518217781E+02  0.00000000000E+00 0.  1.
         25    2    1    2    0    0 -0.13607951069E+02  0.37314230242E+02  0.20781242513E+03  0.24578668961E+03  0.12509022600E+03 0.  0.
         23    2    1    2    0    0  0.13607951069E+02 -0.37314230242E+02  0.13260168847E+03  0.16566385955E+03  0.91015265017E+02 0.  0.
          5    1    3    3  502    0  0.47530853396E+02 -0.13122016070E+02  0.57942505285E+02  0.76198265394E+02  0.41800000000E+01 0. -1.
         -5    1    3    3    0  502 -0.61138804465E+02  0.50436246312E+02  0.14986991985E+03  0.16958842422E+03  0.41800000000E+01 0. -1.
        -11    1    4    4    0    0  0.46866316979E+02 -0.54846607209E+01  0.95564933530E+02  0.10657949939E+03  0.00000000000E+00 0. -1.
         11    1    4    4    0    0 -0.33258365911E+02 -0.31829569521E+02  0.37036754940E+02  0.59084360159E+02  0.00000000000E+00 0.  1.
</event>
<event>
 8    1  0.6860461E-009  0.1029251E+03  0.7561462E-02  0.1274262E+00
         -4   -1    0    0    0  501 -0.00000000000E+00  0.00000000000E+00  0.18539691968E+03  0.18539691968E+03  0.00000000000E+00 0.  1.
          4   -1    0    0  501    0  0.00000000000E+00 -0.00000000000E+00 -0.87417630969E+02  0.87417630969E+02  0.00000000000E+00 0. -1.
         25    2    1    2    0    0 -0.63330596685E+02 -0.17095694565E+02  0.33718108582E+02  0.14521361419E+03  0.12508819149E+03 0.  0.
         23    2    1    2    0    0  0.63330596685E+02  0.17095694565E+02  0.64261180128E+02  0.12760093646E+03  0.88597248630E+02 0.  0.
          5    1    3    3  502    0 -0.69390338988E+02 -0.62890007768E+02  0.31064634050E+02  0.98755537113E+02  0.41800000000E+01 0.  1.
         -5    1    3    3    0  502  0.60597423035E+01  0.45794313202E+02  0.26534745326E+01  0.46458077076E+02  0.41800000000E+01 0.  1.
        -11    1    4    4    0    0  0.43183003102E+02  0.13623191703E+02  0.86350329584E+02  0.97502525754E+02  0.00000000000E+00 0.  1.
         11    1    4    4    0    0  0.20147593582E+02  0.34725028623E+01 -0.22089149456E+02  0.30098410705E+02  0.00000000000E+00 0. -1.
</event>
<event>
 8    1  0.6860461E-009  0.1063008E+03  0.7561462E-02  0.1267578E+00
         -2   -1    0    0    0  501 -0.00000000000E+00  0.00000000000E+00  0.53492563782E+02  0.53492563782E+02  0.00000000000E+00 0.  1.
          2   -1    0    0  501    0  0.00000000000E+00 -0.00000000000E+00 -0.44649075271E+03  0.44649075271E+03  0.00000000000E+00 0. -1.
         25    2    1    2    0    0 -0.27812589707E+02 -0.23868169541E+02 -0.37947698361E+03  0.40123944291E+03  0.12508828797E+03 0.  0.
         23    2    1    2    0    0  0.27812589707E+02  0.23868169541E+02 -0.13521205313E+02  0.98743873584E+02  0.90687925954E+02 0.  0.
          5    1    3    3  502    0 -0.70721339220E+02 -0.32324015843E+02 -0.16693024351E+03  0.18419969712E+03  0.41800000000E+01 0. -1.
         -5    1    3    3    0  502  0.42908749513E+02  0.84558463022E+01 -0.21254674010E+03  0.21703974579E+03  0.41800000000E+01 0. -1.
        -11    1    4    4    0    0 -0.15877217057E+02  0.40924568051E+02  0.11785095070E+02  0.45451014922E+02  0.00000000000E+00 0.  1.
         11    1    4    4    0    0  0.43689806764E+02 -0.17056398511E+02 -0.25306300383E+02  0.53292858661E+02  0.00000000000E+00 0. -1.
</event>
<event>
 8    1  0.6860461E-009  0.7759139E+02  0.7561462E-02  0.1336029E+00
          2   -1    0    0  501    0  0.00000000000E+00  0.00000000000E+00  0.26304188010E+03  0.26304188010E+03  0.00000000000E+00 0. -1.
         -2   -1    0    0    0  501 -0.00000000000E+00 -0.00000000000E+00 -0.64876689168E+02  0.64876689168E+02  0.00000000000E+00 0.  1.
         25    2    1    2    0    0 -0.60880966174E+02 -0.22056863583E+02  0.15986482429E+03  0.21306508316E+03  0.12508785050E+03 0.  0.
         23    2    1    2    0    0  0.60880966174E+02  0.22056863583E+02  0.38300366640E+02  0.11485348611E+03  0.86783684604E+02 0.  0.
          5    1    3    3  502    0 -0.44677820326E+02 -0.30141544215E+02  0.17864479091E+03  0.18664419100E+03  0.41800000000E+01 0.  1.
         -5    1    3    3    0  502 -0.16203145848E+02  0.80846806320E+01 -0.18779966614E+02  0.26420892156E+02  0.41800000000E+01 0.  1.
        -11    1    4    4    0    0  0.67647158904E+02  0.95441308324E+01  0.58640319869E+02  0.90032858754E+02  0.00000000000E+00 0. -1.
         11    1    4    4    0    0 -0.67661927296E+01  0.12512732751E+02 -0.20339953229E+02  0.24820627355E+02  0.00000000000E+00 0.  1.
</event>
<event>
 8    1  0.6860461E-009  0.1752013E+03  0.7561462E-02  0.1172530E+00
          1   -1    0    0  501    0  0.00000000000E+00  0.00000000000E+00  0.55106539618E+02  0.55106539618E+02  0.00000000000E+00 0. -1.
         -1   -1    0    0    0  501 -0.00000000000E+00 -0.00000000000E+00 -0.58132933423E+03  0.58132933423E+03  0.00000000000E+00 0.  1.
         25    2    1    2    0    0  0.13004161998E+03 -0.42248161628E+02 -0.34194430567E+03  0.38893378362E+03  0.12509136572E+03 0.  0.
         23    2    1    2    0    0 -0.13004161998E+03  0.42248161628E+02 -0.18427848894E+03  0.24750209022E+03  0.92752321213E+02 0.  0.
          5    1    3    3  502    0  0.12784599353E+03  0.14165043895E+02 -0.23963698061E+03  0.27200845833E+03  0.41800000000E+01 0. -1.
         -5    1    3    3    0  502  0.21956264453E+01 -0.56413205523E+02 -0.10230732506E+03  0.11692532529E+03  0.41800000000E+01 0. -1.
        -11    1    4    4    0    0 -0.12227012361E+03  0.13350713024E+00 -0.13214893416E+03  0.18003705661E+03  0.00000000000E+00 0.  1.
         11    1    4    4    0    0 -0.77714963696E+01  0.42114654498E+02 -0.52129554777E+02  0.67465033614E+02  0.00000000000E+00 0. -1.
</event>
<event>
 8    1  0.6860461E-009  0.8032171E+02  0.7561462E-02  0.1328141E+00
         -2   -1    0    0    0  501 -0.00000000000E+00  0.00000000000E+00  0.54203509885E+02  0.54203509885E+02  0.00000000000E+00 0.  1.
          2   -1    0    0  501    0  0.00000000000E+00 -0.00000000000E+00 -0.38895067710E+03  0.38895067710E+03  0.00000000000E+00 0. -1.
         25    2    1    2    0    0 -0.33966554061E+02 -0.44462233825E+02 -0.30478188376E+03  0.33417092012E+03  0.12509032798E+03 0.  0.
         23    2    1    2    0    0  0.33966554061E+02  0.44462233825E+02 -0.29965283454E+02  0.10898326687E+03  0.88593550628E+02 0.  0.
          5    1    3    3  502    0 -0.62223189857E+01 -0.35448958650E+02 -0.95478168204E+01  0.37469709486E+02  0.41800000000E+01 0.  1.
         -5    1    3    3    0  502 -0.27744235075E+02 -0.90132751751E+01 -0.29523406694E+03  0.29670121064E+03  0.41800000000E+01 0.  1.
        -11    1    4    4    0    0  0.22613928878E+02 -0.19572504154E+02 -0.32154181911E+02  0.43913142822E+02  0.00000000000E+00 0. -1.
         11    1    4    4    0    0  0.11352625183E+02  0.64034737979E+02  0.21888984568E+01  0.65070124043E+02  0.00000000000E+00 0.  1.
</event>
<event>
 8    1  0.6860461E-009  0.9080995E+02  0.7561462E-02  0.1300902E+00
         -2   -1    0    0    0  501 -0.00000000000E+00  0.00000000000E+00  0.87552397210E+02  0.87552397210E+02  0.00000000000E+00 0.  1.
          2   -1    0    0  501    0  0.00000000000E+00 -0.00000000000E+00 -0.23867308187E+03  0.23867308187E+03  0.00000000000E+00 0. -1.
         25    2    1    2    0    0 -0.20708105461E+02  0.19523526100E+01 -0.18944891768E+03  0.22797006057E+03  0.12508724473E+03 0.  0.
         23    2    1    2    0    0  0.20708105461E+02 -0.19523526100E+01  0.38328233016E+02  0.98255418511E+02  0.88047921657E+02 0.  0.
          5    1    3    3  502    0  0.42363895649E+02 -0.23358354301E+01 -0.14351842767E+03  0.14971695716E+03  0.41800000000E+01 0.  1.
         -5    1    3    3    0  502 -0.63072001110E+02  0.42881880401E+01 -0.45930490016E+02  0.78253103414E+02  0.41800000000E+01 0.  1.
        -11    1    4    4    0    0 -0.26134594267E+02  0.87876357180E+01  0.41797010456E+02  0.50072244228E+02  0.00000000000E+00 0.  1.
         11    1    4    4    0    0  0.46842699728E+02 -0.10739988328E+02 -0.34687774392E+01  0.48183174283E+02  0.00000000000E+00 0. -1.
</event>
<event>
 8    1  0.6860461E-009  0.1254288E+03  0.7561462E-02  0.1234401E+00
         -2   -1    0    0    0  501 -0.00000000000E+00  0.00000000000E+00  0.12832813896E+03  0.12832813896E+03  0.00000000000E+00 0.  1.
          2   -1    0    0  501    0  0.00000000000E+00 -0.00000000000E+00 -0.17273374866E+03  0.17273374866E+03  0.00000000000E+00 0. -1.
         25    2    1    2    0    0 -0.27964286151E+02  0.60931635963E+02  0.51860817387E+02  0.15110184826E+03  0.12509020187E+03 0.  0.
         23    2    1    2    0    0  0.27964286151E+02 -0.60931635963E+02 -0.96266427088E+02  0.14996003937E+03  0.93413718806E+02 0.  0.
          5    1    3    3  502    0 -0.70822879877E+02  0.62173821259E+02  0.52615445064E+02  0.10801537772E+03  0.41800000000E+01 0. -1.
         -5    1    3    3    0  502  0.42858593726E+02 -0.12421852961E+01 -0.75462767700E+00  0.43086470538E+02  0.41800000000E+01 0. -1.
        -11    1    4    4    0    0  0.23118127994E+02 -0.85413464007E+02 -0.64184337533E+02  0.10931393717E+03  0.00000000000E+00 0.  1.
         11    1    4    4    0    0  0.48461581565E+01  0.24481828044E+02 -0.32082089556E+02  0.40646102194E+02  0.00000000000E+00 0. -1.
</event>
<event>
 8    1  0.6860461E-009  0.1612020E+03  0.7561462E-02  0.1187346E+00
          1   -1    0    0  501    0  0.00000000000E+00  0.00000000000E+00  0.11237039207E+03  0.11237039207E+03  0.00000000000E+00 0.  1.
         -1   -1    0    0    0  501 -0.00000000000E+00 -0.00000000000E+00 -0.29709364555E+03  0.29709364555E+03  0.00000000000E+00 0. -1.
         25    2    1    2    0    0  0.14281549097E+03  0.43327674990E+02 -0.10682779574E+03  0.22211065700E+03  0.12508962439E+03 0.  0.
         23    2    1    2    0    0 -0.14281549097E+03 -0.43327674990E+02 -0.77895457741E+02  0.18735338062E+03  0.82219432083E+02 0.  0.
          5    1    3    3  502    0  0.85554829686E+02  0.10936576069E+02  0.11046464339E+02  0.87055926582E+02  0.41800000000E+01 0.  1.
         -5    1    3    3    0  502  0.57260661280E+02  0.32391098921E+02 -0.11787426007E+03  0.13505473042E+03  0.41800000000E+01 0.  1.
        -11    1    4    4    0    0 -0.90245509118E+01 -0.34930697499E+02 -0.12349487594E+02  0.38132741716E+02  0.00000000000E+00 0.  1.
         11    1    4    4    0    0 -0.13379094005E+03 -0.83969774912E+01 -0.65545970147E+02  0.14922063890E+03  0.00000000000E+00 0. -1.
</event>
<event>
 8    1  0.6860461E-009  0.8922780E+02  0.7561462E-02  0.1304733E+00
         -3   -1    0    0    0  501 -0.00000000000E+00  0.00000000000E+00  0.25993482825E+02  0.25993482825E+02  0.00000000000E+00 0. -1.
          3   -1    0    0  501    0  0.00000000000E+00 -0.00000000000E+00 -0.54237171227E+03  0.54237171227E+03  0.00000000000E+00 0.  1.
         25    2    1    2    0    0 -0.37406102027E+02 -0.11262062297E+02 -0.40269119766E+03  0.42348047055E+03  0.12509779275E+03 0.  0.
         23    2    1    2    0    0  0.37406102027E+02  0.11262062297E+02 -0.11368703179E+03  0.14488472455E+03  0.80875161167E+02 0.  0.
          5    1    3    3  502    0 -0.44072931465E+02  0.43445370418E+02 -0.11632288252E+03  0.13182719331E+03  0.41800000000E+01 0.  1.
         -5    1    3    3    0  502  0.66668294389E+01 -0.54707432715E+02 -0.28636831514E+03  0.29165327724E+03  0.41800000000E+01 0.  1.
        -11    1    4    4    0    0  0.21132417423E+01  0.23657322087E+02 -0.10339559187E+03  0.10608856252E+03  0.00000000000E+00 0.  1.
         11    1    4    4    0    0  0.35292860284E+02 -0.12395259789E+02 -0.10291439915E+02  0.38796162024E+02  0.00000000000E+00 0. -1.
</event>
<event>
 8    1  0.6860461E-009  0.1139809E+03  0.7561462E-02  0.1253371E+00
         -2   -1    0    0    0  501 -0.00000000000E+00  0.00000000000E+00  0.17134770241E+03  0.17134770241E+03  0.00000000000E+00 0.  1.
          2   -1    0    0  501    0  0.00000000000E+00 -0.00000000000E+00 -0.87303479328E+02  0.87303479328E+02  0.00000000000E+00 0. -1.
         25    2    1    2    0    0  0.25380086381E+02  0.32674963106E+02  0.65241238932E+01  0.13191566559E+03  0.12508947452E+03 0.  0.
         23    2    1    2    0    0 -0.25380086381E+02 -0.32674963106E+02  0.77520099193E+02  0.12673551616E+03  0.91327560341E+02 0.  0.
          5    1    3    3  502    0  0.39128058924E+02  0.75031254976E+02  0.15933530247E+02  0.86209303469E+02  0.41800000000E+01 0. -1.
         -5    1    3    3    0  502 -0.13747972544E+02 -0.42356291870E+02 -0.94094063537E+01  0.45706362117E+02  0.41800000000E+01 0. -1.
        -11    1    4    4    0    0  0.28676191360E+02  0.92175982127E+01  0.35126128084E+02  0.46272377743E+02  0.00000000000E+00 0.  1.
         11    1    4    4    0    0 -0.54056277741E+02 -0.41892561319E+02  0.42393971109E+02  0.80463138414E+02  0.00000000000E+00 0. -1.
</event>
<event>
 8    1  0.6860461E-009  0.4793542E+02  0.7561462E-02  0.1456806E+00
          2   -1    0    0  501    0  0.00000000000E+00  0.00000000000E+00  0.49419150314E+02  0.49419150314E+02  0.00000000000E+00 0.  1.
         -2   -1    0    0    0  501 -0.00000000000E+00 -0.00000000000E+00 -0.27609378896E+03  0.27609378896E+03  0.00000000000E+00 0. -1.
         25    2    1    2    0    0  0.19048088294E+02 -0.32860126097E+02 -0.10233226189E+03  0.16601977551E+03  0.12509219194E+03 0.  0.
         23    2    1    2    0    0 -0.19048088294E+02  0.32860126097E+02 -0.12434237677E+03  0.15949316376E+03  0.92381952096E+02 0.  0.
          5    1    3    3  502    0  0.19780793228E+02 -0.28026709457E+02 -0.13159579080E+03  0.13605771121E+03  0.41800000000E+01 0. -1.
         -5    1    3    3    0  502 -0.73270493430E+00 -0.48334166399E+01  0.29263528913E+02  0.29962064304E+02  0.41800000000E+01 0. -1.
        -11    1    4    4    0    0 -0.50625701473E+01 -0.92304614762E+01  0.12090677494E+02  0.16031703522E+02  0.00000000000E+00 0.  1.
         11    1    4    4    0    0 -0.13985518146E+02  0.42090587573E+02 -0.13643305426E+03  0.14346146024E+03  0.00000000000E+00 0. -1.
</event>
<event>
 8    1  0.6860461E-009  0.1371442E+03  0.7561462E-02  0.1217224E+00
         -4   -1    0    0    0  501 -0.00000000000E+00  0.00000000000E+00  0.23266171200E+03  0.23266171200E+03  0.00000000000E+00 0.  1.
          4   -1    0    0  501    0  0.00000000000E+00 -0.00000000000E+00 -0.11045805664E+03  0.11045805664E+03  0.00000000000E+00 0. -1.
         25    2    1    2    0    0  0.11309416203E+03  0.26092343781E+02  0.88061339654E+02  0.19202662454E+03  0.12509326561E+03 0.  0.
         23    2    1    2    0    0 -0.11309416203E+03 -0.26092343781E+02  0.34142315711E+02  0.15109314410E+03  0.90511549443E+02 0.  0.
          5    1    3    3  502    0  0.13399900253E+03  0.25970538868E+02  0.98416774884E+02  0.16832568297E+03  0.41800000000E+01 0. -1.
         -5    1    3    3    0  502 -0.20904840497E+02  0.12180491275E+00 -0.10355435230E+02  0.23700941573E+02  0.41800000000E+01 0. -1.
        -11    1    4    4    0    0 -0.74512794773E+02 -0.21541075717E+02  0.65222405206E+02  0.10134168278E+03  0.00000000000E+00 0.  1.
         11    1    4    4    0    0 -0.38581367257E+02 -0.45512680636E+01 -0.31080089495E+02  0.49751461319E+02  0.00000000000E+00 0. -1.
</event>
<event>
 8    1  0.6860461E-009  0.2812246E+03  0.7561462E-02  0.1095022E+00
         -1   -1    0    0    0  501 -0.00000000000E+00  0.00000000000E+00  0.66074665166E+02  0.66074665166E+02  0.00000000000E+00 0.  1.
          1   -1    0    0  501    0  0.00000000000E+00 -0.00000000000E+00 -0.12671170100E+04  0.12671170100E+04  0.00000000000E+00 0. -1.
         25    2    1    2    0    0  0.24202351770E+03  0.98523194754E+02 -0.47904845050E+03  0.55983714639E+03  0.12509200424E+03 0.  0.
         23    2    1    2    0    0 -0.24202351770E+03 -0.98523194754E+02 -0.72199389436E+03  0.77335452880E+03  0.92302983179E+02 0.  0.
          5    1    3    3  502    0  0.20589437932E+03  0.24735097108E+02 -0.34633969111E+03  0.40369911382E+03  0.41800000000E+01 0.  1.
         -5    1    3    3    0  502  0.36129138384E+02  0.73788097646E+02 -0.13270875939E+03  0.15613803257E+03  0.41800000000E+01 0.  1.
        -11    1    4    4    0    0 -0.73267839402E+02  0.72142015030E+01 -0.13912295107E+03  0.15740208547E+03  0.00000000000E+00 0.  1.
         11    1    4    4    0    0 -0.16875567830E+03 -0.10573739626E+03 -0.58287094328E+03  0.61595244333E+03  0.00000000000E+00 0. -1.
</event>
<event>
 8    1  0.6860461E-009  0.1206804E+03  0.7561462E-02  0.1241979E+00
         -4   -1    0    0    0  501 -0.00000000000E+00  0.00000000000E+00  0.55427600599E+03  0.55427600599E+03  0.00000000000E+00 0. -1.
          4   -1    0    0  501    0  0.00000000000E+00 -0.00000000000E+00 -0.30280606168E+02  0.30280606168E+02  0.00000000000E+00 0.  1.
         25    2    1    2    0    0 -0.43286497213E+02 -0.55382522140E+02  0.26565755285E+03  0.30193032125E+03  0.12508812455E+03 0.  0.
         23    2    1    2    0    0  0.43286497213E+02  0.55382522140E+02  0.25833784697E+03  0.28262629091E+03  0.90544091662E+02 0.  0.
          5    1    3    3  502    0 -0.12025029293E+02  0.32764095564E+02  0.23438096034E+02  0.42248124613E+02  0.41800000000E+01 0. -1.
         -5    1    3    3    0  502 -0.31261467920E+02 -0.88146617705E+02  0.24221945682E+03  0.25968219664E+03  0.41800000000E+01 0. -1.
        -11    1    4    4    0    0 -0.21670286621E+02  0.40527246178E+02  0.13235934140E+03  0.14011086418E+03  0.00000000000E+00 0. -1.
         11    1    4    4    0    0  0.64956783833E+02  0.14855275962E+02  0.12597850558E+03  0.14251542673E+03  0.00000000000E+00 0.  1.
</event>
<event>
 8    1  0.6860461E-009  0.8628613E+02  0.7561462E-02  0.1312103E+00
          1   -1    0    0  501    0  0.00000000000E+00  0.00000000000E+00  0.36395037154E+03  0.36395037154E+03  0.00000000000E+00 0. -1.
         -1   -1    0    0    0  501 -0.00000000000E+00 -0.00000000000E+00 -0.39616357371E+02  0.39616357371E+02  0.00000000000E+00 0.  1.
         25    2    1    2    0    0  0.12197967907E+02  0.20164038039E+02  0.25852391351E+03  0.28816011247E+03  0.12508500195E+03 0.  0.
         23    2    1    2    0    0 -0.12197967907E+02 -0.20164038039E+02  0.65810100658E+02  0.11540661644E+03  0.91827767682E+02 0.  0.
          5    1    3    3  502    0 -0.14951384858E+02 -0.36617632281E+02  0.19358909813E+03  0.19763250293E+03  0.41800000000E+01 0.  1.
         -5    1    3    3    0  502  0.27149352765E+02  0.56781670320E+02  0.64934815383E+02  0.90527609538E+02  0.41800000000E+01 0.  1.
        -11    1    4    4    0    0  0.11575105892E+02  0.19966427469E+02 -0.10982058086E+02  0.25558695234E+02  0.00000000000E+00 0.  1.
         11    1    4    4    0    0 -0.23773073799E+02 -0.40130465508E+02  0.76792158744E+02  0.89847921202E+02  0.00000000000E+00 0. -1.
</event>
<event>
 8    1  0.6860461E-009  0.1273371E+03  0.7561462E-02  0.1231461E+00
          2   -1    0    0  501    0  0.00000000000E+00  0.00000000000E+00  0.40573829334E+03  0.40573829334E+03  0.00000000000E+00 0. -1.
         -2   -1    0    0    0  501 -0.00000000000E+00 -0.00000000000E+00 -0.54956260099E+02  0.54956260099E+02  0.00000000000E+00 0.  1.
         25    2    1    2    0    0 -0.96015610952E+02  0.18357928891E+02  0.16148406138E+03  0.22645358732E+03  0.12509242196E+03 0.  0.
         23    2    1    2    0    0  0.96015610952E+02 -0.18357928891E+02  0.18929797186E+03  0.23424096612E+03  0.97360654052E+02 0.  0.
          5    1    3    3  502    0 -0.92669287355E+02  0.37061966571E+02  0.47124281685E+02  0.11045069719E+03  0.41800000000E+01 0.  1.
         -5    1    3    3    0  502 -0.33463235973E+01 -0.18704037680E+02  0.11435977970E+03  0.11600289013E+03  0.41800000000E+01 0.  1.
        -11    1    4    4    0    0  0.67964071098E+02 -0.56220638313E+02  0.14406922235E+03  0.16892547458E+03  0.00000000000E+00 0.  1.
         11    1    4    4    0    0  0.28051539855E+02  0.37862709421E+02  0.45228749512E+02  0.65315491542E+02  0.00000000000E+00 0. -1.
</event>
<event>
 8    1  0.6860461E-009  0.1534898E+03  0.7561462E-02  0.1196249E+00
         -1   -1    0    0    0  501 -0.00000000000E+00  0.00000000000E+00  0.68341824748E+02  0.68341824748E+02  0.00000000000E+00 0.  1.
          1   -1    0    0  501    0  0.00000000000E+00 -0.00000000000E+00 -0.48388189463E+03  0.48388189463E+03  0.00000000000E+00 0. -1.
         25    2    1    2    0    0 -0.12560438194E+02 -0.13538450330E+03 -0.29594396258E+03  0.34887964305E+03  0.12508975979E+03 0.  0.
         23    2    1    2    0    0  0.12560438194E+02  0.13538450330E+03 -0.11959610730E+03  0.20334407633E+03  0.92514086266E+02 0.  0.
          5    1    3    3  502    0 -0.53777632473E+02 -0.65609105530E+02 -0.74298443616E+02  0.11284644260E+03  0.41800000000E+01 0.  1.
         -5    1    3    3    0  502  0.41217194279E+02 -0.69775397767E+02 -0.22164551897E+03  0.23603320045E+03  0.41800000000E+01 0.  1.
        -11    1    4    4    0    0  0.25775477486E+02  0.92199157617E+02 -0.12544796323E+03  0.15780447200E+03  0.00000000000E+00 0. -1.
         11    1    4    4    0    0 -0.13215039292E+02  0.43185345679E+02  0.58518559282E+01  0.45539604332E+02  0.00000000000E+00 0.  1.
</event>
<event>
 8    1  0.6860461E-009  0.1193247E+03  0.7561462E-02  0.1244215E+00
         -2   -1    0    0    0  501 -0.00000000000E+00  0.00000000000E+00  0.49403117470E+02  0.49403117470E+02  0.00000000000E+00 0. -1.
          2   -1    0    0  501    0  0.00000000000E+00 -0.00000000000E+00 -0.37810167053E+03  0.37810167053E+03  0.00000000000E+00 0.  1.
         25    2    1    2    0    0 -0.51022174999E+02  0.53322594232E+02 -0.23969241412E+03  0.28026151376E+03  0.12508997285E+03 0.  0.
         23    2    1    2    0    0  0.51022174999E+02 -0.53322594232E+02 -0.89006138934E+02  0.14724327424E+03  0.91169773741E+02 0.  0.
          5    1    3    3  502    0  0.23162017529E+02  0.51390092554E+02 -0.16696137025E+03  0.17626965770E+03  0.41800000000E+01 0. -1.
         -5    1    3    3    0  502 -0.74184192528E+02  0.19325016782E+01 -0.72731043870E+02  0.10399185606E+03  0.41800000000E+01 0. -1.
        -11    1    4    4    0    0  0.72059190578E+02 -0.46160141152E+02 -0.42169826211E+02  0.95402200292E+02  0.00000000000E+00 0. -1.
         11    1    4    4    0    0 -0.21037015579E+02 -0.71624530801E+01 -0.46836312724E+02  0.51841073949E+02  0.00000000000E+00 0.  1.
</event>
<event>
 8    1  0.6860461E-009  0.1119871E+03  0.7561462E-02  0.1256934E+00
          2   -1    0    0  501    0  0.00000000000E+00  0.00000000000E+00  0.23815856920E+02  0.23815856920E+02  0.00000000000E+00 0. -1.
         -2   -1    0    0    0  501 -0.00000000000E+00 -0.00000000000E+00 -0.77837518192E+03  0.77837518192E+03  0.00000000000E+00 0.  1.
         25    2    1    2    0    0  0.25193862215E+02 -0.73464794267E+02 -0.33347559191E+03  0.36453435866E+03  0.12509005379E+03 0.  0.
         23    2    1    2    0    0 -0.25193862215E+02  0.73464794267E+02 -0.42108373309E+03  0.43765668018E+03  0.90554142580E+02 0.  0.
          5    1    3    3  502    0  0.14958859508E+02 -0.87185410148E+02 -0.33532051761E+03  0.34681750986E+03  0.41800000000E+01 0. -1.
         -5    1    3    3    0  502  0.10235002706E+02  0.13720615881E+02  0.18449256990E+01  0.17716848800E+02  0.41800000000E+01 0. -1.
        -11    1    4    4    0    0 -0.11766075632E+02 -0.20090036061E+02 -0.11417728520E+03  0.11652683184E+03  0.00000000000E+00 0. -1.
         11    1    4    4    0    0 -0.13427786583E+02  0.93554830328E+02 -0.30690644790E+03  0.32112984833E+03  0.00000000000E+00 0.  1.
</event>
<event>
 8    1  0.6860461E-009  0.1005607E+03  0.7561462E-02  0.1279121E+00
          1   -1    0    0  501    0  0.00000000000E+00  0.00000000000E+00  0.20228615391E+03  0.20228615391E+03  0.00000000000E+00 0. -1.
         -1   -1    0    0    0  501 -0.00000000000E+00 -0.00000000000E+00 -0.13035037130E+03  0.13035037130E+03  0.00000000000E+00 0.  1.
         25    2    1    2    0    0  0.15960191441E+02  0.55608245482E+02 -0.69608201590E+02  0.15440109572E+03  0.12508953575E+03 0.  0.
         23    2    1    2    0    0 -0.15960191441E+02 -0.55608245482E+02  0.14154398419E+03  0.17823542950E+03  0.91576002259E+02 0.  0.
          5    1    3    3  502    0 -0.19289234118E+02  0.54024043141E+02 -0.94773050525E+02  0.11086061201E+03  0.41800000000E+01 0.  1.
         -5    1    3    3    0  502  0.35249425560E+02  0.15842023411E+01  0.25164848935E+02  0.43540483705E+02  0.41800000000E+01 0.  1.
        -11    1    4    4    0    0 -0.53741280288E+02 -0.24185841177E+02  0.83139820987E+02  0.10190834095E+03  0.00000000000E+00 0. -1.
         11    1    4    4    0    0  0.37781088847E+02 -0.31422404305E+02  0.58404163207E+02  0.76327088551E+02  0.00000000000E+00 0.  1.
</event>
<event>
 8    1  0.6860461E-009  0.1290154E+03  0.7561462E-02  0.1228924E+00
          1   -1    0    0  501    0  0.00000000000E+00  0.00000000000E+00  0.57464200493E+03  0.57464200493E+03  0.00000000000E+00 0. -1.
         -1   -1    0    0    0  501 -0.00000000000E+00 -0.00000000000E+00 -0.37741002700E+02  0.37741002700E+02  0.00000000000E+00 0.  1.
         25    2    1    2    0    0 -0.77688662070E+02  0.13241114150E+02  0.43455736540E+03  0.45901906370E+03  0.12509013429E+03 0.  0.
         23    2    1    2    0    0  0.77688662070E+02 -0.13241114150E+02  0.10234363684E+03  0.15336394394E+03  0.82676622944E+02 0.  0.
          5    1    3    3  502    0 -0.49438352081E+02 -0.54115510597E+02  0.18765966546E+03  0.20150995405E+03  0.41800000000E+01 0. -1.
         -5    1    3    3    0  502 -0.28250309989E+02  0.67356624747E+02  0.24689769994E+03  0.25750910964E+03  0.41800000000E+01 0. -1.
        -11    1    4    4    0    0 -0.33133487485E+01 -0.28783130109E+02  0.42604320049E+02  0.51522567343E+02  0.00000000000E+00 0. -1.
         11    1    4    4    0    0  0.81002010819E+02  0.15542015959E+02  0.59739316787E+02  0.10184137660E+03  0.00000000000E+00 0.  1.
</event>
<event>
 8    1  0.6860461E-009  0.8198814E+02  0.7561462E-02  0.1323502E+00
          2   -1    0    0  501    0  0.00000000000E+00  0.00000000000E+00  0.38036950529E+02  0.38036950529E+02  0.00000000000E+00 0.  1.
         -2   -1    0    0    0  501 -0.00000000000E+00 -0.00000000000E+00 -0.37047553656E+03  0.37047553656E+03  0.00000000000E+00 0. -1.
         25    2    1    2    0    0 -0.32691351597E+02 -0.71367624047E+01 -0.14666116169E+03  0.19564379721E+03  0.12508933284E+03 0.  0.
         23    2    1    2    0    0  0.32691351597E+02  0.71367624047E+01 -0.18577742434E+03  0.21286868988E+03  0.98387854379E+02 0.  0.
          5    1    3    3  502    0  0.11257866478E+02  0.89902395135E+01  0.18561740107E+02  0.23865761248E+02  0.41800000000E+01 0.  1.
         -5    1    3    3    0  502 -0.43949218075E+02 -0.16127001918E+02 -0.16522290180E+03  0.17177803596E+03  0.41800000000E+01 0.  1.
        -11    1    4    4    0    0  0.13839143035E+02 -0.44711819386E+02 -0.10599707692E+03  0.11587082890E+03  0.00000000000E+00 0.  1.
         11    1    4    4    0    0  0.18852208563E+02  0.51848581790E+02 -0.79780347420E+02  0.96997860986E+02  0.00000000000E+00 0. -1.
</event>
<event>
 8    1  0.6860461E-009  0.7541899E+02  0.7561462E-02  0.1342578E+00
         -1   -1    0    0    0  501 -0.00000000000E+00  0.00000000000E+00  0.45460006610E+02  0.45460006610E+02  0.00000000000E+00 0.  1.
          1   -1    0    0  501    0  0.00000000000E+00 -0.00000000000E+00 -0.32098256132E+03  0.32098256132E+03  0.00000000000E+00 0. -1.
         25    2    1    2    0    0  0.10503181851E+02 -0.39989017027E+02 -0.20662084375E+03  0.24504273652E+03  0.12507730143E+03 0.  0.
         23    2    1    2    0    0 -0.10503181851E+02  0.39989017027E+02 -0.68901710958E+02  0.12139983142E+03  0.91000192215E+02 0.  0.
          5    1    3    3  502    0 -0.10039437242E+02 -0.22734966113E+02  0.97150750084E+01  0.27009703196E+02  0.41800000000E+01 0.  1.
         -5    1    3    3    0  502  0.20542619093E+02 -0.17254050914E+02 -0.21633591876E+03  0.21803303332E+03  0.41800000000E+01 0.  1.
        -11    1    4    4    0    0 -0.26990213108E+02 -0.21699388874E+02 -0.14616705351E+02  0.37589668214E+02  0.00000000000E+00 0.  1.
         11    1    4    4    0    0  0.16487031258E+02  0.61688405901E+02 -0.54285005607E+02  0.83810163202E+02  0.00000000000E+00 0. -1.
</event>
<event>
 8    1  0.6860461E-009  0.7836148E+02  0.7561462E-02  0.1333767E+00
         -2   -1    0    0    0  501 -0.00000000000E+00  0.00000000000E+00  0.27837415308E+02  0.27837415308E+02  0.00000000000E+00 0.  1.
          2   -1    0    0  501    0  0.00000000000E+00 -0.00000000000E+00 -0.51640295514E+03  0.51640295514E+03  0.00000000000E+00 0. -1.
         25    2    1    2    0    0  0.35512992536E+02  0.37873960430E+02 -0.29957718823E+03  0.32876965311E+03  0.12508950228E+03 0.  0.
         23    2    1    2    0    0 -0.35512992536E+02 -0.37873960430E+02 -0.18898835160E+03  0.21547071734E+03  0.89528897411E+02 0.  0.
          5    1    3    3  502    0 -0.24962084457E+02  0.11246341293E+02 -0.66904212048E+01  0.28492454946E+02  0.41800000000E+01 0. -1.
         -5    1    3    3    0  502  0.60475076993E+02  0.26627619137E+02 -0.29288676702E+03  0.30027719816E+03  0.41800000000E+01 0. -1.
        -11    1    4    4    0    0  0.39630254440E+01 -0.18357575680E+02  0.25341804581E+01  0.18950678777E+02  0.00000000000E+00 0.  1.
         11    1    4    4    0    0 -0.39476017980E+02 -0.19516384750E+02 -0.19152253206E+03  0.19652003856E+03  0.00000000000E+00 0. -1.
</event>
<event>
 8    1  0.6860461E-009  0.1188857E+03  0.7561462E-02  0.1244947E+00
         -1   -1    0    0    0  501 -0.00000000000E+00  0.00000000000E+00  0.13014849830E+02  0.13014849830E+02  0.00000000000E+00 0.  1.
          1   -1    0    0  501    0  0.00000000000E+00 -0.00000000000E+00 -0.16260656092E+04  0.16260656092E+04  0.00000000000E+00 0. -1.
         25    2    1    2    0    0  0.53749858722E+02  0.40514861040E+02 -0.12677820508E+04  0.12757152756E+04  0.12509050671E+03 0.  0.
         23    2    1    2    0    0 -0.53749858722E+02 -0.40514861040E+02 -0.34526870856E+03  0.36336518339E+03  0.91067415202E+02 0.  0.
          5    1    3    3  502    0  0.81910028710E+02  0.95074469757E+01 -0.49925120759E+03  0.50603249405E+03  0.41800000000E+01 0.  1.
         -5    1    3    3    0  502 -0.28160169988E+02  0.31007414065E+02 -0.76853084319E+03  0.76968278157E+03  0.41800000000E+01 0.  1.
        -11    1    4    4    0    0 -0.69284256980E+02 -0.57541599658E+02 -0.26764286151E+03  0.28238988168E+03  0.00000000000E+00 0.  1.
         11    1    4    4    0    0  0.15534398258E+02  0.17026738618E+02 -0.77625847047E+02  0.80975301709E+02  0.00000000000E+00 0. -1.
</event>
<event>
 8    1  0.6860461E-009  0.1003229E+03  0.7561462E-02  0.1279618E+00
          2   -1    0    0  501    0  0.00000000000E+00  0.00000000000E+00  0.68597489818E+02  0.68597489818E+02  0.00000000000E+00 0. -1.
         -2   -1    0    0    0  501 -0.00000000000E+00 -0.00000000000E+00 -0.27687547411E+03  0.27687547411E+03  0.00000000000E+00 0.  1.
         25    2    1    2    0    0  0.12942880025E+02 -0.72830528164E+02 -0.66415898524E+02  0.15978061013E+03  0.12508784042E+03 0.  0.
         23    2    1    2    0    0 -0.12942880025E+02  0.72830528164E+02 -0.14186208576E+03  0.18569235380E+03  0.94260250927E+02 0.  0.
          5    1    3    3  502    0  0.43706194789E+02 -0.63659642978E+02  0.88610168305E+01  0.77838111657E+02  0.41800000000E+01 0.  1.
         -5    1    3    3    0  502 -0.30763314764E+02 -0.91708851856E+01 -0.75276915355E+02  0.81942498471E+02  0.41800000000E+01 0.  1.
        -11    1    4    4    0    0  0.38977232492E+00  0.76977715550E+02 -0.15066155122E+03  0.16918813088E+03  0.00000000000E+00 0.  1.
         11    1    4    4    0    0 -0.13332652350E+02 -0.41471873859E+01  0.87994654543E+01  0.16504222920E+02  0.00000000000E+00 0. -1.
</event>
<event>
 8    1  0.6860461E-009  0.2051155E+03  0.7561462E-02  0.1145493E+00
          1   -1    0    0  501    0  0.00000000000E+00  0.00000000000E+00  0.49782435231E+03  0.49782435231E+03  0.00000000000E+00 0. -1.
         -1   -1    0    0    0  501 -0.00000000000E+00 -0.00000000000E+00 -0.89313100236E+02  0.89313100236E+02  0.00000000000E+00 0.  1.
         25    2    1    2    0    0  0.14366465308E+02 -0.17686559701E+03  0.17333624910E+03  0.27781480930E+03  0.12509107995E+03 0.  0.
         23    2    1    2    0    0 -0.14366465308E+02  0.17686559701E+03  0.23517500297E+03  0.30932264325E+03  0.94262298252E+02 0.  0.
          5    1    3    3  502    0  0.52012805604E+02 -0.30623579917E+02  0.23108159368E+02  0.64765693257E+02  0.41800000000E+01 0. -1.
         -5    1    3    3    0  502 -0.37646340296E+02 -0.14624201709E+03  0.15022808973E+03  0.21304911604E+03  0.41800000000E+01 0. -1.
        -11    1    4    4    0    0 -0.52248788027E+02  0.11088355818E+03  0.16704402218E+03  0.20719267523E+03  0.00000000000E+00 0.  1.
         11    1    4    4    0    0  0.37882322719E+02  0.65982038827E+02  0.68130980795E+02  0.10212996801E+03  0.00000000000E+00 0. -1.
</event>
<event>
 8    1  0.6860461E-009  0.1215760E+03  0.7561462E-02  0.1240520E+00
         -2   -1    0    0    0  501 -0.00000000000E+00  0.00000000000E+00  0.22100552393E+02  0.22100552393E+02  0.00000000000E+00 0.  1.
          2   -1    0    0  501    0  0.00000000000E+00 -0.00000000000E+00 -0.87635984217E+03  0.87635984217E+03  0.00000000000E+00 0. -1.
         25    2    1    2    0    0 -0.13007321132E+02 -0.57241416761E+02 -0.67483344876E+03  0.68883394614E+03  0.12508497749E+03 0.  0.
         23    2    1    2    0    0  0.13007321132E+02  0.57241416761E+02 -0.17942584102E+03  0.20962644842E+03  0.91125436943E+02 0.  0.
          5    1    3    3  502    0 -0.47523953199E+02  0.19071167375E+02 -0.19113981863E+03  0.19792457710E+03  0.41800000000E+01 0. -1.
         -5    1    3    3    0  502  0.34516632067E+02 -0.76312584136E+02 -0.48369363013E+03  0.49090936905E+03  0.41800000000E+01 0. -1.
        -11    1    4    4    0    0 -0.23063073923E+02 -0.14760666739E+02 -0.37317395838E+02  0.46285750437E+02  0.00000000000E+00 0.  1.
         11    1    4    4    0    0  0.36070395054E+02  0.72002083499E+02 -0.14210844518E+03  0.16334069799E+03  0.00000000000E+00 0. -1.
</event>
<event>
 8    1  0.6860461E-009  0.1516011E+03  0.7561462E-02  0.1198519E+00
         -1   -1    0    0    0  501 -0.00000000000E+00  0.00000000000E+00  0.34350646755E+03  0.34350646755E+03  0.00000000000E+00 0.  1.
          1   -1    0    0  501    0  0.00000000000E+00 -0.00000000000E+00 -0.89071555566E+02  0.89071555566E+02  0.00000000000E+00 0. -1.
         25    2    1    2    0    0  0.84079946165E+01 -0.10776733308E+03  0.30502794471E+02  0.16811507772E+03  0.12509103258E+03 0.  0.
         23    2    1    2    0    0 -0.84079946165E+01  0.10776733308E+03  0.22393211751E+03  0.26446294540E+03  0.90058668554E+02 0.  0.
          5    1    3    3  502    0 -0.13797364786E+02  0.25269643380E+02  0.13612381204E+02  0.32119954446E+02  0.41800000000E+01 0.  1.
         -5    1    3    3    0  502  0.22205359403E+02 -0.13303697646E+03  0.16890413266E+02  0.13599512327E+03  0.41800000000E+01 0.  1.
        -11    1    4    4    0    0  0.32725792543E+02  0.87280295848E+02  0.16747220757E+03  0.19166577120E+03  0.00000000000E+00 0.  1.
         11    1    4    4    0    0 -0.41133787159E+02  0.20487037236E+02  0.56459909942E+02  0.72797174199E+02  0.00000000000E+00 0. -1.
</event>
<event>
 8    1  0.6860461E-009  0.1774936E+03  0.7561462E-02  0.1170251E+00
          3   -1    0    0  501    0  0.00000000000E+00  0.00000000000E+00  0.28024269781E+03  0.28024269781E+03  0.00000000000E+00 0. -1.
         -3   -1    0    0    0  501 -0.00000000000E+00 -0.00000000000E+00 -0.12940270599E+03  0.12940270599E+03  0.00000000000E+00 0.  1.
         25    2    1    2    0    0  0.43909661330E+02  0.14977372629E+03  0.90901737681E+02  0.21970589785E+03  0.12508928088E+03 0.  0.
         23    2    1    2    0    0 -0.43909661330E+02 -0.14977372629E+03  0.59938254140E+02  0.18993950595E+03  0.90134311830E+02 0.  0.
          5    1    3    3  502    0 -0.26210194996E+01 -0.21105416607E+02  0.27921408555E+01  0.21853530697E+02  0.41800000000E+01 0. -1.
         -5    1    3    3    0  502  0.46530680830E+02  0.17087914289E+03  0.88109596826E+02  0.19785236715E+03  0.41800000000E+01 0. -1.
        -11    1    4    4    0    0 -0.60224056184E+01 -0.27577020269E+02 -0.23895656505E+02  0.36983291040E+02  0.00000000000E+00 0.  1.
         11    1    4    4    0    0 -0.37887255712E+02 -0.12219670602E+03  0.83833910645E+02  0.15295621491E+03  0.00000000000E+00 0. -1.
</event>
<event>
 8    1  0.6860461E-009  0.1072983E+03  0.7561462E-02  0.1265656E+00
          2   -1    0    0  501    0  0.00000000000E+00  0.00000000000E+00  0.38855578708E+03  0.38855578708E+03  0.00000000000E+00 0. -1.
         -2   -1    0    0    0  501 -0.00000000000E+00 -0.00000000000E+00 -0.56998002894E+02  0.56998002894E+02  0.00000000000E+00 0.  1.
         25    2    1    2    0    0 -0.82090210922E+02  0.32929948252E+02  0.24516296136E+03  0.28909498126E+03  0.12509135200E+03 0.  0.
         23    2    1    2    0    0  0.82090210922E+02 -0.32929948252E+02  0.86394822824E+02  0.15645880871E+03  0.95875487959E+02 0.  0.
          5    1    3    3  502    0 -0.26183231287E+01  0.12366104295E+01 -0.14659323103E+02  0.15516216523E+02  0.41800000000E+01 0.  1.
         -5    1    3    3    0  502 -0.79471887793E+02  0.31693337822E+02  0.25982228446E+03  0.27357876474E+03  0.41800000000E+01 0.  1.
        -11    1    4    4    0    0  0.18900661869E+02  0.29491919736E+02  0.48651800650E+02  0.59950029652E+02  0.00000000000E+00 0. -1.
         11    1    4    4    0    0  0.63189549053E+02 -0.62421867988E+02  0.37743022174E+02  0.96508779059E+02  0.00000000000E+00 0.  1.
</event>
<event>
 8    1  0.6860461E-009  0.1091658E+03  0.7561462E-02  0.1262122E+00
         -1   -1    0    0    0  501 -0.00000000000E+00  0.00000000000E+00  0.27004379454E+03  0.27004379454E+03  0.00000000000E+00 0.  1.
          1   -1    0    0  501    0  0.00000000000E+00 -0.00000000000E+00 -0.50058029046E+02  0.50058029046E+02  0.00000000000E+00 0. -1.
         25    2    1    2    0    0  0.15297731517E+02  0.38940314776E+02  0.12417153150E+03  0.18115003249E+03  0.12508555604E+03 0.  0.
         23    2    1    2    0    0 -0.15297731517E+02 -0.38940314776E+02  0.95814233987E+02  0.13895179110E+03  0.91525210242E+02 0.  0.
          5    1    3    3  502    0 -0.46172144218E+02 -0.15678107947E+01  0.86955594052E+02  0.98554922095E+02  0.41800000000E+01 0.  1.
         -5    1    3    3    0  502  0.61469875735E+02  0.40508125571E+02  0.37215937453E+02  0.82595110392E+02  0.41800000000E+01 0.  1.
        -11    1    4    4    0    0  0.29224030416E+00  0.28747364311E+02  0.15128223796E+02  0.32486297333E+02  0.00000000000E+00 0.  1.
         11    1    4    4    0    0 -0.15589971821E+02 -0.67687679087E+02  0.80686010191E+02  0.10646549376E+03  0.00000000000E+00 0. -1.
</event>
<event>
 8    1  0.6860461E-009  0.8469910E+02  0.7561462E-02  0.1316221E+00
         -1   -1    0    0    0  501 -0.00000000000E+00  0.00000000000E+00  0.57326033478E+03  0.57326033478E+03  0.00000000000E+00 0.  1.
          1   -1    0    0  501    0  0.00000000000E+00 -0.00000000000E+00 -0.22547395200E+02  0.22547395200E+02  0.00000000000E+00 0. -1.
         25    2    1    2    0    0 -0.73318705221E+01 -0.64307780355E+01  0.37325843761E+03  0.39378130057E+03  0.12508693058E+03 0.  0.
         23    2    1    2    0    0  0.73318705221E+01  0.64307780355E+01  0.17745450197E+03  0.20202642941E+03  0.96070113346E+02 0.  0.
          5    1    3    3  502    0 -0.18434898905E+02  0.42605529577E+02  0.30691454560E+03  0.31043370847E+03  0.41800000000E+01 0. -1.
         -5    1    3    3    0  502  0.11103028383E+02 -0.49036307612E+02  0.66343892006E+02  0.83347592107E+02  0.41800000000E+01 0. -1.
        -11    1    4    4    0    0  0.39596325961E+02  0.93503649666E+00  0.26715312724E+02  0.47775006613E+02  0.00000000000E+00 0. -1.
         11    1    4    4    0    0 -0.32264455439E+02  0.54957415388E+01  0.15073918925E+03  0.15425142280E+03  0.00000000000E+00 0.  1.
</event>
<event>
 8    1  0.6860461E-009  0.1234723E+03  0.7561462E-02  0.1237476E+00
          1   -1    0    0  501    0  0.00000000000E+00  0.00000000000E+00  0.71551228881E+03  0.71551228881E+03  0.00000000000E+00 0. -1.
         -1   -1    0    0    0  501 -0.00000000000E+00 -0.00000000000E+00 -0.29760889140E+02  0.29760889140E+02  0.00000000000E+00 0.  1.
         25    2    1    2    0    0 -0.39299981070E+02 -0.88157984922E+02  0.41368521379E+03  0.44283076980E+03  0.12508923119E+03 0.  0.
         23    2    1    2    0    0  0.39299981070E+02  0.88157984922E+02  0.27206618589E+03  0.30244240815E+03  0.90194689018E+02 0.  0.
          5    1    3    3  502    0 -0.22298973946E+02  0.25080566575E+02  0.17284022950E+03  0.17611784802E+03  0.41800000000E+01 0.  1.
         -5    1    3    3    0  502 -0.17001007124E+02 -0.11323855150E+03  0.24084498429E+03  0.26671292178E+03  0.41800000000E+01 0.  1.
        -11    1    4    4    0    0  0.26055014907E+02  0.34273118854E+02  0.22674871595E+03  0.23079967648E+03  0.00000000000E+00 0. -1.
         11    1    4    4    0    0  0.13244966163E+02  0.53884866069E+02  0.45317469937E+02  0.71642731672E+02  0.00000000000E+00 0.  1.
</event>
<event>
 8    1  0.6860461E-009  0.1133528E+03  0.7561462E-02  0.1254484E+00
         -2   -1    0    0    0  501 -0.00000000000E+00  0.00000000000E+00  0.44317949219E+02  0.44317949219E+02  0.00000000000E+00 0.  1.
          2   -1    0    0  501    0  0.00000000000E+00 -0.00000000000E+00 -0.32309102501E+03  0.32309102501E+03  0.00000000000E+00 0. -1.
         25    2    1    2    0    0 -0.14792924405E+02  0.32311743028E+02 -0.21114496517E+03  0.24797839588E+03  0.12509280217E+03 0.  0.
         23    2    1    2    0    0  0.14792924405E+02 -0.32311743028E+02 -0.67628110626E+02  0.11943057835E+03  0.91799903864E+02 0.  0.
          5    1    3    3  502    0 -0.63212659580E+02 -0.11461545013E+02 -0.11252634104E+03  0.12964126339E+03  0.41800000000E+01 0. -1.
         -5    1    3    3    0  502  0.48419735175E+02  0.43773288041E+02 -0.98618624126E+02  0.11833713249E+03  0.41800000000E+01 0. -1.
        -11    1    4    4    0    0 -0.18358586455E+02 -0.54179480969E+02 -0.29446927693E+02  0.64339532212E+02  0.00000000000E+00 0.  1.
         11    1    4    4    0    0  0.33151510860E+02  0.21867737941E+02 -0.38181182933E+02  0.55091046143E+02  0.00000000000E+00 0. -1.
</event>
<event>
 8    1  0.6860461E-009  0.8910197E+02  0.7561462E-02  0.1305041E+00
         -1   -1    0    0    0  501 -0.00000000000E+00  0.00000000000E+00  0.60304020665E+02  0.60304020665E+02  0.00000000000E+00 0.  1.
          1   -1    0    0  501    0  0.00000000000E+00 -0.00000000000E+00 -0.31189325248E+03  0.31189325248E+03  0.00000000000E+00 0. -1.
         25    2    1    2    0    0  0.63581282651E+02  0.15497536369E+02 -0.20973822650E+03  0.25282584615E+03  0.12509209282E+03 0.  0.
         23    2    1    2    0    0 -0.63581282651E+02 -0.15497536369E+02 -0.41851005314E+02  0.11937142700E+03  0.90638169672E+02 0.  0.
          5    1    3    3  502    0  0.78256043711E+02  0.12842218235E+02 -0.53342633425E+02  0.95665249110E+02  0.41800000000E+01 0.  1.
         -5    1    3    3    0  502 -0.14674761060E+02  0.26553181338E+01 -0.15639559308E+03  0.15716059704E+03  0.41800000000E+01 0.  1.
        -11    1    4    4    0    0  0.49215507991E+01  0.92414159213E+01  0.20808394520E+02  0.23294091804E+02  0.00000000000E+00 0.  1.
         11    1    4    4    0    0 -0.68502833450E+02 -0.24738952290E+02 -0.62659399833E+02  0.96077335197E+02  0.00000000000E+00 0. -1.
</event>
<event>
 8    1  0.6860461E-009  0.8300972E+02  0.7561462E-02  0.1320721E+00
          1   -1    0    0  501    0  0.00000000000E+00  0.00000000000E+00  0.41647402988E+03  0.41647402988E+03  0.00000000000E+00 0. -1.
         -1   -1    0    0    0  501 -0.00000000000E+00 -0.00000000000E+00 -0.40041050012E+02  0.40041050012E+02  0.00000000000E+00 0.  1.
         25    2    1    2    0    0  0.35773129335E+02 -0.15116449265E+02  0.30437980528E+03  0.33136568265E+03  0.12509167019E+03 0.  0.
         23    2    1    2    0    0 -0.35773129335E+02  0.15116449265E+02  0.72053174585E+02  0.12514939725E+03  0.94670416933E+02 0.  0.
          5    1    3    3  502    0 -0.11453339460E+02 -0.59054584044E+02  0.97669710375E+02  0.11478443974E+03  0.41800000000E+01 0.  1.
         -5    1    3    3    0  502  0.47226468795E+02  0.43938134779E+02  0.20671009491E+03  0.21658124291E+03  0.41800000000E+01 0.  1.
        -11    1    4    4    0    0 -0.17558071191E+02  0.23782559150E+00 -0.22029423419E+02  0.28171580025E+02  0.00000000000E+00 0.  1.
         11    1    4    4    0    0 -0.18215058144E+02  0.14878623674E+02  0.94082598004E+02  0.96977817220E+02  0.00000000000E+00 0. -1.
</event>
<event>
 8    1  0.6860461E-009  0.1231587E+03  0.7561462E-02  0.1237975E+00
          2   -1    0    0  501    0  0.00000000000E+00  0.00000000000E+00  0.37394044392E+03  0.37394044392E+03  0.00000000000E+00 0. -1.
         -2   -1    0    0    0  501 -0.00000000000E+00 -0.00000000000E+00 -0.71977785623E+02  0.71977785623E+02  0.00000000000E+00 0.  1.
         25    2    1    2    0    0  0.47426015090E+02  0.92489277896E+02  0.74587837969E+02  0.17892453389E+03  0.12508856791E+03 0.  0.
         23    2    1    2    0    0 -0.47426015090E+02 -0.92489277896E+02  0.22737482033E+03  0.26699369565E+03  0.93716760331E+02 0.  0.
          5    1    3    3  502    0  0.75296328698E+02  0.55364238258E+02  0.90016299761E+02  0.12982735696E+03  0.41800000000E+01 0. -1.
         -5    1    3    3    0  502 -0.27870313608E+02  0.37125039638E+02 -0.15428461792E+02  0.49097176925E+02  0.41800000000E+01 0. -1.
        -11    1    4    4    0    0 -0.25118218174E+02 -0.26574777551E+02  0.88026319759E+01  0.37611567580E+02  0.00000000000E+00 0.  1.
         11    1    4    4    0    0 -0.22307796917E+02 -0.65914500345E+02  0.21857218835E+03  0.22938212808E+03  0.00000000000E+00 0. -1.
</event>
<event>
 8    1  0.6860461E-009  0.1305696E+03  0.7561462E-02  0.1226613E+00
          4   -1    0    0  501    0  0.00000000000E+00  0.00000000000E+00  0.39570572162E+03  0.39570572162E+03  0.00000000000E+00 0. -1.
         -4   -1    0    0    0  501 -0.00000000000E+00 -0.00000000000E+00 -0.60390866081E+02  0.60390866081E+02  0.00000000000E+00 0.  1.
         25    2    1    2    0    0 -0.10346644138E+03 -0.37282555544E+02  0.19769689297E+03  0.25850751505E+03  0.12508709129E+03 0.  0.
         23    2    1    2    0    0  0.10346644138E+03  0.37282555544E+02  0.13761796257E+03  0.19758907265E+03  0.89484325840E+02 0.  0.
          5    1    3    3  502    0 -0.22455055631E+01 -0.18372179925E+02 -0.13648857359E+02  0.23373981211E+02  0.41800000000E+01 0. -1.
         -5    1    3    3    0  502 -0.10122093581E+03 -0.18910375618E+02  0.21134575033E+03  0.23513353384E+03  0.41800000000E+01 0. -1.
        -11    1    4    4    0    0 -0.99338443058E+01  0.22693288730E+02  0.11351911638E+02  0.27249449791E+02  0.00000000000E+00 0.  1.
         11    1    4    4    0    0  0.11340028568E+03  0.14589266814E+02  0.12626605093E+03  0.17033962286E+03  0.00000000000E+00 0. -1.
</event>
<event>
 8    1  0.6860461E-009  0.1810032E+03  0.7561462E-02  0.1166836E+00
          2   -1    0    0  501    0  0.00000000000E+00  0.00000000000E+00  0.37231889304E+03  0.37231889304E+03  0.00000000000E+00 0. -1.
         -2   -1    0    0    0  501 -0.00000000000E+00 -0.00000000000E+00 -0.94900571908E+02  0.94900571908E+02  0.00000000000E+00 0.  1.
         25    2    1    2    0    0 -0.13635679268E+03 -0.61154729820E+02  0.18496562421E+03  0.26868917096E+03  0.12509401490E+03 0.  0.
         23    2    1    2    0    0  0.13635679268E+03  0.61154729820E+02  0.92452696918E+02  0.19853029398E+03  0.92378030774E+02 0.  0.
          5    1    3    3  502    0 -0.15515591273E+03 -0.42116446854E+02  0.12775184102E+03  0.20539025691E+03  0.41800000000E+01 0. -1.
         -5    1    3    3    0  502  0.18799120050E+02 -0.19038282966E+02  0.57213783194E+02  0.63298914053E+02  0.41800000000E+01 0. -1.
        -11    1    4    4    0    0  0.10408096307E+03 -0.97801692434E+00  0.68173432899E+02  0.12442435592E+03  0.00000000000E+00 0. -1.
         11    1    4    4    0    0  0.32275829607E+02  0.62132746744E+02  0.24279264018E+02  0.74105938062E+02  0.00000000000E+00 0.  1.
</event>
<event>
 8    1  0.6860461E-009  0.9928128E+02  0.7561462E-02  0.1281815E+00
          2   -1    0    0  501    0  0.00000000000E+00  0.00000000000E+00  0.32310376738E+02  0.32310376738E+02  0.00000000000E+00 0. -1.
         -2   -1    0    0    0  501 -0.00000000000E+00 -0.00000000000E+00 -0.46125535129E+03  0.46125535129E+03  0.00000000000E+00 0.  1.
         25    2    1    2    0    0  0.26499531747E+02 -0.33095571119E+01 -0.34423452959E+03  0.36723375168E+03  0.12510011453E+03 0.  0.
         23    2    1    2    0    0 -0.26499531747E+02  0.33095571119E+01 -0.84710444959E+02  0.12633197635E+03  0.89837244016E+02 0.  0.
          5    1    3    3  502    0  0.66420217399E+02  0.12879366925E+02 -0.29015261311E+03  0.29796566022E+03  0.41800000000E+01 0.  1.
         -5    1    3    3    0  502 -0.39920685652E+02 -0.16188924037E+02 -0.54081916478E+02  0.69268091459E+02  0.41800000000E+01 0.  1.
        -11    1    4    4    0    0  0.93006514202E+01 -0.34319307362E+02 -0.13152475262E+02  0.37911800012E+02  0.00000000000E+00 0. -1.
         11    1    4    4    0    0 -0.35800183167E+02  0.37628864474E+02 -0.71557969697E+02  0.88420176338E+02  0.00000000000E+00 0.  1.
</event>
<event>
 8    1  0.6860461E-009  0.1063766E+03  0.7561462E-02  0.1267431E+00
         -2   -1    0    0    0  501 -0.00000000000E+00  0.00000000000E+00  0.35604101031E+03  0.35604101031E+03  0.00000000000E+00 0. -1.
          2   -1    0    0  501    0  0.00000000000E+00 -0.00000000000E+00 -0.39954179862E+02  0.39954179862E+02  0.00000000000E+00 0.  1.
         25    2    1    2    0    0  0.39088674050E+02 -0.10289279571E+02  0.22153873060E+03  0.25760215167E+03  0.12508263541E+03 0.  0.
         23    2    1    2    0    0 -0.39088674050E+02  0.10289279571E+02  0.94548099849E+02  0.13839303849E+03  0.92625569933E+02 0.  0.
          5    1    3    3  502    0 -0.52648306317E+01 -0.51506854498E+02  0.38197604738E+02  0.64476382573E+02  0.41800000000E+01 0.  1.
         -5    1    3    3    0  502  0.44353504681E+02  0.41217574927E+02  0.18334112586E+03  0.19312576910E+03  0.41800000000E+01 0.  1.
        -11    1    4    4    0    0  0.29268243603E+02  0.12258194023E+02  0.21495251658E+02  0.38326743250E+02  0.00000000000E+00 0.  1.
         11    1    4    4    0    0 -0.68356917652E+02 -0.19689144517E+01  0.73052848191E+02  0.10006629524E+03  0.00000000000E+00 0. -1.
</event>
<event>
 8    1  0.6860461E-009  0.9716031E+02  0.7561462E-02  0.1286383E+00
         -1   -1    0    0    0  501 -0.00000000000E+00  0.00000000000E+00  0.23545916591E+03  0.23545916591E+03  0.00000000000E+00 0.  1.
          1   -1    0    0  501    0  0.00000000000E+00 -0.00000000000E+00 -0.50869430267E+02  0.50869430267E+02  0.00000000000E+00 0. -1.
         25    2    1    2    0    0  0.26023479965E+01 -0.50713069052E+00  0.86363558437E+02  0.15202972688E+03  0.12508934500E+03 0.  0.
         23    2    1    2    0    0 -0.26023479965E+01  0.50713069052E+00  0.98226177202E+02  0.13429886929E+03  0.91546572894E+02 0.  0.
          5    1    3    3  502    0  0.43490097795E+02  0.30381702446E+02  0.85379857448E+02  0.10060630650E+03  0.41800000000E+01 0.  1.
         -5    1    3    3    0  502 -0.40887749798E+02 -0.30888833136E+02  0.98370098837E+00  0.51423420381E+02  0.41800000000E+01 0.  1.
        -11    1    4    4    0    0 -0.39742807794E+02  0.23343640152E+02  0.64002371844E+02  0.78871540549E+02  0.00000000000E+00 0. -1.
         11    1    4    4    0    0  0.37140459797E+02 -0.22836509462E+02  0.34223805358E+02  0.55427328743E+02  0.00000000000E+00 0.  1.
</event>
<event>
 8    1  0.6860461E-009  0.9346463E+02  0.7561462E-02  0.1294672E+00
         -2   -1    0    0    0  501 -0.00000000000E+00  0.00000000000E+00  0.37699317141E+03  0.37699317141E+03  0.00000000000E+00 0.  1.
          2   -1    0    0  501    0  0.00000000000E+00 -0.00000000000E+00 -0.32652374756E+02  0.32652374756E+02  0.00000000000E+00 0. -1.
         25    2    1    2    0    0  0.14289170329E+01  0.32570424575E+02  0.22249402736E+03  0.25732158365E+03  0.12509168973E+03 0.  0.
         23    2    1    2    0    0 -0.14289170329E+01 -0.32570424575E+02  0.12184676930E+03  0.15232396252E+03  0.85399531666E+02 0.  0.
          5    1    3    3  502    0 -0.56981690976E+02  0.93284411877E+01  0.15265448377E+03  0.16326296805E+03  0.41800000000E+01 0. -1.
         -5    1    3    3    0  502  0.58410608009E+02  0.23241983387E+02  0.69839543592E+02  0.94058615602E+02  0.41800000000E+01 0. -1.
        -11    1    4    4    0    0  0.26877636954E+02 -0.67311921166E+01  0.10811926920E+03  0.11161313851E+03  0.00000000000E+00 0.  1.
         11    1    4    4    0    0 -0.28306553987E+02 -0.25839232458E+02  0.13727500095E+02  0.40710824009E+02  0.00000000000E+00 0. -1.
</event>
<event>
 8    1  0.6860461E-009  0.1270172E+03  0.7561462E-02  0.1231950E+00
         -2   -1    0    0    0  501 -0.00000000000E+00  0.00000000000E+00  0.19465541374E+02  0.19465541374E+02  0.00000000000E+00 0.  1.
          2   -1    0    0  501    0  0.00000000000E+00 -0.00000000000E+00 -0.10944333755E+04  0.10944333755E+04  0.00000000000E+00 0. -1.
         25    2    1    2    0    0  0.94025047260E+02  0.33202892981E+02 -0.68723994953E+03  0.70561320503E+03  0.12509238694E+03 0.  0.
         23    2    1    2    0    0 -0.94025047260E+02 -0.33202892981E+02 -0.38772788461E+03  0.40828571185E+03  0.80132193198E+02 0.  0.
          5    1    3    3  502    0  0.15796244631E+02 -0.25265417755E+02 -0.41964513380E+03  0.42072244224E+03  0.41800000000E+01 0.  1.
         -5    1    3    3    0  502  0.78228802629E+02  0.58468310737E+02 -0.26759481573E+03  0.28489076280E+03  0.41800000000E+01 0.  1.
        -11    1    4    4    0    0 -0.10154399465E+03 -0.45899659390E+02 -0.36031453113E+03  0.37715318230E+03  0.00000000000E+00 0. -1.
         11    1    4    4    0    0  0.75189473882E+01  0.12696766408E+02 -0.27413353480E+02  0.31132529549E+02  0.00000000000E+00 0.  1.
</event>
<event>
 8    1  0.6860461E-009  0.1187866E+03  0.7561462E-02  0.1245112E+00
          1   -1    0    0  501    0  0.00000000000E+00  0.00000000000E+00  0.13419627196E+03  0.13419627196E+03  0.00000000000E+00 0. -1.
         -1   -1    0    0    0  501 -0.00000000000E+00 -0.00000000000E+00 -0.13570399257E+03  0.13570399257E+03  0.00000000000E+00 0.  1.
         25    2    1    2    0    0 -0.70023518247E+02 -0.18016457512E+02  0.33318337071E+02  0.14826366669E+03  0.12507644633E+03 0.  0.
         23    2    1    2    0    0  0.70023518247E+02  0.18016457512E+02 -0.34826057683E+02  0.12163659783E+03  0.91404167244E+02 0.  0.
          5    1    3    3  502    0  0.30513168546E+02 -0.17494209025E+02  0.31840943687E+02  0.47627921422E+02  0.41800000000E+01 0.  1.
         -5    1    3    3    0  502 -0.10053668679E+03 -0.52224848704E+00  0.14773933837E+01  0.10063574527E+03  0.41800000000E+01 0.  1.
        -11    1    4    4    0    0  0.16138485850E+02  0.40151932192E+02  0.14151386363E+02  0.45529003067E+02  0.00000000000E+00 0. -1.
         11    1    4    4    0    0  0.53885032397E+02 -0.22135474680E+02 -0.48977444046E+02  0.76107594766E+02  0.00000000000E+00 0.  1.
</event>
<event>
 8    1  0.6860461E-009  0.1301474E+03  0.7561462E-02  0.1227237E+00
          1   -1    0    0  501    0  0.00000000000E+00  0.00000000000E+00  0.16405794212E+03  0.16405794212E+03  0.00000000000E+00 0. -1.
         -1   -1    0    0    0  501 -0.00000000000E+00 -0.00000000000E+00 -0.16315165298E+03  0.16315165298E+03  0.00000000000E+00 0.  1.
         25    2    1    2    0    0  0.61433779512E+02  0.94378413668E+02  0.44485299959E+02  0.17409413042E+03  0.12509368530E+03 0.  0.
         23    2    1    2    0    0 -0.61433779512E+02 -0.94378413668E+02 -0.43579010819E+02  0.15311546468E+03  0.94147868322E+02 0.  0.
          5    1    3    3  502    0  0.35102750855E+02  0.43028056322E+02  0.86299817894E+02  0.10270709672E+03  0.41800000000E+01 0.  1.
         -5    1    3    3    0  502  0.26331028657E+02  0.51350357345E+02 -0.41814517935E+02  0.71387033695E+02  0.41800000000E+01 0.  1.
        -11    1    4    4    0    0  0.16949198684E+02 -0.57831416475E+02 -0.16268129138E+02  0.62421151008E+02  0.00000000000E+00 0. -1.
         11    1    4    4    0    0 -0.78382978197E+02 -0.36546997193E+02 -0.27310881681E+02  0.90694313675E+02  0.00000000000E+00 0.  1.
</event>
<event>
 8    1  0.6860461E-009  0.9099450E+02  0.7561462E-02  0.1300461E+00
          2   -1    0    0  501    0  0.00000000000E+00  0.00000000000E+00  0.34031359647E+03  0.34031359647E+03  0.00000000000E+00 0. -1.
         -2   -1    0    0    0  501 -0.00000000000E+00 -0.00000000000E+00 -0.38791628352E+02  0.38791628352E+02  0.00000000000E+00 0.  1.
         25    2    1    2    0    0 -0.17883964933E+02 -0.28486086473E+02  0.20978919193E+03  0.24655555465E+03  0.12508734210E+03 0.  0.
         23    2    1    2    0    0  0.17883964933E+02  0.28486086473E+02  0.91732776181E+02  0.13254967017E+03  0.89572426062E+02 0.  0.
          5    1    3    3  502    0  0.50440236536E+00  0.27665092282E+02  0.17630757630E+03  0.17851455295E+03  0.41800000000E+01 0.  1.
         -5    1    3    3    0  502 -0.18388367298E+02 -0.56151178756E+02  0.33481615628E+02  0.68041001702E+02  0.41800000000E+01 0.  1.
        -11    1    4    4    0    0  0.46549877940E+02  0.42348187576E+02  0.69238051911E+02  0.93563710699E+02  0.00000000000E+00 0. -1.
         11    1    4    4    0    0 -0.28665913008E+02 -0.13862101103E+02  0.22494724270E+02  0.38985959466E+02  0.00000000000E+00 0.  1.
</event>
<event>
 8    1  0.6860461E-009  0.7581775E+02  0.7561462E-02  0.1341357E+00
         -2   -1    0    0    0  501 -0.00000000000E+00  0.00000000000E+00  0.23653390095E+03  0.23653390095E+03  0.00000000000E+00 0.  1.
          2   -1    0    0  501    0  0.00000000000E+00 -0.00000000000E+00 -0.69879480934E+02  0.69879480934E+02  0.00000000000E+00 0. -1.
         25    2    1    2    0    0  0.32475674526E+02  0.54112071265E+02  0.58597672781E+02  0.15186024640E+03  0.12508022021E+03 0.  0.
         23    2    1    2    0    0 -0.32475674526E+02 -0.54112071265E+02  0.10805674724E+03  0.15455313549E+03  0.90706258731E+02 0.  0.
          5    1    3    3  502    0  0.35857902083E+01  0.31436542634E+02 -0.37297071978E+02  0.49088268276E+02  0.41800000000E+01 0. -1.
         -5    1    3    3    0  502  0.28889884318E+02  0.22675528632E+02  0.95894744759E+02  0.10277197812E+03  0.41800000000E+01 0. -1.
        -11    1    4    4    0    0  0.60836918562E+01 -0.41857292663E+02  0.10590152973E+03  0.11403586390E+03  0.00000000000E+00 0.  1.
         11    1    4    4    0    0 -0.38559366383E+02 -0.12254778602E+02  0.21552175046E+01  0.40517271588E+02  0.00000000000E+00 0. -1.
</event>
<event>
 8    1  0.6860461E-009  0.8456056E+02  0.7561462E-02  0.1316586E+00
          2   -1    0    0  501    0  0.00000000000E+00  0.00000000000E+00  0.30439656934E+03  0.30439656934E+03  0.00000000000E+00 0. -1.
         -2   -1    0    0    0  501 -0.00000000000E+00 -0.00000000000E+00 -0.49308670282E+02  0.49308670282E+02  0.00000000000E+00 0.  1.
         25    2    1    2    0    0 -0.48137926539E+02 -0.39035694524E+02  0.13221285631E+03  0.19227911350E+03  0.12509985090E+03 0.  0.
         23    2    1    2    0    0  0.48137926539E+02  0.39035694524E+02  0.12287504274E+03  0.16142612612E+03  0.84374597172E+02 0.  0.
          5    1    3    3  502    0 -0.25236107930E+02 -0.41355842206E+02  0.15327237722E+03  0.16080130859E+03  0.41800000000E+01 0.  1.
         -5    1    3    3    0  502 -0.22901818609E+02  0.23201476816E+01 -0.21059520903E+02  0.31477804903E+02  0.41800000000E+01 0.  1.
        -11    1    4    4    0    0 -0.63322740350E+01 -0.17488582834E+02  0.40856421981E+01  0.19043127268E+02  0.00000000000E+00 0.  1.
         11    1    4    4    0    0  0.54470200574E+02  0.56524277358E+02  0.11878940054E+03  0.14238299885E+03  0.00000000000E+00 0. -1.
</event>
<event>
 8    1  0.6860461E-009  0.2566932E+03  0.7561462E-02  0.1109146E+00
          2   -1    0    0  501    0  0.00000000000E+00  0.00000000000E+00  0.15188247114E+03  0.15188247114E+03  0.00000000000E+00 0.  1.
         -2   -1    0    0    0  501 -0.00000000000E+00 -0.00000000000E+00 -0.50554862435E+03  0.50554862435E+03  0.00000000000E+00 0. -1.
         25    2    1    2    0    0 -0.16343877557E+03  0.19529414962E+03 -0.18477300698E+03  0.33858633778E+03  0.12509039047E+03 0.  0.
         23    2    1    2    0    0  0.16343877557E+03 -0.19529414962E+03 -0.16889314623E+03  0.31884475771E+03  0.91022230496E+02 0.  0.
          5    1    3    3  502    0 -0.76359030318E+02  0.59732475595E+02 -0.50348357613E+01  0.97167340825E+02  0.41800000000E+01 0.  1.
         -5    1    3    3    0  502 -0.87079745250E+02  0.13556167402E+03 -0.17973817122E+03  0.24141899695E+03  0.41800000000E+01 0.  1.
        -11    1    4    4    0    0  0.11825701418E+03 -0.12961721168E+03 -0.63272922880E+02  0.18651757487E+03  0.00000000000E+00 0.  1.
         11    1    4    4    0    0  0.45181761391E+02 -0.65676937942E+02 -0.10562022335E+03  0.13232718285E+03  0.00000000000E+00 0. -1.
</event>
<event>
 8    1  0.6860461E-009  0.7412202E+02  0.7561462E-02  0.1346612E+00
         -3   -1    0    0    0  501 -0.00000000000E+00  0.00000000000E+00  0.10652537806E+03  0.10652537806E+03  0.00000000000E+00 0.  1.
          3   -1    0    0  501    0  0.00000000000E+00 -0.00000000000E+00 -0.13097695147E+03  0.13097695147E+03  0.00000000000E+00 0. -1.
         25    2    1    2    0    0 -0.91576791906E+01  0.37917916348E+02 -0.37663387158E+02  0.13633795125E+03  0.12509146554E+03 0.  0.
         23    2    1    2    0    0  0.91576791906E+01 -0.37917916348E+02  0.13211813742E+02  0.10116437827E+03  0.92401558109E+02 0.  0.
          5    1    3    3  502    0  0.16037018305E+02  0.10983765279E+02  0.43093839851E+02  0.47459250826E+02  0.41800000000E+01 0.  1.
         -5    1    3    3    0  502 -0.25194697496E+02  0.26934151069E+02 -0.80757227009E+02  0.88878700429E+02  0.41800000000E+01 0.  1.
        -11    1    4    4    0    0 -0.45433205482E+01  0.25735420189E+02  0.23620907980E+02  0.35226423431E+02  0.00000000000E+00 0. -1.
         11    1    4    4    0    0  0.13700999739E+02 -0.63653336537E+02 -0.10409094239E+02  0.65937954844E+02  0.00000000000E+00 0.  1.
</event>
<event>
 8    1  0.6860461E-009  0.1360973E+03  0.7561462E-02  0.1218679E+00
          2   -1    0    0  501    0  0.00000000000E+00  0.00000000000E+00  0.29520477062E+03  0.29520477062E+03  0.00000000000E+00 0.  1.
         -2   -1    0    0    0  501 -0.00000000000E+00 -0.00000000000E+00 -0.33063218158E+03  0.33063218158E+03  0.00000000000E+00 0. -1.
         25    2    1    2    0    0  0.80407438723E+02  0.51614147426E+02 -0.29507122178E+03  0.33443102111E+03  0.12509078920E+03 0.  0.
         23    2    1    2    0    0 -0.80407438723E+02 -0.51614147426E+02  0.25964381082E+03  0.29140593108E+03  0.91504818209E+02 0.  0.
          5    1    3    3  502    0 -0.16458246636E+02 -0.22833842489E+02 -0.24586170554E+02  0.37605989253E+02  0.41800000000E+01 0. -1.
         -5    1    3    3    0  502  0.96865685358E+02  0.74447989915E+02 -0.27048505123E+03  0.29682503186E+03  0.41800000000E+01 0. -1.
        -11    1    4    4    0    0  0.14790453072E+02 -0.70962415614E+01  0.92681573215E+02  0.94122198019E+02  0.00000000000E+00 0.  1.
         11    1    4    4    0    0 -0.95197891794E+02 -0.44517905865E+02  0.16696223761E+03  0.19728373306E+03  0.00000000000E+00 0. -1.
</event>
<event>
 8    1  0.6860461E-009  0.2283356E+03  0.7561462E-02  0.1127817E+00
          1   -1    0    0  501    0  0.00000000000E+00  0.00000000000E+00  0.61704336679E+03  0.61704336679E+03  0.00000000000E+00 0. -1.
         -1   -1    0    0    0  501 -0.00000000000E+00 -0.00000000000E+00 -0.90528536820E+02  0.90528536820E+02  0.00000000000E+00 0.  1.
         25    2    1    2    0    0  0.46742053967E+02 -0.20293211521E+03  0.23870385741E+03  0.34057767433E+03  0.12508939890E+03 0.  0.
         23    2    1    2    0    0 -0.46742053967E+02  0.20293211521E+03  0.28781097256E+03  0.36699422928E+03  0.92105078062E+02 0.  0.
          5    1    3    3  502    0 -0.34839781311E+02 -0.65810270088E+02  0.12147245323E+03  0.14254063036E+03  0.41800000000E+01 0. -1.
         -5    1    3    3    0  502  0.81581835278E+02 -0.13712184512E+03  0.11723140418E+03  0.19803704397E+03  0.41800000000E+01 0. -1.
        -11    1    4    4    0    0 -0.58721431228E+02  0.81460519228E+02  0.16944892618E+03  0.19696944246E+03  0.00000000000E+00 0. -1.
         11    1    4    4    0    0  0.11979377262E+02  0.12147159598E+03  0.11836204638E+03  0.17002478682E+03  0.00000000000E+00 0.  1.
</event>
<event>
 8    1  0.6860461E-009  0.9315678E+02  0.7561462E-02  0.1295382E+00
          2   -1    0    0  501    0  0.00000000000E+00  0.00000000000E+00  0.78160134043E+03  0.78160134043E+03  0.00000000000E+00 0. -1.
         -2   -1    0    0    0  501 -0.00000000000E+00 -0.00000000000E+00 -0.17513600049E+02  0.17513600049E+02  0.00000000000E+00 0.  1.
         25    2    1    2    0    0 -0.37461995340E+02 -0.13194787324E+02  0.43824175806E+03  0.45747398659E+03  0.12509638840E+03 0.  0.
         23    2    1    2    0    0  0.37461995340E+02  0.13194787324E+02  0.32584598232E+03  0.34164095389E+03  0.94685974004E+02 0.  0.
          5    1    3    3  502    0  0.13382644376E+02  0.22811246027E+02  0.34009530520E+03  0.34114767644E+03  0.41800000000E+01 0.  1.
         -5    1    3    3    0  502 -0.50844639716E+02 -0.36006033351E+02  0.98146452860E+02  0.11632631016E+03  0.41800000000E+01 0.  1.
        -11    1    4    4    0    0 -0.52180965974E+01  0.44095743620E+02  0.95106142729E+02  0.10496114292E+03  0.00000000000E+00 0.  1.
         11    1    4    4    0    0  0.42680091937E+02 -0.30900956296E+02  0.23073983959E+03  0.23667981097E+03  0.00000000000E+00 0. -1.
</event>
<event>
 8    1  0.6860461E-009  0.1485125E+03  0.7561462E-02  0.1202313E+00
         -1   -1    0    0    0  501 -0.00000000000E+00  0.00000000000E+00  0.34095349229E+02  0.34095349229E+02  0.00000000000E+00 0.  1.
          1   -1    0    0  501    0  0.00000000000E+00 -0.00000000000E+00 -0.71220544718E+03  0.71220544718E+03  0.00000000000E+00 0. -1.
         25    2    1    2    0    0 -0.80862318748E+02  0.59593000771E+02 -0.25211552619E+03  0.29882703923E+03  0.12508125555E+03 0.  0.
         23    2    1    2    0    0  0.80862318748E+02 -0.59593000771E+02 -0.42599457175E+03  0.44747375718E+03  0.93120072308E+02 0.  0.
          5    1    3    3  502    0 -0.10084891055E+03  0.82030989476E+02 -0.20620308144E+03  0.24379657337E+03  0.41800000000E+01 0.  1.
         -5    1    3    3    0  502  0.19986591798E+02 -0.22437988705E+02 -0.45912444759E+02  0.55030465858E+02  0.41800000000E+01 0.  1.
        -11    1    4    4    0    0  0.10040065069E+03 -0.60214752784E+02 -0.35302551377E+03  0.37193160727E+03  0.00000000000E+00 0. -1.
         11    1    4    4    0    0 -0.19538331938E+02  0.62175201359E+00 -0.72969057980E+02  0.75542149910E+02  0.00000000000E+00 0.  1.
</event>
<event>
 8    1  0.6860461E-009  0.1909261E+03  0.7561462E-02  0.1157629E+00
         -2   -1    0    0    0  501 -0.00000000000E+00  0.00000000000E+00  0.32800042384E+02  0.32800042384E+02  0.00000000000E+00 0.  1.
          2   -1    0    0  501    0  0.00000000000E+00 -0.00000000000E+00 -0.14026197901E+04  0.14026197901E+04  0.00000000000E+00 0. -1.
         25    2    1    2    0    0  0.17214987921E+03  0.41783293080E+02 -0.53513674937E+03  0.57740782509E+03  0.12508809476E+03 0.  0.
         23    2    1    2    0    0 -0.17214987921E+03 -0.41783293080E+02 -0.83468299830E+03  0.85801200735E+03  0.90041504949E+02 0.  0.
          5    1    3    3  502    0  0.12483501525E+03  0.55759787197E+02 -0.49535300985E+03  0.51389202336E+03  0.41800000000E+01 0.  1.
         -5    1    3    3    0  502  0.47314863959E+02 -0.13976494117E+02 -0.39783739520E+02  0.63515801730E+02  0.41800000000E+01 0.  1.
        -11    1    4    4    0    0 -0.39728183065E+02  0.25309291994E+02 -0.27348935361E+03  0.27751633345E+03  0.00000000000E+00 0. -1.
         11    1    4    4    0    0 -0.13242169615E+03 -0.67092585074E+02 -0.56119364469E+03  0.58049567391E+03  0.00000000000E+00 0.  1.
</event>
<event>
 8    1  0.6860461E-009  0.1724252E+03  0.7561462E-02  0.1175342E+00
          2   -1    0    0  501    0  0.00000000000E+00  0.00000000000E+00  0.28481839276E+03  0.28481839276E+03  0.00000000000E+00 0.  1.
         -2   -1    0    0    0  501 -0.00000000000E+00 -0.00000000000E+00 -0.14379962301E+03  0.14379962301E+03  0.00000000000E+00 0. -1.
         25    2    1    2    0    0  0.14984921990E+03  0.79960849669E+01 -0.10979206869E+02  0.19567224434E+03  0.12509339768E+03 0.  0.
         23    2    1    2    0    0 -0.14984921990E+03 -0.79960849669E+01  0.15199797663E+03  0.23294577143E+03  0.92960321909E+02 0.  0.
          5    1    3    3  502    0  0.15761908992E+03  0.30621907244E+02  0.13504377652E+02  0.16118721824E+03  0.41800000000E+01 0.  1.
         -5    1    3    3    0  502 -0.77698700208E+01 -0.22625822277E+02 -0.24483584521E+02  0.34485026096E+02  0.41800000000E+01 0.  1.
        -11    1    4    4    0    0 -0.62190071415E+02  0.23954998178E+02  0.16886232363E+02  0.68750212827E+02  0.00000000000E+00 0. -1.
         11    1    4    4    0    0 -0.87659148482E+02 -0.31951083145E+02  0.13511174426E+03  0.16419555860E+03  0.00000000000E+00 0.  1.
</event>
<event>
 8    1  0.6860461E-009  0.1741766E+03  0.7561462E-02  0.1173561E+00
         -1   -1    0    0    0  501 -0.00000000000E+00  0.00000000000E+00  0.19147422656E+03  0.19147422656E+03  0.00000000000E+00 0.  1.
          1   -1    0    0  501    0  0.00000000000E+00 -0.00000000000E+00 -0.22580553550E+03  0.22580553550E+03  0.00000000000E+00 0. -1.
         25    2    1    2    0    0  0.10101326998E+03 -0.12005762550E+03  0.67456302835E+02  0.21169699432E+03  0.12509096873E+03 0.  0.
         23    2    1    2    0    0 -0.10101326998E+03  0.12005762550E+03 -0.10178761178E+03  0.20558276774E+03  0.85358317270E+02 0.  0.
          5    1    3    3  502    0  0.86863971996E+02 -0.12865190624E+03  0.14391350411E+02  0.15595270429E+03  0.41800000000E+01 0. -1.
         -5    1    3    3    0  502  0.14149297983E+02  0.85942807366E+01  0.53064952425E+02  0.55744290027E+02  0.41800000000E+01 0. -1.
        -11    1    4    4    0    0  0.60636337720E+01  0.44570178186E+02 -0.11356257730E+02  0.46392165585E+02  0.00000000000E+00 0.  1.
         11    1    4    4    0    0 -0.10707690375E+03  0.75487447313E+02 -0.90431354052E+02  0.15919060216E+03  0.00000000000E+00 0. -1.
</event>
<event>
 8    1  0.6860461E-009  0.2520824E+03  0.7561462E-02  0.1111996E+00
         -2   -1    0    0    0  501 -0.00000000000E+00  0.00000000000E+00  0.56900125134E+02  0.56900125134E+02  0.00000000000E+00 0.  1.
          2   -1    0    0  501    0  0.00000000000E+00 -0.00000000000E+00 -0.14525751641E+04  0.14525751641E+04  0.00000000000E+00 0. -1.
         25    2    1    2    0    0  0.81015242534E+02  0.23683933509E+03 -0.94994732342E+03  0.99030488552E+03  0.12509000301E+03 0.  0.
         23    2    1    2    0    0 -0.81015242534E+02 -0.23683933509E+03 -0.44572771555E+03  0.51917040371E+03  0.90600063525E+02 0.  0.
          5    1    3    3  502    0  0.51747951071E+02  0.14328530002E+03 -0.34103081829E+03  0.37353449515E+03  0.41800000000E+01 0.  1.
         -5    1    3    3    0  502  0.29267291463E+02  0.93554035075E+02 -0.60891650512E+03  0.61677039037E+03  0.41800000000E+01 0.  1.
        -11    1    4    4    0    0 -0.58781303295E+02 -0.10850849841E+03 -0.13865933492E+03  0.18562259293E+03  0.00000000000E+00 0.  1.
         11    1    4    4    0    0 -0.22233939239E+02 -0.12833083669E+03 -0.30706838063E+03  0.33354781078E+03  0.00000000000E+00 0. -1.
</event>
<event>
 8    1  0.6860461E-009  0.1479073E+03  0.7561462E-02  0.1203068E+00
          1   -1    0    0  501    0  0.00000000000E+00  0.00000000000E+00  0.34777891417E+03  0.34777891417E+03  0.00000000000E+00 0. -1.
         -1   -1    0    0    0  501 -0.00000000000E+00 -0.00000000000E+00 -0.73323319626E+02  0.73323319626E+02  0.00000000000E+00 0.  1.
         25    2    1    2    0    0  0.72631795953E+02 -0.81672933801E+02  0.20201136705E+03  0.26153561239E+03  0.12508572352E+03 0.  0.
         23    2    1    2    0    0 -0.72631795953E+02  0.81672933801E+02  0.72444227493E+02  0.15956662141E+03  0.90925764627E+02 0.  0.
          5    1    3    3  502    0 -0.32001869240E+02 -0.31232412611E+02  0.87594505844E+02  0.98437051390E+02  0.41800000000E+01 0.  1.
         -5    1    3    3    0  502  0.10463366519E+03 -0.50440521190E+02  0.11441686121E+03  0.16309856100E+03  0.41800000000E+01 0.  1.
        -11    1    4    4    0    0 -0.60320325565E+02  0.90306243806E+01  0.76872173846E+01  0.61475093852E+02  0.00000000000E+00 0.  1.
         11    1    4    4    0    0 -0.12311470388E+02  0.72642309420E+02  0.64757010109E+02  0.98091527561E+02  0.00000000000E+00 0. -1.
</event>
<event>
 8    1  0.6860461E-009  0.1295685E+03  0.7561462E-02  0.1228097E+00
          1   -1    0    0  501    0  0.00000000000E+00  0.00000000000E+00  0.89444358750E+03  0.89444358750E+03  0.00000000000E+00 0. -1.
         -1   -1    0    0    0  501 -0.00000000000E+00 -0.00000000000E+00 -0.28209548274E+02  0.28209548274E+02  0.00000000000E+00 0.  1.
         25    2    1    2    0    0 -0.84489653362E+02 -0.61754185996E+02  0.60653790983E+03  0.62808343191E+03  0.12509388621E+03 0.  0.
         23    2    1    2    0    0  0.84489653362E+02  0.61754185996E+02  0.25969612940E+03  0.29456970387E+03  0.91526770936E+02 0.  0.
          5    1    3    3  502    0 -0.11234223836E+03 -0.43036033065E+02  0.36869343912E+03  0.38784688102E+03  0.41800000000E+01 0. -1.
         -5    1    3    3    0  502  0.27852584997E+02 -0.18718152931E+02  0.23784447071E+03  0.24023655089E+03  0.41800000000E+01 0. -1.
        -11    1    4    4    0    0  0.37051771285E+02  0.31912060664E+02  0.28332440236E+02  0.56514958559E+02  0.00000000000E+00 0.  1.
         11    1    4    4    0    0  0.47437882077E+02  0.29842125332E+02  0.23136368916E+03  0.23805474531E+03  0.00000000000E+00 0. -1.
</event>
<event>
 8    1  0.6860461E-009  0.1406916E+03  0.7561462E-02  0.1212401E+00
          3   -1    0    0  501    0  0.00000000000E+00  0.00000000000E+00  0.33348465974E+03  0.33348465974E+03  0.00000000000E+00 0. -1.
         -3   -1    0    0    0  501 -0.00000000000E+00 -0.00000000000E+00 -0.73817825847E+02  0.73817825847E+02  0.00000000000E+00 0.  1.
         25    2    1    2    0    0 -0.37666682138E+02 -0.10639979081E+03  0.14063406205E+03  0.21946587668E+03  0.12509051599E+03 0.  0.
         23    2    1    2    0    0  0.37666682138E+02  0.10639979081E+03  0.11903277184E+03  0.18783660890E+03  0.91510089308E+02 0.  0.
          5    1    3    3  502    0 -0.26094716409E+00  0.20609749589E+02  0.61876251025E+02  0.65352679459E+02  0.41800000000E+01 0. -1.
         -5    1    3    3    0  502 -0.37405734974E+02 -0.12700954040E+03  0.78757811028E+02  0.15411319722E+03  0.41800000000E+01 0. -1.
        -11    1    4    4    0    0 -0.16107420459E+02  0.34723886521E+02 -0.70354518231E+00  0.38284360577E+02  0.00000000000E+00 0.  1.
         11    1    4    4    0    0  0.53774102597E+02  0.71675904288E+02  0.11973631702E+03  0.14955224833E+03  0.00000000000E+00 0. -1.
</event>
<event>
 8    1  0.6860461E-009  0.1040273E+03  0.7561462E-02  0.1272048E+00
          4   -1    0    0  501    0  0.00000000000E+00  0.00000000000E+00  0.70444137513E+02  0.70444137513E+02  0.00000000000E+00 0.  1.
         -4   -1    0    0    0  501 -0.00000000000E+00 -0.00000000000E+00 -0.26355372035E+03  0.26355372035E+03  0.00000000000E+00 0. -1.
         25    2    1    2    0    0  0.65696654672E+02  0.30215103409E+02 -0.59623234636E+02  0.15630359380E+03  0.12508749104E+03 0.  0.
         23    2    1    2    0    0 -0.65696654672E+02 -0.30215103409E+02 -0.13348634820E+03  0.17769426407E+03  0.92345240360E+02 0.  0.
          5    1    3    3  502    0  0.36061269500E+02  0.50453397604E+02  0.22881989230E+02  0.66234570421E+02  0.41800000000E+01 0.  1.
         -5    1    3    3    0  502  0.29635385173E+02 -0.20238294196E+02 -0.82505223866E+02  0.90069023374E+02  0.41800000000E+01 0.  1.
        -11    1    4    4    0    0 -0.35698182536E+02  0.27273335855E+02 -0.25288112024E+02  0.51552727327E+02  0.00000000000E+00 0.  1.
         11    1    4    4    0    0 -0.29998472137E+02 -0.57488439264E+02 -0.10819823618E+03  0.12614153674E+03  0.00000000000E+00 0. -1.
</event>
<event>
 8    1  0.6860461E-009  0.1160567E+03  0.7561462E-02  0.1249748E+00
          2   -1    0    0  501    0  0.00000000000E+00  0.00000000000E+00  0.90946531422E+03  0.90946531422E+03  0.00000000000E+00 0. -1.
         -2   -1    0    0    0  501 -0.00000000000E+00 -0.00000000000E+00 -0.23093243018E+02  0.23093243018E+02  0.00000000000E+00 0.  1.
         25    2    1    2    0    0 -0.48344033332E+02  0.17890972200E+01  0.74378398646E+03  0.75577948971E+03  0.12509065563E+03 0.  0.
         23    2    1    2    0    0  0.48344033332E+02 -0.17890972200E+01  0.14258808474E+03  0.17677906753E+03  0.92623595147E+02 0.  0.
          5    1    3    3  502    0 -0.87601313675E+02  0.64992910293E+01  0.39130588465E+03  0.40106607773E+03  0.41800000000E+01 0.  1.
         -5    1    3    3    0  502  0.39257280343E+02 -0.47101938094E+01  0.35247810181E+03  0.35471341198E+03  0.41800000000E+01 0.  1.
        -11    1    4    4    0    0  0.50574357278E+02  0.38811844178E+02  0.90482514955E+02  0.11068518589E+03  0.00000000000E+00 0.  1.
         11    1    4    4    0    0 -0.22303239466E+01 -0.40600941398E+02  0.52105569789E+02  0.66093881641E+02  0.00000000000E+00 0. -1.
</event>
<event>
 8    1  0.6860461E-009  0.1388833E+03  0.7561462E-02  0.1214839E+00
          4   -1    0    0  501    0  0.00000000000E+00  0.00000000000E+00  0.41778047814E+03  0.41778047814E+03  0.00000000000E+00 0. -1.
         -4   -1    0    0    0  501 -0.00000000000E+00 -0.00000000000E+00 -0.54729239536E+02  0.54729239536E+02  0.00000000000E+00 0.  1.
         25    2    1    2    0    0 -0.57269044085E+02  0.82032222659E+02  0.24938400804E+03  0.29639476773E+03  0.12509374849E+03 0.  0.
         23    2    1    2    0    0  0.57269044085E+02 -0.82032222659E+02  0.11366723056E+03  0.17611494994E+03  0.89928901491E+02 0.  0.
          5    1    3    3  502    0 -0.83323832925E+02  0.37463160613E+02  0.21654950168E+03  0.23506915709E+03  0.41800000000E+01 0. -1.
         -5    1    3    3    0  502  0.26054788840E+02  0.44569062046E+02  0.32834506356E+02  0.61325610643E+02  0.41800000000E+01 0. -1.
        -11    1    4    4    0    0 -0.24170780504E+02 -0.11439384179E+02  0.23177549741E+02  0.35387638414E+02  0.00000000000E+00 0. -1.
         11    1    4    4    0    0  0.81439824589E+02 -0.70592838480E+02  0.90489680822E+02  0.14072731152E+03  0.00000000000E+00 0.  1.
</event>
<event>
 8    1  0.6860461E-009  0.1005793E+03  0.7561462E-02  0.1279083E+00
         -1   -1    0    0    0  501 -0.00000000000E+00  0.00000000000E+00  0.31183214347E+02  0.31183214347E+02  0.00000000000E+00 0.  1.
          1   -1    0    0  501    0  0.00000000000E+00 -0.00000000000E+00 -0.69887726972E+03  0.69887726972E+03  0.00000000000E+00 0. -1.
         25    2    1    2    0    0 -0.60605150226E+02  0.78239515374E+02 -0.38798353788E+03  0.41949122923E+03  0.12508900725E+03 0.  0.
         23    2    1    2    0    0  0.60605150226E+02 -0.78239515374E+02 -0.27971051749E+03  0.31056925484E+03  0.91765366316E+02 0.  0.
          5    1    3    3  502    0 -0.83209260214E+01  0.22013135105E+02 -0.30659114713E+03  0.30752141361E+03  0.41800000000E+01 0. -1.
         -5    1    3    3    0  502 -0.52284224204E+02  0.56226380269E+02 -0.81392390750E+02  0.11196981562E+03  0.41800000000E+01 0. -1.
        -11    1    4    4    0    0  0.27980740900E+02 -0.49620117807E+02 -0.25360509884E+03  0.25992426610E+03  0.00000000000E+00 0. -1.
         11    1    4    4    0    0  0.32624409326E+02 -0.28619397567E+02 -0.26105418655E+02  0.50644988737E+02  0.00000000000E+00 0.  1.
</event>
<event>
 8    1  0.6860461E-009  0.1382849E+03  0.7561462E-02  0.1215656E+00
          1   -1    0    0  501    0  0.00000000000E+00  0.00000000000E+00  0.18189835347E+03  0.18189835347E+03  0.00000000000E+00 0. -1.
         -1   -1    0    0    0  501 -0.00000000000E+00 -0.00000000000E+00 -0.11204293200E+03  0.11204293200E+03  0.00000000000E+00 0.  1.
         25    2    1    2    0    0  0.10304687540E+02  0.90546230624E+02  0.14145847510E+02  0.15540889598E+03  0.12508802294E+03 0.  0.
         23    2    1    2    0    0 -0.10304687540E+02 -0.90546230624E+02  0.55709573959E+02  0.13853238948E+03  0.88220518246E+02 0.  0.
          5    1    3    3  502    0 -0.47800509164E+02  0.63394812841E+01 -0.11720126166E+02  0.49798709387E+02  0.41800000000E+01 0. -1.
         -5    1    3    3    0  502  0.58105196704E+02  0.84206749340E+02  0.25865973675E+02  0.10561018659E+03  0.41800000000E+01 0. -1.
        -11    1    4    4    0    0 -0.48491510517E+02 -0.43147995099E+02  0.37670471613E+02  0.75048254509E+02  0.00000000000E+00 0. -1.
         11    1    4    4    0    0  0.38186822977E+02 -0.47398235525E+02  0.18039102345E+02  0.63484134974E+02  0.00000000000E+00 0.  1.
</event>
<event>
 8    1  0.6860461E-009  0.1266463E+03  0.7561462E-02  0.1232519E+00
         -2   -1    0    0    0  501 -0.00000000000E+00  0.00000000000E+00  0.14623751247E+03  0.14623751247E+03  0.00000000000E+00 0.  1.
          2   -1    0    0  501    0  0.00000000000E+00 -0.00000000000E+00 -0.11466141706E+03  0.11466141706E+03  0.00000000000E+00 0. -1.
         25    2    1    2    0    0  0.13152851950E+02  0.68780402336E+02  0.25969972296E+02  0.14569101569E+03  0.12509073240E+03 0.  0.
         23    2    1    2    0    0 -0.13152851950E+02 -0.68780402336E+02  0.56061231078E+01  0.11520791384E+03  0.91310971603E+02 0.  0.
          5    1    3    3  502    0  0.60248435538E+02  0.53650205604E+01  0.27497787103E+02  0.66575206541E+02  0.41800000000E+01 0. -1.
         -5    1    3    3    0  502 -0.47095583588E+02  0.63415381776E+02 -0.15278148071E+01  0.79115809149E+02  0.41800000000E+01 0. -1.
        -11    1    4    4    0    0  0.29849347768E+02  0.28797515356E+01  0.97488160286E+01  0.31532775727E+02  0.00000000000E+00 0. -1.
         11    1    4    4    0    0 -0.43002199718E+02 -0.71660153872E+02 -0.41426929207E+01  0.83675138113E+02  0.00000000000E+00 0.  1.
</event>
<event>
 8    1  0.6860461E-009  0.1012569E+03  0.7561462E-02  0.1277675E+00
          1   -1    0    0  501    0  0.00000000000E+00  0.00000000000E+00  0.21017960255E+03  0.21017960255E+03  0.00000000000E+00 0. -1.
         -1   -1    0    0    0  501 -0.00000000000E+00 -0.00000000000E+00 -0.68216867090E+02  0.68216867090E+02  0.00000000000E+00 0.  1.
         25    2    1    2    0    0  0.13040890796E+01 -0.36593565055E+02  0.12430150656E+03  0.18010606032E+03  0.12508612544E+03 0.  0.
         23    2    1    2    0    0 -0.13040890796E+01  0.36593565055E+02  0.17661228892E+02  0.98290409316E+02  0.89489082606E+02 0.  0.
          5    1    3    3  502    0  0.59695411896E+02  0.25775846336E+01  0.56741475141E+02  0.82506081867E+02  0.41800000000E+01 0. -1.
         -5    1    3    3    0  502 -0.58391322816E+02 -0.39171149689E+02  0.67560031423E+02  0.97599978453E+02  0.41800000000E+01 0. -1.
        -11    1    4    4    0    0 -0.24985083879E+02  0.41076062635E+02  0.42144461122E+02  0.63934755347E+02  0.00000000000E+00 0. -1.
         11    1    4    4    0    0  0.23680994800E+02 -0.44824975795E+01 -0.24483232229E+02  0.34355653969E+02  0.00000000000E+00 0.  1.
</event>
<event>
 8    1  0.6860461E-009  0.1552426E+03  0.7561462E-02  0.1194175E+00
         -2   -1    0    0    0  501 -0.00000000000E+00  0.00000000000E+00  0.42656961695E+02  0.42656961695E+02  0.00000000000E+00 0.  1.
          2   -1    0    0  501    0  0.00000000000E+00 -0.00000000000E+00 -0.83217651646E+03  0.83217651646E+03  0.00000000000E+00 0. -1.
         25    2    1    2    0    0  0.12528107620E+03 -0.85671311550E+02 -0.45977570854E+03  0.50007541840E+03  0.12508717058E+03 0.  0.
         23    2    1    2    0    0 -0.12528107620E+03  0.85671311550E+02 -0.32974384622E+03  0.37475805976E+03  0.93154052802E+02 0.  0.
          5    1    3    3  502    0  0.10756101129E+03 -0.50297170800E+02 -0.43978317509E+03  0.45555009607E+03  0.41800000000E+01 0.  1.
         -5    1    3    3    0  502  0.17720064916E+02 -0.35374140751E+02 -0.19992533454E+02  0.44525322328E+02  0.41800000000E+01 0.  1.
        -11    1    4    4    0    0 -0.41694915758E+02  0.25175821195E+02 -0.21498764606E+03  0.22043587714E+03  0.00000000000E+00 0. -1.
         11    1    4    4    0    0 -0.83586160447E+02  0.60495490355E+02 -0.11475620017E+03  0.15432218262E+03  0.00000000000E+00 0.  1.
</event>
<event>
 8    1  0.6860461E-009  0.1637703E+03  0.7561462E-02  0.1184505E+00
          2   -1    0    0  501    0  0.00000000000E+00  0.00000000000E+00  0.84825543951E+03  0.84825543951E+03  0.00000000000E+00 0. -1.
         -2   -1    0    0    0  501 -0.00000000000E+00 -0.00000000000E+00 -0.33471769851E+02  0.33471769851E+02  0.00000000000E+00 0.  1.
         25    2    1    2    0    0  0.81697025619E+02  0.97748550578E+02  0.39459818198E+03  0.43311150386E+03  0.12509462985E+03 0.  0.
         23    2    1    2    0    0 -0.81697025619E+02 -0.97748550578E+02  0.42018548768E+03  0.44861570550E+03  0.92038166173E+02 0.  0.
          5    1    3    3  502    0  0.11276981982E+03  0.55500088697E+02  0.28681484894E+03  0.31317330998E+03  0.41800000000E+01 0. -1.
         -5    1    3    3    0  502 -0.31072794204E+02  0.42248461881E+02  0.10778333304E+03  0.11993819389E+03  0.41800000000E+01 0. -1.
        -11    1    4    4    0    0  0.89394005849E+00  0.11880770033E+02  0.84565697633E+01  0.14610455077E+02  0.00000000000E+00 0. -1.
         11    1    4    4    0    0 -0.82590965678E+02 -0.10962932061E+03  0.41172891791E+03  0.43400525042E+03  0.00000000000E+00 0.  1.
</event>
<event>
 8    1  0.6860461E-009  0.1259324E+03  0.7561462E-02  0.1233619E+00
         -1   -1    0    0    0  501 -0.00000000000E+00  0.00000000000E+00  0.43545109071E+03  0.43545109071E+03  0.00000000000E+00 0.  1.
          1   -1    0    0  501    0  0.00000000000E+00 -0.00000000000E+00 -0.54613515117E+02  0.54613515117E+02  0.00000000000E+00 0. -1.
         25    2    1    2    0    0  0.86690934972E+02 -0.65149551755E+02  0.22729294729E+03  0.28119330120E+03  0.12509119255E+03 0.  0.
         23    2    1    2    0    0 -0.86690934972E+02  0.65149551755E+02  0.15354462831E+03  0.20887130463E+03  0.91057601084E+02 0.  0.
          5    1    3    3  502    0  0.87016571445E+02 -0.78952487821E+02  0.10372334119E+03  0.15678451119E+03  0.41800000000E+01 0.  1.
         -5    1    3    3    0  502 -0.32563647291E+00  0.13802936067E+02  0.12356960609E+03  0.12440879002E+03  0.41800000000E+01 0.  1.
        -11    1    4    4    0    0 -0.90200316100E+02  0.47635123442E+02  0.16010770838E+03  0.18984119756E+03  0.00000000000E+00 0.  1.
         11    1    4    4    0    0  0.35093811282E+01  0.17514428313E+02 -0.65630800685E+01  0.19030107068E+02  0.00000000000E+00 0. -1.
</event>
<event>
 8    1  0.6860461E-009  0.1265757E+03  0.7561462E-02  0.1232627E+00
         -2   -1    0    0    0  501 -0.00000000000E+00  0.00000000000E+00  0.11094255431E+03  0.11094255431E+03  0.00000000000E+00 0. -1.
          2   -1    0    0  501    0  0.00000000000E+00 -0.00000000000E+00 -0.21419815519E+03  0.21419815519E+03  0.00000000000E+00 0.  1.
         25    2    1    2    0    0 -0.53272047826E+02 -0.85596495478E+02 -0.12060407161E+02  0.16111131523E+03  0.12508689522E+03 0.  0.
         23    2    1    2    0    0  0.53272047826E+02  0.85596495478E+02 -0.91195193715E+02  0.16402939427E+03  0.91784572295E+02 0.  0.
          5    1    3    3  502    0 -0.37979495303E+02 -0.92478025207E+02  0.38857260440E+02  0.10734051564E+03  0.41800000000E+01 0.  1.
         -5    1    3    3    0  502 -0.15292552523E+02  0.68815297294E+01 -0.50917667601E+02  0.53770799585E+02  0.41800000000E+01 0.  1.
        -11    1    4    4    0    0  0.42572822497E+02 -0.65229055315E+01 -0.35801576585E+02  0.56006663870E+02  0.00000000000E+00 0.  1.
         11    1    4    4    0    0  0.10699225329E+02  0.92119401009E+02 -0.55393617130E+02  0.10802273040E+03  0.00000000000E+00 0. -1.
</event>
<event>
 8    1  0.6860461E-009  0.9384957E+02  0.7561462E-02  0.1293788E+00
         -1   -1    0    0    0  501 -0.00000000000E+00  0.00000000000E+00  0.39248341168E+02  0.39248341168E+02  0.00000000000E+00 0.  1.
          1   -1    0    0  501    0  0.00000000000E+00 -0.00000000000E+00 -0.35618822944E+03  0.35618822944E+03  0.00000000000E+00 0. -1.
         25    2    1    2    0    0 -0.66343171276E+01  0.51009236798E+02 -0.19108762499E+03  0.23411125257E+03  0.12509053422E+03 0.  0.
         23    2    1    2    0    0  0.66343171276E+01 -0.51009236798E+02 -0.12585226328E+03  0.16132531804E+03  0.86839562789E+02 0.  0.
          5    1    3    3  502    0 -0.34229134151E+02  0.11424411679E+01  0.16591521522E+00  0.34502735028E+02  0.41800000000E+01 0.  1.
         -5    1    3    3    0  502  0.27594817023E+02  0.49866795631E+02 -0.19125354021E+03  0.19960851754E+03  0.41800000000E+01 0.  1.
        -11    1    4    4    0    0  0.28656906736E+02 -0.64252329893E+02 -0.67199656348E+02  0.97290153734E+02  0.00000000000E+00 0.  1.
         11    1    4    4    0    0 -0.22022589609E+02  0.13243093094E+02 -0.58652606928E+02  0.64035164302E+02  0.00000000000E+00 0. -1.
</event>
<event>
 8    1  0.6860461E-009  0.1449426E+03  0.7561462E-02  0.1206829E+00
         -2   -1    0    0    0  501 -0.00000000000E+00  0.00000000000E+00  0.28646901003E+02  0.28646901003E+02  0.00000000000E+00 0.  1.
          2   -1    0    0  501    0  0.00000000000E+00 -0.00000000000E+00 -0.90281535685E+03  0.90281535685E+03  0.00000000000E+00 0. -1.
         25    2    1    2    0    0  0.90670306058E+02  0.55694472221E+02 -0.31776972510E+03  0.35769885316E+03  0.12509153739E+03 0.  0.
         23    2    1    2    0    0 -0.90670306058E+02 -0.55694472221E+02 -0.55639873074E+03  0.57376340469E+03  0.91114863487E+02 0.  0.
          5    1    3    3  502    0  0.62904260245E+02  0.90122108312E+02 -0.27436629872E+03  0.29558971335E+03  0.41800000000E+01 0. -1.
         -5    1    3    3    0  502  0.27766045813E+02 -0.34427636091E+02 -0.43403426378E+02  0.62109139813E+02  0.41800000000E+01 0. -1.
        -11    1    4    4    0    0 -0.71764619085E+01 -0.51370826275E+02 -0.14613208874E+03  0.15506466637E+03  0.00000000000E+00 0.  1.
         11    1    4    4    0    0 -0.83493844150E+02 -0.43236459458E+01 -0.41026664201E+03  0.41869873832E+03  0.00000000000E+00 0. -1.
</event>
<event>
 8    1  0.6860461E-009  0.1441704E+03  0.7561462E-02  0.1207825E+00
          1   -1    0    0  501    0  0.00000000000E+00  0.00000000000E+00  0.19228909039E+02  0.19228909039E+02  0.00000000000E+00 0.  1.
         -1   -1    0    0    0  501 -0.00000000000E+00 -0.00000000000E+00 -0.15889495442E+04  0.15889495442E+04  0.00000000000E+00 0. -1.
         25    2    1    2    0    0  0.15240758223E+02  0.11290294083E+03 -0.11824338323E+04  0.11944774712E+04  0.12508919441E+03 0.  0.
         23    2    1    2    0    0 -0.15240758223E+02 -0.11290294083E+03 -0.38728680284E+03  0.41370098207E+03  0.90432738275E+02 0.  0.
          5    1    3    3  502    0 -0.14770935531E+02  0.12497483958E+03 -0.72260577629E+03  0.73349401592E+03  0.41800000000E+01 0. -1.
         -5    1    3    3    0  502  0.30011693753E+02 -0.12071898748E+02 -0.45982805602E+03  0.46098345524E+03  0.41800000000E+01 0. -1.
        -11    1    4    4    0    0  0.20994483156E+02 -0.16131953189E+02 -0.23095914160E+02  0.35134448730E+02  0.00000000000E+00 0.  1.
         11    1    4    4    0    0 -0.36235241379E+02 -0.96770987639E+02 -0.36419088869E+03  0.37856653334E+03  0.00000000000E+00 0. -1.
</event>
<event>
 8    1  0.6860461E-009  0.1085734E+03  0.7561462E-02  0.1263235E+00
          1   -1    0    0  501    0  0.00000000000E+00  0.00000000000E+00  0.10028740570E+03  0.10028740570E+03  0.00000000000E+00 0. -1.
         -1   -1    0    0    0  501 -0.00000000000E+00 -0.00000000000E+00 -0.22246009981E+03  0.22246009981E+03  0.00000000000E+00 0.  1.
         25    2    1    2    0    0 -0.36503962871E+02  0.88355748719E+02 -0.10336364392E+03  0.18833679403E+03  0.12508967768E+03 0.  0.
         23    2    1    2    0    0  0.36503962871E+02 -0.88355748719E+02 -0.18809050191E+02  0.13441071148E+03  0.92591475601E+02 0.  0.
          5    1    3    3  502    0  0.52125315060E+01  0.40173130156E+02  0.22984205849E+02  0.46763201235E+02  0.41800000000E+01 0. -1.
         -5    1    3    3    0  502 -0.41716494377E+02  0.48182618564E+02 -0.12634784977E+03  0.14157359279E+03  0.41800000000E+01 0. -1.
        -11    1    4    4    0    0 -0.77879678150E+01 -0.58779802131E+02  0.26062884091E+02  0.64768754106E+02  0.00000000000E+00 0. -1.
         11    1    4    4    0    0  0.44291930686E+02 -0.29575946588E+02 -0.44871934282E+02  0.69641957373E+02  0.00000000000E+00 0.  1.
</event>
<event>
 8    1  0.6860461E-009  0.1070506E+03  0.7561462E-02  0.1266131E+00
          2   -1    0    0  501    0  0.00000000000E+00  0.00000000000E+00  0.71730916227E+03  0.71730916227E+03  0.00000000000E+00 0. -1.
         -2   -1    0    0    0  501 -0.00000000000E+00 -0.00000000000E+00 -0.19200038788E+02  0.19200038788E+02  0.00000000000E+00 0.  1.
         25    2    1    2    0    0 -0.17146063389E+02 -0.14432830511E+02  0.51290538833E+03  0.52841638608E+03  0.12509854360E+03 0.  0.
         23    2    1    2    0    0  0.17146063389E+02  0.14432830511E+02  0.18520373515E+03  0.20809281498E+03  0.92194913338E+02 0.  0.
          5    1    3    3  502    0 -0.67071069468E+02  0.14097336859E+02  0.24955486912E+03  0.25882883990E+03  0.41800000000E+01 0.  1.
         -5    1    3    3    0  502  0.49925006079E+02 -0.28530167370E+02  0.26335051922E+03  0.26958754618E+03  0.41800000000E+01 0.  1.
        -11    1    4    4    0    0 -0.26748197852E+02 -0.18828717220E+02  0.34039616256E+02  0.47208920294E+02  0.00000000000E+00 0.  1.
         11    1    4    4    0    0  0.43894261242E+02  0.33261547731E+02  0.15116411889E+03  0.16088389468E+03  0.00000000000E+00 0. -1.
</event>
<event>
 8    1  0.6860461E-009  0.1058252E+03  0.7561462E-02  0.1268502E+00
         -2   -1    0    0    0  501 -0.00000000000E+00  0.00000000000E+00  0.67805523982E+02  0.67805523982E+02  0.00000000000E+00 0. -1.
          2   -1    0    0  501    0  0.00000000000E+00 -0.00000000000E+00 -0.17798884902E+03  0.17798884902E+03  0.00000000000E+00 0.  1.
         25    2    1    2    0    0  0.11673322590E+02 -0.11145739436E+02 -0.54323633769E+02  0.13732966734E+03  0.12509151202E+03 0.  0.
         23    2    1    2    0    0 -0.11673322590E+02  0.11145739436E+02 -0.55859691273E+02  0.10846470566E+03  0.91563056402E+02 0.  0.
          5    1    3    3  502    0 -0.39591353596E+02 -0.46762311669E+02 -0.14289263205E+02  0.63054298150E+02  0.41800000000E+01 0.  1.
         -5    1    3    3    0  502  0.51264676186E+02  0.35616572233E+02 -0.40034370564E+02  0.74275369192E+02  0.41800000000E+01 0.  1.
        -11    1    4    4    0    0  0.25233451551E+02  0.35427941525E+02 -0.96869965576E+01  0.44561238988E+02  0.00000000000E+00 0.  1.
         11    1    4    4    0    0 -0.36906774141E+02 -0.24282202088E+02 -0.46172694716E+02  0.63903466675E+02  0.00000000000E+00 0. -1.
</event>
<event>
 8    1  0.6860461E-009  0.1081577E+03  0.7561462E-02  0.1264020E+00
         -2   -1    0    0    0  501 -0.00000000000E+00  0.00000000000E+00  0.78431498213E+02  0.78431498213E+02  0.00000000000E+00 0.  1.
          2   -1    0    0  501    0  0.00000000000E+00 -0.00000000000E+00 -0.25321529900E+03  0.25321529900E+03  0.00000000000E+00 0. -1.
         25    2    1    2    0    0  0.60959849633E+02 -0.33093852820E+02 -0.16116928301E+03  0.21548433495E+03  0.12508658785E+03 0.  0.
         23    2    1    2    0    0 -0.60959849633E+02  0.33093852820E+02 -0.13614517779E+02  0.11616246227E+03  0.92179478105E+02 0.  0.
          5    1    3    3  502    0  0.34195627756E+02 -0.68904129536E+02 -0.41144135703E+02  0.87335172339E+02  0.41800000000E+01 0. -1.
         -5    1    3    3    0  502  0.26764221877E+02  0.35810276716E+02 -0.12002514731E+03  0.12814916261E+03  0.41800000000E+01 0. -1.
        -11    1    4    4    0    0 -0.12064162203E+01  0.34584317589E+02 -0.38189114990E+02  0.51535802768E+02  0.00000000000E+00 0. -1.
         11    1    4    4    0    0 -0.59753433413E+02 -0.14904647682E+01  0.24574597212E+02  0.64626659499E+02  0.00000000000E+00 0.  1.
</event>
<event>
 8    1  0.6860461E-009  0.1197794E+03  0.7561462E-02  0.1243461E+00
         -1   -1    0    0    0  501 -0.00000000000E+00  0.00000000000E+00  0.63598364698E+02  0.63598364698E+02  0.00000000000E+00 0.  1.
          1   -1    0    0  501    0  0.00000000000E+00 -0.00000000000E+00 -0.36436181632E+03  0.36436181632E+03  0.00000000000E+00 0. -1.
         25    2    1    2    0    0  0.10437147363E+03 -0.25034723136E+02 -0.17159309520E+03  0.23793562769E+03  0.12509608599E+03 0.  0.
         23    2    1    2    0    0 -0.10437147363E+03  0.25034723136E+02 -0.12917035642E+03  0.19002455333E+03  0.88905612984E+02 0.  0.
          5    1    3    3  502    0  0.49038359497E+02  0.26098000877E+02 -0.60860850283E+01  0.56039086207E+02  0.41800000000E+01 0. -1.
         -5    1    3    3    0  502  0.55333114137E+02 -0.51132724013E+02 -0.16550701018E+03  0.18189654148E+03  0.41800000000E+01 0. -1.
        -11    1    4    4    0    0 -0.23080024968E+02 -0.80682158249E+00  0.11279095456E+02  0.25701293895E+02  0.00000000000E+00 0.  1.
         11    1    4    4    0    0 -0.81291448667E+02  0.25841544718E+02 -0.14044945187E+03  0.16432325943E+03  0.00000000000E+00 0. -1.
</event>
<event>
 8    1  0.6860461E-009  0.1207041E+03  0.7561462E-02  0.1241940E+00
         -1   -1    0    0    0  501 -0.00000000000E+00  0.00000000000E+00  0.19234468305E+03  0.19234468305E+03  0.00000000000E+00 0.  1.
          1   -1    0    0  501    0  0.00000000000E+00 -0.00000000000E+00 -0.15330475265E+03  0.15330475265E+03  0.00000000000E+00 0. -1.
         25    2    1    2    0    0 -0.97298964823E+01  0.89161609434E+02 -0.77107281334E+02  0.17215668011E+03  0.12509167114E+03 0.  0.
         23    2    1    2    0    0  0.97298964823E+01 -0.89161609434E+02  0.11614721174E+03  0.17349275560E+03  0.92547814496E+02 0.  0.
          5    1    3    3  502    0  0.44847933707E+02  0.45734904438E+02 -0.79578501923E+02  0.10224103389E+03  0.41800000000E+01 0.  1.
         -5    1    3    3    0  502 -0.54577830189E+02  0.43426704997E+02  0.24712205893E+01  0.69915646219E+02  0.41800000000E+01 0.  1.
        -11    1    4    4    0    0 -0.21364632797E+02 -0.63600397591E+02  0.21195250292E+02  0.70361187762E+02  0.00000000000E+00 0. -1.
         11    1    4    4    0    0  0.31094529279E+02 -0.25561211843E+02  0.94951961444E+02  0.10313156784E+03  0.00000000000E+00 0.  1.
</event>
<event>
 8    1  0.6860461E-009  0.1120437E+03  0.7561462E-02  0.1256831E+00
          2   -1    0    0  501    0  0.00000000000E+00  0.00000000000E+00  0.70804379474E+02  0.70804379474E+02  0.00000000000E+00 0. -1.
         -2   -1    0    0    0  501 -0.00000000000E+00 -0.00000000000E+00 -0.26764772759E+03  0.26764772759E+03  0.00000000000E+00 0.  1.
         25    2    1    2    0    0  0.29458727465E+02  0.77101210179E+02 -0.11214774239E+03  0.18718199075E+03  0.12509024064E+03 0.  0.
         23    2    1    2    0    0 -0.29458727465E+02 -0.77101210179E+02 -0.84695605723E+02  0.15127011631E+03  0.94323322799E+02 0.  0.
          5    1    3    3  502    0  0.31494278002E+02  0.10681289062E+03 -0.11069695336E+03  0.15707377577E+03  0.41800000000E+01 0. -1.
         -5    1    3    3    0  502 -0.20355505363E+01 -0.29711680443E+02 -0.14507890250E+01  0.30108214984E+02  0.41800000000E+01 0. -1.
        -11    1    4    4    0    0 -0.16365488215E+02 -0.46331000007E+02 -0.10229306420E+03  0.11348242925E+03  0.00000000000E+00 0.  1.
         11    1    4    4    0    0 -0.13093239250E+02 -0.30770210172E+02  0.17597458475E+02  0.37787687054E+02  0.00000000000E+00 0. -1.
</event>
<event>
 8    1  0.6860461E-009  0.1003933E+03  0.7561462E-02  0.1279471E+00
         -1   -1    0    0    0  501 -0.00000000000E+00  0.00000000000E+00  0.20083559163E+03  0.20083559163E+03  0.00000000000E+00 0.  1.
          1   -1    0    0  501    0  0.00000000000E+00 -0.00000000000E+00 -0.12661298884E+03  0.12661298884E+03  0.00000000000E+00 0. -1.
         25    2    1    2    0    0  0.14237786466E+02  0.71597180066E+02  0.13347923683E+03  0.19696037614E+03  0.12509121612E+03 0.  0.
         23    2    1    2    0    0 -0.14237786466E+02 -0.71597180066E+02 -0.59256634038E+02  0.13048820432E+03  0.90481777348E+02 0.  0.
          5    1    3    3  502    0  0.30481914290E+02  0.36943480977E+02 -0.93976554402E+01  0.48987306655E+02  0.41800000000E+01 0.  1.
         -5    1    3    3    0  502 -0.16244127824E+02  0.34653699088E+02  0.14287689227E+03  0.14797306949E+03  0.41800000000E+01 0.  1.
        -11    1    4    4    0    0 -0.10427262116E+02  0.19988443985E+02 -0.25199332460E+01  0.22685143855E+02  0.00000000000E+00 0.  1.
         11    1    4    4    0    0 -0.38105243496E+01 -0.91585624051E+02 -0.56736700792E+02  0.10780306046E+03  0.00000000000E+00 0. -1.
</event>
<event>
 8    1  0.6860461E-009  0.1608971E+03  0.7561462E-02  0.1187688E+00
         -2   -1    0    0    0  501 -0.00000000000E+00  0.00000000000E+00  0.34271371309E+02  0.34271371309E+02  0.00000000000E+00 0.  1.
          2   -1    0    0  501    0  0.00000000000E+00 -0.00000000000E+00 -0.96412849821E+03  0.96412849821E+03  0.00000000000E+00 0. -1.
         25    2    1    2    0    0  0.14321369296E+03 -0.25651738788E+02 -0.48651266166E+03  0.52298112899E+03  0.12508604147E+03 0.  0.
         23    2    1    2    0    0 -0.14321369296E+03  0.25651738788E+02 -0.44334446524E+03  0.47541874053E+03  0.91107027331E+02 0.  0.
          5    1    3    3  502    0  0.73155319121E+01 -0.22487950322E+02 -0.76847235557E+01  0.25214128837E+02  0.41800000000E+01 0. -1.
         -5    1    3    3    0  502  0.13589816105E+03 -0.31637884652E+01 -0.47882793811E+03  0.49776700016E+03  0.41800000000E+01 0. -1.
        -11    1    4    4    0    0 -0.90341620573E+02 -0.19302351700E+02 -0.17085899760E+03  0.19423435909E+03  0.00000000000E+00 0.  1.
         11    1    4    4    0    0 -0.52872072390E+02  0.44954090487E+02 -0.27248546764E+03  0.28118438144E+03  0.00000000000E+00 0. -1.
</event>
<event>
 8    1  0.6860461E-009  0.1055948E+03  0.7561462E-02  0.1268952E+00
          1   -1    0    0  501    0  0.00000000000E+00  0.00000000000E+00  0.15855379195E+03  0.15855379195E+03  0.00000000000E+00 0. -1.
         -1   -1    0    0    0  501 -0.00000000000E+00 -0.00000000000E+00 -0.16094593081E+03  0.16094593081E+03  0.00000000000E+00 0.  1.
         25    2    1    2    0    0  0.21696268223E+02 -0.10058498562E+03 -0.56404014292E+02  0.17150964961E+03  0.12508429035E+03 0.  0.
         23    2    1    2    0    0 -0.21696268223E+02  0.10058498562E+03  0.54011875433E+02  0.14799007315E+03  0.91628116197E+02 0.  0.
          5    1    3    3  502    0 -0.43439995289E+01 -0.28491323161E+02 -0.84798893236E+02  0.89660194744E+02  0.41800000000E+01 0. -1.
         -5    1    3    3    0  502  0.26040267752E+02 -0.72093662459E+02  0.28394878945E+02  0.81849454864E+02  0.41800000000E+01 0. -1.
        -11    1    4    4    0    0 -0.22753618027E+02  0.52671341955E+02 -0.19185829742E+02  0.60498706263E+02  0.00000000000E+00 0.  1.
         11    1    4    4    0    0  0.10573498033E+01  0.47913643665E+02  0.73197705174E+02  0.87491366892E+02  0.00000000000E+00 0. -1.
</event>
<event>
 8    1  0.6860461E-009  0.6270155E+02  0.7561462E-02  0.1386832E+00
         -2   -1    0    0    0  501 -0.00000000000E+00  0.00000000000E+00  0.40988907945E+02  0.40988907945E+02  0.00000000000E+00 0.  1.
          2   -1    0    0  501    0  0.00000000000E+00 -0.00000000000E+00 -0.31399793974E+03  0.31399793974E+03  0.00000000000E+00 0. -1.
         25    2    1    2    0    0  0.26517110096E+02 -0.12255936191E+02 -0.14390584146E+03  0.19289776360E+03  0.12508913180E+03 0.  0.
         23    2    1    2    0    0 -0.26517110096E+02  0.12255936191E+02 -0.12910319034E+03  0.16208908409E+03  0.93551442144E+02 0.  0.
          5    1    3    3  502    0  0.28310896178E+02 -0.10676874950E+02 -0.16676388613E+03  0.16953810373E+03  0.41800000000E+01 0.  1.
         -5    1    3    3    0  502 -0.17937860826E+01 -0.15790612412E+01  0.22858044666E+02  0.23359659862E+02  0.41800000000E+01 0.  1.
        -11    1    4    4    0    0 -0.12395538666E+01  0.47033663228E+02 -0.98978009969E+02  0.10959173522E+03  0.00000000000E+00 0. -1.
         11    1    4    4    0    0 -0.25277556229E+02 -0.34777727037E+02 -0.30125180367E+02  0.52497348875E+02  0.00000000000E+00 0.  1.
</event>
<event>
 8    1  0.6860461E-009  0.1413411E+03  0.7561462E-02  0.1211536E+00
          2   -1    0    0  501    0  0.00000000000E+00  0.00000000000E+00  0.64327179497E+03  0.64327179497E+03  0.00000000000E+00 0. -1.
         -2   -1    0    0    0  501 -0.00000000000E+00 -0.00000000000E+00 -0.35688701620E+02  0.35688701620E+02  0.00000000000E+00 0.  1.
         25    2    1    2    0    0  0.33778449615E+02 -0.10027193698E+03  0.27943409553E+03  0.32392291263E+03  0.12508874681E+03 0.  0.
         23    2    1    2    0    0 -0.33778449615E+02  0.10027193698E+03  0.32814899782E+03  0.35503758396E+03  0.84702280073E+02 0.  0.
          5    1    3    3  502    0  0.45101393315E+02  0.77182503055E+01  0.39742513108E+02  0.60750693946E+02  0.41800000000E+01 0. -1.
         -5    1    3    3    0  502 -0.11322943700E+02 -0.10799018728E+03  0.23969158242E+03  0.26317221869E+03  0.41800000000E+01 0. -1.
        -11    1    4    4    0    0 -0.53354935680E+02  0.46242851568E+02  0.12128189636E+03  0.14033691199E+03  0.00000000000E+00 0. -1.
         11    1    4    4    0    0  0.19576486065E+02  0.54029085411E+02  0.20686710146E+03  0.21470067197E+03  0.00000000000E+00 0.  1.
</event>
<event>
 8    1  0.6860461E-009  0.1048142E+03  0.7561462E-02  0.1270486E+00
         -2   -1    0    0    0  501 -0.00000000000E+00  0.00000000000E+00  0.11562840095E+02  0.11562840095E+02  0.00000000000E+00 0. -1.
          2   -1    0    0  501    0  0.00000000000E+00 -0.00000000000E+00 -0.11844914883E+04  0.11844914883E+04  0.00000000000E+00 0.  1.
         25    2    1    2    0    0  0.23342954043E+02 -0.40937320500E+02 -0.61734000290E+03  0.63164612424E+03  0.12508952542E+03 0.  0.
         23    2    1    2    0    0 -0.23342954043E+02  0.40937320500E+02 -0.55558864534E+03  0.56440820419E+03  0.87504973660E+02 0.  0.
          5    1    3    3  502    0 -0.33542894502E+02 -0.41101570703E+02 -0.47987860150E+03  0.48282026621E+03  0.41800000000E+01 0. -1.
         -5    1    3    3    0  502  0.56885848545E+02  0.16425020326E+00 -0.13746140140E+03  0.14882585803E+03  0.41800000000E+01 0. -1.
        -11    1    4    4    0    0 -0.45565738383E+02 -0.74086152910E+01 -0.26292586100E+03  0.26694780852E+03  0.00000000000E+00 0. -1.
         11    1    4    4    0    0  0.22222784340E+02  0.48345935791E+02 -0.29266278434E+03  0.29746039567E+03  0.00000000000E+00 0.  1.
</event>
<event>
 8    1  0.6860461E-009  0.2153153E+03  0.7561462E-02  0.1137425E+00
         -2   -1    0    0    0  501 -0.00000000000E+00  0.00000000000E+00  0.67944093203E+02  0.67944093203E+02  0.00000000000E+00 0.  1.
          2   -1    0    0  501    0  0.00000000000E+00 -0.00000000000E+00 -0.85565437615E+03  0.85565437615E+03  0.00000000000E+00 0. -1.
         25    2    1    2    0    0  0.91998414447E+02 -0.18654671947E+03 -0.50953404191E+03  0.56438982192E+03  0.12509014516E+03 0.  0.
         23    2    1    2    0    0 -0.91998414447E+02  0.18654671947E+03 -0.27817624104E+03  0.35920864744E+03  0.91572072767E+02 0.  0.
          5    1    3    3  502    0  0.66342802625E+02 -0.16627002727E+03 -0.49840304320E+03  0.52959433088E+03  0.41800000000E+01 0.  1.
         -5    1    3    3    0  502  0.25655611822E+02 -0.20276692196E+02 -0.11130998710E+02  0.34795491039E+02  0.41800000000E+01 0.  1.
        -11    1    4    4    0    0 -0.56307037428E+02  0.43464820891E+02 -0.47881138283E+02  0.85745416917E+02  0.00000000000E+00 0.  1.
         11    1    4    4    0    0 -0.35691377020E+02  0.14308189858E+03 -0.23029510275E+03  0.27346323052E+03  0.00000000000E+00 0. -1.
</event>
<event>
 8    1  0.6860461E-009  0.1364793E+03  0.7561462E-02  0.1218146E+00
         -2   -1    0    0    0  501 -0.00000000000E+00  0.00000000000E+00  0.19174908716E+03  0.19174908716E+03  0.00000000000E+00 0.  1.
          2   -1    0    0  501    0  0.00000000000E+00 -0.00000000000E+00 -0.10353338798E+03  0.10353338798E+03  0.00000000000E+00 0. -1.
         25    2    1    2    0    0 -0.52865608990E+02 -0.63939355853E+02  0.12283223787E+02  0.15060395160E+03  0.12509060241E+03 0.  0.
         23    2    1    2    0    0  0.52865608990E+02  0.63939355853E+02  0.75932475392E+02  0.14467852355E+03  0.91011650438E+02 0.  0.
          5    1    3    3  502    0 -0.93071475972E+02 -0.55931316179E+02  0.51827885287E+01  0.10878853555E+03  0.41800000000E+01 0. -1.
         -5    1    3    3    0  502  0.40205866983E+02 -0.80080396741E+01  0.71004352584E+01  0.41815416058E+02  0.41800000000E+01 0. -1.
        -11    1    4    4    0    0  0.63776307697E+02  0.59215194453E+01  0.37156496984E+02  0.74047870220E+02  0.00000000000E+00 0. -1.
         11    1    4    4    0    0 -0.10910698707E+02  0.58017836407E+02  0.38775978408E+02  0.70630653325E+02  0.00000000000E+00 0.  1.
</event>
<event>
 8    1  0.6860461E-009  0.1312899E+03  0.7561462E-02  0.1225554E+00
          2   -1    0    0  501    0  0.00000000000E+00  0.00000000000E+00  0.32766581422E+03  0.32766581422E+03  0.00000000000E+00 0. -1.
         -2   -1    0    0    0  501 -0.00000000000E+00 -0.00000000000E+00 -0.70897555236E+02  0.70897555236E+02  0.00000000000E+00 0.  1.
         25    2    1    2    0    0  0.10506415773E+03  0.13490625211E+02  0.12026651223E+03  0.20330385814E+03  0.12509176857E+03 0.  0.
         23    2    1    2    0    0 -0.10506415773E+03 -0.13490625211E+02  0.13650174675E+03  0.19525951131E+03  0.90956449382E+02 0.  0.
          5    1    3    3  502    0 -0.82500896646E+01 -0.72388070230E+01 -0.19113487814E+02  0.22433504475E+02  0.41800000000E+01 0.  1.
         -5    1    3    3    0  502  0.11331424739E+03  0.20729432234E+02  0.13938000004E+03  0.18087035367E+03  0.41800000000E+01 0.  1.
        -11    1    4    4    0    0  0.10557835277E+02  0.13199077807E+02  0.39590122585E+01  0.17359646274E+02  0.00000000000E+00 0. -1.
         11    1    4    4    0    0 -0.11562199301E+03 -0.26689703019E+02  0.13254273449E+03  0.17789986504E+03  0.00000000000E+00 0.  1.
</event>
<event>
 8    1  0.6860461E-009  0.1053075E+03  0.7561462E-02  0.1269515E+00
         -2   -1    0    0    0  501 -0.00000000000E+00  0.00000000000E+00  0.10900209934E+03  0.10900209934E+03  0.00000000000E+00 0.  1.
          2   -1    0    0  501    0  0.00000000000E+00 -0.00000000000E+00 -0.17196580744E+03  0.17196580744E+03  0.00000000000E+00 0. -1.
         25    2    1    2    0    0  0.20547779528E+02  0.78785659964E+02 -0.46472960258E+02  0.15631472581E+03  0.12508063803E+03 0.  0.
         23    2    1    2    0    0 -0.20547779528E+02 -0.78785659964E+02 -0.16490747834E+02  0.12465318097E+03  0.92935888128E+02 0.  0.
          5    1    3    3  502    0  0.25583748245E+02  0.33621343525E+02  0.40132589586E+02  0.58421058375E+02  0.41800000000E+01 0.  1.
         -5    1    3    3    0  502 -0.50359687164E+01  0.45164316438E+02 -0.86605549844E+02  0.97893667436E+02  0.41800000000E+01 0.  1.
        -11    1    4    4    0    0 -0.49412028845E+02 -0.13624031095E+02 -0.14858627371E+02  0.53366109332E+02  0.00000000000E+00 0. -1.
         11    1    4    4    0    0  0.28864249317E+02 -0.65161628869E+02 -0.16321204628E+01  0.71287071637E+02  0.00000000000E+00 0.  1.
</event>
<event>
 8    1  0.6860461E-009  0.7101282E+02  0.7561462E-02  0.1356682E+00
          2   -1    0    0  501    0  0.00000000000E+00  0.00000000000E+00  0.26967491998E+03  0.26967491998E+03  0.00000000000E+00 0. -1.
         -2   -1    0    0    0  501 -0.00000000000E+00 -0.00000000000E+00 -0.55547386827E+02  0.55547386827E+02  0.00000000000E+00 0.  1.
         25    2    1    2    0    0 -0.25278496510E+01 -0.34300902821E+02  0.19615343730E+03  0.23517286354E+03  0.12508861987E+03 0.  0.
         23    2    1    2    0    0  0.25278496510E+01  0.34300902821E+02  0.17974095854E+02  0.90049443272E+02  0.81258182072E+02 0.  0.
          5    1    3    3  502    0 -0.14246421765E+02 -0.39365829069E+02  0.36821749291E+01  0.42233397254E+02  0.41800000000E+01 0. -1.
         -5    1    3    3    0  502  0.11718572114E+02  0.50649262480E+01  0.19247126237E+03  0.19293946629E+03  0.41800000000E+01 0. -1.
        -11    1    4    4    0    0 -0.33206138646E+02  0.38152093760E+02  0.19166698348E+02  0.54088744002E+02  0.00000000000E+00 0. -1.
         11    1    4    4    0    0  0.35733988297E+02 -0.38511909394E+01 -0.11926024945E+01  0.35960699270E+02  0.00000000000E+00 0.  1.
</event>
<event>
 8    1  0.6860461E-009  0.6939046E+02  0.7561462E-02  0.1362178E+00
         -1   -1    0    0    0  501 -0.00000000000E+00  0.00000000000E+00  0.13819093722E+02  0.13819093722E+02  0.00000000000E+00 0.  1.
          1   -1    0    0  501    0  0.00000000000E+00 -0.00000000000E+00 -0.13619955816E+04  0.13619955816E+04  0.00000000000E+00 0. -1.
         25    2    1    2    0    0  0.29177617873E+02  0.17235959227E+02 -0.11689739735E+04  0.11761360596E+04  0.12508984152E+03 0.  0.
         23    2    1    2    0    0 -0.29177617873E+02 -0.17235959227E+02 -0.17920251444E+03  0.19967861571E+03  0.81299426309E+02 0.  0.
          5    1    3    3  502    0  0.34503042703E+02  0.33466089149E+02 -0.11468959845E+04  0.11479104106E+04  0.41800000000E+01 0. -1.
         -5    1    3    3    0  502 -0.53254248296E+01 -0.16230129922E+02 -0.22077988952E+02  0.28225649028E+02  0.41800000000E+01 0. -1.
        -11    1    4    4    0    0  0.59437566029E+01  0.20530506582E+02 -0.11595552890E+02  0.24316389327E+02  0.00000000000E+00 0.  1.
         11    1    4    4    0    0 -0.35121374476E+02 -0.37766465809E+02 -0.16760696155E+03  0.17536222639E+03  0.00000000000E+00 0. -1.
</event>
<event>
 8    1  0.6860461E-009  0.2386178E+03  0.7561462E-02  0.1120717E+00
          2   -1    0    0  501    0  0.00000000000E+00  0.00000000000E+00  0.11628434182E+04  0.11628434182E+04  0.00000000000E+00 0. -1.
         -2   -1    0    0    0  501 -0.00000000000E+00 -0.00000000000E+00 -0.58862581705E+02  0.58862581705E+02  0.00000000000E+00 0.  1.
         25    2    1    2    0    0  0.30333441600E+02 -0.22753189988E+03  0.71055027367E+03  0.75711314327E+03  0.12509091555E+03 0.  0.
         23    2    1    2    0    0 -0.30333441600E+02  0.22753189988E+03  0.39343056285E+03  0.46459285667E+03  0.91476945377E+02 0.  0.
          5    1    3    3  502    0  0.32800026342E+02 -0.20708521403E+03  0.70478370870E+03  0.73532147803E+03  0.41800000000E+01 0. -1.
         -5    1    3    3    0  502 -0.24665847425E+01 -0.20446685846E+02  0.57665649714E+01  0.21791665240E+02  0.41800000000E+01 0. -1.
        -11    1    4    4    0    0  0.31510230601E+02  0.57263515842E+02  0.11891113676E+03  0.13569032141E+03  0.00000000000E+00 0.  1.
         11    1    4    4    0    0 -0.61843672201E+02  0.17026838404E+03  0.27451942609E+03  0.32890253525E+03  0.00000000000E+00 0. -1.
</event>
<event>
 8    1  0.6860461E-009  0.1907488E+03  0.7561462E-02  0.1157788E+00
         -2   -1    0    0    0  501 -0.00000000000E+00  0.00000000000E+00  0.41612343583E+02  0.41612343583E+02  0.00000000000E+00 0. -1.
          2   -1    0    0  501    0  0.00000000000E+00 -0.00000000000E+00 -0.11402498633E+04  0.11402498633E+04  0.00000000000E+00 0.  1.
         25    2    1    2    0    0  0.17842261714E+03 -0.52939510059E+02 -0.48987623856E+03  0.53876079930E+03  0.12508895923E+03 0.  0.
         23    2    1    2    0    0 -0.17842261714E+03  0.52939510059E+02 -0.60876128111E+03  0.64310140754E+03  0.91388735453E+02 0.  0.
          5    1    3    3  502    0  0.57680727761E+02  0.25872089521E+01 -0.30840811120E+03  0.31379419283E+03  0.41800000000E+01 0. -1.
         -5    1    3    3    0  502  0.12074188938E+03 -0.55526719011E+02 -0.18146812736E+03  0.22496660646E+03  0.41800000000E+01 0. -1.
        -11    1    4    4    0    0 -0.81038980108E+02  0.27442131753E+01 -0.14073383176E+03  0.16242185322E+03  0.00000000000E+00 0. -1.
         11    1    4    4    0    0 -0.97383637030E+02  0.50195296883E+02 -0.46802744935E+03  0.48067955432E+03  0.00000000000E+00 0.  1.
</event>
<event>
 8    1  0.6860461E-009  0.1149434E+03  0.7561462E-02  0.1251680E+00
          1   -1    0    0  501    0  0.00000000000E+00  0.00000000000E+00  0.46744246384E+03  0.46744246384E+03  0.00000000000E+00 0. -1.
         -1   -1    0    0    0  501 -0.00000000000E+00 -0.00000000000E+00 -0.33420999757E+02  0.33420999757E+02  0.00000000000E+00 0.  1.
         25    2    1    2    0    0 -0.46742902956E+02  0.36312860469E+02  0.27931833859E+03  0.31171767946E+03  0.12508259112E+03 0.  0.
         23    2    1    2    0    0  0.46742902956E+02 -0.36312860469E+02  0.15470312549E+03  0.18914578414E+03  0.91321124654E+02 0.  0.
          5    1    3    3  502    0  0.33079950456E+02 -0.15999724981E+02  0.42387495442E+02  0.56253413154E+02  0.41800000000E+01 0.  1.
         -5    1    3    3    0  502 -0.79822853411E+02  0.52312585450E+02  0.23693084315E+03  0.25546426630E+03  0.41800000000E+01 0.  1.
        -11    1    4    4    0    0  0.64867636045E+02 -0.43254346421E+02  0.79000219412E+02  0.11099451949E+03  0.00000000000E+00 0.  1.
         11    1    4    4    0    0 -0.18124733089E+02  0.69414859518E+01  0.75702906077E+02  0.78151264643E+02  0.00000000000E+00 0. -1.
</event>
<event>
 8    1  0.6860461E-009  0.1067003E+03  0.7561462E-02  0.1266805E+00
         -2   -1    0    0    0  501 -0.00000000000E+00  0.00000000000E+00  0.17528993621E+02  0.17528993621E+02  0.00000000000E+00 0.  1.
          2   -1    0    0  501    0  0.00000000000E+00 -0.00000000000E+00 -0.98709471423E+03  0.98709471423E+03  0.00000000000E+00 0. -1.
         25    2    1    2    0    0  0.60717919917E+02 -0.30513849901E+02 -0.65500842384E+03  0.67029932366E+03  0.12508951660E+03 0.  0.
         23    2    1    2    0    0 -0.60717919917E+02  0.30513849901E+02 -0.31455729677E+03  0.33432438419E+03  0.90602097540E+02 0.  0.
          5    1    3    3  502    0  0.31498459185E+02  0.35415940434E+02 -0.10151926921E+03  0.11211635112E+03  0.41800000000E+01 0. -1.
         -5    1    3    3    0  502  0.29219460732E+02 -0.65929790335E+02 -0.55348915463E+03  0.55818297254E+03  0.41800000000E+01 0. -1.
        -11    1    4    4    0    0 -0.33627720505E+02  0.49969953733E+02 -0.27957825972E+03  0.28599269776E+03  0.00000000000E+00 0.  1.
         11    1    4    4    0    0 -0.27090199412E+02 -0.19456103832E+02 -0.34979037048E+02  0.48331686431E+02  0.00000000000E+00 0. -1.
</event>
<event>
 8    1  0.6860461E-009  0.9639460E+02  0.7561462E-02  0.1288066E+00
          2   -1    0    0  501    0  0.00000000000E+00  0.00000000000E+00  0.13848693479E+04  0.13848693479E+04  0.00000000000E+00 0. -1.
         -2   -1    0    0    0  501 -0.00000000000E+00 -0.00000000000E+00 -0.12673098496E+02  0.12673098496E+02  0.00000000000E+00 0.  1.
         25    2    1    2    0    0  0.15613709513E+02 -0.28008492955E+02  0.11242066340E+04  0.11315993416E+04  0.12509296734E+03 0.  0.
         23    2    1    2    0    0 -0.15613709513E+02  0.28008492955E+02  0.24798961539E+03  0.26594310474E+03  0.90546242405E+02 0.  0.
          5    1    3    3  502    0  0.68120981438E+01 -0.68626854775E+02  0.38058507796E+03  0.38680553750E+03  0.41800000000E+01 0.  1.
         -5    1    3    3    0  502  0.88016113688E+01  0.40618361821E+02  0.74362155605E+03  0.74479380415E+03  0.41800000000E+01 0.  1.
        -11    1    4    4    0    0 -0.24290147223E+01  0.53326851081E+02  0.21839731095E+03  0.22482668567E+03  0.00000000000E+00 0. -1.
         11    1    4    4    0    0 -0.13184694790E+02 -0.25318358127E+02  0.29592304441E+02  0.41116419069E+02  0.00000000000E+00 0.  1.
</event>
<event>
 8    1  0.6860461E-009  0.1153548E+03  0.7561462E-02  0.1250963E+00
          2   -1    0    0  501    0  0.00000000000E+00  0.00000000000E+00  0.38973309177E+02  0.38973309177E+02  0.00000000000E+00 0.  1.
         -2   -1    0    0    0  501 -0.00000000000E+00 -0.00000000000E+00 -0.59024063722E+03  0.59024063722E+03  0.00000000000E+00 0. -1.
         25    2    1    2    0    0 -0.13250328225E+02 -0.44862058556E+02 -0.99329463761E+02  0.16644124379E+03  0.12509264474E+03 0.  0.
         23    2    1    2    0    0  0.13250328225E+02  0.44862058556E+02 -0.45193786429E+03  0.46277270261E+03  0.87878129292E+02 0.  0.
          5    1    3    3  502    0  0.30211059094E+02  0.31973995410E+02 -0.23807563656E+02  0.50192797902E+02  0.41800000000E+01 0. -1.
         -5    1    3    3    0  502 -0.43461387318E+02 -0.76836053966E+02 -0.75521900105E+02  0.11624844589E+03  0.41800000000E+01 0. -1.
        -11    1    4    4    0    0 -0.35570867539E+02  0.67364013464E+01 -0.13093994549E+03  0.13585262252E+03  0.00000000000E+00 0. -1.
         11    1    4    4    0    0  0.48821195764E+02  0.38125657210E+02 -0.32099791880E+03  0.32692008009E+03  0.00000000000E+00 0.  1.
</event>
<event>
 8    1  0.6860461E-009  0.1054169E+03  0.7561462E-02  0.1269300E+00
          1   -1    0    0  501    0  0.00000000000E+00  0.00000000000E+00  0.46777413068E+03  0.46777413068E+03  0.00000000000E+00 0. -1.
         -1   -1    0    0    0  501 -0.00000000000E+00 -0.00000000000E+00 -0.41032251093E+02  0.41032251093E+02  0.00000000000E+00 0.  1.
         25    2    1    2    0    0 -0.45874653976E+02 -0.51666608802E+02  0.32720144150E+03  0.35704387307E+03  0.12508245934E+03 0.  0.
         23    2    1    2    0    0  0.45874653976E+02  0.51666608802E+02  0.99540438079E+02  0.15176250869E+03  0.91376353010E+02 0.  0.
          5    1    3    3  502    0 -0.15807235044E+02  0.21713968891E+02  0.22966504146E+03  0.23126795886E+03  0.41800000000E+01 0. -1.
         -5    1    3    3    0  502 -0.30067418932E+02 -0.73380577694E+02  0.97536400042E+02  0.12577591422E+03  0.41800000000E+01 0. -1.
        -11    1    4    4    0    0  0.56041900262E+02  0.47590415973E+01  0.21640180084E+02  0.60263093648E+02  0.00000000000E+00 0.  1.
         11    1    4    4    0    0 -0.10167246286E+02  0.46907567205E+02  0.77900257995E+02  0.91499415046E+02  0.00000000000E+00 0. -1.
</event>
<event>
 8    1  0.6860461E-009  0.1915955E+03  0.7561462E-02  0.1157030E+00
          1   -1    0    0  501    0  0.00000000000E+00  0.00000000000E+00  0.10999611267E+04  0.10999611267E+04  0.00000000000E+00 0. -1.
         -1   -1    0    0    0  501 -0.00000000000E+00 -0.00000000000E+00 -0.45308646271E+02  0.45308646271E+02  0.00000000000E+00 0.  1.
         25    2    1    2    0    0  0.16751222359E+03  0.59300655531E+02  0.75460372278E+03  0.78527148531E+03  0.12509042489E+03 0.  0.
         23    2    1    2    0    0 -0.16751222359E+03 -0.59300655531E+02  0.30004875763E+03  0.35999828765E+03  0.89401327472E+02 0.  0.
          5    1    3    3  502    0  0.88662881055E+02  0.56591831891E+02  0.20937485046E+03  0.23434812208E+03  0.41800000000E+01 0. -1.
         -5    1    3    3    0  502  0.78849342540E+02  0.27088236403E+01  0.54522887232E+03  0.55092336323E+03  0.41800000000E+01 0. -1.
        -11    1    4    4    0    0 -0.43784862308E+02  0.23836282749E+02  0.74236106723E+02  0.89421932903E+02  0.00000000000E+00 0.  1.
         11    1    4    4    0    0 -0.12372736129E+03 -0.83136938280E+02  0.22581265091E+03  0.27057635475E+03  0.00000000000E+00 0. -1.
</event>
<event>
 8    1  0.6860461E-009  0.1540826E+03  0.7561462E-02  0.1195544E+00
         -1   -1    0    0    0  501 -0.00000000000E+00  0.00000000000E+00  0.76833876560E+02  0.76833876560E+02  0.00000000000E+00 0.  1.
          1   -1    0    0  501    0  0.00000000000E+00 -0.00000000000E+00 -0.36341290447E+03  0.36341290447E+03  0.00000000000E+00 0. -1.
         25    2    1    2    0    0 -0.11237204884E+03 -0.45100330055E+02 -0.19841898879E+03  0.26396707466E+03  0.12508798608E+03 0.  0.
         23    2    1    2    0    0  0.11237204884E+03  0.45100330055E+02 -0.88160039119E+02  0.17627970637E+03  0.92956039326E+02 0.  0.
          5    1    3    3  502    0 -0.87498650623E+02  0.24577388744E+02 -0.15004286028E+03  0.17547191860E+03  0.41800000000E+01 0.  1.
         -5    1    3    3    0  502 -0.24873398218E+02 -0.69677718799E+02 -0.48376128509E+02  0.88495156057E+02  0.41800000000E+01 0.  1.
        -11    1    4    4    0    0  0.10995555632E+02 -0.19844140623E+02 -0.41233259591E+02  0.47062446359E+02  0.00000000000E+00 0. -1.
         11    1    4    4    0    0  0.10137649321E+03  0.64944470677E+02 -0.46926779528E+02  0.12921726001E+03  0.00000000000E+00 0.  1.
</event>
<event>
 8    1  0.6860461E-009  0.1002932E+03  0.7561462E-02  0.1279681E+00
          1   -1    0    0  501    0  0.00000000000E+00  0.00000000000E+00  0.10947244679E+04  0.10947244679E+04  0.00000000000E+00 0. -1.
         -1   -1    0    0    0  501 -0.00000000000E+00 -0.00000000000E+00 -0.28155431206E+02  0.28155431206E+02  0.00000000000E+00 0.  1.
         25    2    1    2    0    0  0.95107321065E+01  0.44440247302E+02  0.97862870824E+03  0.98763696439E+03  0.12508890933E+03 0.  0.
         23    2    1    2    0    0 -0.95107321065E+01 -0.44440247302E+02  0.87940328439E+02  0.13524293470E+03  0.92150748310E+02 0.  0.
          5    1    3    3  502    0  0.43624690891E+02  0.73954006654E+02  0.55921097107E+03  0.56577971979E+03  0.41800000000E+01 0. -1.
         -5    1    3    3    0  502 -0.34113958785E+02 -0.29513759352E+02  0.41941773717E+03  0.42185724460E+03  0.41800000000E+01 0. -1.
        -11    1    4    4    0    0 -0.24142682323E+02 -0.48464498988E+02  0.90374728979E+01  0.54894013228E+02  0.00000000000E+00 0.  1.
         11    1    4    4    0    0  0.14631950216E+02  0.40242516857E+01  0.78902855541E+02  0.80348921470E+02  0.00000000000E+00 0. -1.
</event>
<event>
 8    1  0.6860461E-009  0.1474871E+03  0.7561462E-02  0.1203595E+00
          2   -1    0    0  501    0  0.00000000000E+00  0.00000000000E+00  0.61568462954E+03  0.61568462954E+03  0.00000000000E+00 0.  1.
         -2   -1    0    0    0  501 -0.00000000000E+00 -0.00000000000E+00 -0.41885011303E+02  0.41885011303E+02  0.00000000000E+00 0. -1.
         25    2    1    2    0    0 -0.11435702528E+03  0.34869723271E+02  0.31986210200E+03  0.36366578881E+03  0.12509042656E+03 0.  0.
         23    2    1    2    0    0  0.11435702528E+03 -0.34869723271E+02  0.25393751624E+03  0.29390385204E+03  0.87188217436E+02 0.  0.
          5    1    3    3  502    0 -0.29194885116E+02 -0.45929421384E+02  0.84096684402E+02  0.10025755729E+03  0.41800000000E+01 0. -1.
         -5    1    3    3    0  502 -0.85162140169E+02  0.80799144654E+02  0.23576541760E+03  0.26340823152E+03  0.41800000000E+01 0. -1.
        -11    1    4    4    0    0  0.30966538409E+02  0.34351384717E+01  0.15839014953E+03  0.16142541976E+03  0.00000000000E+00 0.  1.
         11    1    4    4    0    0  0.83390486876E+02 -0.38304861743E+02  0.95547366705E+02  0.13247843228E+03  0.00000000000E+00 0. -1.
</event>
<event>
 8    1  0.6860461E-009  0.1217333E+03  0.7561462E-02  0.1240265E+00
          2   -1    0    0  501    0  0.00000000000E+00  0.00000000000E+00  0.58930182915E+03  0.58930182915E+03  0.00000000000E+00 0. -1.
         -2   -1    0    0    0  501 -0.00000000000E+00 -0.00000000000E+00 -0.27753480098E+02  0.27753480098E+02  0.00000000000E+00 0.  1.
         25    2    1    2    0    0  0.57165595859E+02 -0.29649906846E+02  0.28973770428E+03  0.32208963704E+03  0.12508706841E+03 0.  0.
         23    2    1    2    0    0 -0.57165595859E+02  0.29649906846E+02  0.27181064478E+03  0.29496567221E+03  0.94745442330E+02 0.  0.
          5    1    3    3  502    0  0.52827838239E+02  0.42408356515E+02  0.12665081806E+03  0.14369116644E+03  0.41800000000E+01 0. -1.
         -5    1    3    3    0  502  0.43377576202E+01 -0.72058263361E+02  0.16308688621E+03  0.17839847061E+03  0.41800000000E+01 0. -1.
        -11    1    4    4    0    0  0.14011363253E+02  0.28884111978E+02  0.34132916094E+02  0.46857936212E+02  0.00000000000E+00 0.  1.
         11    1    4    4    0    0 -0.71176959112E+02  0.76579486822E+00  0.23767772868E+03  0.24810773600E+03  0.00000000000E+00 0. -1.
</event>
<event>
 8    1  0.6860461E-009  0.1605864E+03  0.7561462E-02  0.1188036E+00
          2   -1    0    0  501    0  0.00000000000E+00  0.00000000000E+00  0.21444689185E+03  0.21444689185E+03  0.00000000000E+00 0. -1.
         -2   -1    0    0    0  501 -0.00000000000E+00 -0.00000000000E+00 -0.13148890476E+03  0.13148890476E+03  0.00000000000E+00 0.  1.
         25    2    1    2    0    0  0.12760476191E+03 -0.58480575053E+01  0.39049345192E+02  0.18300076530E+03  0.12508898313E+03 0.  0.
         23    2    1    2    0    0 -0.12760476191E+03  0.58480575053E+01  0.43908641898E+02  0.16293503130E+03  0.91119046044E+02 0.  0.
          5    1    3    3  502    0  0.13062175718E+02 -0.42411184025E+02  0.43942587545E+02  0.62591951280E+02  0.41800000000E+01 0.  1.
         -5    1    3    3    0  502  0.11454258620E+03  0.36563126519E+02 -0.48932423540E+01  0.12040881402E+03  0.41800000000E+01 0.  1.
        -11    1    4    4    0    0 -0.13991256732E+03 -0.48294765454E+01  0.43635950871E+02  0.14663883028E+03  0.00000000000E+00 0.  1.
         11    1    4    4    0    0  0.12307805405E+02  0.10677534051E+02  0.27269102668E+00  0.16296201020E+02  0.00000000000E+00 0. -1.
</event>
<event>
 8    1  0.6860461E-009  0.8529081E+02  0.7561462E-02  0.1314674E+00
          1   -1    0    0  501    0  0.00000000000E+00  0.00000000000E+00  0.53492315333E+03  0.53492315333E+03  0.00000000000E+00 0. -1.
         -1   -1    0    0    0  501 -0.00000000000E+00 -0.00000000000E+00 -0.29542016124E+02  0.29542016124E+02  0.00000000000E+00 0.  1.
         25    2    1    2    0    0 -0.22454344637E+02 -0.11648994969E+02  0.42412220894E+03  0.44290829239E+03  0.12509280827E+03 0.  0.
         23    2    1    2    0    0  0.22454344637E+02  0.11648994969E+02  0.81258928264E+02  0.12155687705E+03  0.86793803118E+02 0.  0.
          5    1    3    3  502    0 -0.45612177685E+02 -0.54448497231E+02  0.17264846183E+03  0.18673530297E+03  0.41800000000E+01 0. -1.
         -5    1    3    3    0  502  0.23157833048E+02  0.42799502262E+02  0.25147374711E+03  0.25617298943E+03  0.41800000000E+01 0. -1.
        -11    1    4    4    0    0 -0.13264706311E+02  0.94077554347E+00 -0.13970027355E+02  0.19287279654E+02  0.00000000000E+00 0.  1.
         11    1    4    4    0    0  0.35719050949E+02  0.10708219426E+02  0.95228955620E+02  0.10226959740E+03  0.00000000000E+00 0. -1.
</event>
<event>
 8    1  0.6860461E-009  0.7630678E+02  0.7561462E-02  0.1339871E+00
         -2   -1    0    0    0  501 -0.00000000000E+00  0.00000000000E+00  0.64588175948E+02  0.64588175948E+02  0.00000000000E+00 0.  1.
          2   -1    0    0  501    0  0.00000000000E+00 -0.00000000000E+00 -0.22922658898E+03  0.22922658898E+03  0.00000000000E+00 0. -1.
         25    2    1    2    0    0 -0.30176570023E+02 -0.44626765268E+02 -0.10975081208E+03  0.17491527377E+03  0.12509172111E+03 0.  0.
         23    2    1    2    0    0  0.30176570023E+02  0.44626765268E+02 -0.54887600952E+02  0.11889949115E+03  0.90676715323E+02 0.  0.
          5    1    3    3  502    0  0.20155237016E+02 -0.10595604417E+02  0.20632039570E+02  0.31010544480E+02  0.41800000000E+01 0. -1.
         -5    1    3    3    0  502 -0.50331807039E+02 -0.34031160851E+02 -0.13038285165E+03  0.14390472929E+03  0.41800000000E+01 0. -1.
        -11    1    4    4    0    0  0.38670224717E+01  0.41937301843E+02  0.14580334064E+02  0.44567670907E+02  0.00000000000E+00 0.  1.
         11    1    4    4    0    0  0.26309547551E+02  0.26894634253E+01 -0.69467935016E+02  0.74331820247E+02  0.00000000000E+00 0. -1.
</event>
<event>
 8    1  0.6860461E-009  0.5112113E+02  0.7561462E-02  0.1439387E+00
          1   -1    0    0  501    0  0.00000000000E+00  0.00000000000E+00  0.21453784520E+03  0.21453784520E+03  0.00000000000E+00 0. -1.
         -1   -1    0    0    0  501 -0.00000000000E+00 -0.00000000000E+00 -0.61595664448E+02  0.61595664448E+02  0.00000000000E+00 0.  1.
         25    2    1    2    0    0  0.32332395515E+02 -0.13266444571E+02  0.10382733725E+03  0.16628044309E+03  0.12509071685E+03 0.  0.
         23    2    1    2    0    0 -0.32332395515E+02  0.13266444571E+02  0.49114843507E+02  0.10985306656E+03  0.91837062393E+02 0.  0.
          5    1    3    3  502    0  0.15665722478E+02 -0.21206555465E+02 -0.24698714416E+02  0.36368004472E+02  0.41800000000E+01 0.  1.
         -5    1    3    3    0  502  0.16666673038E+02  0.79401108940E+01  0.12852605166E+03  0.12991243861E+03  0.41800000000E+01 0.  1.
        -11    1    4    4    0    0 -0.14058044359E+02  0.29178066742E+02  0.70468959970E+02  0.77555544671E+02  0.00000000000E+00 0. -1.
         11    1    4    4    0    0 -0.18274351157E+02 -0.15911622171E+02 -0.21354116463E+02  0.32297521890E+02  0.00000000000E+00 0.  1.
</event>
<event>
 8    1  0.6860461E-009  0.1242916E+03  0.7561462E-02  0.1236181E+00
         -2   -1    0    0    0  501 -0.00000000000E+00  0.00000000000E+00  0.37722827059E+03  0.37722827059E+03  0.00000000000E+00 0.  1.
          2   -1    0    0  501    0  0.00000000000E+00 -0.00000000000E+00 -0.42557713090E+02  0.42557713090E+02  0.00000000000E+00 0. -1.
         25    2    1    2    0    0  0.40544636809E+02  0.40545872270E+02  0.14661407717E+03  0.20107350093E+03  0.12508808824E+03 0.  0.
         23    2    1    2    0    0 -0.40544636809E+02 -0.40545872270E+02  0.18805648034E+03  0.21871248275E+03  0.95823144303E+02 0.  0.
          5    1    3    3  502    0 -0.39780131384E+02 -0.10923377363E+02  0.53627520996E+02  0.67787627441E+02  0.41800000000E+01 0. -1.
         -5    1    3    3    0  502  0.80324768193E+02  0.51469249633E+02  0.92986556171E+02  0.13328587349E+03  0.41800000000E+01 0. -1.
        -11    1    4    4    0    0  0.95329696541E+01 -0.57861118580E+02  0.10174492482E+03  0.11743430624E+03  0.00000000000E+00 0.  1.
         11    1    4    4    0    0 -0.50077606463E+02  0.17315246311E+02  0.86311555513E+02  0.10127817652E+03  0.00000000000E+00 0. -1.
</event>
<event>
 8    1  0.6860461E-009  0.9147102E+02  0.7561462E-02  0.1299328E+00
         -1   -1    0    0    0  501 -0.00000000000E+00  0.00000000000E+00  0.32344633564E+02  0.32344633564E+02  0.00000000000E+00 0.  1.
          1   -1    0    0  501    0  0.00000000000E+00 -0.00000000000E+00 -0.40240887848E+03  0.40240887848E+03  0.00000000000E+00 0. -1.
         25    2    1    2    0    0 -0.27524031147E+02 -0.26283922160E+02 -0.21271874790E+03  0.24969832154E+03  0.12510623173E+03 0.  0.
         23    2    1    2    0    0  0.27524031147E+02  0.26283922160E+02 -0.15734549701E+03  0.18505519050E+03  0.89662708223E+02 0.  0.
          5    1    3    3  502    0 -0.36386078450E+02  0.17707869869E+02 -0.98143285354E+01  0.41848641613E+02  0.41800000000E+01 0.  1.
         -5    1    3    3    0  502  0.88620473036E+01 -0.43991792029E+02 -0.20290441937E+03  0.20784967993E+03  0.41800000000E+01 0.  1.
        -11    1    4    4    0    0  0.52937657958E+02 -0.90102482079E+01 -0.80792272470E+02  0.97010161806E+02  0.00000000000E+00 0.  1.
         11    1    4    4    0    0 -0.25413626811E+02  0.35294170368E+02 -0.76553224542E+02  0.88045028692E+02  0.00000000000E+00 0. -1.
</event>
<event>
 8    1  0.6860461E-009  0.1457843E+03  0.7561462E-02  0.1205751E+00
         -2   -1    0    0    0  501 -0.00000000000E+00  0.00000000000E+00  0.56108739895E+02  0.56108739895E+02  0.00000000000E+00 0.  1.
          2   -1    0    0  501    0  0.00000000000E+00 -0.00000000000E+00 -0.45244693686E+03  0.45244693686E+03  0.00000000000E+00 0. -1.
         25    2    1    2    0    0 -0.11024035282E+03 -0.40421878535E+01 -0.26893927272E+03  0.31645808936E+03  0.12509242678E+03 0.  0.
         23    2    1    2    0    0  0.11024035282E+03  0.40421878535E+01 -0.12739892424E+03  0.19209758739E+03  0.92204785728E+02 0.  0.
          5    1    3    3  502    0 -0.11027898797E+03  0.32485283590E+02 -0.13403747610E+03  0.17663597096E+03  0.41800000000E+01 0.  1.
         -5    1    3    3    0  502  0.38635149272E-01 -0.36527471444E+02 -0.13490179662E+03  0.13982211840E+03  0.41800000000E+01 0.  1.
        -11    1    4    4    0    0  0.10003665732E+03 -0.29827900795E+02 -0.73658592444E+02  0.12776002784E+03  0.00000000000E+00 0.  1.
         11    1    4    4    0    0  0.10203695501E+02  0.33870088648E+02 -0.53740331801E+02  0.64337559551E+02  0.00000000000E+00 0. -1.
</event>
<event>
 8    1  0.6860461E-009  0.9764027E+02  0.7561462E-02  0.1285338E+00
         -2   -1    0    0    0  501 -0.00000000000E+00  0.00000000000E+00  0.29735142949E+02  0.29735142949E+02  0.00000000000E+00 0.  1.
          2   -1    0    0  501    0  0.00000000000E+00 -0.00000000000E+00 -0.79295417056E+03  0.79295417056E+03  0.00000000000E+00 0. -1.
         25    2    1    2    0    0 -0.12633956519E+02 -0.17370538780E+02 -0.69655994597E+03  0.70802840980E+03  0.12508844186E+03 0.  0.
         23    2    1    2    0    0  0.12633956519E+02  0.17370538780E+02 -0.66659081642E+02  0.11466090370E+03  0.90787318486E+02 0.  0.
          5    1    3    3  502    0 -0.27796258504E+02  0.39493933089E+02 -0.51148188408E+03  0.51377387329E+03  0.41800000000E+01 0. -1.
         -5    1    3    3    0  502  0.15162301985E+02 -0.56864471869E+02 -0.18507806189E+03  0.19425453651E+03  0.41800000000E+01 0. -1.
        -11    1    4    4    0    0 -0.16543228969E+02  0.44801655704E+02 -0.16615580445E+02  0.50566236680E+02  0.00000000000E+00 0.  1.
         11    1    4    4    0    0  0.29177185488E+02 -0.27431116924E+02 -0.50043501197E+02  0.64094667023E+02  0.00000000000E+00 0. -1.
</event>
<event>
 8    1  0.6860461E-009  0.1821764E+03  0.7561462E-02  0.1165713E+00
          2   -1    0    0  501    0  0.00000000000E+00  0.00000000000E+00  0.61071515627E+03  0.61071515627E+03  0.00000000000E+00 0.  1.
         -2   -1    0    0    0  501 -0.00000000000E+00 -0.00000000000E+00 -0.85102622081E+02  0.85102622081E+02  0.00000000000E+00 0. -1.
         25    2    1    2    0    0 -0.18080239691E+02  0.17303256813E+03  0.12221925064E+03  0.24667788922E+03  0.12508105813E+03 0.  0.
         23    2    1    2    0    0  0.18080239691E+02 -0.17303256813E+03  0.40339328355E+03  0.44913988913E+03  0.93452309215E+02 0.  0.
          5    1    3    3  502    0 -0.26888847553E+02  0.13462413656E+03  0.14601075957E+03  0.20045768276E+03  0.41800000000E+01 0. -1.
         -5    1    3    3    0  502  0.88086078617E+01  0.38408431569E+02 -0.23791508931E+02  0.46220206461E+02  0.41800000000E+01 0. -1.
        -11    1    4    4    0    0 -0.26570916466E+02 -0.52475892540E+02  0.67764508655E+02  0.89731608327E+02  0.00000000000E+00 0. -1.
         11    1    4    4    0    0  0.44651156156E+02 -0.12055667559E+03  0.33562877490E+03  0.35940828081E+03  0.00000000000E+00 0.  1.
</event>
<event>
 8    1  0.6860461E-009  0.1152922E+03  0.7561462E-02  0.1251072E+00
         -2   -1    0    0    0  501 -0.00000000000E+00  0.00000000000E+00  0.76873254992E+02  0.76873254992E+02  0.00000000000E+00 0.  1.
          2   -1    0    0  501    0  0.00000000000E+00 -0.00000000000E+00 -0.26122692656E+03  0.26122692656E+03  0.00000000000E+00 0. -1.
         25    2    1    2    0    0 -0.29859596346E+02 -0.68103354741E+02 -0.38459422583E+02  0.15050696042E+03  0.12507420009E+03 0.  0.
         23    2    1    2    0    0  0.29859596346E+02  0.68103354741E+02 -0.14589424898E+03  0.18759322113E+03  0.91522796646E+02 0.  0.
          5    1    3    3  502    0  0.21826112964E+02  0.28270629768E+02 -0.69778209293E+01  0.36630180173E+02  0.41800000000E+01 0.  1.
         -5    1    3    3    0  502 -0.51685709310E+02 -0.96373984510E+02 -0.31481601654E+02  0.11387678025E+03  0.41800000000E+01 0.  1.
        -11    1    4    4    0    0 -0.61345284231E+01  0.37329323172E+02 -0.40424464992E+01  0.38045396320E+02  0.00000000000E+00 0.  1.
         11    1    4    4    0    0  0.35994124769E+02  0.30774031570E+02 -0.14185180248E+03  0.14954782481E+03  0.00000000000E+00 0. -1.
</event>
<event>
 8    1  0.6860461E-009  0.1070428E+03  0.7561462E-02  0.1266146E+00
         -2   -1    0    0    0  501 -0.00000000000E+00  0.00000000000E+00  0.24321180965E+02  0.24321180965E+02  0.00000000000E+00 0. -1.
          2   -1    0    0  501    0  0.00000000000E+00 -0.00000000000E+00 -0.11535357951E+04  0.11535357951E+04  0.00000000000E+00 0.  1.
         25    2    1    2    0    0  0.57460207517E+02  0.46637041075E+01 -0.99929821723E+03  0.10087459204E+04  0.12509188364E+03 0.  0.
         23    2    1    2    0    0 -0.57460207517E+02 -0.46637041075E+01 -0.12991639695E+03  0.16911105572E+03  0.91634346110E+02 0.  0.
          5    1    3    3  502    0 -0.43087910761E+01 -0.49364259312E+02 -0.24574457699E+03  0.25072547796E+03  0.41800000000E+01 0. -1.
         -5    1    3    3    0  502  0.61768998593E+02  0.54027963420E+02 -0.75355364023E+03  0.75802044242E+03  0.41800000000E+01 0. -1.
        -11    1    4    4    0    0 -0.45303559305E+01  0.22320943669E+02 -0.10005983293E+03  0.10261929067E+03  0.00000000000E+00 0.  1.
         11    1    4    4    0    0 -0.52929851586E+02 -0.26984647776E+02 -0.29856564012E+02  0.66491765047E+02  0.00000000000E+00 0. -1.
</event>
<event>
 8    1  0.6860461E-009  0.6614191E+02  0.7561462E-02  0.1373727E+00
         -4   -1    0    0    0  501 -0.00000000000E+00  0.00000000000E+00  0.72161298368E+02  0.72161298368E+02  0.00000000000E+00 0.  1.
          4   -1    0    0  501    0  0.00000000000E+00 -0.00000000000E+00 -0.18329523924E+03  0.18329523924E+03  0.00000000000E+00 0. -1.
         25    2    1    2    0    0  0.28482457443E+02  0.18536478709E+02 -0.42499696332E+02  0.13641465229E+03  0.12509149350E+03 0.  0.
         23    2    1    2    0    0 -0.28482457443E+02 -0.18536478709E+02 -0.68634244540E+02  0.11904188532E+03  0.91134293829E+02 0.  0.
          5    1    3    3  502    0  0.46742113427E+02  0.28866696132E+02  0.28663238758E+02  0.62106078360E+02  0.41800000000E+01 0.  1.
         -5    1    3    3    0  502 -0.18259655984E+02 -0.10330217422E+02 -0.71162935090E+02  0.74308573928E+02  0.41800000000E+01 0.  1.
        -11    1    4    4    0    0 -0.49007988731E+01  0.14443671753E+02  0.17878176826E+02  0.23500355102E+02  0.00000000000E+00 0.  1.
         11    1    4    4    0    0 -0.23581658570E+02 -0.32980150462E+02 -0.86512421366E+02  0.95541530216E+02  0.00000000000E+00 0. -1.
</event>
<event>
 8    1  0.6860461E-009  0.8576572E+02  0.7561462E-02  0.1313442E+00
         -4   -1    0    0    0  501 -0.00000000000E+00  0.00000000000E+00  0.56699024751E+03  0.56699024751E+03  0.00000000000E+00 0.  1.
          4   -1    0    0  501    0  0.00000000000E+00 -0.00000000000E+00 -0.22862387058E+02  0.22862387058E+02  0.00000000000E+00 0. -1.
         25    2    1    2    0    0  0.24328837088E+01  0.53761565313E+00  0.36741430933E+03  0.38813331719E+03  0.12509192324E+03 0.  0.
         23    2    1    2    0    0 -0.24328837088E+01 -0.53761565313E+00  0.17671355112E+03  0.20171931738E+03  0.97246058529E+02 0.  0.
          5    1    3    3  502    0 -0.26864460092E+02 -0.48163203790E+02  0.26706392766E+03  0.27273064968E+03  0.41800000000E+01 0.  1.
         -5    1    3    3    0  502  0.29297343801E+02  0.48700819443E+02  0.10035038167E+03  0.11540266751E+03  0.41800000000E+01 0.  1.
        -11    1    4    4    0    0 -0.70870888725E+00  0.29320500663E+02  0.16803837729E+03  0.17057869231E+03  0.00000000000E+00 0.  1.
         11    1    4    4    0    0 -0.17241748215E+01 -0.29858116316E+02  0.86751738333E+01  0.31140625070E+02  0.00000000000E+00 0. -1.
</event>
<event>
 8    1  0.6860461E-009  0.1635043E+03  0.7561462E-02  0.1184796E+00
          3   -1    0    0  501    0  0.00000000000E+00  0.00000000000E+00  0.16677573792E+03  0.16677573792E+03  0.00000000000E+00 0. -1.
         -3   -1    0    0    0  501 -0.00000000000E+00 -0.00000000000E+00 -0.33479930813E+03  0.33479930813E+03  0.00000000000E+00 0.  1.
         25    2    1    2    0    0 -0.12758988541E+03  0.42244796891E+02  0.83597172531E+02  0.20174164297E+03  0.12508957402E+03 0.  0.
         23    2    1    2    0    0  0.12758988541E+03 -0.42244796891E+02 -0.25162074274E+03  0.29983340309E+03  0.92321556025E+02 0.  0.
          5    1    3    3  502    0 -0.50123170977E+02 -0.41927595478E+02  0.11568256685E+02  0.66494755387E+02  0.41800000000E+01 0. -1.
         -5    1    3    3    0  502 -0.77466714430E+02  0.84172392369E+02  0.72028915846E+02  0.13524688758E+03  0.41800000000E+01 0. -1.
        -11    1    4    4    0    0  0.16841340131E+02 -0.31587986287E+02 -0.13070507086E+03  0.13551843846E+03  0.00000000000E+00 0.  1.
         11    1    4    4    0    0  0.11074854528E+03 -0.10656810604E+02 -0.12091567188E+03  0.16431496462E+03  0.00000000000E+00 0. -1.
</event>
<event>
 8    1  0.6860461E-009  0.1007598E+03  0.7561462E-02  0.1278706E+00
          3   -1    0    0  501    0  0.00000000000E+00  0.00000000000E+00  0.24121705609E+03  0.24121705609E+03  0.00000000000E+00 0. -1.
         -3   -1    0    0    0  501 -0.00000000000E+00 -0.00000000000E+00 -0.48296588344E+02  0.48296588344E+02  0.00000000000E+00 0.  1.
         25    2    1    2    0    0  0.13573078895E+01  0.27011797362E+01  0.92868714573E+02  0.15582522262E+03  0.12509101966E+03 0.  0.
         23    2    1    2    0    0 -0.13573078895E+01 -0.27011797362E+01  0.10005175317E+03  0.13368842181E+03  0.88617730493E+02 0.  0.
          5    1    3    3  502    0  0.40996218692E+02  0.47878557092E+02  0.60337332441E+02  0.87356237684E+02  0.41800000000E+01 0.  1.
         -5    1    3    3    0  502 -0.39638910802E+02 -0.45177377356E+02  0.32531382132E+02  0.68468984933E+02  0.41800000000E+01 0.  1.
        -11    1    4    4    0    0 -0.38049260883E+02 -0.12629292516E+02  0.19420553807E+02  0.44546640652E+02  0.00000000000E+00 0.  1.
         11    1    4    4    0    0  0.36691952994E+02  0.99281127802E+01  0.80631199361E+02  0.89141781160E+02  0.00000000000E+00 0. -1.
</event>
<event>
 8    1  0.6860461E-009  0.1833946E+03  0.7561462E-02  0.1164558E+00
          2   -1    0    0  501    0  0.00000000000E+00  0.00000000000E+00  0.57761145814E+03  0.57761145814E+03  0.00000000000E+00 0.  1.
         -2   -1    0    0    0  501 -0.00000000000E+00 -0.00000000000E+00 -0.69228087396E+02  0.69228087396E+02  0.00000000000E+00 0. -1.
         25    2    1    2    0    0  0.15658250016E+03 -0.23013528355E+02  0.36216502389E+03  0.41456008281E+03  0.12509538714E+03 0.  0.
         23    2    1    2    0    0 -0.15658250016E+03  0.23013528355E+02  0.14621834685E+03  0.23227946272E+03  0.86753916355E+02 0.  0.
          5    1    3    3  502    0  0.41273163510E+02  0.39905071438E+02  0.18644887929E+03  0.19513212380E+03  0.41800000000E+01 0.  1.
         -5    1    3    3    0  502  0.11530933665E+03 -0.62918599793E+02  0.17571614461E+03  0.21942795901E+03  0.41800000000E+01 0.  1.
        -11    1    4    4    0    0 -0.15359901941E+03 -0.10023124484E+01  0.13864812627E+03  0.20692260948E+03  0.00000000000E+00 0.  1.
         11    1    4    4    0    0 -0.29834807499E+01  0.24015840804E+02  0.75702205794E+01  0.25356853245E+02  0.00000000000E+00 0. -1.
</event>
<event>
 8    1  0.6860461E-009  0.1866251E+03  0.7561462E-02  0.1161541E+00
          2   -1    0    0  501    0  0.00000000000E+00  0.00000000000E+00  0.19048470467E+03  0.19048470467E+03  0.00000000000E+00 0. -1.
         -2   -1    0    0    0  501 -0.00000000000E+00 -0.00000000000E+00 -0.23715423851E+03  0.23715423851E+03  0.00000000000E+00 0.  1.
         25    2    1    2    0    0  0.10223669520E+03 -0.12261138344E+03  0.63529257638E+02  0.21253052536E+03  0.12508942576E+03 0.  0.
         23    2    1    2    0    0 -0.10223669520E+03  0.12261138344E+03 -0.11019879148E+03  0.21510841782E+03  0.92962167466E+02 0.  0.
          5    1    3    3  502    0  0.87794787533E+02 -0.18778610219E+02  0.59008399423E+02  0.10751755448E+03  0.41800000000E+01 0.  1.
         -5    1    3    3    0  502  0.14441907667E+02 -0.10383277322E+03  0.45208582153E+01  0.10501297087E+03  0.41800000000E+01 0.  1.
        -11    1    4    4    0    0 -0.54315646920E+02  0.11850555411E+03 -0.10369812227E+03  0.16657447709E+03  0.00000000000E+00 0.  1.
         11    1    4    4    0    0 -0.47921048280E+02  0.41058293317E+01 -0.65006692047E+01  0.48533940731E+02  0.00000000000E+00 0. -1.
</event>
<event>
 8    1  0.6860461E-009  0.2467399E+03  0.7561462E-02  0.1115383E+00
         -2   -1    0    0    0  501 -0.00000000000E+00  0.00000000000E+00  0.14689543683E+03  0.14689543683E+03  0.00000000000E+00 0.  1.
          2   -1    0    0  501    0  0.00000000000E+00 -0.00000000000E+00 -0.45301744195E+03  0.45301744195E+03  0.00000000000E+00 0. -1.
         25    2    1    2    0    0 -0.13680783621E+03 -0.18738116017E+03 -0.19577748549E+03  0.32833396099E+03  0.12508510255E+03 0.  0.
         23    2    1    2    0    0  0.13680783621E+03  0.18738116017E+03 -0.11034451964E+03  0.27157891779E+03  0.88040401736E+02 0.  0.
          5    1    3    3  502    0 -0.11561278198E+03 -0.73161662626E+02 -0.59612754572E+02  0.14929868433E+03  0.41800000000E+01 0.  1.
         -5    1    3    3    0  502 -0.21195054227E+02 -0.11421949755E+03 -0.13616473091E+03  0.17903527666E+03  0.41800000000E+01 0.  1.
        -11    1    4    4    0    0  0.53415757798E+02  0.12585606166E+03 -0.28827802913E+02  0.13972842824E+03  0.00000000000E+00 0.  1.
         11    1    4    4    0    0  0.83392078409E+02  0.61525098509E+02 -0.81516716722E+02  0.13185048954E+03  0.00000000000E+00 0. -1.
</event>
<event>
 8    1  0.6860461E-009  0.1269340E+03  0.7561462E-02  0.1232077E+00
         -1   -1    0    0    0  501 -0.00000000000E+00  0.00000000000E+00  0.80138774896E+02  0.80138774896E+02  0.00000000000E+00 0.  1.
          1   -1    0    0  501    0  0.00000000000E+00 -0.00000000000E+00 -0.26487645679E+03  0.26487645679E+03  0.00000000000E+00 0. -1.
         25    2    1    2    0    0 -0.75231411150E+02  0.58961247292E+02 -0.86435348807E+02  0.17959446891E+03  0.12508760863E+03 0.  0.
         23    2    1    2    0    0  0.75231411150E+02 -0.58961247292E+02 -0.98302333092E+02  0.16542076278E+03  0.92544509087E+02 0.  0.
          5    1    3    3  502    0 -0.79836716106E+02  0.88253141398E+02 -0.90238880874E+02  0.14940898978E+03  0.41800000000E+01 0. -1.
         -5    1    3    3    0  502  0.46053049563E+01 -0.29291894106E+02  0.38035320677E+01  0.30185479129E+02  0.41800000000E+01 0. -1.
        -11    1    4    4    0    0  0.55837615220E+00 -0.21123838955E+02 -0.75866186185E+02  0.78754089179E+02  0.00000000000E+00 0. -1.
         11    1    4    4    0    0  0.74673034998E+02 -0.37837408337E+02 -0.22436146907E+02  0.86666673603E+02  0.00000000000E+00 0.  1.
</event>
<event>
 8    1  0.6860461E-009  0.1528638E+03  0.7561462E-02  0.1196998E+00
          1   -1    0    0  501    0  0.00000000000E+00  0.00000000000E+00  0.60945673766E+02  0.60945673766E+02  0.00000000000E+00 0. -1.
         -1   -1    0    0    0  501 -0.00000000000E+00 -0.00000000000E+00 -0.42504437837E+03  0.42504437837E+03  0.00000000000E+00 0.  1.
         25    2    1    2    0    0 -0.99327151162E+02 -0.60761474507E+02 -0.23222740374E+03  0.28833205049E+03  0.12509182446E+03 0.  0.
         23    2    1    2    0    0  0.99327151162E+02  0.60761474507E+02 -0.13187130086E+03  0.19765800165E+03  0.90115514107E+02 0.  0.
          5    1    3    3  502    0  0.19517630605E+02 -0.44847662484E+02 -0.49320115017E+02  0.69585895697E+02  0.41800000000E+01 0. -1.
         -5    1    3    3    0  502 -0.11884478177E+03 -0.15913812023E+02 -0.18290728873E+03  0.21874615479E+03  0.41800000000E+01 0. -1.
        -11    1    4    4    0    0 -0.17828777691E+01 -0.11974184800E+02 -0.42939960891E+02  0.44613899136E+02  0.00000000000E+00 0.  1.
         11    1    4    4    0    0  0.10111002893E+03  0.72735659307E+02 -0.88931339970E+02  0.15304410251E+03  0.00000000000E+00 0. -1.
</event>
<event>
 8    1  0.6860461E-009  0.1649129E+03  0.7561462E-02  0.1183259E+00
          1   -1    0    0  501    0  0.00000000000E+00  0.00000000000E+00  0.16229799269E+03  0.16229799269E+03  0.00000000000E+00 0. -1.
         -1   -1    0    0    0  501 -0.00000000000E+00 -0.00000000000E+00 -0.18619164212E+03  0.18619164212E+03  0.00000000000E+00 0.  1.
         25    2    1    2    0    0  0.69729545872E+02  0.11695452351E+03 -0.34882833773E+02  0.18816134316E+03  0.12508920350E+03 0.  0.
         23    2    1    2    0    0 -0.69729545872E+02 -0.11695452351E+03  0.10989184342E+02  0.16032829165E+03  0.83927521081E+02 0.  0.
          5    1    3    3  502    0 -0.33636414381E+02  0.54070186913E+02 -0.10725763431E+02  0.64710956464E+02  0.41800000000E+01 0.  1.
         -5    1    3    3    0  502  0.10336596025E+03  0.62884336596E+02 -0.24157070342E+02  0.12345038670E+03  0.41800000000E+01 0.  1.
        -11    1    4    4    0    0 -0.41317170269E+02 -0.24078253504E+02  0.36208242860E+02  0.59982561648E+02  0.00000000000E+00 0. -1.
         11    1    4    4    0    0 -0.28412375603E+02 -0.92876270005E+02 -0.25219058518E+02  0.10034573000E+03  0.00000000000E+00 0.  1.
</event>
<event>
 8    1  0.6860461E-009  0.1115642E+03  0.7561462E-02  0.1257700E+00
          1   -1    0    0  501    0  0.00000000000E+00  0.00000000000E+00  0.19564473799E+03  0.19564473799E+03  0.00000000000E+00 0. -1.
         -1   -1    0    0    0  501 -0.00000000000E+00 -0.00000000000E+00 -0.97688163592E+02  0.97688163592E+02  0.00000000000E+00 0.  1.
         25    2    1    2    0    0  0.71223077177E+02 -0.45512503610E+02  0.66630790401E+02  0.16502228887E+03  0.12509428000E+03 0.  0.
         23    2    1    2    0    0 -0.71223077177E+02  0.45512503610E+02  0.31325783993E+02  0.12831061270E+03  0.91313711359E+02 0.  0.
          5    1    3    3  502    0  0.10546809316E+02 -0.35255271765E+02  0.91351691568E+02  0.98573694900E+02  0.41800000000E+01 0. -1.
         -5    1    3    3    0  502  0.60676267861E+02 -0.10257231845E+02 -0.24720901167E+02  0.66448593975E+02  0.41800000000E+01 0. -1.
        -11    1    4    4    0    0 -0.89113921847E+02  0.16951510299E+02  0.23700790015E+02  0.93756984890E+02  0.00000000000E+00 0. -1.
         11    1    4    4    0    0  0.17890844670E+02  0.28560993311E+02  0.76249939776E+01  0.34553627813E+02  0.00000000000E+00 0.  1.
</event>
<event>
 8    1  0.6860461E-009  0.1153407E+03  0.7561462E-02  0.1250988E+00
         -1   -1    0    0    0  501 -0.00000000000E+00  0.00000000000E+00  0.26760524239E+02  0.26760524239E+02  0.00000000000E+00 0.  1.
          1   -1    0    0  501    0  0.00000000000E+00 -0.00000000000E+00 -0.66642659034E+03  0.66642659034E+03  0.00000000000E+00 0. -1.
         25    2    1    2    0    0 -0.31935202432E+02 -0.71039618272E+02 -0.33206181460E+03  0.36328650941E+03  0.12508219172E+03 0.  0.
         23    2    1    2    0    0  0.31935202432E+02  0.71039618272E+02 -0.30760425150E+03  0.32990060517E+03  0.90263775856E+02 0.  0.
          5    1    3    3  502    0  0.17465048003E+02  0.16623629055E+02 -0.17504330095E+03  0.17674558708E+03  0.41800000000E+01 0. -1.
         -5    1    3    3    0  502 -0.49400250435E+02 -0.87663247327E+02 -0.15701851366E+03  0.18654092233E+03  0.41800000000E+01 0. -1.
        -11    1    4    4    0    0 -0.16184334170E+02  0.50765521824E+02 -0.78189621316E+02  0.94618643829E+02  0.00000000000E+00 0.  1.
         11    1    4    4    0    0  0.48119536602E+02  0.20274096448E+02 -0.22941463018E+03  0.23528196134E+03  0.00000000000E+00 0. -1.
</event>
<event>
 8    1  0.6860461E-009  0.1456239E+03  0.7561462E-02  0.1205956E+00
         -2   -1    0    0    0  501 -0.00000000000E+00  0.00000000000E+00  0.59350173759E+02  0.59350173759E+02  0.00000000000E+00 0.  1.
          2   -1    0    0  501    0  0.00000000000E+00 -0.00000000000E+00 -0.49594703849E+03  0.49594703849E+03  0.00000000000E+00 0. -1.
         25    2    1    2    0    0 -0.10196318647E+01 -0.12913177103E+03 -0.18537572805E+03  0.25824032211E+03  0.12509136452E+03 0.  0.
         23    2    1    2    0    0  0.10196318647E+01  0.12913177103E+03 -0.25122113668E+03  0.29705689014E+03  0.91949347607E+02 0.  0.
          5    1    3    3  502    0 -0.14671766341E+02 -0.43780846348E+02  0.73838438587E+01  0.46946957139E+02  0.41800000000E+01 0. -1.
         -5    1    3    3    0  502  0.13652134476E+02 -0.85350924678E+02 -0.19275957191E+03  0.21129336497E+03  0.41800000000E+01 0. -1.
        -11    1    4    4    0    0 -0.40883831741E+02  0.97876640122E+02 -0.16156077231E+03  0.19326977914E+03  0.00000000000E+00 0. -1.
         11    1    4    4    0    0  0.41903463606E+02  0.31255130904E+02 -0.89660364373E+02  0.10378711100E+03  0.00000000000E+00 0.  1.
</event>
<event>
 8    1  0.6860461E-009  0.1571638E+03  0.7561462E-02  0.1191937E+00
          1   -1    0    0  501    0  0.00000000000E+00  0.00000000000E+00  0.20432146458E+03  0.20432146458E+03  0.00000000000E+00 0. -1.
         -1   -1    0    0    0  501 -0.00000000000E+00 -0.00000000000E+00 -0.15340522671E+03  0.15340522671E+03  0.00000000000E+00 0.  1.
         25    2    1    2    0    0 -0.10151055988E+03 -0.72038618658E+02 -0.36812055300E+02  0.18026799299E+03  0.12508982987E+03 0.  0.
         23    2    1    2    0    0  0.10151055988E+03  0.72038618658E+02  0.87728293167E+02  0.17745869830E+03  0.91111908306E+02 0.  0.
          5    1    3    3  502    0 -0.10886185406E+03 -0.53026062975E+01 -0.26105295951E+02  0.11215159285E+03  0.41800000000E+01 0. -1.
         -5    1    3    3    0  502  0.73512941843E+01 -0.66736012360E+02 -0.10706759348E+02  0.68116400137E+02  0.41800000000E+01 0. -1.
        -11    1    4    4    0    0  0.36201311364E+02 -0.54911337423E+01 -0.86072259174E+01  0.37613452810E+02  0.00000000000E+00 0. -1.
         11    1    4    4    0    0  0.65309248512E+02  0.77529752400E+02  0.96335519085E+02  0.13984524549E+03  0.00000000000E+00 0.  1.
</event>
<event>
 8    1  0.6860461E-009  0.2431189E+03  0.7561462E-02  0.1117732E+00
         -2   -1    0    0    0  501 -0.00000000000E+00  0.00000000000E+00  0.42869274403E+03  0.42869274403E+03  0.00000000000E+00 0. -1.
          2   -1    0    0  501    0  0.00000000000E+00 -0.00000000000E+00 -0.15824785452E+03  0.15824785452E+03  0.00000000000E+00 0.  1.
         25    2    1    2    0    0  0.22914758910E+03  0.57304896171E+02  0.15636284562E+03  0.30965970032E+03  0.12508925533E+03 0.  0.
         23    2    1    2    0    0 -0.22914758910E+03 -0.57304896171E+02  0.11408204389E+03  0.27728089823E+03  0.89874996906E+02 0.  0.
          5    1    3    3  502    0  0.10894527030E+03  0.64991200512E+02  0.13843124648E+03  0.18781270049E+03  0.41800000000E+01 0.  1.
         -5    1    3    3    0  502  0.12020231881E+03 -0.76863043415E+01  0.17931599138E+02  0.12184699983E+03  0.41800000000E+01 0.  1.
        -11    1    4    4    0    0 -0.16603534171E+02 -0.14359331046E+02 -0.13424751403E+02  0.25731142324E+02  0.00000000000E+00 0.  1.
         11    1    4    4    0    0 -0.21254405493E+03 -0.42945565125E+02  0.12750679530E+03  0.25154975591E+03  0.00000000000E+00 0. -1.
</event>
<event>
 8    1  0.6860461E-009  0.1388205E+03  0.7561462E-02  0.1214925E+00
         -1   -1    0    0    0  501 -0.00000000000E+00  0.00000000000E+00  0.76155096489E+03  0.76155096489E+03  0.00000000000E+00 0.  1.
          1   -1    0    0  501    0  0.00000000000E+00 -0.00000000000E+00 -0.33714104044E+02  0.33714104044E+02  0.00000000000E+00 0. -1.
         25    2    1    2    0    0 -0.63767784140E+02  0.84074727007E+02  0.52362068057E+03  0.54860046235E+03  0.12509580390E+03 0.  0.
         23    2    1    2    0    0  0.63767784140E+02 -0.84074727007E+02  0.20421618027E+03  0.24666460658E+03  0.89466696818E+02 0.  0.
          5    1    3    3  502    0 -0.78286279578E+02  0.61559255680E+01  0.33212432688E+03  0.34130730713E+03  0.41800000000E+01 0. -1.
         -5    1    3    3    0  502  0.14518495438E+02  0.77918801439E+02  0.19149635369E+03  0.20729315523E+03  0.41800000000E+01 0. -1.
        -11    1    4    4    0    0  0.70849348164E+02 -0.54957550325E+02  0.19608701421E+03  0.21561558296E+03  0.00000000000E+00 0.  1.
         11    1    4    4    0    0 -0.70815640246E+01 -0.29117176682E+02  0.81291660610E+01  0.31049023621E+02  0.00000000000E+00 0. -1.
</event>
<event>
 8    1  0.6860461E-009  0.8710443E+02  0.7561462E-02  0.1310019E+00
          2   -1    0    0  501    0  0.00000000000E+00  0.00000000000E+00  0.19253628202E+03  0.19253628202E+03  0.00000000000E+00 0. -1.
         -2   -1    0    0    0  501 -0.00000000000E+00 -0.00000000000E+00 -0.65953574970E+02  0.65953574970E+02  0.00000000000E+00 0.  1.
         25    2    1    2    0    0 -0.28739142017E+02  0.27018048164E+02  0.84538217594E+02  0.15604613027E+03  0.12509105215E+03 0.  0.
         23    2    1    2    0    0  0.28739142017E+02 -0.27018048164E+02  0.42044489458E+02  0.10244372672E+03  0.84682140036E+02 0.  0.
          5    1    3    3  502    0 -0.35375163233E+02  0.58679525698E+02  0.35509876703E+01  0.68736968389E+02  0.41800000000E+01 0.  1.
         -5    1    3    3    0  502  0.66360212161E+01 -0.31661477534E+02  0.80987229924E+02  0.87309161879E+02  0.41800000000E+01 0.  1.
        -11    1    4    4    0    0 -0.19451318863E+02 -0.97162531348E+01 -0.14520999034E+02  0.26146104747E+02  0.00000000000E+00 0.  1.
         11    1    4    4    0    0  0.48190460880E+02 -0.17301795029E+02  0.56565488492E+02  0.76297621977E+02  0.00000000000E+00 0. -1.
</event>
<event>
 8    1  0.6860461E-009  0.2564646E+03  0.7561462E-02  0.1109286E+00
         -2   -1    0    0    0  501 -0.00000000000E+00  0.00000000000E+00  0.21572907457E+03  0.21572907457E+03  0.00000000000E+00 0.  1.
          2   -1    0    0  501    0  0.00000000000E+00 -0.00000000000E+00 -0.36897971623E+03  0.36897971623E+03  0.00000000000E+00 0. -1.
         25    2    1    2    0    0  0.23317347675E+03  0.99081548763E+02 -0.16097224875E+02  0.28300674818E+03  0.12508667115E+03 0.  0.
         23    2    1    2    0    0 -0.23317347675E+03 -0.99081548763E+02 -0.13715341678E+03  0.30170204263E+03  0.89588164542E+02 0.  0.
          5    1    3    3  502    0  0.17786793514E+03  0.48250575791E+02  0.40649373953E+02  0.18877225542E+03  0.41800000000E+01 0.  1.
         -5    1    3    3    0  502  0.55305541613E+02  0.50830972972E+02 -0.56746598828E+02  0.94234492756E+02  0.41800000000E+01 0.  1.
        -11    1    4    4    0    0 -0.22086031416E+03 -0.94031649376E+02 -0.15012053159E+03  0.28312082838E+03  0.00000000000E+00 0.  1.
         11    1    4    4    0    0 -0.12313162589E+02 -0.50498993871E+01  0.12967114805E+02  0.18581214253E+02  0.00000000000E+00 0. -1.
</event>
<event>
 8    1  0.6860461E-009  0.7533273E+02  0.7561462E-02  0.1342844E+00
          4   -1    0    0  501    0  0.00000000000E+00  0.00000000000E+00  0.29880343775E+03  0.29880343775E+03  0.00000000000E+00 0. -1.
         -4   -1    0    0    0  501 -0.00000000000E+00 -0.00000000000E+00 -0.53453903150E+02  0.53453903150E+02  0.00000000000E+00 0.  1.
         25    2    1    2    0    0  0.31132650791E+02 -0.32992765613E+02  0.69322262131E+02  0.15003700996E+03  0.12509102207E+03 0.  0.
         23    2    1    2    0    0 -0.31132650791E+02  0.32992765613E+02  0.17602727247E+03  0.20222033095E+03  0.88598516160E+02 0.  0.
          5    1    3    3  502    0  0.46868925496E+02 -0.71720174684E+01 -0.22953074844E+02  0.52843637806E+02  0.41800000000E+01 0. -1.
         -5    1    3    3    0  502 -0.15736274705E+02 -0.25820748144E+02  0.92275336976E+02  0.97193372152E+02  0.41800000000E+01 0. -1.
        -11    1    4    4    0    0 -0.25853423263E+02 -0.11098703602E+02  0.14583004899E+03  0.14851930482E+03  0.00000000000E+00 0. -1.
         11    1    4    4    0    0 -0.52792275279E+01  0.44091469214E+02  0.30197223482E+02  0.53701026124E+02  0.00000000000E+00 0.  1.
</event>
<event>
 8    1  0.6860461E-009  0.9205223E+02  0.7561462E-02  0.1297957E+00
          2   -1    0    0  501    0  0.00000000000E+00  0.00000000000E+00  0.88773484288E+02  0.88773484288E+02  0.00000000000E+00 0. -1.
         -2   -1    0    0    0  501 -0.00000000000E+00 -0.00000000000E+00 -0.16514331138E+03  0.16514331138E+03  0.00000000000E+00 0.  1.
         25    2    1    2    0    0  0.45233575380E+02  0.18596205971E+02 -0.61860865521E+02  0.14787950779E+03  0.12509870872E+03 0.  0.
         23    2    1    2    0    0 -0.45233575380E+02 -0.18596205971E+02 -0.14508961575E+02  0.10603728788E+03  0.92959675331E+02 0.  0.
          5    1    3    3  502    0  0.25534377597E+02 -0.36654706901E+02  0.18304999556E+02  0.48457377003E+02  0.41800000000E+01 0. -1.
         -5    1    3    3    0  502  0.19699197783E+02  0.55250912871E+02 -0.80165865077E+02  0.99422130785E+02  0.41800000000E+01 0. -1.
        -11    1    4    4    0    0 -0.56721242654E+02 -0.30066546829E+02 -0.40128656614E+02  0.75707368783E+02  0.00000000000E+00 0.  1.
         11    1    4    4    0    0  0.11487667274E+02  0.11470340858E+02  0.25619695039E+02  0.30329919101E+02  0.00000000000E+00 0. -1.
</event>
<event>
 8    1  0.6860461E-009  0.1213703E+03  0.7561462E-02  0.1240854E+00
         -2   -1    0    0    0  501 -0.00000000000E+00  0.00000000000E+00  0.10276595022E+02  0.10276595022E+02  0.00000000000E+00 0. -1.
          2   -1    0    0  501    0  0.00000000000E+00 -0.00000000000E+00 -0.20392955439E+04  0.20392955439E+04  0.00000000000E+00 0.  1.
         25    2    1    2    0    0 -0.61424711224E+02  0.52496033939E+02 -0.13861447729E+04  0.13941203727E+04  0.12508178723E+03 0.  0.
         23    2    1    2    0    0  0.61424711224E+02 -0.52496033939E+02 -0.64287417597E+03  0.65545176618E+03  0.98999913817E+02 0.  0.
          5    1    3    3  502    0 -0.26490164647E+01 -0.20626074962E+02 -0.81737048027E+03  0.81764566083E+03  0.41800000000E+01 0.  1.
         -5    1    3    3    0  502 -0.58775694759E+02  0.73122108901E+02 -0.56877429261E+03  0.57647471188E+03  0.41800000000E+01 0.  1.
        -11    1    4    4    0    0  0.70295285607E+02 -0.75383789077E+02 -0.53195825240E+03  0.54185212478E+03  0.00000000000E+00 0.  1.
         11    1    4    4    0    0 -0.88705743837E+01  0.22887755138E+02 -0.11091592357E+03  0.11359964140E+03  0.00000000000E+00 0. -1.
</event>
<event>
 8    1  0.6860461E-009  0.1195814E+03  0.7561462E-02  0.1243789E+00
          2   -1    0    0  501    0  0.00000000000E+00  0.00000000000E+00  0.45037044936E+03  0.45037044936E+03  0.00000000000E+00 0. -1.
         -2   -1    0    0    0  501 -0.00000000000E+00 -0.00000000000E+00 -0.42122361033E+02  0.42122361033E+02  0.00000000000E+00 0.  1.
         25    2    1    2    0    0  0.43569058620E+02  0.68117399765E+02  0.27461988687E+03  0.31241201411E+03  0.12508773432E+03 0.  0.
         23    2    1    2    0    0 -0.43569058620E+02 -0.68117399765E+02  0.13362820145E+03  0.18008079628E+03  0.89634557755E+02 0.  0.
          5    1    3    3  502    0 -0.15493728279E+02  0.84820908180E+02  0.17869028443E+03  0.19844982296E+03  0.41800000000E+01 0. -1.
         -5    1    3    3    0  502  0.59062786899E+02 -0.16703508416E+02  0.95929602438E+02  0.11396219116E+03  0.41800000000E+01 0. -1.
        -11    1    4    4    0    0 -0.25032177421E+02 -0.49923587256E+01  0.10547514011E+03  0.10851976195E+03  0.00000000000E+00 0. -1.
         11    1    4    4    0    0 -0.18536881199E+02 -0.63125041039E+02  0.28153061340E+02  0.71561034324E+02  0.00000000000E+00 0.  1.
</event>
<event>
 8    1  0.6860461E-009  0.6450105E+02  0.7561462E-02  0.1379858E+00
         -1   -1    0    0    0  501 -0.00000000000E+00  0.00000000000E+00  0.39803513026E+02  0.39803513026E+02  0.00000000000E+00 0.  1.
          1   -1    0    0  501    0  0.00000000000E+00 -0.00000000000E+00 -0.30649460650E+03  0.30649460650E+03  0.00000000000E+00 0. -1.
         25    2    1    2    0    0  0.15112325079E+02  0.11999280081E+02 -0.14481148848E+03  0.19232742029E+03  0.12508838597E+03 0.  0.
         23    2    1    2    0    0 -0.15112325079E+02 -0.11999280081E+02 -0.12187960499E+03  0.15397069923E+03  0.92086768969E+02 0.  0.
          5    1    3    3  502    0  0.34648756915E+02  0.26645546510E+02  0.14991320692E+01  0.43934511509E+02  0.41800000000E+01 0. -1.
         -5    1    3    3    0  502 -0.19536431836E+02 -0.14646266429E+02 -0.14631062055E+03  0.14839290878E+03  0.41800000000E+01 0. -1.
        -11    1    4    4    0    0 -0.65400357769E+01  0.23194207884E+02  0.26837091056E+01  0.24247590434E+02  0.00000000000E+00 0.  1.
         11    1    4    4    0    0 -0.85722893019E+01 -0.35193487965E+02 -0.12456331409E+03  0.12972310880E+03  0.00000000000E+00 0. -1.
</event>
<event>
 8    1  0.6860461E-009  0.1307626E+03  0.7561462E-02  0.1226329E+00
         -1   -1    0    0    0  501 -0.00000000000E+00  0.00000000000E+00  0.45416643142E+03  0.45416643142E+03  0.00000000000E+00 0.  1.
          1   -1    0    0  501    0  0.00000000000E+00 -0.00000000000E+00 -0.43911506073E+02  0.43911506073E+02  0.00000000000E+00 0. -1.
         25    2    1    2    0    0 -0.61383629976E+02  0.63483793725E+02  0.18445118805E+03  0.23972497430E+03  0.12509068885E+03 0.  0.
         23    2    1    2    0    0  0.61383629976E+02 -0.63483793725E+02  0.22580373730E+03  0.25835296319E+03  0.89223224095E+02 0.  0.
          5    1    3    3  502    0 -0.85000345026E+02  0.15705416721E+02  0.63044589336E+02  0.10706918984E+03  0.41800000000E+01 0.  1.
         -5    1    3    3    0  502  0.23616715050E+02  0.47778377005E+02  0.12140659872E+03  0.13265578446E+03  0.41800000000E+01 0.  1.
        -11    1    4    4    0    0  0.33724608155E+02 -0.81712990037E+02  0.19010419882E+03  0.20965201727E+03  0.00000000000E+00 0.  1.
         11    1    4    4    0    0  0.27659021821E+02  0.18229196312E+02  0.35699538477E+02  0.48700945923E+02  0.00000000000E+00 0. -1.
</event>
<event>
 8    1  0.6860461E-009  0.1167171E+03  0.7561462E-02  0.1248613E+00
          2   -1    0    0  501    0  0.00000000000E+00  0.00000000000E+00  0.43961773159E+03  0.43961773159E+03  0.00000000000E+00 0. -1.
         -2   -1    0    0    0  501 -0.00000000000E+00 -0.00000000000E+00 -0.52386397915E+02  0.52386397915E+02  0.00000000000E+00 0.  1.
         25    2    1    2    0    0 -0.22262732585E+02  0.81723660190E+02  0.31249800606E+03  0.34709756824E+03  0.12508929686E+03 0.  0.
         23    2    1    2    0    0  0.22262732585E+02 -0.81723660190E+02  0.74733327615E+02  0.14490656127E+03  0.90765937136E+02 0.  0.
          5    1    3    3  502    0  0.39867484036E+02 -0.98648978325E+00  0.45052407678E+02  0.60312364264E+02  0.41800000000E+01 0. -1.
         -5    1    3    3    0  502 -0.62130216621E+02  0.82710149973E+02  0.26744559838E+03  0.28678520397E+03  0.41800000000E+01 0. -1.
        -11    1    4    4    0    0  0.12056220219E+02 -0.61289262906E+01 -0.19460855152E+02  0.23698967629E+02  0.00000000000E+00 0.  1.
         11    1    4    4    0    0  0.10206512366E+02 -0.75594733899E+02  0.94194182767E+02  0.12120759364E+03  0.00000000000E+00 0. -1.
</event>
<event>
 8    1  0.6860461E-009  0.1391644E+03  0.7561462E-02  0.1214458E+00
          1   -1    0    0  501    0  0.00000000000E+00  0.00000000000E+00  0.28288612770E+03  0.28288612770E+03  0.00000000000E+00 0. -1.
         -1   -1    0    0    0  501 -0.00000000000E+00 -0.00000000000E+00 -0.87059683007E+02  0.87059683007E+02  0.00000000000E+00 0.  1.
         25    2    1    2    0    0  0.50895591546E+01 -0.89771519137E+02  0.24032203347E+02  0.15591516113E+03  0.12508861424E+03 0.  0.
         23    2    1    2    0    0 -0.50895591546E+01  0.89771519137E+02  0.17179424135E+03  0.21403064958E+03  0.90614724724E+02 0.  0.
          5    1    3    3  502    0  0.62832026644E+02 -0.27106846174E+02  0.14458091129E+02  0.70065351500E+02  0.41800000000E+01 0. -1.
         -5    1    3    3    0  502 -0.57742467489E+02 -0.62664672963E+02  0.95741122179E+01  0.85849809633E+02  0.41800000000E+01 0. -1.
        -11    1    4    4    0    0 -0.11567502034E+01 -0.17287330532E+02  0.10064991440E+02  0.20037313209E+02  0.00000000000E+00 0. -1.
         11    1    4    4    0    0 -0.39328089512E+01  0.10705884967E+03  0.16172924991E+03  0.19399333637E+03  0.00000000000E+00 0.  1.
</event>
<event>
 8    1  0.6860461E-009  0.9991298E+02  0.7561462E-02  0.1280479E+00
          2   -1    0    0  501    0  0.00000000000E+00  0.00000000000E+00  0.24321646539E+03  0.24321646539E+03  0.00000000000E+00 0.  1.
         -2   -1    0    0    0  501 -0.00000000000E+00 -0.00000000000E+00 -0.90475300272E+02  0.90475300272E+02  0.00000000000E+00 0. -1.
         25    2    1    2    0    0  0.40213564918E+02  0.34811126831E+02  0.17887614603E+03  0.22466121793E+03  0.12508813641E+03 0.  0.
         23    2    1    2    0    0 -0.40213564918E+02 -0.34811126831E+02 -0.26134980912E+02  0.10903054773E+03  0.91518728992E+02 0.  0.
          5    1    3    3  502    0  0.33378217775E+02  0.63082103028E+02  0.18158588017E+03  0.19515214941E+03  0.41800000000E+01 0. -1.
         -5    1    3    3    0  502  0.68353471427E+01 -0.28270976197E+02 -0.27097341392E+01  0.29509068518E+02  0.41800000000E+01 0. -1.
        -11    1    4    4    0    0  0.25538775093E+02 -0.24202671434E+01  0.97204254281E+01  0.27433071224E+02  0.00000000000E+00 0.  1.
         11    1    4    4    0    0 -0.65752340011E+02 -0.32390859687E+02 -0.35855406340E+02  0.81597476505E+02  0.00000000000E+00 0. -1.
</event>
<event>
 8    1  0.6860461E-009  0.1041630E+03  0.7561462E-02  0.1271778E+00
         -1   -1    0    0    0  501 -0.00000000000E+00  0.00000000000E+00  0.48773921432E+02  0.48773921432E+02  0.00000000000E+00 0.  1.
          1   -1    0    0  501    0  0.00000000000E+00 -0.00000000000E+00 -0.45151623853E+03  0.45151623853E+03  0.00000000000E+00 0. -1.
         25    2    1    2    0    0  0.59228751354E+02  0.51682817748E+02 -0.10963843011E+03  0.18398236575E+03  0.12509902842E+03 0.  0.
         23    2    1    2    0    0 -0.59228751354E+02 -0.51682817748E+02 -0.29310388699E+03  0.31630779422E+03  0.89227649723E+02 0.  0.
          5    1    3    3  502    0  0.56046837380E+02  0.17945659492E+02  0.97582595741E+01  0.59799587831E+02  0.41800000000E+01 0.  1.
         -5    1    3    3    0  502  0.31819139735E+01  0.33737158256E+02 -0.11939668968E+03  0.12418277792E+03  0.41800000000E+01 0.  1.
        -11    1    4    4    0    0  0.17976880844E+02  0.58443089025E+01 -0.84026073458E+02  0.86126100644E+02  0.00000000000E+00 0.  1.
         11    1    4    4    0    0 -0.77205632198E+02 -0.57527126650E+02 -0.20907781353E+03  0.23018169357E+03  0.00000000000E+00 0. -1.
</event>
<event>
 8    1  0.6860461E-009  0.6717800E+02  0.7561462E-02  0.1369961E+00
         -2   -1    0    0    0  501 -0.00000000000E+00  0.00000000000E+00  0.24516330487E+02  0.24516330487E+02  0.00000000000E+00 0.  1.
          2   -1    0    0  501    0  0.00000000000E+00 -0.00000000000E+00 -0.67647851567E+03  0.67647851567E+03  0.00000000000E+00 0. -1.
         25    2    1    2    0    0  0.29329341714E+02 -0.51522833324E+01 -0.53055581515E+03  0.54591312503E+03  0.12507961779E+03 0.  0.
         23    2    1    2    0    0 -0.29329341714E+02  0.51522833324E+01 -0.12140637003E+03  0.15508172112E+03  0.91782771983E+02 0.  0.
          5    1    3    3  502    0  0.11811691131E+01  0.27268141527E+02 -0.21401980880E+02  0.34935138305E+02  0.41800000000E+01 0.  1.
         -5    1    3    3    0  502  0.28148172601E+02 -0.32420424860E+02 -0.50915383427E+03  0.51097798673E+03  0.41800000000E+01 0.  1.
        -11    1    4    4    0    0 -0.17394983293E+02  0.30769111384E+02 -0.12179346787E+03  0.12681865981E+03  0.00000000000E+00 0. -1.
         11    1    4    4    0    0 -0.11934358421E+02 -0.25616828051E+02  0.38709783612E+00  0.28263061318E+02  0.00000000000E+00 0.  1.
</event>
<event>
 8    1  0.6860461E-009  0.1121658E+03  0.7561462E-02  0.1256611E+00
         -2   -1    0    0    0  501 -0.00000000000E+00  0.00000000000E+00  0.13218932640E+02  0.13218932640E+02  0.00000000000E+00 0.  1.
          2   -1    0    0  501    0  0.00000000000E+00 -0.00000000000E+00 -0.99503555361E+03  0.99503555361E+03  0.00000000000E+00 0. -1.
         25    2    1    2    0    0  0.15528012390E+02 -0.36068272386E+02 -0.61054401582E+03  0.62446190157E+03  0.12508649734E+03 0.  0.
         23    2    1    2    0    0 -0.15528012390E+02  0.36068272386E+02 -0.37127260515E+03  0.38379258468E+03  0.88945833393E+02 0.  0.
          5    1    3    3  502    0 -0.41019074590E+02  0.22512163347E+02 -0.28611967730E+03  0.28995052012E+03  0.41800000000E+01 0. -1.
         -5    1    3    3    0  502  0.56547086979E+02 -0.58580435734E+02 -0.32442433852E+03  0.33451138145E+03  0.41800000000E+01 0. -1.
        -11    1    4    4    0    0 -0.14323309713E+02  0.65157418488E+02 -0.28632609408E+03  0.29399537162E+03  0.00000000000E+00 0.  1.
         11    1    4    4    0    0 -0.12047026768E+01 -0.29089146102E+02 -0.84946511070E+02  0.89797213055E+02  0.00000000000E+00 0. -1.
</event>
<event>
 8    1  0.6860461E-009  0.1506011E+03  0.7561462E-02  0.1199736E+00
         -2   -1    0    0    0  501 -0.00000000000E+00  0.00000000000E+00  0.10085102678E+03  0.10085102678E+03  0.00000000000E+00 0. -1.
          2   -1    0    0  501    0  0.00000000000E+00 -0.00000000000E+00 -0.27324032581E+03  0.27324032581E+03  0.00000000000E+00 0.  1.
         25    2    1    2    0    0  0.53956734039E+02  0.10305887570E+03 -0.14446303973E+03  0.22371582865E+03  0.12508693430E+03 0.  0.
         23    2    1    2    0    0 -0.53956734039E+02 -0.10305887570E+03 -0.27926259299E+02  0.15037552393E+03  0.91106867086E+02 0.  0.
          5    1    3    3  502    0  0.46656526527E+02 -0.10676238123E+02 -0.78307084909E+02  0.91871026309E+02  0.41800000000E+01 0.  1.
         -5    1    3    3    0  502  0.73002075116E+01  0.11373511382E+03 -0.66155954825E+02  0.13184480234E+03  0.41800000000E+01 0.  1.
        -11    1    4    4    0    0 -0.67790473651E+02 -0.49882334566E+02  0.82817290158E+01  0.84571760388E+02  0.00000000000E+00 0.  1.
         11    1    4    4    0    0  0.13833739612E+02 -0.53176541135E+02 -0.36207988314E+02  0.65803763544E+02  0.00000000000E+00 0. -1.
</event>
<event>
 8    1  0.6860461E-009  0.2244504E+03  0.7561462E-02  0.1130608E+00
          1   -1    0    0  501    0  0.00000000000E+00  0.00000000000E+00  0.14188125536E+03  0.14188125536E+03  0.00000000000E+00 0. -1.
         -1   -1    0    0    0  501 -0.00000000000E+00 -0.00000000000E+00 -0.38183808339E+03  0.38183808339E+03  0.00000000000E+00 0.  1.
         25    2    1    2    0    0  0.95836516312E+02 -0.18338653382E+03 -0.14697258003E+03  0.28295460970E+03  0.12508842161E+03 0.  0.
         23    2    1    2    0    0 -0.95836516312E+02  0.18338653382E+03 -0.92984248001E+02  0.24076472906E+03  0.80661798500E+02 0.  0.
          5    1    3    3  502    0  0.29332771977E+02 -0.15830626739E+03 -0.13624236762E+03  0.21095198729E+03  0.41800000000E+01 0.  1.
         -5    1    3    3    0  502  0.66503744334E+02 -0.25080266436E+02 -0.10730212405E+02  0.72002622405E+02  0.41800000000E+01 0.  1.
        -11    1    4    4    0    0 -0.50064675456E+02  0.34287101259E+02 -0.50947513281E+02  0.79232103031E+02  0.00000000000E+00 0. -1.
         11    1    4    4    0    0 -0.45771840856E+02  0.14909943256E+03 -0.42036734721E+02  0.16153262603E+03  0.00000000000E+00 0.  1.
</event>
<event>
 8    1  0.6860461E-009  0.1851352E+03  0.7561462E-02  0.1162924E+00
         -1   -1    0    0    0  501 -0.00000000000E+00  0.00000000000E+00  0.45108954838E+02  0.45108954838E+02  0.00000000000E+00 0.  1.
          1   -1    0    0  501    0  0.00000000000E+00 -0.00000000000E+00 -0.11449278295E+04  0.11449278295E+04  0.00000000000E+00 0. -1.
         25    2    1    2    0    0  0.11616612932E+03  0.12753236257E+03 -0.83311153758E+03  0.85993068280E+03  0.12508745770E+03 0.  0.
         23    2    1    2    0    0 -0.11616612932E+03 -0.12753236257E+03 -0.26670733713E+03  0.33010610159E+03  0.89878593231E+02 0.  0.
          5    1    3    3  502    0  0.34609274920E+02 -0.10994957867E+02 -0.32328420647E+03  0.32534418938E+03  0.41800000000E+01 0. -1.
         -5    1    3    3    0  502  0.81556854397E+02  0.13852732043E+03 -0.50982733110E+03  0.53458649342E+03  0.41800000000E+01 0. -1.
        -11    1    4    4    0    0 -0.41543888663E+02 -0.37427282859E+02 -0.16791586006E+03  0.17698144606E+03  0.00000000000E+00 0.  1.
         11    1    4    4    0    0 -0.74622240654E+02 -0.90105079708E+02 -0.98791477070E+02  0.15312465553E+03  0.00000000000E+00 0. -1.
</event>
<event>
 8    1  0.6860461E-009  0.9245782E+02  0.7561462E-02  0.1297007E+00
         -1   -1    0    0    0  501 -0.00000000000E+00  0.00000000000E+00  0.79642248245E+02  0.79642248245E+02  0.00000000000E+00 0.  1.
          1   -1    0    0  501    0  0.00000000000E+00 -0.00000000000E+00 -0.19343870381E+03  0.19343870381E+03  0.00000000000E+00 0. -1.
         25    2    1    2    0    0  0.32870233615E+02  0.46134319031E+02 -0.86068348740E+02  0.16206009437E+03  0.12508751289E+03 0.  0.
         23    2    1    2    0    0 -0.32870233615E+02 -0.46134319031E+02 -0.27728106829E+02  0.11102085769E+03  0.91367145540E+02 0.  0.
          5    1    3    3  502    0  0.67896893370E+02 -0.24492758425E+01 -0.74503995502E+02  0.10091731679E+03  0.41800000000E+01 0. -1.
         -5    1    3    3    0  502 -0.35026659755E+02  0.48583594873E+02 -0.11564353238E+02  0.61142777580E+02  0.41800000000E+01 0. -1.
        -11    1    4    4    0    0 -0.15465008682E+02 -0.18078820684E+02 -0.60188820990E+02  0.64720201043E+02  0.00000000000E+00 0. -1.
         11    1    4    4    0    0 -0.17405224933E+02 -0.28055498346E+02  0.32460714160E+02  0.46300656650E+02  0.00000000000E+00 0.  1.
</event>
<event>
 8    1  0.6860461E-009  0.9961284E+02  0.7561462E-02  0.1281112E+00
          1   -1    0    0  501    0  0.00000000000E+00  0.00000000000E+00  0.42707900339E+02  0.42707900339E+02  0.00000000000E+00 0. -1.
         -1   -1    0    0    0  501 -0.00000000000E+00 -0.00000000000E+00 -0.34889848485E+03  0.34889848485E+03  0.00000000000E+00 0.  1.
         25    2    1    2    0    0  0.14416694235E+02 -0.50351851297E+02 -0.14835511259E+03  0.20099655242E+03  0.12508886702E+03 0.  0.
         23    2    1    2    0    0 -0.14416694235E+02  0.50351851297E+02 -0.15783547192E+03  0.19060983277E+03  0.93149998115E+02 0.  0.
          5    1    3    3  502    0 -0.14634529029E+02 -0.78614878556E+02 -0.13702146875E+03  0.15870357232E+03  0.41800000000E+01 0.  1.
         -5    1    3    3    0  502  0.29051223264E+02  0.28263027258E+02 -0.11333643840E+02  0.42292980099E+02  0.41800000000E+01 0.  1.
        -11    1    4    4    0    0  0.11221324340E+02  0.51532215926E+02 -0.30941190133E+02  0.61146092639E+02  0.00000000000E+00 0. -1.
         11    1    4    4    0    0 -0.25638018575E+02 -0.11803646287E+01 -0.12689428179E+03  0.12946374013E+03  0.00000000000E+00 0.  1.
</event>
<event>
 8    1  0.6860461E-009  0.1594174E+03  0.7561462E-02  0.1189356E+00
         -2   -1    0    0    0  501 -0.00000000000E+00  0.00000000000E+00  0.25599446265E+03  0.25599446265E+03  0.00000000000E+00 0.  1.
          2   -1    0    0  501    0  0.00000000000E+00 -0.00000000000E+00 -0.16005401615E+03  0.16005401615E+03  0.00000000000E+00 0. -1.
         25    2    1    2    0    0 -0.45038075077E+02  0.12369418061E+03 -0.56206644881E+02  0.19009471863E+03  0.12509251216E+03 0.  0.
         23    2    1    2    0    0  0.45038075077E+02 -0.12369418061E+03  0.15214709137E+03  0.22595376017E+03  0.10284787696E+03 0.  0.
          5    1    3    3  502    0  0.42351480168E+02  0.54668913069E+02 -0.30671997645E+02  0.75766627007E+02  0.41800000000E+01 0. -1.
         -5    1    3    3    0  502 -0.87389555244E+02  0.69025267546E+02 -0.25534647235E+02  0.11432809163E+03  0.41800000000E+01 0. -1.
        -11    1    4    4    0    0  0.21041591092E+02 -0.10658657792E+03  0.16184493180E+03  0.19492877955E+03  0.00000000000E+00 0.  1.
         11    1    4    4    0    0  0.23996483985E+02 -0.17107602698E+02 -0.96978404219E+01  0.31024980622E+02  0.00000000000E+00 0. -1.
</event>
<event>
 8    1  0.6860461E-009  0.1332526E+03  0.7561462E-02  0.1222708E+00
         -1   -1    0    0    0  501 -0.00000000000E+00  0.00000000000E+00  0.20922402332E+03  0.20922402332E+03  0.00000000000E+00 0.  1.
          1   -1    0    0  501    0  0.00000000000E+00 -0.00000000000E+00 -0.13696099836E+03  0.13696099836E+03  0.00000000000E+00 0. -1.
         25    2    1    2    0    0 -0.76176687452E+02 -0.92876023549E+02  0.87842055352E+02  0.19440408358E+03  0.12509147677E+03 0.  0.
         23    2    1    2    0    0  0.76176687452E+02  0.92876023549E+02 -0.15579030386E+02  0.15178093810E+03  0.91465313220E+02 0.  0.
          5    1    3    3  502    0 -0.32302041750E+02  0.62261937072E+01 -0.22191465975E+02  0.39901390344E+02  0.41800000000E+01 0. -1.
         -5    1    3    3    0  502 -0.43874645702E+02 -0.99102217257E+02  0.11003352133E+03  0.15450269323E+03  0.41800000000E+01 0. -1.
        -11    1    4    4    0    0  0.68221544290E+02  0.59343414822E+02 -0.49788446397E+02  0.10322165171E+03  0.00000000000E+00 0. -1.
         11    1    4    4    0    0  0.79551431620E+01  0.33532608727E+02  0.34209416012E+02  0.48559286389E+02  0.00000000000E+00 0.  1.
</event>
<event>
 8    1  0.6860461E-009  0.1111847E+03  0.7561462E-02  0.1258392E+00
         -1   -1    0    0    0  501 -0.00000000000E+00  0.00000000000E+00  0.40845188872E+02  0.40845188872E+02  0.00000000000E+00 0.  1.
          1   -1    0    0  501    0  0.00000000000E+00 -0.00000000000E+00 -0.47501441314E+03  0.47501441314E+03  0.00000000000E+00 0. -1.
         25    2    1    2    0    0 -0.24809043873E+02 -0.83452102431E+02 -0.23152839081E+03  0.27718750043E+03  0.12509105718E+03 0.  0.
         23    2    1    2    0    0  0.24809043873E+02  0.83452102431E+02 -0.20264083346E+03  0.23867210158E+03  0.91221283862E+02 0.  0.
          5    1    3    3  502    0 -0.58458712207E+02 -0.81825156357E+02 -0.21896597542E+03  0.24099034843E+03  0.41800000000E+01 0.  1.
         -5    1    3    3    0  502  0.33649668334E+02 -0.16269460733E+01 -0.12562415390E+02  0.36197152001E+02  0.41800000000E+01 0.  1.
        -11    1    4    4    0    0  0.13548478735E+02  0.26999411568E+02 -0.23797004682E+01  0.30301690965E+02  0.00000000000E+00 0.  1.
         11    1    4    4    0    0  0.11260565137E+02  0.56452690863E+02 -0.20026113299E+03  0.20837041061E+03  0.00000000000E+00 0. -1.
</event>
<event>
 8    1  0.6860461E-009  0.7695117E+02  0.7561462E-02  0.1337933E+00
         -4   -1    0    0    0  501 -0.00000000000E+00  0.00000000000E+00  0.11549595684E+03  0.11549595684E+03  0.00000000000E+00 0.  1.
          4   -1    0    0  501    0  0.00000000000E+00 -0.00000000000E+00 -0.10225939304E+03  0.10225939304E+03  0.00000000000E+00 0. -1.
         25    2    1    2    0    0 -0.99395847052E+01 -0.10613750565E+02  0.64837626299E+01  0.12609865107E+03  0.12508950227E+03 0.  0.
         23    2    1    2    0    0  0.99395847052E+01  0.10613750565E+02  0.67528011619E+01  0.91656698813E+02  0.90243576328E+02 0.  0.
          5    1    3    3  502    0 -0.48357152843E+02 -0.25421835584E+02  0.43975735630E+02  0.70256826570E+02  0.41800000000E+01 0.  1.
         -5    1    3    3    0  502  0.38417568138E+02  0.14808085019E+02 -0.37491973000E+02  0.55841824495E+02  0.41800000000E+01 0.  1.
        -11    1    4    4    0    0  0.32535960595E+02 -0.51030947962E+00  0.38966069604E+02  0.50766167159E+02  0.00000000000E+00 0.  1.
         11    1    4    4    0    0 -0.22596375890E+02  0.11124060045E+02 -0.32213268442E+02  0.40890531654E+02  0.00000000000E+00 0. -1.
</event>
<event>
 8    1  0.6860461E-009  0.1114880E+03  0.7561462E-02  0.1257839E+00
          3   -1    0    0  501    0  0.00000000000E+00  0.00000000000E+00  0.17814515404E+03  0.17814515404E+03  0.00000000000E+00 0. -1.
         -3   -1    0    0    0  501 -0.00000000000E+00 -0.00000000000E+00 -0.80359948119E+02  0.80359948119E+02  0.00000000000E+00 0.  1.
         25    2    1    2    0    0 -0.44715126948E+01 -0.38665413280E+02  0.17847903079E+02  0.13221664077E+03  0.12509070246E+03 0.  0.
         23    2    1    2    0    0  0.44715126948E+01  0.38665413280E+02  0.79937302846E+02  0.12628846139E+03  0.89687203571E+02 0.  0.
          5    1    3    3  502    0 -0.62746059388E+02 -0.34829118218E+02  0.15958153631E+02  0.73636068010E+02  0.41800000000E+01 0. -1.
         -5    1    3    3    0  502  0.58274546694E+02 -0.38362950620E+01  0.18897494475E+01  0.58580572762E+02  0.41800000000E+01 0. -1.
        -11    1    4    4    0    0  0.19104149645E+02  0.62066722566E+02  0.73247036157E+02  0.97889605626E+02  0.00000000000E+00 0.  1.
         11    1    4    4    0    0 -0.14632636950E+02 -0.23401309286E+02  0.66902666893E+01  0.28398855766E+02  0.00000000000E+00 0. -1.
</event>
<event>
 8    1  0.6860461E-009  0.9589992E+02  0.7561462E-02  0.1289162E+00
         -1   -1    0    0    0  501 -0.00000000000E+00  0.00000000000E+00  0.65874058688E+02  0.65874058688E+02  0.00000000000E+00 0.  1.
          1   -1    0    0  501    0  0.00000000000E+00 -0.00000000000E+00 -0.25681793854E+03  0.25681793854E+03  0.00000000000E+00 0. -1.
         25    2    1    2    0    0 -0.41607650047E+02 -0.36136760127E+02 -0.16186977106E+03  0.21186285284E+03  0.12508790372E+03 0.  0.
         23    2    1    2    0    0  0.41607650047E+02  0.36136760127E+02 -0.29074108792E+02  0.11082914438E+03  0.91655515208E+02 0.  0.
          5    1    3    3  502    0 -0.68765158415E+02 -0.66446606507E+02 -0.11039264327E+03  0.14610888617E+03  0.41800000000E+01 0. -1.
         -5    1    3    3    0  502  0.27157508368E+02  0.30309846381E+02 -0.51477127781E+02  0.65753966671E+02  0.41800000000E+01 0. -1.
        -11    1    4    4    0    0  0.25748948343E+02  0.24066710334E+02 -0.62592513155E+02  0.71833401632E+02  0.00000000000E+00 0. -1.
         11    1    4    4    0    0  0.15858701705E+02  0.12070049793E+02  0.33518404363E+02  0.38995742752E+02  0.00000000000E+00 0.  1.
</event>
<event>
 8    1  0.6860461E-009  0.1473480E+03  0.7561462E-02  0.1203770E+00
         -1   -1    0    0    0  501 -0.00000000000E+00  0.00000000000E+00  0.20820193417E+03  0.20820193417E+03  0.00000000000E+00 0.  1.
          1   -1    0    0  501    0  0.00000000000E+00 -0.00000000000E+00 -0.16194219002E+03  0.16194219002E+03  0.00000000000E+00 0. -1.
         25    2    1    2    0    0 -0.12010094706E+03 -0.15370642658E+02  0.11402387846E+03  0.20811173843E+03  0.12509419119E+03 0.  0.
         23    2    1    2    0    0  0.12010094706E+03  0.15370642658E+02 -0.67764134313E+02  0.16203238577E+03  0.83678085522E+02 0.  0.
          5    1    3    3  502    0 -0.94545043700E+02 -0.65122849141E+02  0.57436390636E+02  0.12843738606E+03  0.41800000000E+01 0. -1.
         -5    1    3    3    0  502 -0.25555903362E+02  0.49752206483E+02  0.56587487828E+02  0.79674352369E+02  0.41800000000E+01 0. -1.
        -11    1    4    4    0    0  0.35652522264E+02  0.16470926397E+02 -0.66895985397E+02  0.77572331552E+02  0.00000000000E+00 0. -1.
         11    1    4    4    0    0  0.84448424798E+02 -0.11002837397E+01 -0.86814891656E+00  0.84460054213E+02  0.00000000000E+00 0.  1.
</event>
<event>
 8    1  0.6860461E-009  0.1073466E+03  0.7561462E-02  0.1265564E+00
          2   -1    0    0  501    0  0.00000000000E+00  0.00000000000E+00  0.94804703798E+03  0.94804703798E+03  0.00000000000E+00 0. -1.
         -2   -1    0    0    0  501 -0.00000000000E+00 -0.00000000000E+00 -0.20925717590E+02  0.20925717590E+02  0.00000000000E+00 0.  1.
         25    2    1    2    0    0 -0.19112907905E+02  0.83387776621E+02  0.64273913312E+03  0.66036122267E+03  0.12507808210E+03 0.  0.
         23    2    1    2    0    0  0.19112907905E+02 -0.83387776621E+02  0.28438218727E+03  0.30861153290E+03  0.83958473455E+02 0.  0.
          5    1    3    3  502    0 -0.32270567386E+02  0.71205734839E+02  0.63592947975E+03  0.64073038152E+03  0.41800000000E+01 0.  1.
         -5    1    3    3    0  502  0.13157659482E+02  0.12182041782E+02  0.68096533707E+01  0.19630841145E+02  0.41800000000E+01 0.  1.
        -11    1    4    4    0    0  0.89833976159E+01  0.15860936309E+02  0.27061797311E+02  0.32628386522E+02  0.00000000000E+00 0. -1.
         11    1    4    4    0    0  0.10129510289E+02 -0.99248712930E+02  0.25732038996E+03  0.27598314638E+03  0.00000000000E+00 0.  1.
</event>
<event>
 8    1  0.6860461E-009  0.1392484E+03  0.7561462E-02  0.1214344E+00
          1   -1    0    0  501    0  0.00000000000E+00  0.00000000000E+00  0.10008385175E+03  0.10008385175E+03  0.00000000000E+00 0. -1.
         -1   -1    0    0    0  501 -0.00000000000E+00 -0.00000000000E+00 -0.29369770728E+03  0.29369770728E+03  0.00000000000E+00 0.  1.
         25    2    1    2    0    0  0.85986116440E+02  0.15388333941E+02 -0.21673938696E+03  0.26505411904E+03  0.12508921264E+03 0.  0.
         23    2    1    2    0    0 -0.85986116440E+02 -0.15388333941E+02  0.23125531432E+02  0.12872743999E+03  0.91681789692E+02 0.  0.
          5    1    3    3  502    0  0.51102014139E+02 -0.53883095206E+02 -0.95115999010E+02  0.12074489416E+03  0.41800000000E+01 0.  1.
         -5    1    3    3    0  502  0.34884102300E+02  0.69271429147E+02 -0.12162338795E+03  0.14430922488E+03  0.41800000000E+01 0.  1.
        -11    1    4    4    0    0  0.19440325919E+02  0.21923685946E+01  0.61364979793E+01  0.20503398727E+02  0.00000000000E+00 0. -1.
         11    1    4    4    0    0 -0.10542644236E+03 -0.17580702536E+02  0.16989033453E+02  0.10822404127E+03  0.00000000000E+00 0.  1.
</event>
<event>
 8    1  0.6860461E-009  0.1480942E+03  0.7561462E-02  0.1202835E+00
          1   -1    0    0  501    0  0.00000000000E+00  0.00000000000E+00  0.17142738318E+03  0.17142738318E+03  0.00000000000E+00 0. -1.
         -1   -1    0    0    0  501 -0.00000000000E+00 -0.00000000000E+00 -0.15305551110E+03  0.15305551110E+03  0.00000000000E+00 0.  1.
         25    2    1    2    0    0  0.10544759228E+03  0.54330676697E+02 -0.37609578454E+01  0.17243327249E+03  0.12509225201E+03 0.  0.
         23    2    1    2    0    0 -0.10544759228E+03 -0.54330676697E+02  0.22132829925E+02  0.15204962179E+03  0.92510584145E+02 0.  0.
          5    1    3    3  502    0  0.44783759103E+02 -0.20578591456E+02 -0.45594836035E+02  0.67271279004E+02  0.41800000000E+01 0.  1.
         -5    1    3    3    0  502  0.60663833172E+02  0.74909268153E+02  0.41833878190E+02  0.10516199349E+03  0.41800000000E+01 0.  1.
        -11    1    4    4    0    0 -0.21331023218E+02 -0.62202988492E+02  0.13452254977E+02  0.67120693477E+02  0.00000000000E+00 0. -1.
         11    1    4    4    0    0 -0.84116569057E+02  0.78723117950E+01  0.86805749485E+01  0.84928928313E+02  0.00000000000E+00 0.  1.
</event>
<event>
 8    1  0.6860461E-009  0.1080376E+03  0.7561462E-02  0.1264248E+00
         -2   -1    0    0    0  501 -0.00000000000E+00  0.00000000000E+00  0.36386585814E+02  0.36386585814E+02  0.00000000000E+00 0.  1.
          2   -1    0    0  501    0  0.00000000000E+00 -0.00000000000E+00 -0.36752400478E+03  0.36752400478E+03  0.00000000000E+00 0. -1.
         25    2    1    2    0    0 -0.27319958627E+02  0.16912298861E+02 -0.15707601767E+03  0.20335388510E+03  0.12509005262E+03 0.  0.
         23    2    1    2    0    0  0.27319958627E+02 -0.16912298861E+02 -0.17406140129E+03  0.20055670549E+03  0.94303842479E+02 0.  0.
          5    1    3    3  502    0 -0.37534195788E+02  0.64923738308E+02 -0.66827087797E+02  0.10053476868E+03  0.41800000000E+01 0. -1.
         -5    1    3    3    0  502  0.10214237161E+02 -0.48011439447E+02 -0.90248929878E+02  0.10281911643E+03  0.41800000000E+01 0. -1.
        -11    1    4    4    0    0 -0.24830903955E+02 -0.28990750157E+02 -0.35954802592E+02  0.52438394477E+02  0.00000000000E+00 0.  1.
         11    1    4    4    0    0  0.52150862582E+02  0.12078451296E+02 -0.13810659870E+03  0.14811831101E+03  0.00000000000E+00 0. -1.
</event>
<event>
 8    1  0.6860461E-009  0.1594459E+03  0.7561462E-02  0.1189324E+00
          1   -1    0    0  501    0  0.00000000000E+00  0.00000000000E+00  0.19040107445E+03  0.19040107445E+03  0.00000000000E+00 0. -1.
         -1   -1    0    0    0  501 -0.00000000000E+00 -0.00000000000E+00 -0.18135308933E+03  0.18135308933E+03  0.00000000000E+00 0.  1.
         25    2    1    2    0    0  0.10409334826E+03 -0.56507822205E+02  0.97865777400E+02  0.19812538145E+03  0.12508955698E+03 0.  0.
         23    2    1    2    0    0 -0.10409334826E+03  0.56507822205E+02 -0.88817792278E+02  0.17362878233E+03  0.90718215953E+02 0.  0.
          5    1    3    3  502    0  0.38062847301E+02 -0.90197014176E+02  0.53766515660E+02  0.11177026580E+03  0.41800000000E+01 0.  1.
         -5    1    3    3    0  502  0.66030500959E+02  0.33689191971E+02  0.44099261740E+02  0.86355115648E+02  0.41800000000E+01 0.  1.
        -11    1    4    4    0    0  0.64006511191E+01  0.33097186675E+02 -0.34726700420E+02  0.48397684063E+02  0.00000000000E+00 0.  1.
         11    1    4    4    0    0 -0.11049399938E+03  0.23410635530E+02 -0.54091091858E+02  0.12523109827E+03  0.00000000000E+00 0. -1.
</event>
<event>
 8    1  0.6860461E-009  0.1008551E+03  0.7561462E-02  0.1278508E+00
          1   -1    0    0  501    0  0.00000000000E+00  0.00000000000E+00  0.32495716804E+03  0.32495716804E+03  0.00000000000E+00 0. -1.
         -1   -1    0    0    0  501 -0.00000000000E+00 -0.00000000000E+00 -0.55275442976E+02  0.55275442976E+02  0.00000000000E+00 0.  1.
         25    2    1    2    0    0  0.36096133920E+01  0.60555257862E+02  0.21314522067E+03  0.25447286494E+03  0.12508231424E+03 0.  0.
         23    2    1    2    0    0 -0.36096133920E+01 -0.60555257862E+02  0.56536504396E+02  0.12575974607E+03  0.94547177848E+02 0.  0.
          5    1    3    3  502    0  0.32083905080E+02 -0.22491096395E+02  0.24612061219E+02  0.46459146997E+02  0.41800000000E+01 0.  1.
         -5    1    3    3    0  502 -0.28474291687E+02  0.83046354257E+02  0.18853315945E+03  0.20801371794E+03  0.41800000000E+01 0.  1.
        -11    1    4    4    0    0 -0.23080773889E+02 -0.26130644248E+02 -0.19576491383E+02  0.39984643390E+02  0.00000000000E+00 0.  1.
         11    1    4    4    0    0  0.19471160497E+02 -0.34424613614E+02  0.76112995779E+02  0.85775102682E+02  0.00000000000E+00 0. -1.
</event>
<event>
 8    1  0.6860461E-009  0.1301907E+03  0.7561462E-02  0.1227173E+00
         -2   -1    0    0    0  501 -0.00000000000E+00  0.00000000000E+00  0.16863818501E+03  0.16863818501E+03  0.00000000000E+00 0.  1.
          2   -1    0    0  501    0  0.00000000000E+00 -0.00000000000E+00 -0.16858112733E+03  0.16858112733E+03  0.00000000000E+00 0. -1.
         25    2    1    2    0    0 -0.12670573107E+03  0.25276533904E+02 -0.54162596550E+01  0.17991593662E+03  0.12508862031E+03 0.  0.
         23    2    1    2    0    0  0.12670573107E+03 -0.25276533904E+02  0.54733173325E+01  0.15730337572E+03  0.89560869578E+02 0.  0.
          5    1    3    3  502    0 -0.12247941971E+03  0.23759904573E+02 -0.50321413010E+02  0.13459367862E+03  0.41800000000E+01 0.  1.
         -5    1    3    3    0  502 -0.42263113561E+01  0.15166293307E+01  0.44905153355E+02  0.45322257998E+02  0.41800000000E+01 0.  1.
        -11    1    4    4    0    0  0.36390993632E+02 -0.10692062196E+02  0.43952609269E+02  0.58055632570E+02  0.00000000000E+00 0.  1.
         11    1    4    4    0    0  0.90314737434E+02 -0.14584471708E+02 -0.38479291936E+02  0.99247743152E+02  0.00000000000E+00 0. -1.
</event>
<event>
 8    1  0.6860461E-009  0.1429491E+03  0.7561462E-02  0.1209415E+00
          1   -1    0    0  501    0  0.00000000000E+00  0.00000000000E+00  0.10719890435E+04  0.10719890435E+04  0.00000000000E+00 0. -1.
         -1   -1    0    0    0  501 -0.00000000000E+00 -0.00000000000E+00 -0.20535315895E+02  0.20535315895E+02  0.00000000000E+00 0.  1.
         25    2    1    2    0    0 -0.17215955569E+02 -0.94955297466E+02  0.46659445655E+03  0.49261630152E+03  0.12509011151E+03 0.  0.
         23    2    1    2    0    0  0.17215955569E+02  0.94955297466E+02  0.58485927109E+03  0.59990805791E+03  0.92284415390E+02 0.  0.
          5    1    3    3  502    0  0.40202476037E+02 -0.90448355009E+02  0.32278450321E+03  0.33764545297E+03  0.41800000000E+01 0. -1.
         -5    1    3    3    0  502 -0.57418431606E+02 -0.45069424570E+01  0.14380995335E+03  0.15497084855E+03  0.41800000000E+01 0. -1.
        -11    1    4    4    0    0 -0.34469870422E+02  0.27458496098E+02  0.13270471391E+03  0.13983090527E+03  0.00000000000E+00 0.  1.
         11    1    4    4    0    0  0.51685825991E+02  0.67496801368E+02  0.45215455718E+03  0.46007715264E+03  0.00000000000E+00 0. -1.
</event>
<event>
 8    1  0.6860461E-009  0.6866567E+02  0.7561462E-02  0.1364690E+00
          2   -1    0    0  501    0  0.00000000000E+00  0.00000000000E+00  0.40700494533E+03  0.40700494533E+03  0.00000000000E+00 0. -1.
         -2   -1    0    0    0  501 -0.00000000000E+00 -0.00000000000E+00 -0.39615894598E+02  0.39615894598E+02  0.00000000000E+00 0.  1.
         25    2    1    2    0    0 -0.33391135128E+02 -0.27038284546E+02  0.28826613562E+03  0.31715977812E+03  0.12508766197E+03 0.  0.
         23    2    1    2    0    0  0.33391135128E+02  0.27038284546E+02  0.79122915109E+02  0.12946106180E+03  0.93025233629E+02 0.  0.
          5    1    3    3  502    0 -0.10317284810E+02 -0.39132491926E+02  0.28791245250E+03  0.29077285120E+03  0.41800000000E+01 0. -1.
         -5    1    3    3    0  502 -0.23073850318E+02  0.12094207380E+02  0.35368312145E+00  0.26386926922E+02  0.41800000000E+01 0. -1.
        -11    1    4    4    0    0  0.43051891523E+02  0.16343341828E+01 -0.27739244022E+01  0.43172109845E+02  0.00000000000E+00 0.  1.
         11    1    4    4    0    0 -0.96607563943E+01  0.25403950363E+02  0.81896839511E+02  0.86288951959E+02  0.00000000000E+00 0. -1.
</event>
<event>
 8    1  0.6860461E-009  0.8938773E+02  0.7561462E-02  0.1304341E+00
         -1   -1    0    0    0  501 -0.00000000000E+00  0.00000000000E+00  0.70813518377E+02  0.70813518377E+02  0.00000000000E+00 0.  1.
          1   -1    0    0  501    0  0.00000000000E+00 -0.00000000000E+00 -0.16691880882E+03  0.16691880882E+03  0.00000000000E+00 0. -1.
         25    2    1    2    0    0 -0.15728794701E+02 -0.41910918803E+01 -0.69156683159E+02  0.14385810333E+03  0.12509015483E+03 0.  0.
         23    2    1    2    0    0  0.15728794701E+02  0.41910918803E+01 -0.26948607289E+02  0.93874223871E+02  0.88437448169E+02 0.  0.
          5    1    3    3  502    0  0.35410868533E+02  0.72265482714E+01  0.19132422786E+02  0.41105651823E+02  0.41800000000E+01 0. -1.
         -5    1    3    3    0  502 -0.51139663233E+02 -0.11417640152E+02 -0.88289105945E+02  0.10275245151E+03  0.41800000000E+01 0. -1.
        -11    1    4    4    0    0 -0.33585969393E+02  0.18677658285E+02 -0.13660537934E+02  0.40785813168E+02  0.00000000000E+00 0.  1.
         11    1    4    4    0    0  0.49314764094E+02 -0.14486566405E+02 -0.13288069355E+02  0.53088410704E+02  0.00000000000E+00 0. -1.
</event>
<event>
 8    1  0.6860461E-009  0.1600117E+03  0.7561462E-02  0.1188684E+00
         -2   -1    0    0    0  501 -0.00000000000E+00  0.00000000000E+00  0.41395021098E+03  0.41395021098E+03  0.00000000000E+00 0.  1.
          2   -1    0    0  501    0  0.00000000000E+00 -0.00000000000E+00 -0.81324095081E+02  0.81324095081E+02  0.00000000000E+00 0. -1.
         25    2    1    2    0    0  0.13224265633E+03 -0.77809141241E+01  0.26317263103E+03  0.32008718287E+03  0.12508920072E+03 0.  0.
         23    2    1    2    0    0 -0.13224265633E+03  0.77809141241E+01  0.69453484868E+02  0.17518712319E+03  0.91203502101E+02 0.  0.
          5    1    3    3  502    0  0.15281906499E+03  0.11335909990E+02  0.23021907946E+03  0.27658717691E+03  0.41800000000E+01 0. -1.
         -5    1    3    3    0  502 -0.20576408666E+02 -0.19116824114E+02  0.32953551570E+02  0.43500005964E+02  0.41800000000E+01 0. -1.
        -11    1    4    4    0    0 -0.22346223308E+02  0.16958882932E+02  0.57858061620E+02  0.64300176523E+02  0.00000000000E+00 0.  1.
         11    1    4    4    0    0 -0.10989643302E+03 -0.91779688076E+01  0.11595423247E+02  0.11088694667E+03  0.00000000000E+00 0. -1.
</event>
<event>
 8    1  0.6860461E-009  0.1129525E+03  0.7561462E-02  0.1255198E+00
         -2   -1    0    0    0  501 -0.00000000000E+00  0.00000000000E+00  0.23089833093E+02  0.23089833093E+02  0.00000000000E+00 0.  1.
          2   -1    0    0  501    0  0.00000000000E+00 -0.00000000000E+00 -0.70843647208E+03  0.70843647208E+03  0.00000000000E+00 0. -1.
         25    2    1    2    0    0  0.50271129542E+02  0.44384851164E+02 -0.40187821381E+03  0.42620536645E+03  0.12509082370E+03 0.  0.
         23    2    1    2    0    0 -0.50271129542E+02 -0.44384851164E+02 -0.28346842517E+03  0.30532093872E+03  0.91484020865E+02 0.  0.
          5    1    3    3  502    0  0.69396821940E+02  0.66038878718E+02 -0.37305697323E+03  0.38518311239E+03  0.41800000000E+01 0.  1.
         -5    1    3    3    0  502 -0.19125692398E+02 -0.21654027554E+02 -0.28821240580E+02  0.41022254053E+02  0.41800000000E+01 0.  1.
        -11    1    4    4    0    0  0.10373126420E+02 -0.38526415905E+02 -0.49648258561E+02  0.63693296762E+02  0.00000000000E+00 0.  1.
         11    1    4    4    0    0 -0.60644255962E+02 -0.58584352588E+01 -0.23382016661E+03  0.24162764196E+03  0.00000000000E+00 0. -1.
</event>
<event>
 8    1  0.6860461E-009  0.8597054E+02  0.7561462E-02  0.1312914E+00
         -2   -1    0    0    0  501 -0.00000000000E+00  0.00000000000E+00  0.51666991554E+03  0.51666991554E+03  0.00000000000E+00 0.  1.
          2   -1    0    0  501    0  0.00000000000E+00 -0.00000000000E+00 -0.22765354896E+02  0.22765354896E+02  0.00000000000E+00 0. -1.
         25    2    1    2    0    0 -0.42688824745E+01  0.29683120253E+01  0.30322281411E+03  0.32804634326E+03  0.12507315497E+03 0.  0.
         23    2    1    2    0    0  0.42688824745E+01 -0.29683120253E+01  0.19068174654E+03  0.21138892718E+03  0.91097287769E+02 0.  0.
          5    1    3    3  502    0 -0.26565929888E+02  0.41327937284E+02  0.47485627595E+02  0.68455125879E+02  0.41800000000E+01 0. -1.
         -5    1    3    3    0  502  0.22297047413E+02 -0.38359625259E+02  0.25573718652E+03  0.25959121738E+03  0.41800000000E+01 0. -1.
        -11    1    4    4    0    0  0.19152945894E+02 -0.36589727836E+02  0.15403827197E+03  0.15947862788E+03  0.00000000000E+00 0.  1.
         11    1    4    4    0    0 -0.14884063420E+02  0.33621415811E+02  0.36643474563E+02  0.51910299296E+02  0.00000000000E+00 0. -1.
</event>
<event>
 8    1  0.6860461E-009  0.7900126E+02  0.7561462E-02  0.1331910E+00
         -1   -1    0    0    0  501 -0.00000000000E+00  0.00000000000E+00  0.99479112011E+02  0.99479112011E+02  0.00000000000E+00 0.  1.
          1   -1    0    0  501    0  0.00000000000E+00 -0.00000000000E+00 -0.13943677043E+03  0.13943677043E+03  0.00000000000E+00 0. -1.
         25    2    1    2    0    0 -0.30524869390E+02 -0.22370226901E+02  0.58469806193E+01  0.13082137371E+03  0.12509136635E+03 0.  0.
         23    2    1    2    0    0  0.30524869390E+02  0.22370226901E+02 -0.45804639043E+02  0.10809450873E+03  0.90300405082E+02 0.  0.
          5    1    3    3  502    0 -0.14781617836E+01 -0.35589392607E+02  0.58787990848E+02  0.68864287525E+02  0.41800000000E+01 0.  1.
         -5    1    3    3    0  502 -0.29046707606E+02  0.13219165706E+02 -0.52941010228E+02  0.61957086186E+02  0.41800000000E+01 0.  1.
        -11    1    4    4    0    0  0.33480840302E+02 -0.25440705282E+02 -0.33945315863E+00  0.42051294642E+02  0.00000000000E+00 0.  1.
         11    1    4    4    0    0 -0.29559709125E+01  0.47810932183E+02 -0.45465185884E+02  0.66043214093E+02  0.00000000000E+00 0. -1.
</event>
<event>
 8    1  0.6860461E-009  0.6481514E+02  0.7561462E-02  0.1378668E+00
         -3   -1    0    0    0  501 -0.00000000000E+00  0.00000000000E+00  0.38382372696E+02  0.38382372696E+02  0.00000000000E+00 0.  1.
          3   -1    0    0  501    0  0.00000000000E+00 -0.00000000000E+00 -0.36091263438E+03  0.36091263438E+03  0.00000000000E+00 0. -1.
         25    2    1    2    0    0  0.35522854591E+02 -0.14874501809E+02 -0.14623337641E+03  0.19624780887E+03  0.12508348455E+03 0.  0.
         23    2    1    2    0    0 -0.35522854591E+02  0.14874501809E+02 -0.17629688528E+03  0.20304719821E+03  0.93083021759E+02 0.  0.
          5    1    3    3  502    0  0.26086848320E+02 -0.29003351625E+01 -0.16758595342E+03  0.16968046376E+03  0.41800000000E+01 0.  1.
         -5    1    3    3    0  502  0.94360062714E+01 -0.11974166647E+02  0.21352577008E+02  0.26567345109E+02  0.41800000000E+01 0.  1.
        -11    1    4    4    0    0  0.17182581038E+02  0.28070317119E+02 -0.22322030277E+02  0.39767534874E+02  0.00000000000E+00 0.  1.
         11    1    4    4    0    0 -0.52705435629E+02 -0.13195815309E+02 -0.15397485500E+03  0.16327966334E+03  0.00000000000E+00 0. -1.
</event>
<event>
 8    1  0.6860461E-009  0.9200240E+02  0.7561462E-02  0.1298074E+00
          2   -1    0    0  501    0  0.00000000000E+00  0.00000000000E+00  0.61810110495E+02  0.61810110495E+02  0.00000000000E+00 0. -1.
         -2   -1    0    0    0  501 -0.00000000000E+00 -0.00000000000E+00 -0.26031994706E+03  0.26031994706E+03  0.00000000000E+00 0.  1.
         25    2    1    2    0    0 -0.15282199517E+02  0.24168287747E+02 -0.44821718813E+02  0.13592115044E+03  0.12509165002E+03 0.  0.
         23    2    1    2    0    0  0.15282199517E+02 -0.24168287747E+02 -0.15368811775E+03  0.18620890712E+03  0.10117345402E+03 0.  0.
          5    1    3    3  502    0 -0.56216408492E+02 -0.20299061513E+02 -0.45661719157E+02  0.75331278221E+02  0.41800000000E+01 0. -1.
         -5    1    3    3    0  502  0.40934208975E+02  0.44467349260E+02  0.84000034318E+00  0.60589872216E+02  0.41800000000E+01 0. -1.
        -11    1    4    4    0    0 -0.63484073880E+00  0.18218164575E+02  0.68001344147E+01  0.19456268175E+02  0.00000000000E+00 0. -1.
         11    1    4    4    0    0  0.15917040256E+02 -0.42386452322E+02 -0.16048825217E+03  0.16675263894E+03  0.00000000000E+00 0.  1.
</event>
<event>
 8    1  0.6860461E-009  0.1250598E+03  0.7561462E-02  0.1234976E+00
         -2   -1    0    0    0  501 -0.00000000000E+00  0.00000000000E+00  0.27310250922E+03  0.27310250922E+03  0.00000000000E+00 0.  1.
          2   -1    0    0  501    0  0.00000000000E+00 -0.00000000000E+00 -0.11338110020E+03  0.11338110020E+03  0.00000000000E+00 0. -1.
         25    2    1    2    0    0  0.38402518945E+01  0.92064438589E+02 -0.29051133871E+02  0.15805721861E+03  0.12508999796E+03 0.  0.
         23    2    1    2    0    0 -0.38402518945E+01 -0.92064438589E+02  0.18877254289E+03  0.22842639080E+03  0.89738145056E+02 0.  0.
          5    1    3    3  502    0 -0.33057208301E+02  0.89610560898E+02 -0.57187582578E+02  0.11140342744E+03  0.41800000000E+01 0. -1.
         -5    1    3    3    0  502  0.36897460196E+02  0.24538776907E+01  0.28136448707E+02  0.46653791169E+02  0.41800000000E+01 0. -1.
        -11    1    4    4    0    0  0.34359638114E+02 -0.47078523283E+02  0.14074956468E+03  0.15233979140E+03  0.00000000000E+00 0.  1.
         11    1    4    4    0    0 -0.38199890008E+02 -0.44985915306E+02  0.48022978212E+02  0.76086599404E+02  0.00000000000E+00 0. -1.
</event>
<event>
 8    1  0.6860461E-009  0.7807775E+02  0.7561462E-02  0.1334597E+00
         -1   -1    0    0    0  501 -0.00000000000E+00  0.00000000000E+00  0.78816627365E+03  0.78816627365E+03  0.00000000000E+00 0. -1.
          1   -1    0    0  501    0  0.00000000000E+00 -0.00000000000E+00 -0.16751079582E+02  0.16751079582E+02  0.00000000000E+00 0.  1.
         25    2    1    2    0    0 -0.28650965187E+02  0.98969802632E+01  0.49478929125E+03  0.51125237880E+03  0.12507487384E+03 0.  0.
         23    2    1    2    0    0  0.28650965187E+02 -0.98969802632E+01  0.27662590282E+03  0.29366497443E+03  0.93799781850E+02 0.  0.
          5    1    3    3  502    0  0.77428112355E+01  0.29588015816E+02  0.44631671006E+03  0.44738292310E+03  0.41800000000E+01 0. -1.
         -5    1    3    3    0  502 -0.36393776423E+02 -0.19691035553E+02  0.48472581191E+02  0.63869455695E+02  0.41800000000E+01 0. -1.
        -11    1    4    4    0    0 -0.19538040937E+02  0.19209676244E+02  0.29723654126E+02  0.40425763068E+02  0.00000000000E+00 0. -1.
         11    1    4    4    0    0  0.48189006124E+02 -0.29106656507E+02  0.24690224869E+03  0.25323921137E+03  0.00000000000E+00 0.  1.
</event>
<event>
 8    1  0.6860461E-009  0.8715963E+02  0.7561462E-02  0.1309880E+00
          2   -1    0    0  501    0  0.00000000000E+00  0.00000000000E+00  0.87572422126E+03  0.87572422126E+03  0.00000000000E+00 0. -1.
         -2   -1    0    0    0  501 -0.00000000000E+00 -0.00000000000E+00 -0.16577929625E+02  0.16577929625E+02  0.00000000000E+00 0.  1.
         25    2    1    2    0    0 -0.77258795436E+01 -0.12631290493E+02  0.67010828227E+03  0.68184261463E+03  0.12507998421E+03 0.  0.
         23    2    1    2    0    0  0.77258795436E+01  0.12631290493E+02  0.18903800937E+03  0.21045953626E+03  0.91315982722E+02 0.  0.
          5    1    3    3  502    0 -0.28532592756E+02  0.34260129903E+02  0.54103964886E+03  0.54288971200E+03  0.41800000000E+01 0.  1.
         -5    1    3    3    0  502  0.20806713212E+02 -0.46891420397E+02  0.12906863340E+03  0.13895290263E+03  0.41800000000E+01 0.  1.
        -11    1    4    4    0    0  0.77372773157E+01 -0.32260883642E+02  0.14041805184E+03  0.14428395391E+03  0.00000000000E+00 0. -1.
         11    1    4    4    0    0 -0.11397772169E-01  0.44892174135E+02  0.48619957529E+02  0.66175582344E+02  0.00000000000E+00 0.  1.
</event>
<event>
 8    1  0.6860461E-009  0.1126783E+03  0.7561462E-02  0.1255689E+00
         -2   -1    0    0    0  501 -0.00000000000E+00  0.00000000000E+00  0.31234944038E+02  0.31234944038E+02  0.00000000000E+00 0.  1.
          2   -1    0    0  501    0  0.00000000000E+00 -0.00000000000E+00 -0.47428564941E+03  0.47428564941E+03  0.00000000000E+00 0. -1.
         25    2    1    2    0    0 -0.18476508324E+02  0.44870855837E+02 -0.29444752986E+03  0.32357612473E+03  0.12508951030E+03 0.  0.
         23    2    1    2    0    0  0.18476508324E+02 -0.44870855837E+02 -0.14860317551E+03  0.18194446872E+03  0.93091948438E+02 0.  0.
          5    1    3    3  502    0 -0.64465270848E+02  0.42063642818E+02 -0.11636960251E+03  0.13958681163E+03  0.41800000000E+01 0.  1.
         -5    1    3    3    0  502  0.45988762524E+02  0.28072130187E+01 -0.17807792735E+03  0.18398931310E+03  0.41800000000E+01 0.  1.
        -11    1    4    4    0    0  0.54173622117E+02 -0.36551072887E+02 -0.11472334271E+03  0.13203108583E+03  0.00000000000E+00 0. -1.
         11    1    4    4    0    0 -0.35697113793E+02 -0.83197829499E+01 -0.33879832798E+02  0.49913382893E+02  0.00000000000E+00 0.  1.
</event>
<event>
 8    1  0.6860461E-009  0.1194468E+03  0.7561462E-02  0.1244012E+00
          1   -1    0    0  501    0  0.00000000000E+00  0.00000000000E+00  0.16679103737E+04  0.16679103737E+04  0.00000000000E+00 0. -1.
         -1   -1    0    0    0  501 -0.00000000000E+00 -0.00000000000E+00 -0.14314779998E+02  0.14314779998E+02  0.00000000000E+00 0.  1.
         25    2    1    2    0    0 -0.49262393172E+02 -0.44003311123E+02  0.13648915422E+04  0.13722026077E+04  0.12509196502E+03 0.  0.
         23    2    1    2    0    0  0.49262393172E+02  0.44003311123E+02  0.28870405145E+03  0.31002254599E+03  0.91656286906E+02 0.  0.
          5    1    3    3  502    0 -0.86679059133E+02 -0.19474972416E+02  0.10940322632E+04  0.10976413800E+04  0.41800000000E+01 0.  1.
         -5    1    3    3    0  502  0.37416665961E+02 -0.24528338707E+02  0.27085927907E+03  0.27456122768E+03  0.41800000000E+01 0.  1.
        -11    1    4    4    0    0  0.45755051749E+02 -0.13269820773E+02  0.18971432224E+03  0.19560454229E+03  0.00000000000E+00 0.  1.
         11    1    4    4    0    0  0.35073414235E+01  0.57273131896E+02  0.98989729214E+02  0.11441800370E+03  0.00000000000E+00 0. -1.
</event>
<event>
 8    1  0.6860461E-009  0.1666790E+03  0.7561462E-02  0.1181356E+00
          2   -1    0    0  501    0  0.00000000000E+00  0.00000000000E+00  0.58396348136E+03  0.58396348136E+03  0.00000000000E+00 0. -1.
         -2   -1    0    0    0  501 -0.00000000000E+00 -0.00000000000E+00 -0.64675280743E+02  0.64675280743E+02  0.00000000000E+00 0.  1.
         25    2    1    2    0    0  0.11605350103E+03  0.79505013425E+02  0.14314407521E+03  0.23649040843E+03  0.12509206511E+03 0.  0.
         23    2    1    2    0    0 -0.11605350103E+03 -0.79505013425E+02  0.37614412541E+03  0.41214835367E+03  0.92695199942E+02 0.  0.
          5    1    3    3  502    0  0.13829384439E+03  0.80909042650E+02  0.14142494460E+03  0.21375207118E+03  0.41800000000E+01 0.  1.
         -5    1    3    3    0  502 -0.22240343361E+02 -0.14040292249E+01  0.17191306033E+01  0.22738337251E+02  0.41800000000E+01 0.  1.
        -11    1    4    4    0    0 -0.20814988825E+02 -0.44162849096E+02  0.47323373291E+02  0.67993548663E+02  0.00000000000E+00 0.  1.
         11    1    4    4    0    0 -0.95238512202E+02 -0.35342164329E+02  0.32882075212E+03  0.34415480501E+03  0.00000000000E+00 0. -1.
</event>
<event>
 8    1  0.6860461E-009  0.1082993E+03  0.7561462E-02  0.1263752E+00
         -2   -1    0    0    0  501 -0.00000000000E+00  0.00000000000E+00  0.11937278708E+02  0.11937278708E+02  0.00000000000E+00 0.  1.
          2   -1    0    0  501    0  0.00000000000E+00 -0.00000000000E+00 -0.13950579132E+04  0.13950579132E+04  0.00000000000E+00 0. -1.
         25    2    1    2    0    0  0.47144247271E+02 -0.56370079589E+02 -0.78865042423E+03  0.80188334741E+03  0.12508894952E+03 0.  0.
         23    2    1    2    0    0 -0.47144247271E+02  0.56370079589E+02 -0.59447021028E+03  0.60511184452E+03  0.85821602995E+02 0.  0.
          5    1    3    3  502    0  0.23219295845E+02 -0.71351972338E+02 -0.21932087152E+03  0.23183907509E+03  0.41800000000E+01 0. -1.
         -5    1    3    3    0  502  0.23924951425E+02  0.14981892748E+02 -0.56932955271E+03  0.57004427232E+03  0.41800000000E+01 0. -1.
        -11    1    4    4    0    0  0.24448697715E+02  0.54290155505E+01 -0.12298859596E+03  0.12551258011E+03  0.00000000000E+00 0.  1.
         11    1    4    4    0    0 -0.71592944986E+02  0.50941064039E+02 -0.47148161432E+03  0.47959926441E+03  0.00000000000E+00 0. -1.
</event>
<event>
 8    1  0.6860461E-009  0.6364319E+02  0.7561462E-02  0.1383149E+00
          2   -1    0    0  501    0  0.00000000000E+00  0.00000000000E+00  0.57876162317E+03  0.57876162317E+03  0.00000000000E+00 0. -1.
         -2   -1    0    0    0  501 -0.00000000000E+00 -0.00000000000E+00 -0.22094981131E+02  0.22094981131E+02  0.00000000000E+00 0.  1.
         25    2    1    2    0    0  0.50824391957E+01 -0.32049798951E+02  0.32533217590E+03  0.35005895411E+03  0.12508887191E+03 0.  0.
         23    2    1    2    0    0 -0.50824391957E+01  0.32049798951E+02  0.23133446615E+03  0.25079765020E+03  0.91273245346E+02 0.  0.
          5    1    3    3  502    0  0.28165787530E+02 -0.22934039866E+02  0.32268812652E+03  0.32475280009E+03  0.41800000000E+01 0. -1.
         -5    1    3    3    0  502 -0.23083348335E+02 -0.91157590854E+01  0.26440493798E+01  0.25306154018E+02  0.41800000000E+01 0. -1.
        -11    1    4    4    0    0  0.19898682685E+02 -0.53281590823E+01  0.66306036469E+01  0.21640511928E+02  0.00000000000E+00 0.  1.
         11    1    4    4    0    0 -0.24981121881E+02  0.37377958034E+02  0.22470386250E+03  0.22915713827E+03  0.00000000000E+00 0. -1.
</event>
<event>
 8    1  0.6860461E-009  0.9079597E+02  0.7561462E-02  0.1300935E+00
         -1   -1    0    0    0  501 -0.00000000000E+00  0.00000000000E+00  0.14305499573E+03  0.14305499573E+03  0.00000000000E+00 0.  1.
          1   -1    0    0  501    0  0.00000000000E+00 -0.00000000000E+00 -0.99409987496E+02  0.99409987496E+02  0.00000000000E+00 0. -1.
         25    2    1    2    0    0  0.62115271365E-01  0.37454499335E+02 -0.92024815561E+01  0.13089278989E+03  0.12508154700E+03 0.  0.
         23    2    1    2    0    0 -0.62115271365E-01 -0.37454499335E+02  0.52847489789E+02  0.11157219333E+03  0.90844117966E+02 0.  0.
          5    1    3    3  502    0  0.29859128941E+02  0.48401539012E+02 -0.52183124942E+02  0.77297008277E+02  0.41800000000E+01 0. -1.
         -5    1    3    3    0  502 -0.29797013670E+02 -0.10947039677E+02  0.42980643386E+02  0.53595781618E+02  0.41800000000E+01 0. -1.
        -11    1    4    4    0    0 -0.58531785051E+01  0.27105527138E+02  0.34387761301E+02  0.44175642919E+02  0.00000000000E+00 0.  1.
         11    1    4    4    0    0  0.57910632337E+01 -0.64560026473E+02  0.18459728488E+02  0.67396550412E+02  0.00000000000E+00 0. -1.
</event>
<event>
 8    1  0.6860461E-009  0.1089442E+03  0.7561462E-02  0.1262538E+00
         -1   -1    0    0    0  501 -0.00000000000E+00  0.00000000000E+00  0.63596057637E+03  0.63596057637E+03  0.00000000000E+00 0.  1.
          1   -1    0    0  501    0  0.00000000000E+00 -0.00000000000E+00 -0.39420434271E+02  0.39420434271E+02  0.00000000000E+00 0. -1.
         25    2    1    2    0    0  0.85562001286E+02  0.28193341667E+02  0.47204096039E+03  0.49657457518E+03  0.12509164579E+03 0.  0.
         23    2    1    2    0    0 -0.85562001286E+02 -0.28193341667E+02  0.12449918170E+03  0.17880643546E+03  0.91411019785E+02 0.  0.
          5    1    3    3  502    0  0.80555272139E+02  0.14342366830E+02  0.12661872209E+03  0.15081322402E+03  0.41800000000E+01 0.  1.
         -5    1    3    3    0  502  0.50067291475E+01  0.13850974838E+02  0.34542223830E+03  0.34576135116E+03  0.41800000000E+01 0.  1.
        -11    1    4    4    0    0 -0.99649619056E+02 -0.13958234145E+02  0.12272296386E+03  0.15870036149E+03  0.00000000000E+00 0.  1.
         11    1    4    4    0    0  0.14087617770E+02 -0.14235107522E+02  0.17762178422E+01  0.20106073968E+02  0.00000000000E+00 0. -1.
</event>
<event>
 8    1  0.6860461E-009  0.8983731E+02  0.7561462E-02  0.1303246E+00
         -2   -1    0    0    0  501 -0.00000000000E+00  0.00000000000E+00  0.23135374223E+03  0.23135374223E+03  0.00000000000E+00 0. -1.
          2   -1    0    0  501    0  0.00000000000E+00 -0.00000000000E+00 -0.53682818925E+02  0.53682818925E+02  0.00000000000E+00 0.  1.
         25    2    1    2    0    0  0.28310936344E+02  0.42018469347E+01  0.97687978331E+02  0.16126681091E+03  0.12507948895E+03 0.  0.
         23    2    1    2    0    0 -0.28310936344E+02 -0.42018469347E+01  0.79982944978E+02  0.12376975025E+03  0.90013970891E+02 0.  0.
          5    1    3    3  502    0 -0.61823577711E+01  0.56071125595E+02  0.76903990550E+02  0.95466689665E+02  0.41800000000E+01 0.  1.
         -5    1    3    3    0  502  0.34493294116E+02 -0.51869278660E+02  0.20783987781E+02  0.65800121244E+02  0.41800000000E+01 0.  1.
        -11    1    4    4    0    0 -0.37464633568E+02 -0.19962826250E+02  0.92420729952E+02  0.10170400447E+03  0.00000000000E+00 0. -1.
         11    1    4    4    0    0  0.91536972239E+01  0.15760979315E+02 -0.12437784974E+02  0.22065745782E+02  0.00000000000E+00 0.  1.
</event>
<event>
 8    1  0.6860461E-009  0.1062132E+03  0.7561462E-02  0.1267748E+00
          1   -1    0    0  501    0  0.00000000000E+00  0.00000000000E+00  0.86877820254E+02  0.86877820254E+02  0.00000000000E+00 0. -1.
         -1   -1    0    0    0  501 -0.00000000000E+00 -0.00000000000E+00 -0.17560487569E+03  0.17560487569E+03  0.00000000000E+00 0.  1.
         25    2    1    2    0    0  0.14769006374E+02  0.48935220345E+02 -0.86679347702E+02  0.16054512163E+03  0.12509455392E+03 0.  0.
         23    2    1    2    0    0 -0.14769006374E+02 -0.48935220345E+02 -0.20477077379E+01  0.10193757432E+03  0.88171971802E+02 0.  0.
          5    1    3    3  502    0 -0.37364931780E+02  0.66948696880E+02 -0.66771440013E+02  0.10175541137E+03  0.41800000000E+01 0. -1.
         -5    1    3    3    0  502  0.52133938154E+02 -0.18013476536E+02 -0.19907907689E+02  0.58789710264E+02  0.41800000000E+01 0. -1.
        -11    1    4    4    0    0 -0.39164429527E+02 -0.32715904546E+02  0.29452474783E+02  0.58920550076E+02  0.00000000000E+00 0. -1.
         11    1    4    4    0    0  0.24395423153E+02 -0.16219315799E+02 -0.31500182521E+02  0.43017024242E+02  0.00000000000E+00 0.  1.
</event>
<event>
 8    1  0.6860461E-009  0.1512116E+03  0.7561462E-02  0.1198992E+00
         -1   -1    0    0    0  501 -0.00000000000E+00  0.00000000000E+00  0.17081290747E+02  0.17081290747E+02  0.00000000000E+00 0.  1.
          1   -1    0    0  501    0  0.00000000000E+00 -0.00000000000E+00 -0.14078499021E+04  0.14078499021E+04  0.00000000000E+00 0. -1.
         25    2    1    2    0    0  0.10035067371E+03 -0.44307327956E+02 -0.81060639323E+03  0.82750423717E+03  0.12508853168E+03 0.  0.
         23    2    1    2    0    0 -0.10035067371E+03  0.44307327956E+02 -0.58016221817E+03  0.59742695573E+03  0.91089906215E+02 0.  0.
          5    1    3    3  502    0  0.11331640093E+03  0.39908884401E+00 -0.66447927198E+03  0.67408526262E+03  0.41800000000E+01 0. -1.
         -5    1    3    3    0  502 -0.12965727224E+02 -0.44706416800E+02 -0.14612712125E+03  0.15341897454E+03  0.41800000000E+01 0. -1.
        -11    1    4    4    0    0 -0.96635885152E+02  0.68094636400E+02 -0.49558507726E+03  0.50948988470E+03  0.00000000000E+00 0.  1.
         11    1    4    4    0    0 -0.37147885562E+01 -0.23787308444E+02 -0.84577140910E+02  0.87937071031E+02  0.00000000000E+00 0. -1.
</event>
<event>
 8    1  0.6860461E-009  0.1694599E+03  0.7561462E-02  0.1178412E+00
         -1   -1    0    0    0  501 -0.00000000000E+00  0.00000000000E+00  0.91801596219E+02  0.91801596219E+02  0.00000000000E+00 0.  1.
          1   -1    0    0  501    0  0.00000000000E+00 -0.00000000000E+00 -0.35280435563E+03  0.35280435563E+03  0.00000000000E+00 0. -1.
         25    2    1    2    0    0 -0.28273914494E+01 -0.12984167483E+03 -0.21106553844E+03  0.27760384169E+03  0.12509347203E+03 0.  0.
         23    2    1    2    0    0  0.28273914494E+01  0.12984167483E+03 -0.49937220973E+02  0.16700211015E+03  0.92353257075E+02 0.  0.
          5    1    3    3  502    0 -0.60107231464E+02 -0.36055644467E+02 -0.77154925033E+02  0.10432278576E+03  0.41800000000E+01 0.  1.
         -5    1    3    3    0  502  0.57279840015E+02 -0.93786030362E+02 -0.13391061340E+03  0.17328105593E+03  0.41800000000E+01 0.  1.
        -11    1    4    4    0    0  0.46393697242E+02  0.53348843791E+02 -0.29648569431E+02  0.76664932967E+02  0.00000000000E+00 0. -1.
         11    1    4    4    0    0 -0.43566305792E+02  0.76492831038E+02 -0.20288651543E+02  0.90337177186E+02  0.00000000000E+00 0.  1.
</event>
<event>
 8    1  0.6860461E-009  0.1117640E+03  0.7561462E-02  0.1257338E+00
          1   -1    0    0  501    0  0.00000000000E+00  0.00000000000E+00  0.19698556730E+03  0.19698556730E+03  0.00000000000E+00 0. -1.
         -1   -1    0    0    0  501 -0.00000000000E+00 -0.00000000000E+00 -0.10635701270E+03  0.10635701270E+03  0.00000000000E+00 0.  1.
         25    2    1    2    0    0 -0.41708794176E+02  0.13147376283E+02  0.13758091063E+03  0.19101914852E+03  0.12508929257E+03 0.  0.
         23    2    1    2    0    0  0.41708794176E+02 -0.13147376283E+02 -0.46952356035E+02  0.11232343148E+03  0.92193017675E+02 0.  0.
          5    1    3    3  502    0 -0.52006050892E+02  0.56641953135E+02  0.47793584145E+02  0.90634647181E+02  0.41800000000E+01 0. -1.
         -5    1    3    3    0  502  0.10297256716E+02 -0.43494576852E+02  0.89787326483E+02  0.10038450134E+03  0.41800000000E+01 0. -1.
        -11    1    4    4    0    0  0.70739362083E+02 -0.15777467988E+02 -0.37971247297E+02  0.81821766452E+02  0.00000000000E+00 0. -1.
         11    1    4    4    0    0 -0.29030567908E+02  0.26300917052E+01 -0.89811087386E+01  0.30501665030E+02  0.00000000000E+00 0.  1.
</event>
<event>
 8    1  0.6860461E-009  0.9576949E+02  0.7561462E-02  0.1289452E+00
         -1   -1    0    0    0  501 -0.00000000000E+00  0.00000000000E+00  0.65563955016E+03  0.65563955016E+03  0.00000000000E+00 0.  1.
          1   -1    0    0  501    0  0.00000000000E+00 -0.00000000000E+00 -0.27424238033E+02  0.27424238033E+02  0.00000000000E+00 0. -1.
         25    2    1    2    0    0 -0.20272395835E+02  0.68705876122E+02  0.42339766377E+03  0.44726421569E+03  0.12509288352E+03 0.  0.
         23    2    1    2    0    0  0.20272395835E+02 -0.68705876122E+02  0.20481764835E+03  0.23579957250E+03  0.92302231099E+02 0.  0.
          5    1    3    3  502    0  0.19765936460E+01  0.67611838749E+02  0.87850464669E+02  0.11095244118E+03  0.41800000000E+01 0. -1.
         -5    1    3    3    0  502 -0.22248989481E+02  0.10940373728E+01  0.33554719910E+03  0.33631177451E+03  0.41800000000E+01 0. -1.
        -11    1    4    4    0    0  0.44108672707E+02 -0.62458252293E+02  0.88754105489E+02  0.11714904835E+03  0.00000000000E+00 0. -1.
         11    1    4    4    0    0 -0.23836276872E+02 -0.62476238290E+01  0.11606354287E+03  0.11865052415E+03  0.00000000000E+00 0.  1.
</event>
<event>
 8    1  0.6860461E-009  0.9333646E+02  0.7561462E-02  0.1294967E+00
          1   -1    0    0  501    0  0.00000000000E+00  0.00000000000E+00  0.13886840804E+03  0.13886840804E+03  0.00000000000E+00 0. -1.
         -1   -1    0    0    0  501 -0.00000000000E+00 -0.00000000000E+00 -0.11440963079E+03  0.11440963079E+03  0.00000000000E+00 0.  1.
         25    2    1    2    0    0 -0.63525551083E+02 -0.70903587025E+01  0.16352013161E+02  0.14142394739E+03  0.12509027034E+03 0.  0.
         23    2    1    2    0    0  0.63525551083E+02  0.70903587025E+01  0.81067640877E+01  0.11185409143E+03  0.91432211603E+02 0.  0.
          5    1    3    3  502    0 -0.42829369108E+02 -0.34557546231E+02 -0.44836653605E+02  0.71108204634E+02  0.41800000000E+01 0. -1.
         -5    1    3    3    0  502 -0.20696181975E+02  0.27467187529E+02  0.61188666766E+02  0.70315742758E+02  0.41800000000E+01 0. -1.
        -11    1    4    4    0    0  0.46677898290E+01  0.32424486513E+02 -0.23586167359E+02  0.40366358248E+02  0.00000000000E+00 0.  1.
         11    1    4    4    0    0  0.58857761254E+02 -0.25334127810E+02  0.31692931447E+02  0.71487733182E+02  0.00000000000E+00 0. -1.
</event>
<event>
 8    1  0.6860461E-009  0.1250582E+03  0.7561462E-02  0.1234978E+00
         -1   -1    0    0    0  501 -0.00000000000E+00  0.00000000000E+00  0.16997168070E+03  0.16997168070E+03  0.00000000000E+00 0.  1.
          1   -1    0    0  501    0  0.00000000000E+00 -0.00000000000E+00 -0.12536388763E+03  0.12536388763E+03  0.00000000000E+00 0. -1.
         25    2    1    2    0    0  0.42380217421E+02 -0.84806365779E+02  0.86414812709E+00  0.15696736090E+03  0.12509917318E+03 0.  0.
         23    2    1    2    0    0 -0.42380217421E+02  0.84806365779E+02  0.43743644944E+02  0.13836820743E+03  0.90796761227E+02 0.  0.
          5    1    3    3  502    0  0.28468184351E+02 -0.11560490840E+03 -0.13727773331E+02  0.11992020900E+03  0.41800000000E+01 0.  1.
         -5    1    3    3    0  502  0.13912033071E+02  0.30798542622E+02  0.14591921458E+02  0.37047151896E+02  0.41800000000E+01 0.  1.
        -11    1    4    4    0    0 -0.32180181847E+02  0.41908865710E+02  0.69498664935E+02  0.87303960715E+02  0.00000000000E+00 0.  1.
         11    1    4    4    0    0 -0.10200035574E+02  0.42897500070E+02 -0.25755019991E+02  0.51064246716E+02  0.00000000000E+00 0. -1.
</event>
<event>
 8    1  0.6860461E-009  0.1032488E+03  0.7561462E-02  0.1273609E+00
          2   -1    0    0  501    0  0.00000000000E+00  0.00000000000E+00  0.14076787759E+04  0.14076787759E+04  0.00000000000E+00 0. -1.
         -2   -1    0    0    0  501 -0.00000000000E+00 -0.00000000000E+00 -0.10923195350E+02  0.10923195350E+02  0.00000000000E+00 0.  1.
         25    2    1    2    0    0 -0.23311551092E+01 -0.34001343884E+02  0.10689374527E+04  0.10767721811E+04  0.12509806744E+03 0.  0.
         23    2    1    2    0    0  0.23311551092E+01  0.34001343884E+02  0.32781812779E+03  0.34182979012E+03  0.90671687061E+02 0.  0.
          5    1    3    3  502    0 -0.61048230865E+02 -0.96951105047E+01  0.39459406016E+03  0.39942812416E+03  0.41800000000E+01 0.  1.
         -5    1    3    3    0  502  0.58717075756E+02 -0.24306233380E+02  0.67434339258E+03  0.67734405695E+03  0.41800000000E+01 0.  1.
        -11    1    4    4    0    0 -0.31183401280E+02  0.35572354649E+02  0.27649767870E+03  0.28051517473E+03  0.00000000000E+00 0. -1.
         11    1    4    4    0    0  0.33514556389E+02 -0.15710107645E+01  0.51320449096E+02  0.61314615388E+02  0.00000000000E+00 0.  1.
</event>
<event>
 8    1  0.6860461E-009  0.1113020E+03  0.7561462E-02  0.1258178E+00
         -2   -1    0    0    0  501 -0.00000000000E+00  0.00000000000E+00  0.19577435748E+02  0.19577435748E+02  0.00000000000E+00 0.  1.
          2   -1    0    0  501    0  0.00000000000E+00 -0.00000000000E+00 -0.66388077205E+03  0.66388077205E+03  0.00000000000E+00 0. -1.
         25    2    1    2    0    0 -0.13024909373E+02  0.32439363959E+02 -0.34402962928E+03  0.36773090391E+03  0.12509065221E+03 0.  0.
         23    2    1    2    0    0  0.13024909373E+02 -0.32439363959E+02 -0.30027370702E+03  0.31572730389E+03  0.91090453356E+02 0.  0.
          5    1    3    3  502    0  0.42983238580E+02  0.54115759912E+02 -0.16875136829E+03  0.18240222303E+03  0.41800000000E+01 0. -1.
         -5    1    3    3    0  502 -0.56008147953E+02 -0.21676395953E+02 -0.17527826099E+03  0.18532868088E+03  0.41800000000E+01 0. -1.
        -11    1    4    4    0    0 -0.34329922242E+02 -0.30258719337E+02 -0.10085187160E+03  0.11074851540E+03  0.00000000000E+00 0.  1.
         11    1    4    4    0    0  0.47354831616E+02 -0.21806446213E+01 -0.19942183542E+03  0.20497878849E+03  0.00000000000E+00 0. -1.
</event>
<event>
 8    1  0.6860461E-009  0.1093981E+03  0.7561462E-02  0.1261688E+00
          1   -1    0    0  501    0  0.00000000000E+00  0.00000000000E+00  0.12007569789E+02  0.12007569789E+02  0.00000000000E+00 0. -1.
         -1   -1    0    0    0  501 -0.00000000000E+00 -0.00000000000E+00 -0.10938541236E+04  0.10938541236E+04  0.00000000000E+00 0.  1.
         25    2    1    2    0    0  0.79179567105E+00  0.38509993714E+02 -0.60236237025E+03  0.61641464481E+03  0.12507175018E+03 0.  0.
         23    2    1    2    0    0 -0.79179567105E+00 -0.38509993714E+02 -0.47948418352E+03  0.48944704853E+03  0.90386307129E+02 0.  0.
          5    1    3    3  502    0 -0.57714819407E+02  0.17262487085E+02 -0.19014792009E+03  0.19950613462E+03  0.41800000000E+01 0. -1.
         -5    1    3    3    0  502  0.58506615078E+02  0.21247506629E+02 -0.41221445016E+03  0.41690851019E+03  0.41800000000E+01 0. -1.
        -11    1    4    4    0    0 -0.14769983419E+02 -0.64685743664E+02 -0.37526708598E+03  0.38108763252E+03  0.00000000000E+00 0.  1.
         11    1    4    4    0    0  0.13978187748E+02  0.26175749950E+02 -0.10421709754E+03  0.10835941601E+03  0.00000000000E+00 0. -1.
</event>
<event>
 8    1  0.6860461E-009  0.1191460E+03  0.7561462E-02  0.1244513E+00
          1   -1    0    0  501    0  0.00000000000E+00  0.00000000000E+00  0.98291837431E+03  0.98291837431E+03  0.00000000000E+00 0. -1.
         -1   -1    0    0    0  501 -0.00000000000E+00 -0.00000000000E+00 -0.20414000012E+02  0.20414000012E+02  0.00000000000E+00 0.  1.
         25    2    1    2    0    0 -0.62523729631E+01 -0.70247903122E+02  0.72794040206E+03  0.74196947823E+03  0.12509043773E+03 0.  0.
         23    2    1    2    0    0  0.62523729631E+01  0.70247903122E+02  0.23456397224E+03  0.26136289609E+03  0.91194552036E+02 0.  0.
          5    1    3    3  502    0  0.37065150106E+02  0.67714101191E+01  0.41611892220E+03  0.41784220366E+03  0.41800000000E+01 0.  1.
         -5    1    3    3    0  502 -0.43317523069E+02 -0.77019313241E+02  0.31182147987E+03  0.32412727457E+03  0.41800000000E+01 0.  1.
        -11    1    4    4    0    0  0.45152445102E+02  0.22861163712E+02  0.75507065426E+02  0.90899356622E+02  0.00000000000E+00 0.  1.
         11    1    4    4    0    0 -0.38900072139E+02  0.47386739410E+02  0.15905690681E+03  0.17046353947E+03  0.00000000000E+00 0. -1.
</event>
<event>
 8    1  0.6860461E-009  0.7421047E+02  0.7561462E-02  0.1346334E+00
          1   -1    0    0  501    0  0.00000000000E+00  0.00000000000E+00  0.31674606227E+02  0.31674606227E+02  0.00000000000E+00 0. -1.
         -1   -1    0    0    0  501 -0.00000000000E+00 -0.00000000000E+00 -0.42211581701E+03  0.42211581701E+03  0.00000000000E+00 0.  1.
         25    2    1    2    0    0  0.18010842968E+02 -0.19666760969E+02 -0.16383323815E+03  0.20784600658E+03  0.12508981005E+03 0.  0.
         23    2    1    2    0    0 -0.18010842968E+02  0.19666760969E+02 -0.22660797264E+03  0.24594441666E+03  0.91794939240E+02 0.  0.
          5    1    3    3  502    0  0.64679395992E+01  0.17395558585E+02 -0.16755028838E+03  0.16862684020E+03  0.41800000000E+01 0.  1.
         -5    1    3    3    0  502  0.11542903369E+02 -0.37062319554E+02  0.37170502327E+01  0.39219166377E+02  0.41800000000E+01 0.  1.
        -11    1    4    4    0    0 -0.52389484800E+02  0.19713345633E+02 -0.17660318243E+03  0.18526186374E+03  0.00000000000E+00 0.  1.
         11    1    4    4    0    0  0.34378641831E+02 -0.46584663847E-01 -0.50004790214E+02  0.60682552918E+02  0.00000000000E+00 0. -1.
</event>
<event>
 8    1  0.6860461E-009  0.1015832E+03  0.7561462E-02  0.1277001E+00
         -1   -1    0    0    0  501 -0.00000000000E+00  0.00000000000E+00  0.15711290691E+03  0.15711290691E+03  0.00000000000E+00 0.  1.
          1   -1    0    0  501    0  0.00000000000E+00 -0.00000000000E+00 -0.95716426793E+02  0.95716426793E+02  0.00000000000E+00 0. -1.
         25    2    1    2    0    0  0.25959636166E+02 -0.46396347407E+02  0.13470626919E+02  0.13658532877E+03  0.12509024935E+03 0.  0.
         23    2    1    2    0    0 -0.25959636166E+02  0.46396347407E+02  0.47925853194E+02  0.11624400493E+03  0.91592890088E+02 0.  0.
          5    1    3    3  502    0  0.42035026060E+02  0.10484097441E+02  0.50533469464E+02  0.66693055493E+02  0.41800000000E+01 0.  1.
         -5    1    3    3    0  502 -0.16075389894E+02 -0.56880444849E+02 -0.37062842545E+02  0.69892273278E+02  0.41800000000E+01 0.  1.
        -11    1    4    4    0    0 -0.13553873145E+01  0.67776922992E+02  0.14047167213E+02  0.69230566023E+02  0.00000000000E+00 0. -1.
         11    1    4    4    0    0 -0.24604248851E+02 -0.21380575585E+02  0.33878685980E+02  0.47013438905E+02  0.00000000000E+00 0.  1.
</event>
<event>
 8    1  0.6860461E-009  0.1452522E+03  0.7561462E-02  0.1206431E+00
          1   -1    0    0  501    0  0.00000000000E+00  0.00000000000E+00  0.60084811277E+03  0.60084811277E+03  0.00000000000E+00 0. -1.
         -1   -1    0    0    0  501 -0.00000000000E+00 -0.00000000000E+00 -0.70579734994E+02  0.70579734994E+02  0.00000000000E+00 0.  1.
         25    2    1    2    0    0 -0.92655733435E+02 -0.42715388617E+02  0.50839365188E+03  0.53340513262E+03  0.12508893185E+03 0.  0.
         23    2    1    2    0    0  0.92655733435E+02  0.42715388617E+02  0.21874725892E+02  0.13802271514E+03  0.90344213421E+02 0.  0.
          5    1    3    3  502    0 -0.57044331209E+02  0.40476608218E+02  0.24769328255E+03  0.25741376451E+03  0.41800000000E+01 0.  1.
         -5    1    3    3    0  502 -0.35611402226E+02 -0.83191996835E+02  0.26070036933E+03  0.27599136812E+03  0.41800000000E+01 0.  1.
        -11    1    4    4    0    0 -0.27584880687E+01 -0.17040366712E+02  0.18624745863E+02  0.25394182653E+02  0.00000000000E+00 0. -1.
         11    1    4    4    0    0  0.95414221504E+02  0.59755755329E+02  0.32499800284E+01  0.11262853249E+03  0.00000000000E+00 0.  1.
</event>
<event>
 8    1  0.6860461E-009  0.2145750E+03  0.7561462E-02  0.1137993E+00
          2   -1    0    0  501    0  0.00000000000E+00  0.00000000000E+00  0.13696954263E+04  0.13696954263E+04  0.00000000000E+00 0. -1.
         -2   -1    0    0    0  501 -0.00000000000E+00 -0.00000000000E+00 -0.38585029592E+02  0.38585029592E+02  0.00000000000E+00 0.  1.
         25    2    1    2    0    0  0.10297135492E+03  0.15971719055E+03  0.88762360333E+03  0.91631659120E+03  0.12509097980E+03 0.  0.
         23    2    1    2    0    0 -0.10297135492E+03 -0.15971719055E+03  0.44348679338E+03  0.49196386470E+03  0.96100090379E+02 0.  0.
          5    1    3    3  502    0 -0.25891464089E+02  0.27963766626E+02  0.93032501078E+02  0.10062235742E+03  0.41800000000E+01 0.  1.
         -5    1    3    3    0  502  0.12886281901E+03  0.13175342393E+03  0.79459110226E+03  0.81569423378E+03  0.41800000000E+01 0.  1.
        -11    1    4    4    0    0 -0.80938899984E+02 -0.16502637304E+03  0.34506294840E+03  0.39096450950E+03  0.00000000000E+00 0.  1.
         11    1    4    4    0    0 -0.22032454932E+02  0.53091824886E+01  0.98423844983E+02  0.10099935520E+03  0.00000000000E+00 0. -1.
</event>
<event>
 8    1  0.6860461E-009  0.1287396E+03  0.7561462E-02  0.1229338E+00
         -2   -1    0    0    0  501 -0.00000000000E+00  0.00000000000E+00  0.10371748458E+04  0.10371748458E+04  0.00000000000E+00 0.  1.
          2   -1    0    0  501    0  0.00000000000E+00 -0.00000000000E+00 -0.22403295366E+02  0.22403295366E+02  0.00000000000E+00 0. -1.
         25    2    1    2    0    0  0.84165974936E+02 -0.30152567365E+02  0.74555759599E+03  0.76124617922E+03  0.12508608151E+03 0.  0.
         23    2    1    2    0    0 -0.84165974936E+02  0.30152567365E+02  0.26921395445E+03  0.29833196194E+03  0.92372710219E+02 0.  0.
          5    1    3    3  502    0  0.26665715393E+02  0.40818450857E+02  0.42794674921E+03  0.43073553239E+03  0.41800000000E+01 0. -1.
         -5    1    3    3    0  502  0.57500259543E+02 -0.70971018221E+02  0.31761084678E+03  0.33051064683E+03  0.41800000000E+01 0. -1.
        -11    1    4    4    0    0 -0.36871024465E+02 -0.24928536632E+02  0.47769429653E+02  0.65290296316E+02  0.00000000000E+00 0. -1.
         11    1    4    4    0    0 -0.47294950471E+02  0.55081103997E+02  0.22144452479E+03  0.23304166563E+03  0.00000000000E+00 0.  1.
</event>
<event>
 8    1  0.6860461E-009  0.1003534E+03  0.7561462E-02  0.1279555E+00
         -2   -1    0    0    0  501 -0.00000000000E+00  0.00000000000E+00  0.73320155347E+02  0.73320155347E+02  0.00000000000E+00 0.  1.
          2   -1    0    0  501    0  0.00000000000E+00 -0.00000000000E+00 -0.42393382991E+03  0.42393382991E+03  0.00000000000E+00 0. -1.
         25    2    1    2    0    0 -0.91788894720E+02  0.34610177002E+02 -0.47670352854E+02  0.16596059480E+03  0.12508953169E+03 0.  0.
         23    2    1    2    0    0  0.91788894720E+02 -0.34610177002E+02 -0.30294332171E+03  0.33129339046E+03  0.91419849307E+02 0.  0.
          5    1    3    3  502    0 -0.74831065795E+02  0.28619971857E+02 -0.89526152829E+02  0.12021312589E+03  0.41800000000E+01 0.  1.
         -5    1    3    3    0  502 -0.16957828925E+02  0.59902051446E+01  0.41855799975E+02  0.45747468903E+02  0.41800000000E+01 0.  1.
        -11    1    4    4    0    0  0.40985075326E+02 -0.30418686425E+02 -0.25902984413E+03  0.26401047902E+03  0.00000000000E+00 0. -1.
         11    1    4    4    0    0  0.50803819394E+02 -0.41914905773E+01 -0.43913477578E+02  0.67282911435E+02  0.00000000000E+00 0.  1.
</event>
<event>
 8    1  0.6860461E-009  0.9499046E+02  0.7561462E-02  0.1291198E+00
         -2   -1    0    0    0  501 -0.00000000000E+00  0.00000000000E+00  0.32586329620E+03  0.32586329620E+03  0.00000000000E+00 0.  1.
          2   -1    0    0  501    0  0.00000000000E+00 -0.00000000000E+00 -0.50521407223E+02  0.50521407223E+02  0.00000000000E+00 0. -1.
         25    2    1    2    0    0 -0.61441013309E+02 -0.33354584663E+02  0.12926033091E+03  0.19298794447E+03  0.12509431294E+03 0.  0.
         23    2    1    2    0    0  0.61441013309E+02  0.33354584663E+02  0.14608155807E+03  0.18339675895E+03  0.86064064234E+02 0.  0.
          5    1    3    3  502    0 -0.43949391019E+01 -0.56632619417E+02  0.88157039495E+01  0.57634695348E+02  0.41800000000E+01 0. -1.
         -5    1    3    3    0  502 -0.57046074207E+02  0.23278034754E+02  0.12044462696E+03  0.13535324912E+03  0.41800000000E+01 0. -1.
        -11    1    4    4    0    0  0.25805891728E+02  0.63965852548E+01 -0.39264342995E+01  0.26875216039E+02  0.00000000000E+00 0. -1.
         11    1    4    4    0    0  0.35635121581E+02  0.26957999408E+02  0.15000799237E+03  0.15652154292E+03  0.00000000000E+00 0.  1.
</event>
<event>
 8    1  0.6860461E-009  0.1063921E+03  0.7561462E-02  0.1267401E+00
         -2   -1    0    0    0  501 -0.00000000000E+00  0.00000000000E+00  0.26971544420E+02  0.26971544420E+02  0.00000000000E+00 0.  1.
          2   -1    0    0  501    0  0.00000000000E+00 -0.00000000000E+00 -0.61995987569E+03  0.61995987569E+03  0.00000000000E+00 0. -1.
         25    2    1    2    0    0 -0.49639349007E+02 -0.48821894710E+02 -0.35632208756E+03  0.38400611991E+03  0.12509047795E+03 0.  0.
         23    2    1    2    0    0  0.49639349007E+02  0.48821894710E+02 -0.23666624371E+03  0.26292530020E+03  0.90945919091E+02 0.  0.
          5    1    3    3  502    0  0.37995592450E+02  0.72941649787E+01 -0.10346643675E+03  0.11054250686E+03  0.41800000000E+01 0. -1.
         -5    1    3    3    0  502 -0.87634941456E+02 -0.56116059689E+02 -0.25285565081E+03  0.27346361305E+03  0.41800000000E+01 0. -1.
        -11    1    4    4    0    0  0.15132018581E+02  0.12543117824E+02  0.13488444950E+01  0.19700943443E+02  0.00000000000E+00 0.  1.
         11    1    4    4    0    0  0.34507330425E+02  0.36278776887E+02 -0.23801508820E+03  0.24322435675E+03  0.00000000000E+00 0. -1.
</event>
<event>
 8    1  0.6860461E-009  0.9051073E+02  0.7561462E-02  0.1301620E+00
         -2   -1    0    0    0  501 -0.00000000000E+00  0.00000000000E+00  0.25055819593E+02  0.25055819593E+02  0.00000000000E+00 0.  1.
          2   -1    0    0  501    0  0.00000000000E+00 -0.00000000000E+00 -0.66574191349E+03  0.66574191349E+03  0.00000000000E+00 0. -1.
         25    2    1    2    0    0  0.37855865935E+02  0.10572391462E+02 -0.52398775145E+03  0.54014413242E+03  0.12509067943E+03 0.  0.
         23    2    1    2    0    0 -0.37855865935E+02 -0.10572391462E+02 -0.11669834245E+03  0.15065360066E+03  0.86793791331E+02 0.  0.
          5    1    3    3  502    0  0.52009594444E+02  0.55802904858E+02 -0.40223260457E+03  0.40942337828E+03  0.41800000000E+01 0. -1.
         -5    1    3    3    0  502 -0.14153728509E+02 -0.45230513396E+02 -0.12175514688E+03  0.13072075415E+03  0.41800000000E+01 0. -1.
        -11    1    4    4    0    0 -0.21751464144E+02 -0.26576774089E+02 -0.27363997526E+01  0.34451981031E+02  0.00000000000E+00 0.  1.
         11    1    4    4    0    0 -0.16104401791E+02  0.16004382626E+02 -0.11396194270E+03  0.11620161963E+03  0.00000000000E+00 0. -1.
</event>
<event>
 8    1  0.6860461E-009  0.9892147E+02  0.7561462E-02  0.1282580E+00
          1   -1    0    0  501    0  0.00000000000E+00  0.00000000000E+00  0.89874147901E+03  0.89874147901E+03  0.00000000000E+00 0. -1.
         -1   -1    0    0    0  501 -0.00000000000E+00 -0.00000000000E+00 -0.14664000800E+02  0.14664000800E+02  0.00000000000E+00 0.  1.
         25    2    1    2    0    0  0.20018327113E+02  0.23180028680E+02  0.67058601652E+03  0.68284073754E+03  0.12509124727E+03 0.  0.
         23    2    1    2    0    0 -0.20018327113E+02 -0.23180028680E+02  0.21349146169E+03  0.23056474227E+03  0.81507355576E+02 0.  0.
          5    1    3    3  502    0  0.48823171118E+02 -0.34994128945E+02  0.24380017404E+03  0.25112604078E+03  0.41800000000E+01 0.  1.
         -5    1    3    3    0  502 -0.28804844005E+02  0.58174157625E+02  0.42678584248E+03  0.43171469676E+03  0.41800000000E+01 0.  1.
        -11    1    4    4    0    0 -0.22440527689E+02 -0.45180107186E+02  0.19590394142E+03  0.20229476917E+03  0.00000000000E+00 0. -1.
         11    1    4    4    0    0  0.24222005764E+01  0.22000078506E+02  0.17587520270E+02  0.28269973101E+02  0.00000000000E+00 0.  1.
</event>
<event>
 8    1  0.6860461E-009  0.1522425E+03  0.7561462E-02  0.1197744E+00
         -1   -1    0    0    0  501 -0.00000000000E+00  0.00000000000E+00  0.31629166674E+02  0.31629166674E+02  0.00000000000E+00 0.  1.
          1   -1    0    0  501    0  0.00000000000E+00 -0.00000000000E+00 -0.11561838839E+04  0.11561838839E+04  0.00000000000E+00 0. -1.
         25    2    1    2    0    0 -0.10518230362E+03 -0.53327828884E+02 -0.91425796917E+03  0.93028111414E+03  0.12509253696E+03 0.  0.
         23    2    1    2    0    0  0.10518230362E+03  0.53327828884E+02 -0.21029674806E+03  0.25753193644E+03  0.90503048086E+02 0.  0.
          5    1    3    3  502    0  0.42684371953E+01 -0.47578225351E+02 -0.47987522509E+03  0.48226508389E+03  0.41800000000E+01 0. -1.
         -5    1    3    3    0  502 -0.10945074081E+03 -0.57496035334E+01 -0.43438274408E+03  0.44801603025E+03  0.41800000000E+01 0. -1.
        -11    1    4    4    0    0  0.17153507069E+02  0.56216928940E+02 -0.10427068664E+03  0.11969528811E+03  0.00000000000E+00 0.  1.
         11    1    4    4    0    0  0.88028796550E+02 -0.28891000553E+01 -0.10602606142E+03  0.13783664832E+03  0.00000000000E+00 0. -1.
</event>
<event>
 8    1  0.6860461E-009  0.1440779E+03  0.7561462E-02  0.1207945E+00
         -1   -1    0    0    0  501 -0.00000000000E+00  0.00000000000E+00  0.16097817560E+03  0.16097817560E+03  0.00000000000E+00 0.  1.
          1   -1    0    0  501    0  0.00000000000E+00 -0.00000000000E+00 -0.17150608764E+03  0.17150608764E+03  0.00000000000E+00 0. -1.
         25    2    1    2    0    0  0.15588690462E+02 -0.11544719774E+03  0.40614682389E+02  0.17568994586E+03  0.12508533852E+03 0.  0.
         23    2    1    2    0    0 -0.15588690462E+02  0.11544719774E+03 -0.51142594429E+02  0.15679431738E+03  0.91639676230E+02 0.  0.
          5    1    3    3  502    0 -0.24894509193E+01 -0.13335648135E+03  0.74147434699E+01  0.13365103556E+03  0.41800000000E+01 0. -1.
         -5    1    3    3    0  502  0.18078141381E+02  0.17909283609E+02  0.33199938919E+02  0.42038910302E+02  0.41800000000E+01 0. -1.
        -11    1    4    4    0    0 -0.35515837998E+02  0.88872114298E+02  0.12584766893E+00  0.95706025338E+02  0.00000000000E+00 0.  1.
         11    1    4    4    0    0  0.19927147536E+02  0.26575083447E+02 -0.51268442098E+02  0.61088292040E+02  0.00000000000E+00 0. -1.
</event>
<event>
 8    1  0.6860461E-009  0.8284453E+02  0.7561462E-02  0.1321168E+00
         -2   -1    0    0    0  501 -0.00000000000E+00  0.00000000000E+00  0.82423379154E+02  0.82423379154E+02  0.00000000000E+00 0.  1.
          2   -1    0    0  501    0  0.00000000000E+00 -0.00000000000E+00 -0.18967389355E+03  0.18967389355E+03  0.00000000000E+00 0. -1.
         25    2    1    2    0    0  0.31314413486E+02  0.49593839791E+02 -0.84318456293E+02  0.16185587774E+03  0.12509029399E+03 0.  0.
         23    2    1    2    0    0 -0.31314413486E+02 -0.49593839791E+02 -0.22932058102E+02  0.11024139496E+03  0.90482840565E+02 0.  0.
          5    1    3    3  502    0  0.15621740082E+02  0.68681335303E+02 -0.10692319017E+03  0.12810622771E+03  0.41800000000E+01 0.  1.
         -5    1    3    3    0  502  0.15692673404E+02 -0.19087495512E+02  0.22604733879E+02  0.33749650031E+02  0.41800000000E+01 0.  1.
        -11    1    4    4    0    0 -0.11553285841E+02 -0.48951950311E+02 -0.53758678695E+02  0.73619069459E+02  0.00000000000E+00 0. -1.
         11    1    4    4    0    0 -0.19761127645E+02 -0.64188947982E+00  0.30826620593E+02  0.36622325501E+02  0.00000000000E+00 0.  1.
</event>
<event>
 8    1  0.6860461E-009  0.1089926E+03  0.7561462E-02  0.1262447E+00
         -1   -1    0    0    0  501 -0.00000000000E+00  0.00000000000E+00  0.14312217845E+02  0.14312217845E+02  0.00000000000E+00 0.  1.
          1   -1    0    0  501    0  0.00000000000E+00 -0.00000000000E+00 -0.86454513340E+03  0.86454513340E+03  0.00000000000E+00 0. -1.
         25    2    1    2    0    0  0.10626248250E+02 -0.17766464026E+02 -0.54496826964E+03  0.55952181868E+03  0.12508271768E+03 0.  0.
         23    2    1    2    0    0 -0.10626248250E+02  0.17766464026E+02 -0.30526464592E+03  0.31933553257E+03  0.91433658576E+02 0.  0.
          5    1    3    3  502    0  0.31380727093E+02  0.47079309732E+02 -0.20091738187E+03  0.20877374877E+03  0.41800000000E+01 0.  1.
         -5    1    3    3    0  502 -0.20754478843E+02 -0.64845773758E+02 -0.34405088777E+03  0.35074806991E+03  0.41800000000E+01 0.  1.
        -11    1    4    4    0    0  0.39650142798E+02  0.15921115820E+02 -0.15993576080E+03  0.16554474723E+03  0.00000000000E+00 0. -1.
         11    1    4    4    0    0 -0.50276391048E+02  0.18453482064E+01 -0.14532888511E+03  0.15379078534E+03  0.00000000000E+00 0.  1.
</event>
<event>
 8    1  0.6860461E-009  0.1122938E+03  0.7561462E-02  0.1256380E+00
         -1   -1    0    0    0  501 -0.00000000000E+00  0.00000000000E+00  0.42755201954E+02  0.42755201954E+02  0.00000000000E+00 0.  1.
          1   -1    0    0  501    0  0.00000000000E+00 -0.00000000000E+00 -0.53383541814E+03  0.53383541814E+03  0.00000000000E+00 0. -1.
         25    2    1    2    0    0  0.54617389957E+02 -0.51833011497E+01 -0.43836772174E+03  0.45915488111E+03  0.12508804695E+03 0.  0.
         23    2    1    2    0    0 -0.54617389957E+02  0.51833011497E+01 -0.52712494443E+02  0.11743573898E+03  0.89457363155E+02 0.  0.
          5    1    3    3  502    0 -0.14041790737E+02 -0.51387371861E+02 -0.15741550022E+03  0.16623761904E+03  0.41800000000E+01 0.  1.
         -5    1    3    3    0  502  0.68659180694E+02  0.46204070711E+02 -0.28095222152E+03  0.29291726207E+03  0.41800000000E+01 0.  1.
        -11    1    4    4    0    0 -0.10000812482E+02  0.33823500811E+02  0.86755215016E+01  0.36322308995E+02  0.00000000000E+00 0. -1.
         11    1    4    4    0    0 -0.44616577475E+02 -0.28640199661E+02 -0.61388015944E+02  0.81113429984E+02  0.00000000000E+00 0.  1.
</event>
<event>
 8    1  0.6860461E-009  0.1640401E+03  0.7561462E-02  0.1184210E+00
          2   -1    0    0  501    0  0.00000000000E+00  0.00000000000E+00  0.29220310076E+03  0.29220310076E+03  0.00000000000E+00 0. -1.
         -2   -1    0    0    0  501 -0.00000000000E+00 -0.00000000000E+00 -0.13204023485E+03  0.13204023485E+03  0.00000000000E+00 0.  1.
         25    2    1    2    0    0 -0.12030867976E+03  0.10992451943E+03  0.10331550922E+03  0.22995622359E+03  0.12509273330E+03 0.  0.
         23    2    1    2    0    0  0.12030867976E+03 -0.10992451943E+03  0.56847356684E+02  0.19428711202E+03  0.89209200969E+02 0.  0.
          5    1    3    3  502    0 -0.61801280111E+02  0.42547247601E+02 -0.19925072651E+02  0.77744115031E+02  0.41800000000E+01 0.  1.
         -5    1    3    3    0  502 -0.58507399654E+02  0.67377271826E+02  0.12324058187E+03  0.15221210856E+03  0.41800000000E+01 0.  1.
        -11    1    4    4    0    0  0.10612533942E+03 -0.90037752972E+02  0.76790469722E+01  0.13938562476E+03  0.00000000000E+00 0.  1.
         11    1    4    4    0    0  0.14183340342E+02 -0.19886766455E+02  0.49168309712E+02  0.54901487259E+02  0.00000000000E+00 0. -1.
</event>
<event>
 8    1  0.6860461E-009  0.1444692E+03  0.7561462E-02  0.1207439E+00
          2   -1    0    0  501    0  0.00000000000E+00  0.00000000000E+00  0.69818687873E+03  0.69818687873E+03  0.00000000000E+00 0. -1.
         -2   -1    0    0    0  501 -0.00000000000E+00 -0.00000000000E+00 -0.38582785600E+02  0.38582785600E+02  0.00000000000E+00 0.  1.
         25    2    1    2    0    0 -0.10551527859E+03  0.31952892419E+02  0.47222495415E+03  0.50079808948E+03  0.12509139763E+03 0.  0.
         23    2    1    2    0    0  0.10551527859E+03 -0.31952892419E+02  0.18737913898E+03  0.23597157485E+03  0.91745196385E+02 0.  0.
          5    1    3    3  502    0 -0.90271743730E+02 -0.33854635176E+02  0.31934596641E+03  0.33360821738E+03  0.41800000000E+01 0. -1.
         -5    1    3    3    0  502 -0.15243534861E+02  0.65807527596E+02  0.15287898774E+03  0.16718987210E+03  0.41800000000E+01 0. -1.
        -11    1    4    4    0    0  0.64664815882E+02 -0.48347007658E+02  0.58285763473E+02  0.99580127467E+02  0.00000000000E+00 0.  1.
         11    1    4    4    0    0  0.40850462708E+02  0.16394115239E+02  0.12909337551E+03  0.13639144738E+03  0.00000000000E+00 0. -1.
</event>
<event>
 8    1  0.6860461E-009  0.1991306E+03  0.7561462E-02  0.1150475E+00
          2   -1    0    0  501    0  0.00000000000E+00  0.00000000000E+00  0.79572000578E+03  0.79572000578E+03  0.00000000000E+00 0. -1.
         -2   -1    0    0    0  501 -0.00000000000E+00 -0.00000000000E+00 -0.59155999637E+02  0.59155999637E+02  0.00000000000E+00 0.  1.
         25    2    1    2    0    0 -0.11080341114E+03  0.14449259967E+03  0.29809225104E+03  0.37102464096E+03  0.12507912212E+03 0.  0.
         23    2    1    2    0    0  0.11080341114E+03 -0.14449259967E+03  0.43847175510E+03  0.48385136446E+03  0.93269263886E+02 0.  0.
          5    1    3    3  502    0  0.15513321806E+02  0.50274841794E+02  0.31942324197E+02  0.61692846797E+02  0.41800000000E+01 0. -1.
         -5    1    3    3    0  502 -0.12631673295E+03  0.94217757874E+02  0.26614992685E+03  0.30933179417E+03  0.41800000000E+01 0. -1.
        -11    1    4    4    0    0  0.44836970821E+02 -0.24964565697E+02  0.48258025022E+02  0.70444449546E+02  0.00000000000E+00 0.  1.
         11    1    4    4    0    0  0.65966440319E+02 -0.11952803397E+03  0.39021373008E+03  0.41340691491E+03  0.00000000000E+00 0. -1.
</event>
<event>
 8    1  0.6860461E-009  0.7740350E+02  0.7561462E-02  0.1336586E+00
         -1   -1    0    0    0  501 -0.00000000000E+00  0.00000000000E+00  0.44432595483E+02  0.44432595483E+02  0.00000000000E+00 0.  1.
          1   -1    0    0  501    0  0.00000000000E+00 -0.00000000000E+00 -0.39553233318E+03  0.39553233318E+03  0.00000000000E+00 0. -1.
         25    2    1    2    0    0  0.27897019376E+02  0.23399082256E+02 -0.84698925037E+02  0.15539556347E+03  0.12509241585E+03 0.  0.
         23    2    1    2    0    0 -0.27897019376E+02 -0.23399082256E+02 -0.26640081266E+03  0.28456936519E+03  0.93191039703E+02 0.  0.
          5    1    3    3  502    0  0.72522857855E+01 -0.18872806143E+02  0.27077611183E+02  0.34050666487E+02  0.41800000000E+01 0.  1.
         -5    1    3    3    0  502  0.20644733590E+02  0.42271888400E+02 -0.11177653622E+03  0.12134489698E+03  0.41800000000E+01 0.  1.
        -11    1    4    4    0    0 -0.55700176683E+02 -0.18559280528E+02 -0.10138296215E+03  0.11715571515E+03  0.00000000000E+00 0.  1.
         11    1    4    4    0    0  0.27803157307E+02 -0.48398017285E+01 -0.16501785050E+03  0.16741365005E+03  0.00000000000E+00 0. -1.
</event>
<event>
 8    1  0.6860461E-009  0.2549639E+03  0.7561462E-02  0.1110207E+00
          4   -1    0    0  501    0  0.00000000000E+00  0.00000000000E+00  0.54266423052E+03  0.54266423052E+03  0.00000000000E+00 0. -1.
         -4   -1    0    0    0  501 -0.00000000000E+00 -0.00000000000E+00 -0.12884258607E+03  0.12884258607E+03  0.00000000000E+00 0.  1.
         25    2    1    2    0    0 -0.21508764715E+03 -0.10574526998E+03  0.24295682765E+03  0.36348472366E+03  0.12509342968E+03 0.  0.
         23    2    1    2    0    0  0.21508764715E+03  0.10574526998E+03  0.17086481680E+03  0.30802209294E+03  0.90763792570E+02 0.  0.
          5    1    3    3  502    0 -0.83140305986E+02 -0.99343765125E+02  0.74950387828E+02  0.14972149874E+03  0.41800000000E+01 0.  1.
         -5    1    3    3    0  502 -0.13194734116E+03 -0.64015048547E+01  0.16800643983E+03  0.21376322492E+03  0.41800000000E+01 0.  1.
        -11    1    4    4    0    0  0.12274926236E+03  0.24531500353E+02  0.47642470406E+02  0.13393648087E+03  0.00000000000E+00 0.  1.
         11    1    4    4    0    0  0.92338384787E+02  0.81213769626E+02  0.12322234639E+03  0.17408561208E+03  0.00000000000E+00 0. -1.
</event>
<event>
 8    1  0.6860461E-009  0.1252188E+03  0.7561462E-02  0.1234728E+00
          2   -1    0    0  501    0  0.00000000000E+00  0.00000000000E+00  0.18276046934E+03  0.18276046934E+03  0.00000000000E+00 0. -1.
         -2   -1    0    0    0  501 -0.00000000000E+00 -0.00000000000E+00 -0.11889354247E+03  0.11889354247E+03  0.00000000000E+00 0.  1.
         25    2    1    2    0    0 -0.36863210530E+02  0.61258390125E+02  0.10448256218E+03  0.17797494784E+03  0.12508792751E+03 0.  0.
         23    2    1    2    0    0  0.36863210530E+02 -0.61258390125E+02 -0.40615635313E+02  0.12367906397E+03  0.92387198150E+02 0.  0.
          5    1    3    3  502    0 -0.38502242597E+02 -0.26677760630E+02  0.86195304387E+01  0.47811026994E+02  0.41800000000E+01 0. -1.
         -5    1    3    3    0  502  0.16390320676E+01  0.87936150755E+02  0.95863031743E+02  0.13016392085E+03  0.41800000000E+01 0. -1.
        -11    1    4    4    0    0  0.49344236469E+02  0.34438416335E+01 -0.27138475406E+02  0.56419948292E+02  0.00000000000E+00 0. -1.
         11    1    4    4    0    0 -0.12481025939E+02 -0.64702231759E+02 -0.13477159907E+02  0.67259115681E+02  0.00000000000E+00 0.  1.
</event>
<event>
 8    1  0.6860461E-009  0.1060027E+03  0.7561462E-02  0.1268157E+00
         -1   -1    0    0    0  501 -0.00000000000E+00  0.00000000000E+00  0.11041969264E+03  0.11041969264E+03  0.00000000000E+00 0.  1.
          1   -1    0    0  501    0  0.00000000000E+00 -0.00000000000E+00 -0.17089739350E+03  0.17089739350E+03  0.00000000000E+00 0. -1.
         25    2    1    2    0    0  0.65010362171E+02  0.49169317433E+02 -0.70828502167E+01  0.14947042143E+03  0.12508905287E+03 0.  0.
         23    2    1    2    0    0 -0.65010362171E+02 -0.49169317433E+02 -0.53394850636E+02  0.13184666471E+03  0.88817588089E+02 0.  0.
          5    1    3    3  502    0  0.12141719427E+02  0.44461617342E+02 -0.59081318048E+02  0.75048859483E+02  0.41800000000E+01 0. -1.
         -5    1    3    3    0  502  0.52868642744E+02  0.47077000903E+01  0.51998467832E+02  0.74421561947E+02  0.41800000000E+01 0. -1.
        -11    1    4    4    0    0 -0.34492279623E+02 -0.68265214600E+02 -0.12730683516E+02  0.77536618322E+02  0.00000000000E+00 0.  1.
         11    1    4    4    0    0 -0.30518082548E+02  0.19095897167E+02 -0.40664167120E+02  0.54310046387E+02  0.00000000000E+00 0. -1.
</event>
<event>
 8    1  0.6860461E-009  0.1621964E+03  0.7561462E-02  0.1186239E+00
         -2   -1    0    0    0  501 -0.00000000000E+00  0.00000000000E+00  0.43845217796E+02  0.43845217796E+02  0.00000000000E+00 0.  1.
          2   -1    0    0  501    0  0.00000000000E+00 -0.00000000000E+00 -0.95481622434E+03  0.95481622434E+03  0.00000000000E+00 0. -1.
         25    2    1    2    0    0 -0.66075763449E+02  0.12440022646E+03 -0.72176339814E+03  0.74594453597E+03  0.12509766179E+03 0.  0.
         23    2    1    2    0    0  0.66075763449E+02 -0.12440022646E+03 -0.18920760840E+03  0.25271690617E+03  0.90691194319E+02 0.  0.
          5    1    3    3  502    0  0.32744373300E+02  0.30209194858E+02 -0.10323256130E+03  0.11251321500E+03  0.41800000000E+01 0. -1.
         -5    1    3    3    0  502 -0.98820136749E+02  0.94191031603E+02 -0.61853083684E+03  0.63343132097E+03  0.41800000000E+01 0. -1.
        -11    1    4    4    0    0  0.22255109859E+02 -0.68561896792E+02 -0.29387572385E+02  0.77843773143E+02  0.00000000000E+00 0.  1.
         11    1    4    4    0    0  0.43820653589E+02 -0.55838329669E+02 -0.15982003602E+03  0.17487313302E+03  0.00000000000E+00 0. -1.
</event>
<event>
 8    1  0.6860461E-009  0.1133794E+03  0.7561462E-02  0.1254437E+00
         -1   -1    0    0    0  501 -0.00000000000E+00  0.00000000000E+00  0.93221750212E+02  0.93221750212E+02  0.00000000000E+00 0.  1.
          1   -1    0    0  501    0  0.00000000000E+00 -0.00000000000E+00 -0.20262403455E+03  0.20262403455E+03  0.00000000000E+00 0. -1.
         25    2    1    2    0    0 -0.33007679829E+02  0.46053990583E+02 -0.12663809816E+03  0.18680300832E+03  0.12509068324E+03 0.  0.
         23    2    1    2    0    0  0.33007679829E+02 -0.46053990583E+02  0.17235813828E+02  0.10904277644E+03  0.91557505644E+02 0.  0.
          5    1    3    3  502    0  0.37853810887E+02  0.93539301636E+01 -0.26639223393E+01  0.39306181325E+02  0.41800000000E+01 0.  1.
         -5    1    3    3    0  502 -0.70861490715E+02  0.36700060420E+02 -0.12397417582E+03  0.14749682699E+03  0.41800000000E+01 0.  1.
        -11    1    4    4    0    0 -0.30532281876E+02 -0.25756654334E+01  0.62463509223E+01  0.31270932011E+02  0.00000000000E+00 0.  1.
         11    1    4    4    0    0  0.63539961705E+02 -0.43478325150E+02  0.10989462906E+02  0.77771844432E+02  0.00000000000E+00 0. -1.
</event>
<event>
 8    1  0.6860461E-009  0.1580555E+03  0.7561462E-02  0.1190910E+00
          1   -1    0    0  501    0  0.00000000000E+00  0.00000000000E+00  0.16681715047E+03  0.16681715047E+03  0.00000000000E+00 0.  1.
         -1   -1    0    0    0  501 -0.00000000000E+00 -0.00000000000E+00 -0.18080211880E+03  0.18080211880E+03  0.00000000000E+00 0. -1.
         25    2    1    2    0    0 -0.12453170226E+03  0.16341169657E+02  0.42511188556E+02  0.18229477199E+03  0.12509597934E+03 0.  0.
         23    2    1    2    0    0  0.12453170226E+03 -0.16341169657E+02 -0.56496156887E+02  0.16532449729E+03  0.91461439789E+02 0.  0.
          5    1    3    3  502    0 -0.38553812783E+02 -0.44392219250E+02  0.49135354423E+02  0.76738654303E+02  0.41800000000E+01 0. -1.
         -5    1    3    3    0  502 -0.85977889475E+02  0.60733388907E+02 -0.66241658668E+01  0.10555611768E+03  0.41800000000E+01 0. -1.
        -11    1    4    4    0    0  0.10594987042E+03 -0.47048040888E+02 -0.57533797945E+02  0.12941804781E+03  0.00000000000E+00 0.  1.
         11    1    4    4    0    0  0.18581831838E+02  0.30706871230E+02  0.10376410576E+01  0.35906449479E+02  0.00000000000E+00 0. -1.
</event>
<event>
 8    1  0.6860461E-009  0.8454816E+02  0.7561462E-02  0.1316618E+00
         -1   -1    0    0    0  501 -0.00000000000E+00  0.00000000000E+00  0.12711149480E+03  0.12711149480E+03  0.00000000000E+00 0.  1.
          1   -1    0    0  501    0  0.00000000000E+00 -0.00000000000E+00 -0.96720862855E+02  0.96720862855E+02  0.00000000000E+00 0. -1.
         25    2    1    2    0    0  0.79007463682E+01  0.88158959941E+01 -0.28867326955E+01  0.12568575277E+03  0.12509369852E+03 0.  0.
         23    2    1    2    0    0 -0.79007463682E+01 -0.88158959941E+01  0.33277364643E+02  0.98146604884E+02  0.91570908248E+02 0.  0.
          5    1    3    3  502    0 -0.22589156762E+02 -0.32572726672E+02 -0.44262395267E+02  0.59564121423E+02  0.41800000000E+01 0. -1.
         -5    1    3    3    0  502  0.30489903130E+02  0.41388622666E+02  0.41375662572E+02  0.66121631350E+02  0.41800000000E+01 0. -1.
        -11    1    4    4    0    0 -0.22325980821E+02  0.29340552695E+02  0.42562933450E+02  0.56310929276E+02  0.00000000000E+00 0.  1.
         11    1    4    4    0    0  0.14425234453E+02 -0.38156448689E+02 -0.92855688069E+01  0.41835675608E+02  0.00000000000E+00 0. -1.
</event>
<event>
 8    1  0.6860461E-009  0.1447028E+03  0.7561462E-02  0.1207138E+00
          2   -1    0    0  501    0  0.00000000000E+00  0.00000000000E+00  0.95938236914E+03  0.95938236914E+03  0.00000000000E+00 0.  1.
         -2   -1    0    0    0  501 -0.00000000000E+00 -0.00000000000E+00 -0.34459233917E+02  0.34459233917E+02  0.00000000000E+00 0. -1.
         25    2    1    2    0    0 -0.13380788714E+03 -0.54227747925E+02  0.43543294453E+03  0.47549467421E+03  0.12509251261E+03 0.  0.
         23    2    1    2    0    0  0.13380788714E+03  0.54227747925E+02  0.48949019069E+03  0.51834692885E+03  0.90761735092E+02 0.  0.
          5    1    3    3  502    0 -0.36005575871E+02 -0.13411748008E+02  0.14296715221E+02  0.41208554264E+02  0.41800000000E+01 0. -1.
         -5    1    3    3    0  502 -0.97802311269E+02 -0.40815999918E+02  0.42113622931E+03  0.43428611994E+03  0.41800000000E+01 0. -1.
        -11    1    4    4    0    0  0.74579133235E+02  0.35344183776E+02  0.40572434090E+03  0.41403321031E+03  0.00000000000E+00 0.  1.
         11    1    4    4    0    0  0.59228753905E+02  0.18883564149E+02  0.83765849798E+02  0.10431371854E+03  0.00000000000E+00 0. -1.
</event>
<event>
 8    1  0.6860461E-009  0.1020371E+03  0.7561462E-02  0.1276070E+00
         -3   -1    0    0    0  501 -0.00000000000E+00  0.00000000000E+00  0.29696196784E+03  0.29696196784E+03  0.00000000000E+00 0.  1.
          3   -1    0    0  501    0  0.00000000000E+00 -0.00000000000E+00 -0.51284696302E+02  0.51284696302E+02  0.00000000000E+00 0. -1.
         25    2    1    2    0    0  0.54092516624E+02 -0.46510684401E+01  0.17210273081E+03  0.21957808727E+03  0.12509018213E+03 0.  0.
         23    2    1    2    0    0 -0.54092516624E+02  0.46510684401E+01  0.73574540731E+02  0.12866857687E+03  0.90524896232E+02 0.  0.
          5    1    3    3  502    0  0.39515525046E+02  0.51642959920E+02  0.13652795934E+03  0.15128062702E+03  0.41800000000E+01 0.  1.
         -5    1    3    3    0  502  0.14576991578E+02 -0.56294028360E+02  0.35574771471E+02  0.68297460258E+02  0.41800000000E+01 0.  1.
        -11    1    4    4    0    0 -0.47198924561E+02  0.28939643502E+02  0.84610037177E+02  0.10111429096E+03  0.00000000000E+00 0.  1.
         11    1    4    4    0    0 -0.68935920632E+01 -0.24288575062E+02 -0.11035496446E+02  0.27554285908E+02  0.00000000000E+00 0. -1.
</event>
<event>
 8    1  0.6860461E-009  0.1168914E+03  0.7561462E-02  0.1248315E+00
         -2   -1    0    0    0  501 -0.00000000000E+00  0.00000000000E+00  0.87222746868E+01  0.87222746868E+01  0.00000000000E+00 0.  1.
          2   -1    0    0  501    0  0.00000000000E+00 -0.00000000000E+00 -0.19819414527E+04  0.19819414527E+04  0.00000000000E+00 0. -1.
         25    2    1    2    0    0  0.11166948180E+02  0.40662302556E+02 -0.15069441524E+04  0.15127144328E+04  0.12508458439E+03 0.  0.
         23    2    1    2    0    0 -0.11166948180E+02 -0.40662302556E+02 -0.46627502561E+03  0.47794929456E+03  0.96150949438E+02 0.  0.
          5    1    3    3  502    0  0.67495801861E+02  0.13655214083E+02 -0.84876054222E+03  0.85155979154E+03  0.41800000000E+01 0.  1.
         -5    1    3    3    0  502 -0.56328853681E+02  0.27007088473E+02 -0.65818361015E+03  0.66115464125E+03  0.41800000000E+01 0.  1.
        -11    1    4    4    0    0  0.35630079075E+02 -0.42365511842E+02 -0.19686478737E+03  0.20449959323E+03  0.00000000000E+00 0.  1.
         11    1    4    4    0    0 -0.46797027255E+02  0.17032092865E+01 -0.26941023825E+03  0.27344970132E+03  0.00000000000E+00 0. -1.
</event>
<event>
 8    1  0.6860461E-009  0.1115870E+03  0.7561462E-02  0.1257659E+00
          1   -1    0    0  501    0  0.00000000000E+00  0.00000000000E+00  0.62604881645E+03  0.62604881645E+03  0.00000000000E+00 0. -1.
         -1   -1    0    0    0  501 -0.00000000000E+00 -0.00000000000E+00 -0.29201375260E+02  0.29201375260E+02  0.00000000000E+00 0.  1.
         25    2    1    2    0    0  0.41002996618E+02 -0.35761687774E+02  0.18388617109E+03  0.22895691083E+03  0.12508796526E+03 0.  0.
         23    2    1    2    0    0 -0.41002996618E+02  0.35761687774E+02  0.41296127010E+03  0.42629328088E+03  0.90712770203E+02 0.  0.
          5    1    3    3  502    0  0.27515593627E+02  0.37307996233E+02  0.12707035646E+03  0.13532679841E+03  0.41800000000E+01 0. -1.
         -5    1    3    3    0  502  0.13487402991E+02 -0.73069684007E+02  0.56815814630E+02  0.93630112423E+02  0.41800000000E+01 0. -1.
        -11    1    4    4    0    0 -0.58579221977E+02 -0.40187849037E+01  0.18085955511E+03  0.19015218787E+03  0.00000000000E+00 0.  1.
         11    1    4    4    0    0  0.17576225359E+02  0.39780472678E+02  0.23210171500E+03  0.23614109301E+03  0.00000000000E+00 0. -1.
</event>
<event>
 8    1  0.6860461E-009  0.8397878E+02  0.7561462E-02  0.1318125E+00
          1   -1    0    0  501    0  0.00000000000E+00  0.00000000000E+00  0.20575848770E+03  0.20575848770E+03  0.00000000000E+00 0. -1.
         -1   -1    0    0    0  501 -0.00000000000E+00 -0.00000000000E+00 -0.94954506242E+02  0.94954506242E+02  0.00000000000E+00 0.  1.
         25    2    1    2    0    0 -0.53627851211E+02 -0.19957006997E+02  0.13225859595E+03  0.19082302533E+03  0.12508741839E+03 0.  0.
         23    2    1    2    0    0  0.53627851211E+02  0.19957006997E+02 -0.21454614492E+02  0.10988996861E+03  0.91330587231E+02 0.  0.
          5    1    3    3  502    0  0.22968140383E+02 -0.23973528546E+02 -0.47027283615E+01  0.33791324295E+02  0.41800000000E+01 0.  1.
         -5    1    3    3    0  502 -0.76595991595E+02  0.40165215490E+01  0.13696132431E+03  0.15703170103E+03  0.41800000000E+01 0.  1.
        -11    1    4    4    0    0  0.35957204602E+02  0.96766774828E+01  0.34225088001E+02  0.50575837102E+02  0.00000000000E+00 0. -1.
         11    1    4    4    0    0  0.17670646609E+02  0.10280329514E+02 -0.55679702494E+02  0.59314131506E+02  0.00000000000E+00 0.  1.
</event>
<event>
 8    1  0.6860461E-009  0.9556313E+02  0.7561462E-02  0.1289913E+00
         -3   -1    0    0    0  501 -0.00000000000E+00  0.00000000000E+00  0.34611712329E+02  0.34611712329E+02  0.00000000000E+00 0.  1.
          3   -1    0    0  501    0  0.00000000000E+00 -0.00000000000E+00 -0.47891598628E+03  0.47891598628E+03  0.00000000000E+00 0. -1.
         25    2    1    2    0    0  0.64787753696E+02 -0.23035524854E+02 -0.23306992452E+03  0.27330790413E+03  0.12509009677E+03 0.  0.
         23    2    1    2    0    0 -0.64787753696E+02  0.23035524854E+02 -0.21123434944E+03  0.24021979448E+03  0.91419422691E+02 0.  0.
          5    1    3    3  502    0  0.22000206495E+02  0.22934246856E+02 -0.17135899731E+00  0.32054493110E+02  0.41800000000E+01 0. -1.
         -5    1    3    3    0  502  0.42787547201E+02 -0.45969771710E+02 -0.23289856552E+03  0.24125341102E+03  0.41800000000E+01 0. -1.
        -11    1    4    4    0    0 -0.39048809752E+02  0.46902811639E+02 -0.18914162237E+03  0.19874414858E+03  0.00000000000E+00 0.  1.
         11    1    4    4    0    0 -0.25738943944E+02 -0.23867286785E+02 -0.22092727071E+02  0.41475645905E+02  0.00000000000E+00 0. -1.
</event>
<event>
 8    1  0.6860461E-009  0.1411703E+03  0.7561462E-02  0.1211763E+00
          3   -1    0    0  501    0  0.00000000000E+00  0.00000000000E+00  0.31842576015E+03  0.31842576015E+03  0.00000000000E+00 0. -1.
         -3   -1    0    0    0  501 -0.00000000000E+00 -0.00000000000E+00 -0.99687249744E+02  0.99687249744E+02  0.00000000000E+00 0.  1.
         25    2    1    2    0    0  0.75342899825E+02  0.87267465717E+02  0.21457054412E+02  0.17146594533E+03  0.12509197455E+03 0.  0.
         23    2    1    2    0    0 -0.75342899825E+02 -0.87267465717E+02  0.19728145600E+03  0.24664706457E+03  0.92858163099E+02 0.  0.
          5    1    3    3  502    0 -0.14719062126E+02  0.51398849989E+02 -0.30193307414E+02  0.61543486923E+02  0.41800000000E+01 0. -1.
         -5    1    3    3    0  502  0.90061961951E+02  0.35868615728E+02  0.51650361826E+02  0.10992245840E+03  0.41800000000E+01 0. -1.
        -11    1    4    4    0    0 -0.53080003872E+02 -0.13701572381E+02  0.29857671503E+02  0.62423556806E+02  0.00000000000E+00 0.  1.
         11    1    4    4    0    0 -0.22262895953E+02 -0.73565893336E+02  0.16742378449E+03  0.18422350776E+03  0.00000000000E+00 0. -1.
</event>
<event>
 8    1  0.6860461E-009  0.1173536E+03  0.7561462E-02  0.1247528E+00
         -3   -1    0    0    0  501 -0.00000000000E+00  0.00000000000E+00  0.67289461793E+02  0.67289461793E+02  0.00000000000E+00 0.  1.
          3   -1    0    0  501    0  0.00000000000E+00 -0.00000000000E+00 -0.31479269952E+03  0.31479269952E+03  0.00000000000E+00 0. -1.
         25    2    1    2    0    0 -0.58402134501E+02 -0.24605323884E+02 -0.41089604854E+02  0.14610854161E+03  0.12507245511E+03 0.  0.
         23    2    1    2    0    0  0.58402134501E+02  0.24605323884E+02 -0.20641363288E+03  0.23597361970E+03  0.95187867300E+02 0.  0.
          5    1    3    3  502    0 -0.10722445531E+02  0.40573512070E+02  0.18102181771E+02  0.45894902819E+02  0.41800000000E+01 0. -1.
         -5    1    3    3    0  502 -0.47679688970E+02 -0.65178835954E+02 -0.59191786626E+02  0.10021363880E+03  0.41800000000E+01 0. -1.
        -11    1    4    4    0    0  0.56192318730E+01  0.51929256832E+02 -0.71485812425E+02  0.88534992291E+02  0.00000000000E+00 0.  1.
         11    1    4    4    0    0  0.52782902628E+02 -0.27323932948E+02 -0.13492782045E+03  0.14743862741E+03  0.00000000000E+00 0. -1.
</event>
<event>
 8    1  0.6860461E-009  0.2176572E+03  0.7561462E-02  0.1135642E+00
          1   -1    0    0  501    0  0.00000000000E+00  0.00000000000E+00  0.26664515931E+03  0.26664515931E+03  0.00000000000E+00 0. -1.
         -1   -1    0    0    0  501 -0.00000000000E+00 -0.00000000000E+00 -0.20578474996E+03  0.20578474996E+03  0.00000000000E+00 0.  1.
         25    2    1    2    0    0  0.10733418440E+03  0.15964857473E+03  0.10901250437E+03  0.25404758317E+03  0.12509258112E+03 0.  0.
         23    2    1    2    0    0 -0.10733418440E+03 -0.15964857473E+03 -0.48152095017E+02  0.21838232609E+03  0.91454477974E+02 0.  0.
          5    1    3    3  502    0  0.77463482318E+02  0.11975867984E+02  0.31705309488E+02  0.84656432458E+02  0.41800000000E+01 0. -1.
         -5    1    3    3    0  502  0.29870702087E+02  0.14767270674E+03  0.77307194877E+02  0.16939115071E+03  0.41800000000E+01 0. -1.
        -11    1    4    4    0    0 -0.59894704047E+02 -0.27910606139E+02  0.98806588633E+01  0.66813209229E+02  0.00000000000E+00 0. -1.
         11    1    4    4    0    0 -0.47439480357E+02 -0.13173796859E+03 -0.58032753880E+02  0.15156911686E+03  0.00000000000E+00 0.  1.
</event>
<event>
 8    1  0.6860461E-009  0.1305318E+03  0.7561462E-02  0.1226669E+00
          1   -1    0    0  501    0  0.00000000000E+00  0.00000000000E+00  0.24719232922E+02  0.24719232922E+02  0.00000000000E+00 0. -1.
         -1   -1    0    0    0  501 -0.00000000000E+00 -0.00000000000E+00 -0.85214167170E+03  0.85214167170E+03  0.00000000000E+00 0.  1.
         25    2    1    2    0    0 -0.34852486313E+02  0.65095755233E+02 -0.26619825408E+03  0.30325049125E+03  0.12508875576E+03 0.  0.
         23    2    1    2    0    0  0.34852486313E+02 -0.65095755233E+02 -0.56122418469E+03  0.57361041337E+03  0.92758652900E+02 0.  0.
          5    1    3    3  502    0  0.19884313372E+02 -0.28116135075E+02 -0.90501566654E+02  0.96922179797E+02  0.41800000000E+01 0. -1.
         -5    1    3    3    0  502 -0.54736799684E+02  0.93211890308E+02 -0.17569668743E+03  0.20632831146E+03  0.41800000000E+01 0. -1.
        -11    1    4    4    0    0  0.36316604046E+02  0.14122727332E+02 -0.20664475307E+03  0.21028647395E+03  0.00000000000E+00 0. -1.
         11    1    4    4    0    0 -0.14641177331E+01 -0.79218482566E+02 -0.35457943162E+03  0.36332393941E+03  0.00000000000E+00 0.  1.
</event>
<event>
 8    1  0.6860461E-009  0.9492062E+02  0.7561462E-02  0.1291355E+00
         -1   -1    0    0    0  501 -0.00000000000E+00  0.00000000000E+00  0.35724943932E+03  0.35724943932E+03  0.00000000000E+00 0.  1.
          1   -1    0    0  501    0  0.00000000000E+00 -0.00000000000E+00 -0.38152324928E+02  0.38152324928E+02  0.00000000000E+00 0. -1.
         25    2    1    2    0    0  0.21154274910E+02  0.24858796421E+02  0.23184832043E+03  0.26545654224E+03  0.12509224206E+03 0.  0.
         23    2    1    2    0    0 -0.21154274910E+02 -0.24858796421E+02  0.87248793958E+02  0.12994522201E+03  0.90597712823E+02 0.  0.
          5    1    3    3  502    0 -0.29223608564E+02  0.31953979834E+02  0.20611126443E+02  0.48139038814E+02  0.41800000000E+01 0. -1.
         -5    1    3    3    0  502  0.50377883474E+02 -0.70951834133E+01  0.21123719399E+03  0.21731750343E+03  0.41800000000E+01 0. -1.
        -11    1    4    4    0    0 -0.12090236857E+02 -0.58867100702E+02  0.45732709896E+02  0.75518144354E+02  0.00000000000E+00 0. -1.
         11    1    4    4    0    0 -0.90640380528E+01  0.34008304281E+02  0.41516084062E+02  0.54427077652E+02  0.00000000000E+00 0.  1.
</event>
<event>
 8    1  0.6860461E-009  0.1047215E+03  0.7561462E-02  0.1270669E+00
          2   -1    0    0  501    0  0.00000000000E+00  0.00000000000E+00  0.70946819899E+03  0.70946819899E+03  0.00000000000E+00 0. -1.
         -2   -1    0    0    0  501 -0.00000000000E+00 -0.00000000000E+00 -0.31606696030E+02  0.31606696030E+02  0.00000000000E+00 0.  1.
         25    2    1    2    0    0  0.73563254025E+02 -0.28134852280E+02  0.53174071975E+03  0.55190535687E+03  0.12509279611E+03 0.  0.
         23    2    1    2    0    0 -0.73563254025E+02  0.28134852280E+02  0.14612078320E+03  0.18916953815E+03  0.90723252945E+02 0.  0.
          5    1    3    3  502    0  0.40098672197E+02 -0.44541329392E+02  0.87820193451E+02  0.10640344127E+03  0.41800000000E+01 0. -1.
         -5    1    3    3    0  502  0.33464581828E+02  0.16406477112E+02  0.44392052630E+03  0.44550191560E+03  0.41800000000E+01 0. -1.
        -11    1    4    4    0    0 -0.82946859450E+02  0.78885021378E+00  0.13447483136E+03  0.15800089888E+03  0.00000000000E+00 0. -1.
         11    1    4    4    0    0  0.93836054248E+01  0.27346002066E+02  0.11645951844E+02  0.31168639272E+02  0.00000000000E+00 0.  1.
</event>
<event>
 8    1  0.6860461E-009  0.9813946E+02  0.7561462E-02  0.1284258E+00
         -1   -1    0    0    0  501 -0.00000000000E+00  0.00000000000E+00  0.29202083058E+02  0.29202083058E+02  0.00000000000E+00 0.  1.
          1   -1    0    0  501    0  0.00000000000E+00 -0.00000000000E+00 -0.48362544928E+03  0.48362544928E+03  0.00000000000E+00 0. -1.
         25    2    1    2    0    0 -0.75341154895E+01  0.34447657318E+02 -0.32278816529E+03  0.34797066638E+03  0.12509189030E+03 0.  0.
         23    2    1    2    0    0  0.75341154895E+01 -0.34447657318E+02 -0.13163520093E+03  0.16485686596E+03  0.92771526549E+02 0.  0.
          5    1    3    3  502    0  0.30943910561E+02 -0.18516746225E+02 -0.23808012267E+03  0.24083191795E+03  0.41800000000E+01 0.  1.
         -5    1    3    3    0  502 -0.38478026050E+02  0.52964403543E+02 -0.84708042622E+02  0.10713874844E+03  0.41800000000E+01 0.  1.
        -11    1    4    4    0    0  0.25777190973E+01  0.29813750959E+02 -0.20133684139E+02  0.36067570184E+02  0.00000000000E+00 0.  1.
         11    1    4    4    0    0  0.49563963922E+01 -0.64261408277E+02 -0.11150151679E+03  0.12878929577E+03  0.00000000000E+00 0. -1.
</event>
<event>
 8    1  0.6860461E-009  0.1300406E+03  0.7561462E-02  0.1227396E+00
         -3   -1    0    0    0  501 -0.00000000000E+00  0.00000000000E+00  0.13058860194E+03  0.13058860194E+03  0.00000000000E+00 0.  1.
          3   -1    0    0  501    0  0.00000000000E+00 -0.00000000000E+00 -0.17685669881E+03  0.17685669881E+03  0.00000000000E+00 0. -1.
         25    2    1    2    0    0  0.81875142712E+01 -0.92320935506E+02  0.24456870879E+02  0.15759268965E+03  0.12508847579E+03 0.  0.
         23    2    1    2    0    0 -0.81875142712E+01  0.92320935506E+02 -0.70724967752E+02  0.14985261110E+03  0.94146659360E+02 0.  0.
          5    1    3    3  502    0 -0.11775246694E+02 -0.12031926705E+03  0.16935502988E+02  0.12214608516E+03  0.41800000000E+01 0. -1.
         -5    1    3    3    0  502  0.19962760965E+02  0.27998331549E+02  0.75213678905E+01  0.35446604489E+02  0.41800000000E+01 0. -1.
        -11    1    4    4    0    0  0.18663075182E+02  0.57819342143E+02  0.65080555991E+01  0.61104349180E+02  0.00000000000E+00 0.  1.
         11    1    4    4    0    0 -0.26850589453E+02  0.34501593363E+02 -0.77233023351E+02  0.88748261924E+02  0.00000000000E+00 0. -1.
</event>
<event>
 8    1  0.6860461E-009  0.9549518E+02  0.7561462E-02  0.1290065E+00
          1   -1    0    0  501    0  0.00000000000E+00  0.00000000000E+00  0.53353384517E+02  0.53353384517E+02  0.00000000000E+00 0. -1.
         -1   -1    0    0    0  501 -0.00000000000E+00 -0.00000000000E+00 -0.26058703897E+03  0.26058703897E+03  0.00000000000E+00 0.  1.
         25    2    1    2    0    0  0.23830122652E+02  0.45184236490E+02 -0.13157797101E+03  0.18859934825E+03  0.12508981466E+03 0.  0.
         23    2    1    2    0    0 -0.23830122652E+02 -0.45184236490E+02 -0.75655683436E+02  0.12534107523E+03  0.85890120107E+02 0.  0.
          5    1    3    3  502    0  0.40274086287E+02  0.67439015447E+02 -0.13894067092E+03  0.15966215978E+03  0.41800000000E+01 0. -1.
         -5    1    3    3    0  502 -0.16443963635E+02 -0.22254778957E+02  0.73626999060E+01  0.28937188467E+02  0.41800000000E+01 0. -1.
        -11    1    4    4    0    0 -0.18718111268E+01  0.17668235747E+02 -0.51562903239E+02  0.54538089641E+02  0.00000000000E+00 0.  1.
         11    1    4    4    0    0 -0.21958311526E+02 -0.62852472237E+02 -0.24092780198E+02  0.70802985594E+02  0.00000000000E+00 0. -1.
</event>
<event>
 8    1  0.6860461E-009  0.2360208E+03  0.7561462E-02  0.1122472E+00
         -4   -1    0    0    0  501 -0.00000000000E+00  0.00000000000E+00  0.20490392903E+03  0.20490392903E+03  0.00000000000E+00 0.  1.
          4   -1    0    0  501    0  0.00000000000E+00 -0.00000000000E+00 -0.40682846953E+03  0.40682846953E+03  0.00000000000E+00 0. -1.
         25    2    1    2    0    0  0.19057650390E+03 -0.13083068301E+03 -0.24690636557E+03  0.36062411761E+03  0.12510367455E+03 0.  0.
         23    2    1    2    0    0 -0.19057650390E+03  0.13083068301E+03  0.44981825069E+02  0.25110828096E+03  0.87154648318E+02 0.  0.
          5    1    3    3  502    0  0.41305568991E+02 -0.11495501769E+02 -0.12906643270E+03  0.13606584083E+03  0.41800000000E+01 0.  1.
         -5    1    3    3    0  502  0.14927093491E+03 -0.11933518124E+03 -0.11783993287E+03  0.22455827678E+03  0.41800000000E+01 0.  1.
        -11    1    4    4    0    0 -0.82456681099E+02  0.24156061871E+02 -0.16068702921E+02  0.87411800099E+02  0.00000000000E+00 0. -1.
         11    1    4    4    0    0 -0.10811982280E+03  0.10667462114E+03  0.61050527989E+02  0.16369648086E+03  0.00000000000E+00 0.  1.
</event>
<event>
 8    1  0.6860461E-009  0.1138702E+03  0.7561462E-02  0.1253566E+00
         -2   -1    0    0    0  501 -0.00000000000E+00  0.00000000000E+00  0.20904303764E+03  0.20904303764E+03  0.00000000000E+00 0. -1.
          2   -1    0    0  501    0  0.00000000000E+00 -0.00000000000E+00 -0.58626523008E+03  0.58626523008E+03  0.00000000000E+00 0.  1.
         25    2    1    2    0    0  0.27891726894E+02  0.75531946195E+02 -0.55840578029E+03  0.57788180133E+03  0.12508931817E+03 0.  0.
         23    2    1    2    0    0 -0.27891726894E+02 -0.75531946195E+02  0.18118358785E+03  0.21742646638E+03  0.89239859081E+02 0.  0.
          5    1    3    3  502    0  0.45666080703E+02  0.10380819854E+03 -0.39153436674E+03  0.40764956243E+03  0.41800000000E+01 0. -1.
         -5    1    3    3    0  502 -0.17774353808E+02 -0.28276252348E+02 -0.16687141355E+03  0.17023223890E+03  0.41800000000E+01 0. -1.
        -11    1    4    4    0    0 -0.26395070942E+01 -0.10657089701E+02 -0.94457622913E+01  0.14483196603E+02  0.00000000000E+00 0.  1.
         11    1    4    4    0    0 -0.25252219800E+02 -0.64874856495E+02  0.19062935015E+03  0.20294326978E+03  0.00000000000E+00 0. -1.
</event>
<event>
 8    1  0.6860461E-009  0.8596984E+02  0.7561462E-02  0.1312916E+00
         -1   -1    0    0    0  501 -0.00000000000E+00  0.00000000000E+00  0.23430032853E+02  0.23430032853E+02  0.00000000000E+00 0.  1.
          1   -1    0    0  501    0  0.00000000000E+00 -0.00000000000E+00 -0.54706383097E+03  0.54706383097E+03  0.00000000000E+00 0. -1.
         25    2    1    2    0    0  0.23608264354E+02  0.23190515777E+02 -0.30354214775E+03  0.32997036059E+03  0.12508978073E+03 0.  0.
         23    2    1    2    0    0 -0.23608264354E+02 -0.23190515777E+02 -0.22009165037E+03  0.24052350323E+03  0.91192493530E+02 0.  0.
          5    1    3    3  502    0  0.15184011283E+02  0.55266081728E+02 -0.28696000303E+03  0.29265749559E+03  0.41800000000E+01 0. -1.
         -5    1    3    3    0  502  0.84242530706E+01 -0.32075565952E+02 -0.16582144717E+02  0.37312864998E+02  0.41800000000E+01 0. -1.
        -11    1    4    4    0    0  0.26226530400E+02 -0.35211249644E+00 -0.14610885668E+03  0.14844444375E+03  0.00000000000E+00 0. -1.
         11    1    4    4    0    0 -0.49834794754E+02 -0.22838403280E+02 -0.73982793685E+02  0.92079059476E+02  0.00000000000E+00 0.  1.
</event>
<event>
 8    1  0.6860461E-009  0.1347706E+03  0.7561462E-02  0.1220544E+00
         -2   -1    0    0    0  501 -0.00000000000E+00  0.00000000000E+00  0.14145517633E+02  0.14145517633E+02  0.00000000000E+00 0.  1.
          2   -1    0    0  501    0  0.00000000000E+00 -0.00000000000E+00 -0.18278936398E+04  0.18278936398E+04  0.00000000000E+00 0. -1.
         25    2    1    2    0    0  0.25400936859E+02 -0.10848260752E+03 -0.11958057423E+04  0.12074818664E+04  0.12508957013E+03 0.  0.
         23    2    1    2    0    0 -0.25400936859E+02  0.10848260752E+03 -0.61794237988E+03  0.63455729108E+03  0.91632347383E+02 0.  0.
          5    1    3    3  502    0 -0.17519008970E+02 -0.46786604779E+02 -0.92646936263E+03  0.92782479723E+03  0.41800000000E+01 0. -1.
         -5    1    3    3    0  502  0.42919945829E+02 -0.61696002737E+02 -0.26933637968E+03  0.27965706915E+03  0.41800000000E+01 0. -1.
        -11    1    4    4    0    0  0.34744485480E+02  0.40826485754E+02 -0.24261050322E+03  0.24846294992E+03  0.00000000000E+00 0. -1.
         11    1    4    4    0    0 -0.60145422339E+02  0.67656121763E+02 -0.37533187666E+03  0.38609434116E+03  0.00000000000E+00 0.  1.
</event>
<event>
 8    1  0.6860461E-009  0.3097306E+03  0.7561462E-02  0.1080475E+00
          2   -1    0    0  501    0  0.00000000000E+00  0.00000000000E+00  0.13665611785E+04  0.13665611785E+04  0.00000000000E+00 0.  1.
         -2   -1    0    0    0  501 -0.00000000000E+00 -0.00000000000E+00 -0.84867582891E+02  0.84867582891E+02  0.00000000000E+00 0. -1.
         25    2    1    2    0    0  0.85144134872E+02  0.29511989062E+03  0.44131599162E+03  0.55204640384E+03  0.12510057549E+03 0.  0.
         23    2    1    2    0    0 -0.85144134872E+02 -0.29511989062E+03  0.84037760396E+03  0.89938235753E+03  0.91152807147E+02 0.  0.
          5    1    3    3  502    0  0.55240662058E+02  0.18475346916E+03  0.36989578968E+03  0.41716392789E+03  0.41800000000E+01 0.  1.
         -5    1    3    3    0  502  0.29903472814E+02  0.11036642146E+03  0.71420201943E+02  0.13488247595E+03  0.41800000000E+01 0.  1.
        -11    1    4    4    0    0 -0.23328463879E+02 -0.17987866818E+03  0.58490427774E+03  0.61238351268E+03  0.00000000000E+00 0.  1.
         11    1    4    4    0    0 -0.61815670993E+02 -0.11524122244E+03  0.25547332623E+03  0.28699884485E+03  0.00000000000E+00 0. -1.
</event>
<event>
 8    1  0.6860461E-009  0.1016301E+03  0.7561462E-02  0.1276905E+00
         -4   -1    0    0    0  501 -0.00000000000E+00  0.00000000000E+00  0.11058862229E+03  0.11058862229E+03  0.00000000000E+00 0.  1.
          4   -1    0    0  501    0  0.00000000000E+00 -0.00000000000E+00 -0.14400344416E+03  0.14400344416E+03  0.00000000000E+00 0. -1.
         25    2    1    2    0    0 -0.23258782798E+02 -0.66154447806E+02 -0.29286950715E+02  0.14636570975E+03  0.12509122098E+03 0.  0.
         23    2    1    2    0    0  0.23258782798E+02  0.66154447806E+02 -0.41278711631E+01  0.10822635670E+03  0.82331786224E+02 0.  0.
          5    1    3    3  502    0  0.18567995818E+02 -0.44562733244E+02 -0.69220669049E+02  0.84496041839E+02  0.41800000000E+01 0. -1.
         -5    1    3    3    0  502 -0.41826778616E+02 -0.21591714562E+02  0.39933718334E+02  0.61869667909E+02  0.41800000000E+01 0. -1.
        -11    1    4    4    0    0  0.47870172219E+02  0.13997040791E+02 -0.75960567331E+01  0.50449684014E+02  0.00000000000E+00 0. -1.
         11    1    4    4    0    0 -0.24611389421E+02  0.52157407015E+02  0.34681855700E+01  0.57776672688E+02  0.00000000000E+00 0.  1.
</event>
<event>
 8    1  0.6860461E-009  0.1567773E+03  0.7561462E-02  0.1192384E+00
          1   -1    0    0  501    0  0.00000000000E+00  0.00000000000E+00  0.72962331477E+03  0.72962331477E+03  0.00000000000E+00 0. -1.
         -1   -1    0    0    0  501 -0.00000000000E+00 -0.00000000000E+00 -0.46213591199E+02  0.46213591199E+02  0.00000000000E+00 0.  1.
         25    2    1    2    0    0  0.52679897371E+02  0.13741789906E+03  0.40336605707E+03  0.44722553624E+03  0.12509058197E+03 0.  0.
         23    2    1    2    0    0 -0.52679897371E+02 -0.13741789906E+03  0.28004366649E+03  0.32861136972E+03  0.88893906421E+02 0.  0.
          5    1    3    3  502    0 -0.54629971505E+01  0.23223313600E+02  0.26125084441E+00  0.24222041294E+02  0.41800000000E+01 0.  1.
         -5    1    3    3    0  502  0.58142894522E+02  0.11419458546E+03  0.40310480623E+03  0.42300349495E+03  0.41800000000E+01 0.  1.
        -11    1    4    4    0    0 -0.20706886736E+02 -0.12518827673E+03  0.25904186141E+03  0.28845028298E+03  0.00000000000E+00 0. -1.
         11    1    4    4    0    0 -0.31973010636E+02 -0.12229622335E+02  0.21001805079E+02  0.40161086740E+02  0.00000000000E+00 0.  1.
</event>
<event>
 8    1  0.6860461E-009  0.9073452E+02  0.7561462E-02  0.1301083E+00
          2   -1    0    0  501    0  0.00000000000E+00  0.00000000000E+00  0.42888231305E+02  0.42888231305E+02  0.00000000000E+00 0. -1.
         -2   -1    0    0    0  501 -0.00000000000E+00 -0.00000000000E+00 -0.63667433341E+03  0.63667433341E+03  0.00000000000E+00 0.  1.
         25    2    1    2    0    0  0.22537558644E+02 -0.17443916046E+01 -0.56845625851E+03  0.58249519584E+03  0.12508857218E+03 0.  0.
         23    2    1    2    0    0 -0.22537558644E+02  0.17443916046E+01 -0.25329843593E+02  0.97067368869E+02  0.90936728944E+02 0.  0.
          5    1    3    3  502    0  0.18364838015E+02 -0.44557461865E+02 -0.49431943590E+03  0.49668079467E+03  0.41800000000E+01 0.  1.
         -5    1    3    3    0  502  0.41727206297E+01  0.42813070260E+02 -0.74136822611E+02  0.85814401177E+02  0.41800000000E+01 0.  1.
        -11    1    4    4    0    0  0.33330590450E+02 -0.46083738082E+01 -0.23064021749E+02  0.40793559151E+02  0.00000000000E+00 0. -1.
         11    1    4    4    0    0 -0.55868149095E+02  0.63527654129E+01 -0.22658218445E+01  0.56273809719E+02  0.00000000000E+00 0.  1.
</event>
<event>
 8    1  0.6860461E-009  0.1170765E+03  0.7561462E-02  0.1247999E+00
          4   -1    0    0  501    0  0.00000000000E+00  0.00000000000E+00  0.87599068064E+03  0.87599068064E+03  0.00000000000E+00 0. -1.
         -4   -1    0    0    0  501 -0.00000000000E+00 -0.00000000000E+00 -0.19003592704E+02  0.19003592704E+02  0.00000000000E+00 0.  1.
         25    2    1    2    0    0 -0.68491999860E+02  0.83039498798E+01  0.52483077864E+03  0.54392585241E+03  0.12509147485E+03 0.  0.
         23    2    1    2    0    0  0.68491999860E+02 -0.83039498798E+01  0.33215630929E+03  0.35106842093E+03  0.90338877265E+02 0.  0.
          5    1    3    3  502    0 -0.19021335628E+01  0.45442528023E+02  0.35234685383E+03  0.35529483428E+03  0.41800000000E+01 0.  1.
         -5    1    3    3    0  502 -0.66589866298E+02 -0.37138578143E+02  0.17248392481E+03  0.18863101812E+03  0.41800000000E+01 0.  1.
        -11    1    4    4    0    0  0.77017641040E+02  0.22435126644E+02  0.26188620234E+03  0.27389675960E+03  0.00000000000E+00 0. -1.
         11    1    4    4    0    0 -0.85256411800E+01 -0.30739076524E+02  0.70270106949E+02  0.77171661338E+02  0.00000000000E+00 0.  1.
</event>
<event>
 8    1  0.6860461E-009  0.2930664E+03  0.7561462E-02  0.1088759E+00
         -2   -1    0    0    0  501 -0.00000000000E+00  0.00000000000E+00  0.15756139233E+03  0.15756139233E+03  0.00000000000E+00 0.  1.
          2   -1    0    0  501    0  0.00000000000E+00 -0.00000000000E+00 -0.61556348924E+03  0.61556348924E+03  0.00000000000E+00 0. -1.
         25    2    1    2    0    0 -0.16921970576E+03  0.23827830732E+03 -0.23572472197E+03  0.39575926570E+03  0.12508953307E+03 0.  0.
         23    2    1    2    0    0  0.16921970576E+03 -0.23827830732E+03 -0.22227737494E+03  0.37736561587E+03  0.87096016424E+02 0.  0.
          5    1    3    3  502    0 -0.65766022851E+02  0.98613540139E+02 -0.17539373871E+03  0.21173151877E+03  0.41800000000E+01 0. -1.
         -5    1    3    3    0  502 -0.10345368291E+03  0.13966476718E+03 -0.60330983252E+02  0.18402774693E+03  0.41800000000E+01 0. -1.
        -11    1    4    4    0    0  0.10490640567E+03 -0.17086073701E+03 -0.19640517906E+03  0.28066659895E+03  0.00000000000E+00 0. -1.
         11    1    4    4    0    0  0.64313300090E+02 -0.67417570310E+02 -0.25872195876E+02  0.96699016926E+02  0.00000000000E+00 0.  1.
</event>
<event>
 8    1  0.6860461E-009  0.1491660E+03  0.7561462E-02  0.1201502E+00
         -2   -1    0    0    0  501 -0.00000000000E+00  0.00000000000E+00  0.16151570208E+03  0.16151570208E+03  0.00000000000E+00 0.  1.
          2   -1    0    0  501    0  0.00000000000E+00 -0.00000000000E+00 -0.18146882712E+03  0.18146882712E+03  0.00000000000E+00 0. -1.
         25    2    1    2    0    0 -0.55000016091E+02  0.10290684481E+03  0.51127400599E+02  0.17854024662E+03  0.12509111916E+03 0.  0.
         23    2    1    2    0    0  0.55000016091E+02 -0.10290684481E+03 -0.71080525634E+02  0.16444428258E+03  0.91513171024E+02 0.  0.
          5    1    3    3  502    0 -0.82873804387E+02  0.10681653914E+03  0.61056711483E+02  0.14840227392E+03  0.41800000000E+01 0.  1.
         -5    1    3    3    0  502  0.27873788296E+02 -0.39096943299E+01 -0.99293108844E+01  0.30137972698E+02  0.41800000000E+01 0.  1.
        -11    1    4    4    0    0  0.52836866311E+02 -0.28224574889E+02 -0.66629423672E+02  0.89598220787E+02  0.00000000000E+00 0.  1.
         11    1    4    4    0    0  0.21631497794E+01 -0.74682269923E+02 -0.44511019623E+01  0.74846061797E+02  0.00000000000E+00 0. -1.
</event>
<event>
 8    1  0.6860461E-009  0.3098887E+03  0.7561462E-02  0.1080399E+00
          2   -1    0    0  501    0  0.00000000000E+00  0.00000000000E+00  0.78340127893E+03  0.78340127893E+03  0.00000000000E+00 0. -1.
         -2   -1    0    0    0  501 -0.00000000000E+00 -0.00000000000E+00 -0.13941720728E+03  0.13941720728E+03  0.00000000000E+00 0.  1.
         25    2    1    2    0    0  0.11031053656E+03 -0.27131592545E+03  0.17748378561E+03  0.36459324193E+03  0.12508793720E+03 0.  0.
         23    2    1    2    0    0 -0.11031053656E+03  0.27131592545E+03  0.46650028605E+03  0.55822524428E+03  0.90620972125E+02 0.  0.
          5    1    3    3  502    0  0.58683576791E+02 -0.27314548915E+02  0.14009367773E+02  0.66359487285E+02  0.41800000000E+01 0. -1.
         -5    1    3    3    0  502  0.51626959770E+02 -0.24400137653E+03  0.16347441783E+03  0.29823375465E+03  0.41800000000E+01 0. -1.
        -11    1    4    4    0    0  0.14571374999E+02  0.18984031261E+02  0.50814993270E+02  0.56168335860E+02  0.00000000000E+00 0. -1.
         11    1    4    4    0    0 -0.12488191156E+03  0.25233189419E+03  0.41568529278E+03  0.50205690842E+03  0.00000000000E+00 0.  1.
</event>
<event>
 8    1  0.6860461E-009  0.9079463E+02  0.7561462E-02  0.1300939E+00
          2   -1    0    0  501    0  0.00000000000E+00  0.00000000000E+00  0.82202878141E+03  0.82202878141E+03  0.00000000000E+00 0. -1.
         -2   -1    0    0    0  501 -0.00000000000E+00 -0.00000000000E+00 -0.23137123436E+02  0.23137123436E+02  0.00000000000E+00 0.  1.
         25    2    1    2    0    0 -0.36386431532E+02 -0.38048115866E+02  0.23514107156E+03  0.27149628251E+03  0.12508907372E+03 0.  0.
         23    2    1    2    0    0  0.36386431532E+02  0.38048115866E+02  0.56375058642E+03  0.57366962233E+03  0.92252264915E+02 0.  0.
          5    1    3    3  502    0 -0.10661475602E+02  0.13471333385E+02 -0.95434952658E+01  0.20092152376E+02  0.41800000000E+01 0. -1.
         -5    1    3    3    0  502 -0.25724955930E+02 -0.51519449251E+02  0.24468456682E+03  0.25140413014E+03  0.41800000000E+01 0. -1.
        -11    1    4    4    0    0  0.42749473493E+02  0.65376328931E+02  0.40724818691E+03  0.41467175887E+03  0.00000000000E+00 0. -1.
         11    1    4    4    0    0 -0.63630419607E+01 -0.27328213065E+02  0.15650239951E+03  0.15899786346E+03  0.00000000000E+00 0.  1.
</event>
<event>
 8    1  0.6860461E-009  0.1486196E+03  0.7561462E-02  0.1202179E+00
          1   -1    0    0  501    0  0.00000000000E+00  0.00000000000E+00  0.13783804827E+04  0.13783804827E+04  0.00000000000E+00 0. -1.
         -1   -1    0    0    0  501 -0.00000000000E+00 -0.00000000000E+00 -0.16771316001E+02  0.16771316001E+02  0.00000000000E+00 0.  1.
         25    2    1    2    0    0  0.77875008225E+02 -0.62407064306E+02  0.86230180907E+03  0.87702426403E+03  0.12509193097E+03 0.  0.
         23    2    1    2    0    0 -0.77875008225E+02  0.62407064306E+02  0.49930735766E+03  0.51812753470E+03  0.95860034523E+02 0.  0.
          5    1    3    3  502    0  0.11164797953E+03 -0.39975570668E+02  0.67343482071E+03  0.68380936505E+03  0.41800000000E+01 0. -1.
         -5    1    3    3    0  502 -0.33772971300E+02 -0.22431493638E+02  0.18886698836E+03  0.19321489898E+03  0.41800000000E+01 0. -1.
        -11    1    4    4    0    0 -0.10504976452E+02  0.69304426283E+02  0.23065705931E+03  0.24107288741E+03  0.00000000000E+00 0.  1.
         11    1    4    4    0    0 -0.67370031773E+02 -0.68973619764E+01  0.26865029835E+03  0.27705464729E+03  0.00000000000E+00 0. -1.
</event>
<event>
 8    1  0.6860461E-009  0.1700947E+03  0.7561462E-02  0.1177749E+00
          1   -1    0    0  501    0  0.00000000000E+00  0.00000000000E+00  0.46249021125E+03  0.46249021125E+03  0.00000000000E+00 0. -1.
         -1   -1    0    0    0  501 -0.00000000000E+00 -0.00000000000E+00 -0.81488682821E+02  0.81488682821E+02  0.00000000000E+00 0.  1.
         25    2    1    2    0    0  0.94451250594E+02  0.12046118159E+03  0.13419122885E+03  0.23892818351E+03  0.12508979162E+03 0.  0.
         23    2    1    2    0    0 -0.94451250594E+02 -0.12046118159E+03  0.24681029958E+03  0.30505071056E+03  0.93320292681E+02 0.  0.
          5    1    3    3  502    0  0.81507664574E+02  0.62567833057E+02  0.14571764919E+03  0.17835172778E+03  0.41800000000E+01 0. -1.
         -5    1    3    3    0  502  0.12943586020E+02  0.57893348529E+02 -0.11526420338E+02  0.60576455730E+02  0.41800000000E+01 0. -1.
        -11    1    4    4    0    0 -0.38145730635E+02 -0.11517588430E+03  0.18536317120E+03  0.22154025893E+03  0.00000000000E+00 0. -1.
         11    1    4    4    0    0 -0.56305519959E+02 -0.52852972900E+01  0.61447128376E+02  0.83510451627E+02  0.00000000000E+00 0.  1.
</event>
<event>
 8    1  0.6860461E-009  0.1019237E+03  0.7561462E-02  0.1276302E+00
          4   -1    0    0  501    0  0.00000000000E+00  0.00000000000E+00  0.63789728667E+02  0.63789728667E+02  0.00000000000E+00 0. -1.
         -4   -1    0    0    0  501 -0.00000000000E+00 -0.00000000000E+00 -0.26305502906E+03  0.26305502906E+03  0.00000000000E+00 0.  1.
         25    2    1    2    0    0 -0.24181450911E+02  0.47376523719E+02 -0.17066814779E+03  0.21818270574E+03  0.12508716500E+03 0.  0.
         23    2    1    2    0    0  0.24181450911E+02 -0.47376523719E+02 -0.28597152603E+02  0.10866205198E+03  0.90334748773E+02 0.  0.
          5    1    3    3  502    0 -0.21611330227E+01  0.79728664069E+02 -0.57629887601E+02  0.98488612108E+02  0.41800000000E+01 0. -1.
         -5    1    3    3    0  502 -0.22020317889E+02 -0.32352140350E+02 -0.11303826019E+03  0.11969409364E+03  0.41800000000E+01 0. -1.
        -11    1    4    4    0    0  0.46220089241E+02 -0.22558330560E+02  0.15272759447E+02  0.53651021502E+02  0.00000000000E+00 0.  1.
         11    1    4    4    0    0 -0.22038638329E+02 -0.24818193159E+02 -0.43869912050E+02  0.55011030479E+02  0.00000000000E+00 0. -1.
</event>
<event>
 8    1  0.6860461E-009  0.9390144E+02  0.7561462E-02  0.1293670E+00
          1   -1    0    0  501    0  0.00000000000E+00  0.00000000000E+00  0.24713018119E+03  0.24713018119E+03  0.00000000000E+00 0. -1.
         -1   -1    0    0    0  501 -0.00000000000E+00 -0.00000000000E+00 -0.70466463048E+02  0.70466463048E+02  0.00000000000E+00 0.  1.
         25    2    1    2    0    0  0.51139007461E+02 -0.28027660235E+02  0.15542255800E+03  0.20785716449E+03  0.12509069298E+03 0.  0.
         23    2    1    2    0    0 -0.51139007461E+02  0.28027660235E+02  0.21241160140E+02  0.10973947975E+03  0.90503141986E+02 0.  0.
          5    1    3    3  502    0  0.71880406513E+02 -0.12671615475E+02  0.28820718929E+02  0.78584151830E+02  0.41800000000E+01 0.  1.
         -5    1    3    3    0  502 -0.20741399052E+02 -0.15356044760E+02  0.12660183907E+03  0.12927301266E+03  0.41800000000E+01 0.  1.
        -11    1    4    4    0    0 -0.16540065079E+02 -0.22123516181E+02  0.37597653109E+02  0.46654123509E+02  0.00000000000E+00 0. -1.
         11    1    4    4    0    0 -0.34598942382E+02  0.50151176416E+02 -0.16356492969E+02  0.63085356241E+02  0.00000000000E+00 0.  1.
</event>
<event>
 8    1  0.6860461E-009  0.9506105E+02  0.7561462E-02  0.1291039E+00
          2   -1    0    0  501    0  0.00000000000E+00  0.00000000000E+00  0.13021172113E+03  0.13021172113E+03  0.00000000000E+00 0.  1.
         -2   -1    0    0    0  501 -0.00000000000E+00 -0.00000000000E+00 -0.14659192156E+03  0.14659192156E+03  0.00000000000E+00 0. -1.
         25    2    1    2    0    0  0.22359824745E+01  0.55997025139E+02 -0.72051010217E+02  0.15485440696E+03  0.12509145790E+03 0.  0.
         23    2    1    2    0    0 -0.22359824745E+01 -0.55997025139E+02  0.55670809789E+02  0.12194923573E+03  0.92906999686E+02 0.  0.
          5    1    3    3  502    0 -0.16928019414E+02 -0.49849741695E+01  0.29593455352E+02  0.34708108684E+02  0.41800000000E+01 0. -1.
         -5    1    3    3    0  502  0.19164001889E+02  0.60981999308E+02 -0.10164446557E+03  0.12014629827E+03  0.41800000000E+01 0. -1.
        -11    1    4    4    0    0 -0.29888411267E+02 -0.70593323248E+02  0.45100220024E+02  0.88942477262E+02  0.00000000000E+00 0.  1.
         11    1    4    4    0    0  0.27652428793E+02  0.14596298109E+02  0.10570589765E+02  0.33006758469E+02  0.00000000000E+00 0. -1.
</event>
<event>
 8    1  0.6860461E-009  0.1103139E+03  0.7561462E-02  0.1259990E+00
          2   -1    0    0  501    0  0.00000000000E+00  0.00000000000E+00  0.53679226423E+03  0.53679226423E+03  0.00000000000E+00 0. -1.
         -2   -1    0    0    0  501 -0.00000000000E+00 -0.00000000000E+00 -0.26051505924E+02  0.26051505924E+02  0.00000000000E+00 0.  1.
         25    2    1    2    0    0 -0.32728781861E+02 -0.32972080611E+02  0.31365420797E+03  0.34085974096E+03  0.12509224425E+03 0.  0.
         23    2    1    2    0    0  0.32728781861E+02  0.32972080611E+02  0.19708655034E+03  0.22198402919E+03  0.90969608270E+02 0.  0.
          5    1    3    3  502    0  0.95144568596E+01  0.43571402192E+02  0.86146110469E+02  0.97095915091E+02  0.41800000000E+01 0. -1.
         -5    1    3    3    0  502 -0.42243238720E+02 -0.76543482804E+02  0.22750809750E+03  0.24376382587E+03  0.41800000000E+01 0. -1.
        -11    1    4    4    0    0  0.44315997290E+02  0.50568428663E+02  0.18681049182E+03  0.19854277485E+03  0.00000000000E+00 0. -1.
         11    1    4    4    0    0 -0.11587215429E+02 -0.17596348052E+02  0.10276058522E+02  0.23441254337E+02  0.00000000000E+00 0.  1.
</event>
<event>
 8    1  0.6860461E-009  0.1341437E+03  0.7561462E-02  0.1221434E+00
          2   -1    0    0  501    0  0.00000000000E+00  0.00000000000E+00  0.40989087071E+03  0.40989087071E+03  0.00000000000E+00 0. -1.
         -2   -1    0    0    0  501 -0.00000000000E+00 -0.00000000000E+00 -0.55225879185E+02  0.55225879185E+02  0.00000000000E+00 0.  1.
         25    2    1    2    0    0  0.10237068585E+03  0.14778654507E+02  0.19341778614E+03  0.25249950992E+03  0.12508955418E+03 0.  0.
         23    2    1    2    0    0 -0.10237068585E+03 -0.14778654507E+02  0.16124720538E+03  0.21261723997E+03  0.92234828240E+02 0.  0.
          5    1    3    3  502    0  0.87972960931E+02  0.44955080598E+02  0.19513679213E+03  0.21876023672E+03  0.41800000000E+01 0. -1.
         -5    1    3    3    0  502  0.14397724918E+02 -0.30176426091E+02 -0.17190059905E+01  0.33739273199E+02  0.41800000000E+01 0. -1.
        -11    1    4    4    0    0 -0.68817772951E+02 -0.51510273005E+02  0.12204215919E+03  0.14927653104E+03  0.00000000000E+00 0. -1.
         11    1    4    4    0    0 -0.33552912898E+02  0.36731618499E+02  0.39205046187E+02  0.63340708932E+02  0.00000000000E+00 0.  1.
</event>
<event>
 8    1  0.6860461E-009  0.2475752E+03  0.7561462E-02  0.1114847E+00
          2   -1    0    0  501    0  0.00000000000E+00  0.00000000000E+00  0.63875498357E+03  0.63875498357E+03  0.00000000000E+00 0. -1.
         -2   -1    0    0    0  501 -0.00000000000E+00 -0.00000000000E+00 -0.99912880862E+02  0.99912880862E+02  0.00000000000E+00 0.  1.
         25    2    1    2    0    0 -0.22279023870E+03  0.24190927523E+02  0.33684589117E+03  0.42348251321E+03  0.12510632741E+03 0.  0.
         23    2    1    2    0    0  0.22279023870E+03 -0.24190927523E+02  0.20199621154E+03  0.31518535123E+03  0.91206604559E+02 0.  0.
          5    1    3    3  502    0 -0.15524670022E+03  0.72241231499E+02  0.19882789608E+03  0.26243158750E+03  0.41800000000E+01 0.  1.
         -5    1    3    3    0  502 -0.67543538487E+02 -0.48050303976E+02  0.13801799509E+03  0.16105092571E+03  0.41800000000E+01 0.  1.
        -11    1    4    4    0    0  0.18521546014E+03 -0.53979210313E+02  0.17314139308E+03  0.25922280729E+03  0.00000000000E+00 0.  1.
         11    1    4    4    0    0  0.37574778568E+02  0.29788282790E+02  0.28854818462E+02  0.55962543942E+02  0.00000000000E+00 0. -1.
</event>
<event>
 8    1  0.6860461E-009  0.8876329E+02  0.7561462E-02  0.1305874E+00
         -2   -1    0    0    0  501 -0.00000000000E+00  0.00000000000E+00  0.13992436731E+02  0.13992436731E+02  0.00000000000E+00 0.  1.
          2   -1    0    0  501    0  0.00000000000E+00 -0.00000000000E+00 -0.13693748630E+04  0.13693748630E+04  0.00000000000E+00 0. -1.
         25    2    1    2    0    0 -0.33116921518E+02 -0.55368972297E+02 -0.10271666842E+04  0.10367632075E+04  0.12507636790E+03 0.  0.
         23    2    1    2    0    0  0.33116921518E+02  0.55368972297E+02 -0.32821574211E+03  0.34660409223E+03  0.90809524806E+02 0.  0.
          5    1    3    3  502    0 -0.39946050935E+02 -0.48898358519E+02 -0.10240555963E+04  0.10260088075E+04  0.41800000000E+01 0.  1.
         -5    1    3    3    0  502  0.68291294170E+01 -0.64706137776E+01 -0.31110878895E+01  0.10754399988E+02  0.41800000000E+01 0.  1.
        -11    1    4    4    0    0  0.60234061103E+02  0.32282240785E+02 -0.14956771119E+03  0.16444082649E+03  0.00000000000E+00 0.  1.
         11    1    4    4    0    0 -0.27117139585E+02  0.23086731512E+02 -0.17864803092E+03  0.18216326573E+03  0.00000000000E+00 0. -1.
</event>
<event>
 8    1  0.6860461E-009  0.1035793E+03  0.7561462E-02  0.1272944E+00
          2   -1    0    0  501    0  0.00000000000E+00  0.00000000000E+00  0.60573441436E+03  0.60573441436E+03  0.00000000000E+00 0. -1.
         -2   -1    0    0    0  501 -0.00000000000E+00 -0.00000000000E+00 -0.32466146041E+02  0.32466146041E+02  0.00000000000E+00 0.  1.
         25    2    1    2    0    0  0.77718026123E+02 -0.38853260930E+02  0.34936429349E+03  0.38112105596E+03  0.12509269466E+03 0.  0.
         23    2    1    2    0    0 -0.77718026123E+02  0.38853260930E+02  0.22390397483E+03  0.25707950445E+03  0.91690862100E+02 0.  0.
          5    1    3    3  502    0  0.49227606589E+02  0.11085915896E+02  0.35090715735E+02  0.61604265376E+02  0.41800000000E+01 0. -1.
         -5    1    3    3    0  502  0.28490419534E+02 -0.49939176826E+02  0.31427357775E+03  0.31951679058E+03  0.41800000000E+01 0. -1.
        -11    1    4    4    0    0 -0.47880271768E+02 -0.24300206556E+01  0.29903778016E+02  0.56503640277E+02  0.00000000000E+00 0. -1.
         11    1    4    4    0    0 -0.29837754355E+02  0.41283281585E+02  0.19400019682E+03  0.20057586417E+03  0.00000000000E+00 0.  1.
</event>
<event>
 8    1  0.6860461E-009  0.8201086E+02  0.7561462E-02  0.1323440E+00
          1   -1    0    0  501    0  0.00000000000E+00  0.00000000000E+00  0.20964100674E+03  0.20964100674E+03  0.00000000000E+00 0. -1.
         -1   -1    0    0    0  501 -0.00000000000E+00 -0.00000000000E+00 -0.69601043025E+02  0.69601043025E+02  0.00000000000E+00 0.  1.
         25    2    1    2    0    0 -0.34082049430E+02 -0.36894679882E+02  0.99850329662E+02  0.16775243847E+03  0.12509192132E+03 0.  0.
         23    2    1    2    0    0  0.34082049430E+02  0.36894679882E+02  0.40189634049E+02  0.11148961130E+03  0.91059998051E+02 0.  0.
          5    1    3    3  502    0 -0.76093531094E+01  0.22071761268E+02 -0.20323819537E+02  0.31234515216E+02  0.41800000000E+01 0. -1.
         -5    1    3    3    0  502 -0.26472696321E+02 -0.58966441150E+02  0.12017414920E+03  0.13651792325E+03  0.41800000000E+01 0. -1.
        -11    1    4    4    0    0  0.49478721098E+02  0.22135659866E+02  0.61060484693E+02  0.81648723628E+02  0.00000000000E+00 0. -1.
         11    1    4    4    0    0 -0.15396671667E+02  0.14759020016E+02 -0.20870850643E+02  0.29840887668E+02  0.00000000000E+00 0.  1.
</event>
<event>
 8    1  0.6860461E-009  0.1612917E+03  0.7561462E-02  0.1187246E+00
          1   -1    0    0  501    0  0.00000000000E+00  0.00000000000E+00  0.80873820647E+03  0.80873820647E+03  0.00000000000E+00 0. -1.
         -1   -1    0    0    0  501 -0.00000000000E+00 -0.00000000000E+00 -0.63806058290E+02  0.63806058290E+02  0.00000000000E+00 0.  1.
         25    2    1    2    0    0  0.12110571486E+02 -0.13617497578E+03  0.65743237505E+03  0.68304811817E+03  0.12508842473E+03 0.  0.
         23    2    1    2    0    0 -0.12110571486E+02  0.13617497578E+03  0.87499773131E+02  0.18949614659E+03  0.97786958771E+02 0.  0.
          5    1    3    3  502    0 -0.26979186374E+02 -0.10375013748E+03  0.24473569003E+03  0.26721713624E+03  0.41800000000E+01 0. -1.
         -5    1    3    3    0  502  0.39089757859E+02 -0.32424838301E+02  0.41269668502E+03  0.41583098193E+03  0.41800000000E+01 0. -1.
        -11    1    4    4    0    0  0.31190647246E+02  0.13024650413E+02  0.28702243445E+01  0.33922502588E+02  0.00000000000E+00 0.  1.
         11    1    4    4    0    0 -0.43301218732E+02  0.12315032537E+03  0.84629548787E+02  0.15557364401E+03  0.00000000000E+00 0. -1.
</event>
<event>
 8    1  0.6860461E-009  0.1388652E+03  0.7561462E-02  0.1214864E+00
         -1   -1    0    0    0  501 -0.00000000000E+00  0.00000000000E+00  0.12702230663E+02  0.12702230663E+02  0.00000000000E+00 0.  1.
          1   -1    0    0  501    0  0.00000000000E+00 -0.00000000000E+00 -0.15358587309E+04  0.15358587309E+04  0.00000000000E+00 0. -1.
         25    2    1    2    0    0 -0.39966566744E+01  0.86478296017E+02 -0.84118884734E+03  0.85483215793E+03  0.12507946431E+03 0.  0.
         23    2    1    2    0    0  0.39966566744E+01 -0.86478296017E+02 -0.68196765292E+03  0.69372880366E+03  0.93194980818E+02 0.  0.
          5    1    3    3  502    0  0.46884406605E+02 -0.37644167523E+01 -0.31574203908E+03  0.31925354510E+03  0.41800000000E+01 0. -1.
         -5    1    3    3    0  502 -0.50881063279E+02  0.90242712769E+02 -0.52544680826E+03  0.53557861283E+03  0.41800000000E+01 0. -1.
        -11    1    4    4    0    0 -0.41301264726E+02 -0.18777055587E+02 -0.21908095190E+03  0.22372938066E+03  0.00000000000E+00 0.  1.
         11    1    4    4    0    0  0.45297921401E+02 -0.67701240429E+02 -0.46288670103E+03  0.46999942301E+03  0.00000000000E+00 0. -1.
</event>
<event>
 8    1  0.6860461E-009  0.1390408E+03  0.7561462E-02  0.1214625E+00
          2   -1    0    0  501    0  0.00000000000E+00  0.00000000000E+00  0.16358803074E+03  0.16358803074E+03  0.00000000000E+00 0.  1.
         -2   -1    0    0    0  501 -0.00000000000E+00 -0.00000000000E+00 -0.14634412110E+03  0.14634412110E+03  0.00000000000E+00 0. -1.
         25    2    1    2    0    0 -0.93365893504E+02  0.57981287864E+02  0.13571690656E+02  0.16706441634E+03  0.12508920260E+03 0.  0.
         23    2    1    2    0    0  0.93365893504E+02 -0.57981287864E+02  0.36722189916E+01  0.14286773550E+03  0.91206824542E+02 0.  0.
          5    1    3    3  502    0 -0.75008424562E+02 -0.17131075396E+02 -0.24393512574E+02  0.80822356778E+02  0.41800000000E+01 0.  1.
         -5    1    3    3    0  502 -0.18357468942E+02  0.75112363260E+02  0.37965203230E+02  0.86242059558E+02  0.41800000000E+01 0.  1.
        -11    1    4    4    0    0  0.54816600258E+01 -0.31257970420E+02  0.33638897576E+02  0.46245915945E+02  0.00000000000E+00 0.  1.
         11    1    4    4    0    0  0.87884233478E+02 -0.26723317444E+02 -0.29966678584E+02  0.96621819558E+02  0.00000000000E+00 0. -1.
</event>
<event>
 8    1  0.6860461E-009  0.5955870E+02  0.7561462E-02  0.1399693E+00
         -1   -1    0    0    0  501 -0.00000000000E+00  0.00000000000E+00  0.34047402859E+02  0.34047402859E+02  0.00000000000E+00 0.  1.
          1   -1    0    0  501    0  0.00000000000E+00 -0.00000000000E+00 -0.36800047538E+03  0.36800047538E+03  0.00000000000E+00 0. -1.
         25    2    1    2    0    0 -0.30847087381E+02  0.57809186206E+01 -0.19261097625E+03  0.23179829025E+03  0.12508595993E+03 0.  0.
         23    2    1    2    0    0  0.30847087381E+02 -0.57809186206E+01 -0.14134209627E+03  0.17024958799E+03  0.89567696253E+02 0.  0.
          5    1    3    3  502    0 -0.29362805577E+02  0.49913153797E+01  0.80119581742E+01  0.31124772359E+02  0.41800000000E+01 0.  1.
         -5    1    3    3    0  502 -0.14842818033E+01  0.78960324086E+00 -0.20062293442E+03  0.20067351789E+03  0.41800000000E+01 0.  1.
        -11    1    4    4    0    0  0.37886420725E+02  0.29839772088E+02 -0.40188569885E+02  0.62776699683E+02  0.00000000000E+00 0.  1.
         11    1    4    4    0    0 -0.70393333446E+01 -0.35620690709E+02 -0.10115352639E+03  0.10747288831E+03  0.00000000000E+00 0. -1.
</event>
<event>
 8    1  0.6860461E-009  0.1499871E+03  0.7561462E-02  0.1200489E+00
          2   -1    0    0  501    0  0.00000000000E+00  0.00000000000E+00  0.26104941143E+03  0.26104941143E+03  0.00000000000E+00 0. -1.
         -2   -1    0    0    0  501 -0.00000000000E+00 -0.00000000000E+00 -0.13025653540E+03  0.13025653540E+03  0.00000000000E+00 0.  1.
         25    2    1    2    0    0 -0.10572856303E+03 -0.95187721368E+02  0.15707483912E+02  0.19008925525E+03  0.12509184054E+03 0.  0.
         23    2    1    2    0    0  0.10572856303E+03  0.95187721368E+02  0.11508539211E+03  0.20121669158E+03  0.83691565599E+02 0.  0.
          5    1    3    3  502    0 -0.45676818698E+02 -0.49580093955E+02 -0.54641200620E+02  0.86877446372E+02  0.41800000000E+01 0. -1.
         -5    1    3    3    0  502 -0.60051744337E+02 -0.45607627412E+02  0.70348684532E+02  0.10321180888E+03  0.41800000000E+01 0. -1.
        -11    1    4    4    0    0 -0.20265938806E+01  0.31855200595E+02  0.52481265984E+02  0.61425924226E+02  0.00000000000E+00 0.  1.
         11    1    4    4    0    0  0.10775515692E+03  0.63332520773E+02  0.62604126129E+02  0.13979076735E+03  0.00000000000E+00 0. -1.
</event>
<event>
 8    1  0.6860461E-009  0.1349083E+03  0.7561462E-02  0.1220349E+00
          1   -1    0    0  501    0  0.00000000000E+00  0.00000000000E+00  0.19691946837E+03  0.19691946837E+03  0.00000000000E+00 0. -1.
         -1   -1    0    0    0  501 -0.00000000000E+00 -0.00000000000E+00 -0.12479795663E+03  0.12479795663E+03  0.00000000000E+00 0.  1.
         25    2    1    2    0    0 -0.49107544879E+02 -0.10064224844E+03  0.43002594695E+02  0.17331292101E+03  0.12509089617E+03 0.  0.
         23    2    1    2    0    0  0.49107544879E+02  0.10064224844E+03  0.29118917042E+02  0.14840450399E+03  0.92927780231E+02 0.  0.
          5    1    3    3  502    0 -0.50719958032E+02 -0.10617514455E+03 -0.11541476728E+02  0.11830618558E+03  0.41800000000E+01 0. -1.
         -5    1    3    3    0  502  0.16124131527E+01  0.55328961016E+01  0.54544071423E+02  0.55006735432E+02  0.41800000000E+01 0. -1.
        -11    1    4    4    0    0  0.68254348514E+02  0.35253337046E+02  0.89085098668E+01  0.77335731794E+02  0.00000000000E+00 0. -1.
         11    1    4    4    0    0 -0.19146803635E+02  0.65388911398E+02  0.20210407175E+02  0.71068772196E+02  0.00000000000E+00 0.  1.
</event>
<event>
 8    1  0.6860461E-009  0.1067849E+03  0.7561462E-02  0.1266642E+00
          1   -1    0    0  501    0  0.00000000000E+00  0.00000000000E+00  0.89802370254E+03  0.89802370254E+03  0.00000000000E+00 0.  1.
         -1   -1    0    0    0  501 -0.00000000000E+00 -0.00000000000E+00 -0.17855312573E+02  0.17855312573E+02  0.00000000000E+00 0. -1.
         25    2    1    2    0    0 -0.41838325121E+02  0.43261412894E+02  0.58381102247E+03  0.60008867689E+03  0.12509642231E+03 0.  0.
         23    2    1    2    0    0  0.41838325121E+02 -0.43261412894E+02  0.29635736749E+03  0.31579033822E+03  0.90960723139E+02 0.  0.
          5    1    3    3  502    0 -0.74409939080E+02 -0.94837209738E+01  0.27427008042E+03  0.28437357369E+03  0.41800000000E+01 0. -1.
         -5    1    3    3    0  502  0.32571613960E+02  0.52745133868E+02  0.30954094205E+03  0.31571510320E+03  0.41800000000E+01 0. -1.
        -11    1    4    4    0    0  0.50920262169E+02 -0.26882095719E+02  0.29052266249E+03  0.29617383002E+03  0.00000000000E+00 0.  1.
         11    1    4    4    0    0 -0.90819370485E+01 -0.16379317176E+02  0.58347050070E+01  0.19616508206E+02  0.00000000000E+00 0. -1.
</event>
<event>
 8    1  0.6860461E-009  0.1226588E+03  0.7561462E-02  0.1238774E+00
          2   -1    0    0  501    0  0.00000000000E+00  0.00000000000E+00  0.11681866819E+04  0.11681866819E+04  0.00000000000E+00 0.  1.
         -2   -1    0    0    0  501 -0.00000000000E+00 -0.00000000000E+00 -0.19464114425E+02  0.19464114425E+02  0.00000000000E+00 0. -1.
         25    2    1    2    0    0 -0.71520999731E+01 -0.10079242507E+03  0.74572764473E+03  0.76286857526E+03  0.12509387487E+03 0.  0.
         23    2    1    2    0    0  0.71520999731E+01  0.10079242507E+03  0.40299492277E+03  0.42478222109E+03  0.88457685267E+02 0.  0.
          5    1    3    3  502    0 -0.24453885346E+02 -0.79746534119E+02  0.72105467557E+03  0.72587520951E+03  0.41800000000E+01 0.  1.
         -5    1    3    3    0  502  0.17301785373E+02 -0.21045890955E+02  0.24672969156E+02  0.36993365758E+02  0.41800000000E+01 0.  1.
        -11    1    4    4    0    0 -0.39073972410E+02  0.64727890638E+02  0.22082270173E+03  0.23340767071E+03  0.00000000000E+00 0. -1.
         11    1    4    4    0    0  0.46226072383E+02  0.36064534436E+02  0.18217222104E+03  0.19137455038E+03  0.00000000000E+00 0.  1.
</event>
<event>
 8    1  0.6860461E-009  0.1342574E+03  0.7561462E-02  0.1221272E+00
          2   -1    0    0  501    0  0.00000000000E+00  0.00000000000E+00  0.11873924114E+03  0.11873924114E+03  0.00000000000E+00 0. -1.
         -2   -1    0    0    0  501 -0.00000000000E+00 -0.00000000000E+00 -0.24607688607E+03  0.24607688607E+03  0.00000000000E+00 0.  1.
         25    2    1    2    0    0  0.16560878269E+02  0.10684754172E+03 -0.15583275549E+03  0.22720363461E+03  0.12508790523E+03 0.  0.
         23    2    1    2    0    0 -0.16560878269E+02 -0.10684754172E+03  0.28495110554E+02  0.13761249260E+03  0.80215752402E+02 0.  0.
          5    1    3    3  502    0  0.62727707352E+02  0.27802469170E+02 -0.94817553905E+02  0.11711354956E+03  0.41800000000E+01 0.  1.
         -5    1    3    3    0  502 -0.46166829083E+02  0.79045072552E+02 -0.61015201586E+02  0.11009008505E+03  0.41800000000E+01 0.  1.
        -11    1    4    4    0    0 -0.56442129370E+01 -0.42413654592E+02 -0.28075932906E+02  0.51176491127E+02  0.00000000000E+00 0.  1.
         11    1    4    4    0    0 -0.10916665332E+02 -0.64433887130E+02  0.56571043461E+02  0.86436001475E+02  0.00000000000E+00 0. -1.
</event>
<event>
 8    1  0.6860461E-009  0.1069500E+03  0.7561462E-02  0.1266325E+00
          1   -1    0    0  501    0  0.00000000000E+00  0.00000000000E+00  0.20043373913E+03  0.20043373913E+03  0.00000000000E+00 0. -1.
         -1   -1    0    0    0  501 -0.00000000000E+00 -0.00000000000E+00 -0.68528446249E+02  0.68528446249E+02  0.00000000000E+00 0.  1.
         25    2    1    2    0    0  0.38768252801E+02  0.28952955976E+01  0.95785236746E+02  0.16227709186E+03  0.12509069830E+03 0.  0.
         23    2    1    2    0    0 -0.38768252801E+02 -0.28952955976E+01  0.36120056134E+02  0.10668509352E+03  0.92551015999E+02 0.  0.
          5    1    3    3  502    0  0.68691519743E+02  0.29420440834E+02  0.21600972954E+02  0.77898405992E+02  0.41800000000E+01 0.  1.
         -5    1    3    3    0  502 -0.29923266942E+02 -0.26525145236E+02  0.74184263792E+02  0.84378685867E+02  0.41800000000E+01 0.  1.
        -11    1    4    4    0    0  0.17181236132E+02  0.29544851955E+02  0.38086738542E+01  0.34388939335E+02  0.00000000000E+00 0.  1.
         11    1    4    4    0    0 -0.55949488934E+02 -0.32440147552E+02  0.32311382280E+02  0.72296154185E+02  0.00000000000E+00 0. -1.
</event>
<event>
 8    1  0.6860461E-009  0.2253929E+03  0.7561462E-02  0.1129925E+00
         -2   -1    0    0    0  501 -0.00000000000E+00  0.00000000000E+00  0.25797485074E+03  0.25797485074E+03  0.00000000000E+00 0.  1.
          2   -1    0    0  501    0  0.00000000000E+00 -0.00000000000E+00 -0.21989979067E+03  0.21989979067E+03  0.00000000000E+00 0. -1.
         25    2    1    2    0    0  0.20257832647E+03  0.52516534791E+02  0.52882295840E+02  0.24947944156E+03  0.12508992671E+03 0.  0.
         23    2    1    2    0    0 -0.20257832647E+03 -0.52516534791E+02 -0.14807235772E+02  0.22839519986E+03  0.90272633196E+02 0.  0.
          5    1    3    3  502    0  0.19147143484E+03  0.81426059430E+02  0.28938174639E+02  0.21011045635E+03  0.41800000000E+01 0.  1.
         -5    1    3    3    0  502  0.11106891628E+02 -0.28909524639E+02  0.23944121201E+02  0.39368985212E+02  0.41800000000E+01 0.  1.
        -11    1    4    4    0    0 -0.16947888511E+02 -0.13674232562E+02  0.26498466086E+02  0.34298458654E+02  0.00000000000E+00 0.  1.
         11    1    4    4    0    0 -0.18563043796E+03 -0.38842302228E+02 -0.41305701858E+02  0.19409674120E+03  0.00000000000E+00 0. -1.
</event>
<event>
 8    1  0.6860461E-009  0.1261248E+03  0.7561462E-02  0.1233322E+00
          1   -1    0    0  501    0  0.00000000000E+00  0.00000000000E+00  0.14909091695E+03  0.14909091695E+03  0.00000000000E+00 0. -1.
         -1   -1    0    0    0  501 -0.00000000000E+00 -0.00000000000E+00 -0.12977532831E+03  0.12977532831E+03  0.00000000000E+00 0.  1.
         25    2    1    2    0    0  0.16779059374E+02 -0.81707029766E+02 -0.13667904807E+02  0.15096571469E+03  0.12508501047E+03 0.  0.
         23    2    1    2    0    0 -0.16779059374E+02  0.81707029766E+02  0.32983493438E+02  0.12790053056E+03  0.91175980020E+02 0.  0.
          5    1    3    3  502    0  0.55975066696E+02 -0.11443191560E+02  0.23900531083E+02  0.62071430713E+02  0.41800000000E+01 0.  1.
         -5    1    3    3    0  502 -0.39196007322E+02 -0.70263838206E+02 -0.37568435890E+02  0.88894283982E+02  0.41800000000E+01 0.  1.
        -11    1    4    4    0    0  0.26819797067E+02  0.67052086527E+01 -0.12047541695E+02  0.30156335962E+02  0.00000000000E+00 0.  1.
         11    1    4    4    0    0 -0.43598856440E+02  0.75001821113E+02  0.45031035133E+02  0.97744194602E+02  0.00000000000E+00 0. -1.
</event>
<event>
 8    1  0.6860461E-009  0.1054368E+03  0.7561462E-02  0.1269261E+00
          3   -1    0    0  501    0  0.00000000000E+00  0.00000000000E+00  0.23030289239E+03  0.23030289239E+03  0.00000000000E+00 0. -1.
         -3   -1    0    0    0  501 -0.00000000000E+00 -0.00000000000E+00 -0.73989766571E+02  0.73989766571E+02  0.00000000000E+00 0.  1.
         25    2    1    2    0    0  0.63017941846E+02  0.18951937785E+02  0.12210558894E+03  0.18677945223E+03  0.12508537879E+03 0.  0.
         23    2    1    2    0    0 -0.63017941846E+02 -0.18951937785E+02  0.34207536878E+02  0.11751320673E+03  0.91152406635E+02 0.  0.
          5    1    3    3  502    0  0.55011208383E+02  0.67179532009E+02  0.52283952943E+02  0.10144164186E+03  0.41800000000E+01 0. -1.
         -5    1    3    3    0  502  0.80067334628E+01 -0.48227594224E+02  0.69821635993E+02  0.85337810367E+02  0.41800000000E+01 0. -1.
        -11    1    4    4    0    0 -0.12680330121E+02  0.10581964025E+02 -0.27815220290E+02  0.32348960020E+02  0.00000000000E+00 0.  1.
         11    1    4    4    0    0 -0.50337611725E+02 -0.29533901809E+02  0.62022757168E+02  0.85164246706E+02  0.00000000000E+00 0. -1.
</event>
<event>
 8    1  0.6860461E-009  0.1235682E+03  0.7561462E-02  0.1237324E+00
         -2   -1    0    0    0  501 -0.00000000000E+00  0.00000000000E+00  0.33593718168E+02  0.33593718168E+02  0.00000000000E+00 0.  1.
          2   -1    0    0  501    0  0.00000000000E+00 -0.00000000000E+00 -0.62056079030E+03  0.62056079030E+03  0.00000000000E+00 0. -1.
         25    2    1    2    0    0  0.86966586964E+02 -0.34309953532E+02 -0.26832512526E+03  0.31046139494E+03  0.12509014646E+03 0.  0.
         23    2    1    2    0    0 -0.86966586964E+02  0.34309953532E+02 -0.31864194687E+03  0.34369311353E+03  0.88610980266E+02 0.  0.
          5    1    3    3  502    0 -0.78478632915E+00 -0.31411421365E+02 -0.40546067660E+01  0.31956306385E+02  0.41800000000E+01 0.  1.
         -5    1    3    3    0  502  0.87751373294E+02 -0.28985321668E+01 -0.26427051850E+03  0.27850508856E+03  0.41800000000E+01 0.  1.
        -11    1    4    4    0    0 -0.26145824215E+02 -0.29478407287E+02 -0.12193179680E+03  0.12814032812E+03  0.00000000000E+00 0. -1.
         11    1    4    4    0    0 -0.60820762749E+02  0.63788360819E+02 -0.19671015007E+03  0.21555278541E+03  0.00000000000E+00 0.  1.
</event>
<event>
 8    1  0.6860461E-009  0.9546198E+02  0.7561462E-02  0.1290139E+00
         -1   -1    0    0    0  501 -0.00000000000E+00  0.00000000000E+00  0.53505060768E+03  0.53505060768E+03  0.00000000000E+00 0.  1.
          1   -1    0    0  501    0  0.00000000000E+00 -0.00000000000E+00 -0.28524706469E+02  0.28524706469E+02  0.00000000000E+00 0. -1.
         25    2    1    2    0    0  0.28577574735E+02 -0.47288376019E+02  0.33705686393E+03  0.36374372538E+03  0.12509716203E+03 0.  0.
         23    2    1    2    0    0 -0.28577574735E+02  0.47288376019E+02  0.16946903728E+03  0.19983158877E+03  0.90332945204E+02 0.  0.
          5    1    3    3  502    0 -0.18034015130E+02 -0.48327474892E+02  0.46920238772E+02  0.69855219830E+02  0.41800000000E+01 0.  1.
         -5    1    3    3    0  502  0.46611589865E+02  0.10390988730E+01  0.29013662515E+03  0.29388850555E+03  0.41800000000E+01 0.  1.
        -11    1    4    4    0    0 -0.29853332280E+02 -0.12640789985E+02  0.11271164919E+03  0.11728140041E+03  0.00000000000E+00 0.  1.
         11    1    4    4    0    0  0.12757575451E+01  0.59929166004E+02  0.56757388098E+02  0.82550188364E+02  0.00000000000E+00 0. -1.
</event>
<event>
 8    1  0.6860461E-009  0.1098642E+03  0.7561462E-02  0.1260822E+00
          2   -1    0    0  501    0  0.00000000000E+00  0.00000000000E+00  0.61950603644E+02  0.61950603644E+02  0.00000000000E+00 0. -1.
         -2   -1    0    0    0  501 -0.00000000000E+00 -0.00000000000E+00 -0.28831003327E+03  0.28831003327E+03  0.00000000000E+00 0.  1.
         25    2    1    2    0    0 -0.94819882719E+01 -0.19715815512E+02 -0.26366454997E+02  0.12969692538E+03  0.12508989176E+03 0.  0.
         23    2    1    2    0    0  0.94819882719E+01  0.19715815512E+02 -0.19999297463E+03  0.22056371153E+03  0.90402098762E+02 0.  0.
          5    1    3    3  502    0 -0.57340365125E+02  0.23528205692E+02 -0.90134595632E+01  0.62771082426E+02  0.41800000000E+01 0.  1.
         -5    1    3    3    0  502  0.47858376853E+02 -0.43244021204E+02 -0.17352995433E+02  0.66925842956E+02  0.41800000000E+01 0.  1.
        -11    1    4    4    0    0  0.24647228803E+01  0.55979807868E+02 -0.12371883125E+03  0.13581665198E+03  0.00000000000E+00 0. -1.
         11    1    4    4    0    0  0.70172653916E+01 -0.36263992356E+02 -0.76274143381E+02  0.84747059557E+02  0.00000000000E+00 0.  1.
</event>
<event>
 8    1  0.6860461E-009  0.6997997E+02  0.7561462E-02  0.1360161E+00
          1   -1    0    0  501    0  0.00000000000E+00  0.00000000000E+00  0.49753844450E+03  0.49753844450E+03  0.00000000000E+00 0. -1.
         -1   -1    0    0    0  501 -0.00000000000E+00 -0.00000000000E+00 -0.37915280797E+02  0.37915280797E+02  0.00000000000E+00 0.  1.
         25    2    1    2    0    0  0.58441950242E+02 -0.25199478694E+02  0.14778528778E+03  0.20380973957E+03  0.12508974132E+03 0.  0.
         23    2    1    2    0    0 -0.58441950242E+02  0.25199478694E+02  0.31183787592E+03  0.33164398572E+03  0.93243751188E+02 0.  0.
          5    1    3    3  502    0 -0.19794814470E+01  0.64443877807E+01  0.13383036347E+03  0.13406523437E+03  0.41800000000E+01 0.  1.
         -5    1    3    3    0  502  0.60421431689E+02 -0.31643866475E+02  0.13954924313E+02  0.69744505198E+02  0.41800000000E+01 0.  1.
        -11    1    4    4    0    0 -0.48763332855E+02  0.19986574082E+02  0.31564197548E+03  0.32001122240E+03  0.00000000000E+00 0. -1.
         11    1    4    4    0    0 -0.96786173861E+01  0.52129046128E+01 -0.38040995673E+01  0.11632763323E+02  0.00000000000E+00 0.  1.
</event>
<event>
 8    1  0.6860461E-009  0.6361581E+02  0.7561462E-02  0.1383255E+00
          1   -1    0    0  501    0  0.00000000000E+00  0.00000000000E+00  0.11200748500E+03  0.11200748500E+03  0.00000000000E+00 0. -1.
         -1   -1    0    0    0  501 -0.00000000000E+00 -0.00000000000E+00 -0.12372048837E+03  0.12372048837E+03  0.00000000000E+00 0.  1.
         25    2    1    2    0    0 -0.42709825074E+02  0.12909884339E+02 -0.68428912896E+01  0.13298956771E+03  0.12509438711E+03 0.  0.
         23    2    1    2    0    0  0.42709825074E+02 -0.12909884339E+02 -0.48701120804E+01  0.10273840566E+03  0.92415733149E+02 0.  0.
          5    1    3    3  502    0 -0.31410613790E+02  0.11029177904E+02 -0.65224426417E+02  0.73348262593E+02  0.41800000000E+01 0. -1.
         -5    1    3    3    0  502 -0.11299211283E+02  0.18807064343E+01  0.58381535128E+02  0.59641305118E+02  0.41800000000E+01 0. -1.
        -11    1    4    4    0    0  0.32621708460E+02 -0.40561302342E+02 -0.33319365194E+02  0.61802711975E+02  0.00000000000E+00 0.  1.
         11    1    4    4    0    0  0.10088116614E+02  0.27651418003E+02  0.28449253113E+02  0.40935693681E+02  0.00000000000E+00 0. -1.
</event>
<event>
 8    1  0.6860461E-009  0.1372750E+03  0.7561462E-02  0.1217043E+00
          1   -1    0    0  501    0  0.00000000000E+00  0.00000000000E+00  0.74460730843E+03  0.74460730843E+03  0.00000000000E+00 0. -1.
         -1   -1    0    0    0  501 -0.00000000000E+00 -0.00000000000E+00 -0.42122927807E+02  0.42122927807E+02  0.00000000000E+00 0.  1.
         25    2    1    2    0    0  0.84107323219E+01 -0.91601531457E+02  0.60490163047E+03  0.62451121001E+03  0.12508672151E+03 0.  0.
         23    2    1    2    0    0 -0.84107323219E+01  0.91601531457E+02  0.97582750155E+02  0.16221902623E+03  0.91274521962E+02 0.  0.
          5    1    3    3  502    0 -0.36457281948E+01 -0.11686073757E+03  0.55450655968E+03  0.56671396704E+03  0.41800000000E+01 0. -1.
         -5    1    3    3    0  502  0.12056460517E+02  0.25259206117E+02  0.50395070793E+02  0.57797242963E+02  0.41800000000E+01 0. -1.
        -11    1    4    4    0    0 -0.48135337432E+01 -0.18490846343E+02  0.10493923151E+02  0.21799172660E+02  0.00000000000E+00 0.  1.
         11    1    4    4    0    0 -0.35971985787E+01  0.11009237780E+03  0.87088827004E+02  0.14041985357E+03  0.00000000000E+00 0. -1.
</event>
<event>
 8    1  0.6860461E-009  0.1120612E+03  0.7561462E-02  0.1256800E+00
         -1   -1    0    0    0  501 -0.00000000000E+00  0.00000000000E+00  0.27205535680E+03  0.27205535680E+03  0.00000000000E+00 0.  1.
          1   -1    0    0  501    0  0.00000000000E+00 -0.00000000000E+00 -0.73064335466E+02  0.73064335466E+02  0.00000000000E+00 0. -1.
         25    2    1    2    0    0 -0.48392168859E+02  0.67550657485E+02  0.14891153448E+03  0.21148828684E+03  0.12509099502E+03 0.  0.
         23    2    1    2    0    0  0.48392168859E+02 -0.67550657485E+02  0.50079486854E+02  0.13363140543E+03  0.91893983374E+02 0.  0.
          5    1    3    3  502    0 -0.50784853412E+02  0.76508186072E+02  0.36960937087E+02  0.99076673049E+02  0.41800000000E+01 0. -1.
         -5    1    3    3    0  502  0.23926845531E+01 -0.89575285870E+01  0.11195059739E+03  0.11241161379E+03  0.41800000000E+01 0. -1.
        -11    1    4    4    0    0  0.17448423644E+02  0.21537616330E+02  0.21523059794E+02  0.35093567897E+02  0.00000000000E+00 0. -1.
         11    1    4    4    0    0  0.30943745215E+02 -0.89088273815E+02  0.28556427060E+02  0.98537837533E+02  0.00000000000E+00 0.  1.
</event>
<event>
 8    1  0.6860461E-009  0.1184098E+03  0.7561462E-02  0.1245744E+00
          3   -1    0    0  501    0  0.00000000000E+00  0.00000000000E+00  0.38332997984E+02  0.38332997984E+02  0.00000000000E+00 0. -1.
         -3   -1    0    0    0  501 -0.00000000000E+00 -0.00000000000E+00 -0.63020551320E+03  0.63020551320E+03  0.00000000000E+00 0.  1.
         25    2    1    2    0    0 -0.34334967202E+02 -0.47474992344E+02 -0.11609004859E+03  0.18044132095E+03  0.12509758613E+03 0.  0.
         23    2    1    2    0    0  0.34334967202E+02  0.47474992344E+02 -0.47578246662E+03  0.48809719023E+03  0.91853942159E+02 0.  0.
          5    1    3    3  502    0  0.19661266982E+02  0.31965271874E+02 -0.14176362018E+02  0.40333431113E+02  0.41800000000E+01 0. -1.
         -5    1    3    3    0  502 -0.53996234184E+02 -0.79440264218E+02 -0.10191368657E+03  0.14010788984E+03  0.41800000000E+01 0. -1.
        -11    1    4    4    0    0  0.32051335615E+02 -0.18428657354E+02 -0.10092628108E+03  0.10748496517E+03  0.00000000000E+00 0. -1.
         11    1    4    4    0    0  0.22836315878E+01  0.65903649698E+02 -0.37485618555E+03  0.38061222505E+03  0.00000000000E+00 0.  1.
</event>
<event>
 8    1  0.6860461E-009  0.1475407E+03  0.7561462E-02  0.1203528E+00
         -2   -1    0    0    0  501 -0.00000000000E+00  0.00000000000E+00  0.16505888818E+03  0.16505888818E+03  0.00000000000E+00 0.  1.
          2   -1    0    0  501    0  0.00000000000E+00 -0.00000000000E+00 -0.14124614453E+03  0.14124614453E+03  0.00000000000E+00 0. -1.
         25    2    1    2    0    0  0.15380847544E+02 -0.10034150951E+03  0.44430671793E+02  0.16710730777E+03  0.12508308724E+03 0.  0.
         23    2    1    2    0    0 -0.15380847544E+02  0.10034150951E+03 -0.20617928143E+02  0.13919772494E+03  0.92983432210E+02 0.  0.
          5    1    3    3  502    0 -0.50764093181E+02 -0.15747386089E+02  0.98628674907E+01  0.54219202136E+02  0.41800000000E+01 0.  1.
         -5    1    3    3    0  502  0.66144940725E+02 -0.84594123419E+02  0.34567804302E+02  0.11288810564E+03  0.41800000000E+01 0.  1.
        -11    1    4    4    0    0 -0.51909767084E+02  0.49749390895E+02 -0.26251596000E+02  0.76542616271E+02  0.00000000000E+00 0. -1.
         11    1    4    4    0    0  0.36528919540E+02  0.50592118613E+02  0.56336678575E+01  0.62655108666E+02  0.00000000000E+00 0.  1.
</event>
<event>
 8    1  0.6860461E-009  0.2018980E+03  0.7561462E-02  0.1148147E+00
         -3   -1    0    0    0  501 -0.00000000000E+00  0.00000000000E+00  0.16735151883E+04  0.16735151883E+04  0.00000000000E+00 0.  1.
          3   -1    0    0  501    0  0.00000000000E+00 -0.00000000000E+00 -0.27007326917E+02  0.27007326917E+02  0.00000000000E+00 0. -1.
         25    2    1    2    0    0 -0.17346090196E+03  0.49677574369E+02  0.83586468012E+03  0.86421938145E+03  0.12509528329E+03 0.  0.
         23    2    1    2    0    0  0.17346090196E+03 -0.49677574369E+02  0.81064318130E+03  0.83630313380E+03  0.98508975815E+02 0.  0.
          5    1    3    3  502    0  0.10112753941E+02  0.13780358345E+02  0.21646249591E+03  0.21717654248E+03  0.41800000000E+01 0. -1.
         -5    1    3    3    0  502 -0.18357365590E+03  0.35897216024E+02  0.61940218421E+03  0.64704283897E+03  0.41800000000E+01 0. -1.
        -11    1    4    4    0    0  0.13804122919E+03  0.60743428604E-01  0.45580336271E+03  0.47624792924E+03  0.00000000000E+00 0. -1.
         11    1    4    4    0    0  0.35419672767E+02 -0.49738317798E+02  0.35483981859E+03  0.36005520456E+03  0.00000000000E+00 0.  1.
</event>
<event>
 8    1  0.6860461E-009  0.1133409E+03  0.7561462E-02  0.1254505E+00
         -2   -1    0    0    0  501 -0.00000000000E+00  0.00000000000E+00  0.20750310557E+02  0.20750310557E+02  0.00000000000E+00 0. -1.
          2   -1    0    0  501    0  0.00000000000E+00 -0.00000000000E+00 -0.89056310725E+03  0.89056310725E+03  0.00000000000E+00 0.  1.
         25    2    1    2    0    0 -0.32846243957E+02  0.71070948585E+01 -0.71849584558E+03  0.73007784582E+03  0.12509194337E+03 0.  0.
         23    2    1    2    0    0  0.32846243957E+02 -0.71070948585E+01 -0.15131695110E+03  0.18123557198E+03  0.93915527581E+02 0.  0.
          5    1    3    3  502    0  0.16142791023E+01 -0.56617760768E+02 -0.29719620868E+03  0.30257434720E+03  0.41800000000E+01 0. -1.
         -5    1    3    3    0  502 -0.34460523059E+02  0.63724855626E+02 -0.42129963691E+03  0.42750349862E+03  0.41800000000E+01 0. -1.
        -11    1    4    4    0    0  0.63737599563E+02 -0.14911795859E+02 -0.81816482168E+02  0.10477967364E+03  0.00000000000E+00 0. -1.
         11    1    4    4    0    0 -0.30891355606E+02  0.78047010001E+01 -0.69500468936E+02  0.76455898342E+02  0.00000000000E+00 0.  1.
</event>
<event>
 8    1  0.6860461E-009  0.1290449E+03  0.7561462E-02  0.1228880E+00
          1   -1    0    0  501    0  0.00000000000E+00  0.00000000000E+00  0.29908187067E+03  0.29908187067E+03  0.00000000000E+00 0. -1.
         -1   -1    0    0    0  501 -0.00000000000E+00 -0.00000000000E+00 -0.86746287326E+02  0.86746287326E+02  0.00000000000E+00 0.  1.
         25    2    1    2    0    0  0.10169767829E+03 -0.60912493045E+02  0.12408727219E+03  0.21236503808E+03  0.12509399947E+03 0.  0.
         23    2    1    2    0    0 -0.10169767829E+03  0.60912493045E+02  0.88248311157E+02  0.17346311991E+03  0.90823675164E+02 0.  0.
          5    1    3    3  502    0  0.93661831655E+02 -0.57888687114E+02  0.25217978944E+02  0.11303564777E+03  0.41800000000E+01 0. -1.
         -5    1    3    3    0  502  0.80358466321E+01 -0.30238059309E+01  0.98869293246E+02  0.99329390315E+02  0.41800000000E+01 0. -1.
        -11    1    4    4    0    0 -0.97347830327E+02  0.75459921694E+02  0.51132620124E+02  0.13336170624E+03  0.00000000000E+00 0.  1.
         11    1    4    4    0    0 -0.43498479600E+01 -0.14547428648E+02  0.37115691032E+02  0.40101413670E+02  0.00000000000E+00 0. -1.
</event>
<event>
 8    1  0.6860461E-009  0.8328955E+02  0.7561462E-02  0.1319967E+00
         -2   -1    0    0    0  501 -0.00000000000E+00  0.00000000000E+00  0.39266187786E+02  0.39266187786E+02  0.00000000000E+00 0.  1.
          2   -1    0    0  501    0  0.00000000000E+00 -0.00000000000E+00 -0.38774274837E+03  0.38774274837E+03  0.00000000000E+00 0. -1.
         25    2    1    2    0    0  0.69901846127E+01 -0.28429677335E+01 -0.29815015814E+03  0.32340830553E+03  0.12506986104E+03 0.  0.
         23    2    1    2    0    0 -0.69901846127E+01  0.28429677335E+01 -0.50326402445E+02  0.10360063063E+03  0.90240782006E+02 0.  0.
          5    1    3    3  502    0  0.30888449294E+02  0.45876048502E+02 -0.72470739941E+02  0.91258910104E+02  0.41800000000E+01 0.  1.
         -5    1    3    3    0  502 -0.23898264681E+02 -0.48719016235E+02 -0.22567941820E+03  0.23214939542E+03  0.41800000000E+01 0.  1.
        -11    1    4    4    0    0 -0.86379666350E+01  0.29113568061E+02  0.14486697407E+02  0.33646377436E+02  0.00000000000E+00 0.  1.
         11    1    4    4    0    0  0.16477820223E+01 -0.26270600328E+02 -0.64813099852E+02  0.69954253192E+02  0.00000000000E+00 0. -1.
</event>
<event>
 8    1  0.6860461E-009  0.3585277E+03  0.7561462E-02  0.1059168E+00
          1   -1    0    0  501    0  0.00000000000E+00  0.00000000000E+00  0.84736508923E+03  0.84736508923E+03  0.00000000000E+00 0. -1.
         -1   -1    0    0    0  501 -0.00000000000E+00 -0.00000000000E+00 -0.17845665852E+03  0.17845665852E+03  0.00000000000E+00 0.  1.
         25    2    1    2    0    0  0.97457232874E+01 -0.34840323526E+03  0.51078800558E+03  0.63089703304E+03  0.12508751417E+03 0.  0.
         23    2    1    2    0    0 -0.97457232874E+01  0.34840323526E+03  0.15812042513E+03  0.39492471471E+03  0.97384125931E+02 0.  0.
          5    1    3    3  502    0 -0.40716805565E+02 -0.12508791176E+03  0.25923167174E+03  0.29072904216E+03  0.41800000000E+01 0.  1.
         -5    1    3    3    0  502  0.50462528853E+02 -0.22331532349E+03  0.25155633384E+03  0.34016799088E+03  0.41800000000E+01 0.  1.
        -11    1    4    4    0    0  0.32005415387E+02  0.11604089047E+03  0.86454771698E+02  0.14820344944E+03  0.00000000000E+00 0. -1.
         11    1    4    4    0    0 -0.41751138675E+02  0.23236234478E+03  0.71665653432E+02  0.24672126527E+03  0.00000000000E+00 0.  1.
</event>
<event>
 8    1  0.6860461E-009  0.1168634E+03  0.7561462E-02  0.1248363E+00
          2   -1    0    0  501    0  0.00000000000E+00  0.00000000000E+00  0.33059428090E+03  0.33059428090E+03  0.00000000000E+00 0. -1.
         -2   -1    0    0    0  501 -0.00000000000E+00 -0.00000000000E+00 -0.56494024966E+02  0.56494024966E+02  0.00000000000E+00 0.  1.
         25    2    1    2    0    0  0.16383137387E+02 -0.60567678486E+02  0.23352345038E+03  0.27224455357E+03  0.12508814574E+03 0.  0.
         23    2    1    2    0    0 -0.16383137387E+02  0.60567678486E+02  0.40576805549E+02  0.11484375229E+03  0.87211005176E+02 0.  0.
          5    1    3    3  502    0  0.38959320568E+02 -0.88939306005E+02  0.12887024484E+03  0.16140954500E+03  0.41800000000E+01 0. -1.
         -5    1    3    3    0  502 -0.22576183181E+02  0.28371627519E+02  0.10465320554E+03  0.11083500857E+03  0.41800000000E+01 0. -1.
        -11    1    4    4    0    0 -0.24769643934E+02  0.77382767482E+02  0.14236782418E+02  0.82488265452E+02  0.00000000000E+00 0. -1.
         11    1    4    4    0    0  0.83865065477E+01 -0.16815088996E+02  0.26340023131E+02  0.32355486838E+02  0.00000000000E+00 0.  1.
</event>
<event>
 8    1  0.6860461E-009  0.1437657E+03  0.7561462E-02  0.1208350E+00
          2   -1    0    0  501    0  0.00000000000E+00  0.00000000000E+00  0.31772661430E+03  0.31772661430E+03  0.00000000000E+00 0. -1.
         -2   -1    0    0    0  501 -0.00000000000E+00 -0.00000000000E+00 -0.11797836894E+03  0.11797836894E+03  0.00000000000E+00 0.  1.
         25    2    1    2    0    0 -0.27802554117E+02  0.12808823963E+03  0.17678235411E+01  0.18119769830E+03  0.12509956643E+03 0.  0.
         23    2    1    2    0    0  0.27802554117E+02 -0.12808823963E+03  0.19798042181E+03  0.25450728494E+03  0.91641319936E+02 0.  0.
          5    1    3    3  502    0  0.26522373442E+02  0.56354932084E+02 -0.47577195405E+02  0.78488066518E+02  0.41800000000E+01 0.  1.
         -5    1    3    3    0  502 -0.54324927559E+02  0.71733307548E+02  0.49345018946E+02  0.10270963178E+03  0.41800000000E+01 0.  1.
        -11    1    4    4    0    0  0.29484986511E+02 -0.59367106831E+02  0.29521390359E+02  0.72562595679E+02  0.00000000000E+00 0.  1.
         11    1    4    4    0    0 -0.16824323943E+01 -0.68721132802E+02  0.16845903145E+03  0.18194468926E+03  0.00000000000E+00 0. -1.
</event>
<event>
 8    1  0.6860461E-009  0.9796503E+02  0.7561462E-02  0.1284634E+00
         -2   -1    0    0    0  501 -0.00000000000E+00  0.00000000000E+00  0.26971947846E+03  0.26971947846E+03  0.00000000000E+00 0. -1.
          2   -1    0    0  501    0  0.00000000000E+00 -0.00000000000E+00 -0.67831488395E+02  0.67831488395E+02  0.00000000000E+00 0.  1.
         25    2    1    2    0    0 -0.48631066398E+01  0.73694949685E+02  0.10492021371E+03  0.17919522710E+03  0.12509229695E+03 0.  0.
         23    2    1    2    0    0  0.48631066398E+01 -0.73694949685E+02  0.96967776354E+02  0.15835573975E+03  0.10109003535E+03 0.  0.
          5    1    3    3  502    0  0.33157403078E+01  0.33875766706E+02 -0.25363025552E+02  0.42653454361E+02  0.41800000000E+01 0.  1.
         -5    1    3    3    0  502 -0.81788469476E+01  0.39819182979E+02  0.13028323927E+03  0.13654177274E+03  0.41800000000E+01 0.  1.
        -11    1    4    4    0    0  0.39329268911E+02 -0.76678870684E+02  0.86761460507E+02  0.12228651451E+03  0.00000000000E+00 0. -1.
         11    1    4    4    0    0 -0.34466162271E+02  0.29839209982E+01  0.10206315847E+02  0.36069225240E+02  0.00000000000E+00 0.  1.
</event>
<event>
 8    1  0.6860461E-009  0.1618549E+03  0.7561462E-02  0.1186618E+00
          2   -1    0    0  501    0  0.00000000000E+00  0.00000000000E+00  0.13644237227E+04  0.13644237227E+04  0.00000000000E+00 0. -1.
         -2   -1    0    0    0  501 -0.00000000000E+00 -0.00000000000E+00 -0.25985609692E+02  0.25985609692E+02  0.00000000000E+00 0.  1.
         25    2    1    2    0    0 -0.86912902422E+02  0.10924456830E+03  0.93918648534E+03  0.95770925894E+03  0.12509013586E+03 0.  0.
         23    2    1    2    0    0  0.86912902422E+02 -0.10924456830E+03  0.39925162764E+03  0.43270007343E+03  0.91319565614E+02 0.  0.
          5    1    3    3  502    0 -0.56423992299E+02  0.13142229289E+03  0.82691408723E+03  0.83920192209E+03  0.41800000000E+01 0. -1.
         -5    1    3    3    0  502 -0.30488910123E+02 -0.22177724596E+02  0.11227239811E+03  0.11850733685E+03  0.41800000000E+01 0. -1.
        -11    1    4    4    0    0  0.23674268529E+02 -0.53056545164E+02  0.28314576235E+03  0.28904496313E+03  0.00000000000E+00 0. -1.
         11    1    4    4    0    0  0.63238633894E+02 -0.56188023135E+02  0.11610586529E+03  0.14365511030E+03  0.00000000000E+00 0.  1.
</event>
<event>
 8    1  0.6860461E-009  0.8706097E+02  0.7561462E-02  0.1310129E+00
          1   -1    0    0  501    0  0.00000000000E+00  0.00000000000E+00  0.14530268093E+03  0.14530268093E+03  0.00000000000E+00 0. -1.
         -1   -1    0    0    0  501 -0.00000000000E+00 -0.00000000000E+00 -0.15429906066E+03  0.15429906066E+03  0.00000000000E+00 0.  1.
         25    2    1    2    0    0 -0.69765245852E+02  0.29632489537E+02  0.64512672886E+02  0.15985907428E+03  0.12509102567E+03 0.  0.
         23    2    1    2    0    0  0.69765245852E+02 -0.29632489537E+02 -0.73509052613E+02  0.13974266731E+03  0.91537742418E+02 0.  0.
          5    1    3    3  502    0 -0.51083400649E+01  0.29251937418E+02  0.86410346925E+02  0.91465793806E+02  0.41800000000E+01 0. -1.
         -5    1    3    3    0  502 -0.64656905788E+02  0.38055211911E+00 -0.21897674039E+02  0.68393280476E+02  0.41800000000E+01 0. -1.
        -11    1    4    4    0    0  0.63001160909E+02 -0.17394000319E+02 -0.45236941314E+00  0.65359790093E+02  0.00000000000E+00 0. -1.
         11    1    4    4    0    0  0.67640849437E+01 -0.12238489218E+02 -0.73056683200E+02  0.74382877220E+02  0.00000000000E+00 0.  1.
</event>
<event>
 8    1  0.6860461E-009  0.8072586E+02  0.7561462E-02  0.1327004E+00
         -1   -1    0    0    0  501 -0.00000000000E+00  0.00000000000E+00  0.51974149487E+02  0.51974149487E+02  0.00000000000E+00 0.  1.
          1   -1    0    0  501    0  0.00000000000E+00 -0.00000000000E+00 -0.35768004572E+03  0.35768004572E+03  0.00000000000E+00 0. -1.
         25    2    1    2    0    0 -0.51011888194E+02  0.17430177349E+02 -0.26199441856E+03  0.29528776381E+03  0.12509102397E+03 0.  0.
         23    2    1    2    0    0  0.51011888194E+02 -0.17430177349E+02 -0.43711477673E+02  0.11436643140E+03  0.90900844505E+02 0.  0.
          5    1    3    3  502    0 -0.18697341617E+02  0.53314668698E+02 -0.23078924883E+03  0.23764089349E+03  0.41800000000E+01 0.  1.
         -5    1    3    3    0  502 -0.32314546577E+02 -0.35884491349E+02 -0.31205169736E+02  0.57646870324E+02  0.41800000000E+01 0.  1.
        -11    1    4    4    0    0  0.59461130240E+01 -0.85209919496E+01  0.27627201934E+02  0.29516535207E+02  0.00000000000E+00 0.  1.
         11    1    4    4    0    0  0.45065775170E+02 -0.89091853990E+01 -0.71338679607E+02  0.84849896195E+02  0.00000000000E+00 0. -1.
</event>
<event>
 8    1  0.6860461E-009  0.3540766E+03  0.7561462E-02  0.1060954E+00
          2   -1    0    0  501    0  0.00000000000E+00  0.00000000000E+00  0.34642055090E+03  0.34642055090E+03  0.00000000000E+00 0.  1.
         -2   -1    0    0    0  501 -0.00000000000E+00 -0.00000000000E+00 -0.37727280548E+03  0.37727280548E+03  0.00000000000E+00 0. -1.
         25    2    1    2    0    0 -0.23240533199E+03  0.25368646385E+03 -0.18319008539E+01  0.36608772688E+03  0.12509119727E+03 0.  0.
         23    2    1    2    0    0  0.23240533199E+03 -0.25368646385E+03 -0.29020353726E+02  0.35760562949E+03  0.93115761484E+02 0.  0.
          5    1    3    3  502    0 -0.24228496135E+03  0.22639263065E+03 -0.18892984755E+02  0.33215966489E+03  0.41800000000E+01 0.  1.
         -5    1    3    3    0  502  0.98796293515E+01  0.27293833193E+02  0.17061083901E+02  0.33928061989E+02  0.41800000000E+01 0.  1.
        -11    1    4    4    0    0  0.16054415988E+03 -0.20509134883E+03  0.13886114761E+02  0.26082506172E+03  0.00000000000E+00 0.  1.
         11    1    4    4    0    0  0.71861172113E+02 -0.48595115016E+02 -0.42906468487E+02  0.96780567775E+02  0.00000000000E+00 0. -1.
</event>
<event>
 8    1  0.6860461E-009  0.7823521E+02  0.7561462E-02  0.1334136E+00
          2   -1    0    0  501    0  0.00000000000E+00  0.00000000000E+00  0.29005067841E+02  0.29005067841E+02  0.00000000000E+00 0. -1.
         -2   -1    0    0    0  501 -0.00000000000E+00 -0.00000000000E+00 -0.53888790775E+03  0.53888790775E+03  0.00000000000E+00 0.  1.
         25    2    1    2    0    0 -0.45249960027E+02 -0.31513056671E+02 -0.31805062439E+03  0.34618596976E+03  0.12509154393E+03 0.  0.
         23    2    1    2    0    0  0.45249960027E+02  0.31513056671E+02 -0.19183221552E+03  0.22170700583E+03  0.96507854083E+02 0.  0.
          5    1    3    3  502    0 -0.39113564151E+02 -0.11913432463E+02 -0.17115785302E+02  0.44522166166E+02  0.41800000000E+01 0.  1.
         -5    1    3    3    0  502 -0.61363958763E+01 -0.19599624208E+02 -0.30093483908E+03  0.30166380359E+03  0.41800000000E+01 0.  1.
        -11    1    4    4    0    0 -0.17658680649E+02  0.25771122748E+02 -0.12854998076E+03  0.13229163739E+03  0.00000000000E+00 0.  1.
         11    1    4    4    0    0  0.62908640676E+02  0.57419339224E+01 -0.63282234758E+02  0.89415368438E+02  0.00000000000E+00 0. -1.
</event>
<event>
 8    1  0.6860461E-009  0.1246692E+03  0.7561462E-02  0.1235587E+00
         -1   -1    0    0    0  501 -0.00000000000E+00  0.00000000000E+00  0.46179801195E+02  0.46179801195E+02  0.00000000000E+00 0.  1.
          1   -1    0    0  501    0  0.00000000000E+00 -0.00000000000E+00 -0.53918413161E+03  0.53918413161E+03  0.00000000000E+00 0. -1.
         25    2    1    2    0    0  0.19078182128E+02  0.89879394216E+02 -0.39024457786E+03  0.41997665801E+03  0.12508908898E+03 0.  0.
         23    2    1    2    0    0 -0.19078182128E+02 -0.89879394216E+02 -0.10275975256E+03  0.16538727480E+03  0.91384360711E+02 0.  0.
          5    1    3    3  502    0 -0.45790105265E+02  0.53269771510E+02 -0.11518514385E+03  0.13497959868E+03  0.41800000000E+01 0.  1.
         -5    1    3    3    0  502  0.64868287393E+02  0.36609622706E+02 -0.27505943401E+03  0.28499705933E+03  0.41800000000E+01 0.  1.
        -11    1    4    4    0    0 -0.20158520622E+02 -0.67930403444E+01  0.11442553800E+02  0.24154572823E+02  0.00000000000E+00 0.  1.
         11    1    4    4    0    0  0.10803384934E+01 -0.83086353872E+02 -0.11420230636E+03  0.14123270198E+03  0.00000000000E+00 0. -1.
</event>
<event>
 8    1  0.6860461E-009  0.1116916E+03  0.7561462E-02  0.1257469E+00
         -1   -1    0    0    0  501 -0.00000000000E+00  0.00000000000E+00  0.27980579822E+03  0.27980579822E+03  0.00000000000E+00 0.  1.
          1   -1    0    0  501    0  0.00000000000E+00 -0.00000000000E+00 -0.50901322977E+02  0.50901322977E+02  0.00000000000E+00 0. -1.
         25    2    1    2    0    0  0.27026235791E+02 -0.41594256165E+02  0.14503789497E+03  0.19784818176E+03  0.12508961780E+03 0.  0.
         23    2    1    2    0    0 -0.27026235791E+02  0.41594256165E+02  0.83866580273E+02  0.13285893944E+03  0.90318297896E+02 0.  0.
          5    1    3    3  502    0  0.49779440737E+02 -0.77287114482E+02  0.10002321699E+03  0.13591691257E+03  0.41800000000E+01 0. -1.
         -5    1    3    3    0  502 -0.22753204946E+02  0.35692858317E+02  0.45014677989E+02  0.61931269199E+02  0.41800000000E+01 0. -1.
        -11    1    4    4    0    0 -0.38979810618E+02 -0.62770057449E+01  0.49555194806E+01  0.39791753043E+02  0.00000000000E+00 0. -1.
         11    1    4    4    0    0  0.11953574827E+02  0.47871261910E+02  0.78911060792E+02  0.93067186394E+02  0.00000000000E+00 0.  1.
</event>
<event>
 8    1  0.6860461E-009  0.1726388E+03  0.7561462E-02  0.1175124E+00
          2   -1    0    0  501    0  0.00000000000E+00  0.00000000000E+00  0.62488964961E+03  0.62488964961E+03  0.00000000000E+00 0. -1.
         -2   -1    0    0    0  501 -0.00000000000E+00 -0.00000000000E+00 -0.55184257537E+02  0.55184257537E+02  0.00000000000E+00 0.  1.
         25    2    1    2    0    0 -0.10144089989E+03 -0.10788211244E+03  0.34577004050E+03  0.39639933450E+03  0.12508679040E+03 0.  0.
         23    2    1    2    0    0  0.10144089989E+03  0.10788211244E+03  0.22393535158E+03  0.28367457265E+03  0.91626497952E+02 0.  0.
          5    1    3    3  502    0 -0.12711404378E+03 -0.62934790423E+02  0.25496541051E+03  0.29179376438E+03  0.41800000000E+01 0. -1.
         -5    1    3    3    0  502  0.25673143897E+02 -0.44947322014E+02  0.90804629990E+02  0.10460557013E+03  0.41800000000E+01 0. -1.
        -11    1    4    4    0    0  0.63101767601E+02  0.43954498987E+02  0.43279085973E+02  0.88243471930E+02  0.00000000000E+00 0.  1.
         11    1    4    4    0    0  0.38339132287E+02  0.63927613450E+02  0.18065626560E+03  0.19543110072E+03  0.00000000000E+00 0. -1.
</event>
<event>
 8    1  0.6860461E-009  0.1269157E+03  0.7561462E-02  0.1232105E+00
         -2   -1    0    0    0  501 -0.00000000000E+00  0.00000000000E+00  0.19839434332E+03  0.19839434332E+03  0.00000000000E+00 0.  1.
          2   -1    0    0  501    0  0.00000000000E+00 -0.00000000000E+00 -0.11899783172E+03  0.11899783172E+03  0.00000000000E+00 0. -1.
         25    2    1    2    0    0 -0.71896631104E+02  0.77256788479E+02  0.22315477047E+02  0.16517579467E+03  0.12508927092E+03 0.  0.
         23    2    1    2    0    0  0.71896631104E+02 -0.77256788479E+02  0.57081034550E+02  0.15221638037E+03  0.93668804937E+02 0.  0.
          5    1    3    3  502    0 -0.55190509434E+02  0.78419168670E+02 -0.37401755354E+02  0.10301418373E+03  0.41800000000E+01 0. -1.
         -5    1    3    3    0  502 -0.16706121670E+02 -0.11623801913E+01  0.59717232401E+02  0.62161610939E+02  0.41800000000E+01 0. -1.
        -11    1    4    4    0    0 -0.22768365259E+02 -0.13890046835E+02  0.58200957525E+01  0.27298449997E+02  0.00000000000E+00 0.  1.
         11    1    4    4    0    0  0.94664996363E+02 -0.63366741644E+02  0.51260938797E+02  0.12491793038E+03  0.00000000000E+00 0. -1.
</event>
<event>
 8    1  0.6860461E-009  0.1044608E+03  0.7561462E-02  0.1271186E+00
         -2   -1    0    0    0  501 -0.00000000000E+00  0.00000000000E+00  0.36509901380E+03  0.36509901380E+03  0.00000000000E+00 0.  1.
          2   -1    0    0  501    0  0.00000000000E+00 -0.00000000000E+00 -0.52495275196E+02  0.52495275196E+02  0.00000000000E+00 0. -1.
         25    2    1    2    0    0  0.10939331749E+02  0.83750848229E+02  0.17809054886E+03  0.23344716858E+03  0.12508982119E+03 0.  0.
         23    2    1    2    0    0 -0.10939331749E+02 -0.83750848229E+02  0.13451318975E+03  0.18414712042E+03  0.93179880800E+02 0.  0.
          5    1    3    3  502    0 -0.54167576333E+01  0.66286515223E+02  0.19351922988E+03  0.20467146380E+03  0.41800000000E+01 0. -1.
         -5    1    3    3    0  502  0.16356089382E+02  0.17464333006E+02 -0.15428681017E+02  0.28775704772E+02  0.41800000000E+01 0. -1.
        -11    1    4    4    0    0  0.19184346887E+02 -0.85685998747E+02  0.12448878842E+03  0.15234036887E+03  0.00000000000E+00 0.  1.
         11    1    4    4    0    0 -0.30123678636E+02  0.19351505181E+01  0.10024401328E+02  0.31806751549E+02  0.00000000000E+00 0. -1.
</event>
<event>
 8    1  0.6860461E-009  0.1123821E+03  0.7561462E-02  0.1256221E+00
         -4   -1    0    0    0  501 -0.00000000000E+00  0.00000000000E+00  0.30485823316E+03  0.30485823316E+03  0.00000000000E+00 0.  1.
          4   -1    0    0  501    0  0.00000000000E+00 -0.00000000000E+00 -0.67109169932E+02  0.67109169932E+02  0.00000000000E+00 0. -1.
         25    2    1    2    0    0  0.14242195038E+02 -0.72832128983E+02  0.19890395192E+03  0.24640845064E+03  0.12508790239E+03 0.  0.
         23    2    1    2    0    0 -0.14242195038E+02  0.72832128983E+02  0.38845111301E+02  0.12555895245E+03  0.93534746144E+02 0.  0.
          5    1    3    3  502    0 -0.46095250570E+02 -0.69752610584E+02  0.99737514819E+02  0.13021230000E+03  0.41800000000E+01 0.  1.
         -5    1    3    3    0  502  0.60337445607E+02 -0.30795183987E+01  0.99166437104E+02  0.11619615064E+03  0.41800000000E+01 0.  1.
        -11    1    4    4    0    0 -0.17941541623E+02  0.17588962850E+02 -0.28750800753E+02  0.38182182676E+02  0.00000000000E+00 0. -1.
         11    1    4    4    0    0  0.36993465851E+01  0.55243166133E+02  0.67595912054E+02  0.87376769773E+02  0.00000000000E+00 0.  1.
</event>
<event>
 8    1  0.6860461E-009  0.1071649E+03  0.7561462E-02  0.1265912E+00
          2   -1    0    0  501    0  0.00000000000E+00  0.00000000000E+00  0.13168432974E+03  0.13168432974E+03  0.00000000000E+00 0. -1.
         -2   -1    0    0    0  501 -0.00000000000E+00 -0.00000000000E+00 -0.10927285183E+03  0.10927285183E+03  0.00000000000E+00 0.  1.
         25    2    1    2    0    0  0.39052726479E+02  0.81248204573E+01 -0.22841662740E+02  0.13326735958E+03  0.12508924582E+03 0.  0.
         23    2    1    2    0    0 -0.39052726479E+02 -0.81248204573E+01  0.45253140644E+02  0.10768982199E+03  0.89208311663E+02 0.  0.
          5    1    3    3  502    0 -0.16216962501E+02 -0.41848654355E+02  0.17594279217E+02  0.48387300041E+02  0.41800000000E+01 0. -1.
         -5    1    3    3    0  502  0.55269688979E+02  0.49973474813E+02 -0.40435941957E+02  0.84880059535E+02  0.41800000000E+01 0. -1.
        -11    1    4    4    0    0  0.27583279039E+02 -0.89050163234E+00  0.14847509176E+01  0.27637560691E+02  0.00000000000E+00 0.  1.
         11    1    4    4    0    0 -0.66636005517E+02 -0.72343188249E+01  0.43768389727E+02  0.80052261301E+02  0.00000000000E+00 0. -1.
</event>
<event>
 8    1  0.6860461E-009  0.1117365E+03  0.7561462E-02  0.1257388E+00
         -2   -1    0    0    0  501 -0.00000000000E+00  0.00000000000E+00  0.47341242102E+02  0.47341242102E+02  0.00000000000E+00 0.  1.
          2   -1    0    0  501    0  0.00000000000E+00 -0.00000000000E+00 -0.80608773482E+03  0.80608773482E+03  0.00000000000E+00 0. -1.
         25    2    1    2    0    0  0.55606781328E+02  0.40282624459E+02 -0.72041432626E+03  0.73440802054E+03  0.12507411878E+03 0.  0.
         23    2    1    2    0    0 -0.55606781328E+02 -0.40282624459E+02 -0.38332166462E+02  0.11902095639E+03  0.89341082994E+02 0.  0.
          5    1    3    3  502    0 -0.27152032518E+02  0.96460793795E+01 -0.47460929876E+02  0.55680265642E+02  0.41800000000E+01 0. -1.
         -5    1    3    3    0  502  0.82758813846E+02  0.30636545079E+02 -0.67295339638E+03  0.67872775489E+03  0.41800000000E+01 0. -1.
        -11    1    4    4    0    0  0.13460500499E+02 -0.34107535694E+02  0.53656256005E+01  0.37058049097E+02  0.00000000000E+00 0.  1.
         11    1    4    4    0    0 -0.69067281827E+02 -0.61750887650E+01 -0.43697792062E+02  0.81962907289E+02  0.00000000000E+00 0. -1.
</event>
<event>
 8    1  0.6860461E-009  0.9447631E+02  0.7561462E-02  0.1292360E+00
          2   -1    0    0  501    0  0.00000000000E+00  0.00000000000E+00  0.77139290831E+02  0.77139290831E+02  0.00000000000E+00 0. -1.
         -2   -1    0    0    0  501 -0.00000000000E+00 -0.00000000000E+00 -0.20035589724E+03  0.20035589724E+03  0.00000000000E+00 0.  1.
         25    2    1    2    0    0  0.48639166076E+02  0.14973496853E+02 -0.32258436535E+02  0.13884671319E+03  0.12509128248E+03 0.  0.
         23    2    1    2    0    0 -0.48639166076E+02 -0.14973496853E+02 -0.90958169877E+02  0.13864847488E+03  0.91433237035E+02 0.  0.
          5    1    3    3  502    0 -0.17691532624E+02 -0.13137507635E+02 -0.58035094799E+02  0.62218398098E+02  0.41800000000E+01 0.  1.
         -5    1    3    3    0  502  0.66330698700E+02  0.28111004488E+02  0.25776658264E+02  0.76628315097E+02  0.41800000000E+01 0.  1.
        -11    1    4    4    0    0 -0.77478681003E+00 -0.40232900858E+02 -0.69740776281E+02  0.80517466939E+02  0.00000000000E+00 0.  1.
         11    1    4    4    0    0 -0.47864379266E+02  0.25259404005E+02 -0.21217393596E+02  0.58131007941E+02  0.00000000000E+00 0. -1.
</event>
<event>
 8    1  0.6860461E-009  0.1889753E+03  0.7561462E-02  0.1159389E+00
         -2   -1    0    0    0  501 -0.00000000000E+00  0.00000000000E+00  0.24745737515E+03  0.24745737515E+03  0.00000000000E+00 0.  1.
          2   -1    0    0  501    0  0.00000000000E+00 -0.00000000000E+00 -0.18565403268E+03  0.18565403268E+03  0.00000000000E+00 0. -1.
         25    2    1    2    0    0 -0.12139915845E+03  0.97725123780E+02  0.13180163604E+03  0.23939340458E+03  0.12509826298E+03 0.  0.
         23    2    1    2    0    0  0.12139915845E+03 -0.97725123780E+02 -0.69998293572E+02  0.19371800324E+03  0.91317841557E+02 0.  0.
          5    1    3    3  502    0 -0.68043997774E+02 -0.17898987409E+02  0.31316743240E+02  0.77126974467E+02  0.41800000000E+01 0. -1.
         -5    1    3    3    0  502 -0.53355160680E+02  0.11562411119E+03  0.10048489280E+03  0.16226643011E+03  0.41800000000E+01 0. -1.
        -11    1    4    4    0    0  0.13613647314E+03 -0.91680541679E+02 -0.59224551825E+02  0.17448784651E+03  0.00000000000E+00 0.  1.
         11    1    4    4    0    0 -0.14737314682E+02 -0.60445821012E+01 -0.10773741746E+02  0.19230156735E+02  0.00000000000E+00 0. -1.
</event>
<event>
 8    1  0.6860461E-009  0.2691169E+03  0.7561462E-02  0.1101786E+00
         -1   -1    0    0    0  501 -0.00000000000E+00  0.00000000000E+00  0.19124240911E+03  0.19124240911E+03  0.00000000000E+00 0.  1.
          1   -1    0    0  501    0  0.00000000000E+00 -0.00000000000E+00 -0.66204427265E+03  0.66204427265E+03  0.00000000000E+00 0. -1.
         25    2    1    2    0    0 -0.26050825443E+03 -0.43254188039E+02  0.15264405042E+02  0.29260200424E+03  0.12508978941E+03 0.  0.
         23    2    1    2    0    0  0.26050825443E+03  0.43254188039E+02 -0.48606626858E+03  0.56068467752E+03  0.91495435663E+02 0.  0.
          5    1    3    3  502    0 -0.98408610048E+01 -0.55713397666E+01  0.36263705656E+02  0.38215325722E+02  0.41800000000E+01 0. -1.
         -5    1    3    3    0  502 -0.25066739343E+03 -0.37682848272E+02 -0.20999300615E+02  0.25438667852E+03  0.41800000000E+01 0. -1.
        -11    1    4    4    0    0  0.20115957323E+03  0.61870204722E+02 -0.42098268015E+03  0.47065859508E+03  0.00000000000E+00 0.  1.
         11    1    4    4    0    0  0.59348681200E+02 -0.18616016683E+02 -0.65083588432E+02  0.90026082446E+02  0.00000000000E+00 0. -1.
</event>
<event>
 8    1  0.6860461E-009  0.8516647E+02  0.7561462E-02  0.1314998E+00
         -1   -1    0    0    0  501 -0.00000000000E+00  0.00000000000E+00  0.14895814055E+03  0.14895814055E+03  0.00000000000E+00 0.  1.
          1   -1    0    0  501    0  0.00000000000E+00 -0.00000000000E+00 -0.12679978967E+03  0.12679978967E+03  0.00000000000E+00 0. -1.
         25    2    1    2    0    0  0.36623446027E+02 -0.54325990711E+02 -0.44404326241E+02  0.14802390425E+03  0.12508693767E+03 0.  0.
         23    2    1    2    0    0 -0.36623446027E+02  0.54325990711E+02  0.66562677114E+02  0.12773402597E+03  0.87136681943E+02 0.  0.
          5    1    3    3  502    0  0.26837199448E+02 -0.69170700889E+02  0.23315686597E+02  0.77883982802E+02  0.41800000000E+01 0. -1.
         -5    1    3    3    0  502  0.97862465788E+01  0.14844710177E+02 -0.67720012837E+02  0.70139921450E+02  0.41800000000E+01 0. -1.
        -11    1    4    4    0    0 -0.29226882681E+02  0.61097192270E+02  0.78617531589E+01  0.68182730491E+02  0.00000000000E+00 0. -1.
         11    1    4    4    0    0 -0.73965633453E+01 -0.67712015583E+01  0.58700923955E+02  0.59551295478E+02  0.00000000000E+00 0.  1.
</event>
<event>
 8    1  0.6860461E-009  0.1094001E+03  0.7561462E-02  0.1261685E+00
         -3   -1    0    0    0  501 -0.00000000000E+00  0.00000000000E+00  0.35612954372E+02  0.35612954372E+02  0.00000000000E+00 0.  1.
          3   -1    0    0  501    0  0.00000000000E+00 -0.00000000000E+00 -0.46914083090E+03  0.46914083090E+03  0.00000000000E+00 0. -1.
         25    2    1    2    0    0 -0.33850835523E+02  0.63258277539E+02 -0.22309614543E+03  0.26564087128E+03  0.12508274719E+03 0.  0.
         23    2    1    2    0    0  0.33850835523E+02 -0.63258277539E+02 -0.21043173110E+03  0.23911291400E+03  0.88011268840E+02 0.  0.
          5    1    3    3  502    0 -0.65308416042E+02  0.78160890222E+02 -0.12398656164E+03  0.16051309552E+03  0.41800000000E+01 0. -1.
         -5    1    3    3    0  502  0.31457580519E+02 -0.14902612683E+02 -0.99109583787E+02  0.10512777576E+03  0.41800000000E+01 0. -1.
        -11    1    4    4    0    0 -0.69278951797E+00 -0.40340474122E+02 -0.18739151095E+03  0.19168571200E+03  0.00000000000E+00 0. -1.
         11    1    4    4    0    0  0.34543625041E+02 -0.22917803417E+02 -0.23040220152E+02  0.47427201995E+02  0.00000000000E+00 0.  1.
</event>
<event>
 8    1  0.6860461E-009  0.7795675E+02  0.7561462E-02  0.1334952E+00
         -1   -1    0    0    0  501 -0.00000000000E+00  0.00000000000E+00  0.20401579882E+03  0.20401579882E+03  0.00000000000E+00 0.  1.
          1   -1    0    0  501    0  0.00000000000E+00 -0.00000000000E+00 -0.56624187467E+02  0.56624187467E+02  0.00000000000E+00 0. -1.
         25    2    1    2    0    0  0.27181523421E+01 -0.31891779079E+01  0.82997176087E+02  0.15018552300E+03  0.12509836479E+03 0.  0.
         23    2    1    2    0    0 -0.27181523421E+01  0.31891779079E+01  0.64394435261E+02  0.11045446328E+03  0.89643661002E+02 0.  0.
          5    1    3    3  502    0  0.19665654923E+02  0.42893049582E+02  0.88722272903E+02  0.10057666626E+03  0.41800000000E+01 0.  1.
         -5    1    3    3    0  502 -0.16947502581E+02 -0.46082227490E+02 -0.57250968159E+01  0.49608856747E+02  0.41800000000E+01 0.  1.
        -11    1    4    4    0    0  0.28230404784E+02  0.14559160259E+01  0.73002495017E+02  0.78284351721E+02  0.00000000000E+00 0.  1.
         11    1    4    4    0    0 -0.30948557126E+02  0.17332618820E+01 -0.86080597553E+01  0.32170111558E+02  0.00000000000E+00 0. -1.
</event>
<event>
 8    1  0.6860461E-009  0.1128048E+03  0.7561462E-02  0.1255462E+00
         -3   -1    0    0    0  501 -0.00000000000E+00  0.00000000000E+00  0.15914623804E+03  0.15914623804E+03  0.00000000000E+00 0.  1.
          3   -1    0    0  501    0  0.00000000000E+00 -0.00000000000E+00 -0.16333592245E+03  0.16333592245E+03  0.00000000000E+00 0. -1.
         25    2    1    2    0    0  0.97110642179E+02 -0.39122353733E+02 -0.58720286716E+02  0.17336859565E+03  0.12509021744E+03 0.  0.
         23    2    1    2    0    0 -0.97110642179E+02  0.39122353733E+02  0.54530602304E+02  0.14911356484E+03  0.91105615885E+02 0.  0.
          5    1    3    3  502    0 -0.10165328873E+01  0.82988450885E+01 -0.63514078093E+02  0.64198245186E+02  0.41800000000E+01 0.  1.
         -5    1    3    3    0  502  0.98127175067E+02 -0.47421198821E+02  0.47937913769E+01  0.10917035046E+03  0.41800000000E+01 0.  1.
        -11    1    4    4    0    0 -0.17113267029E+02 -0.20335277242E+01  0.56560171350E+02  0.59127422797E+02  0.00000000000E+00 0.  1.
         11    1    4    4    0    0 -0.79997375151E+02  0.41155881457E+02 -0.20295690461E+01  0.89986142044E+02  0.00000000000E+00 0. -1.
</event>
<event>
 8    1  0.6860461E-009  0.1121481E+03  0.7561462E-02  0.1256643E+00
         -1   -1    0    0    0  501 -0.00000000000E+00  0.00000000000E+00  0.12688074218E+02  0.12688074218E+02  0.00000000000E+00 0.  1.
          1   -1    0    0  501    0  0.00000000000E+00 -0.00000000000E+00 -0.12051065450E+04  0.12051065450E+04  0.00000000000E+00 0. -1.
         25    2    1    2    0    0  0.41414198408E+02  0.86925330466E+01 -0.86673116931E+03  0.87673293870E+03  0.12508808890E+03 0.  0.
         23    2    1    2    0    0 -0.41414198408E+02 -0.86925330466E+01 -0.32568730147E+03  0.34106168052E+03  0.91979104253E+02 0.  0.
          5    1    3    3  502    0  0.37634109158E+02 -0.52482594808E+02 -0.31411300925E+03  0.32071046742E+03  0.41800000000E+01 0. -1.
         -5    1    3    3    0  502  0.37800892498E+01  0.61175127854E+02 -0.55261816006E+03  0.55602247128E+03  0.41800000000E+01 0. -1.
        -11    1    4    4    0    0 -0.22980996652E+02  0.39971752883E+02 -0.11178623331E+03  0.12092158282E+03  0.00000000000E+00 0.  1.
         11    1    4    4    0    0 -0.18433201756E+02 -0.48664285929E+02 -0.21390106817E+03  0.22014009770E+03  0.00000000000E+00 0. -1.
</event>
<event>
 8    1  0.6860461E-009  0.1163837E+03  0.7561462E-02  0.1249185E+00
          2   -1    0    0  501    0  0.00000000000E+00  0.00000000000E+00  0.51306215604E+02  0.51306215604E+02  0.00000000000E+00 0. -1.
         -2   -1    0    0    0  501 -0.00000000000E+00 -0.00000000000E+00 -0.36965613480E+03  0.36965613480E+03  0.00000000000E+00 0.  1.
         25    2    1    2    0    0  0.51508527590E+02 -0.64788851164E+02 -0.19158405615E+03  0.24331546535E+03  0.12508893419E+03 0.  0.
         23    2    1    2    0    0 -0.51508527590E+02  0.64788851164E+02 -0.12676586305E+03  0.17764688506E+03  0.92941422875E+02 0.  0.
          5    1    3    3  502    0  0.88282925749E+02 -0.69789799119E+02 -0.14169527995E+03  0.18099589995E+03  0.41800000000E+01 0. -1.
         -5    1    3    3    0  502 -0.36774398159E+02  0.50009479556E+01 -0.49888776194E+02  0.62319565391E+02  0.41800000000E+01 0. -1.
        -11    1    4    4    0    0 -0.18179583260E+02  0.21002281572E+02 -0.11884941280E+03  0.12205234943E+03  0.00000000000E+00 0.  1.
         11    1    4    4    0    0 -0.33328944330E+02  0.43786569592E+02 -0.79164502490E+01  0.55594535625E+02  0.00000000000E+00 0. -1.
</event>
<event>
 8    1  0.6860461E-009  0.1226505E+03  0.7561462E-02  0.1238788E+00
         -1   -1    0    0    0  501 -0.00000000000E+00  0.00000000000E+00  0.22581551298E+03  0.22581551298E+03  0.00000000000E+00 0.  1.
          1   -1    0    0  501    0  0.00000000000E+00 -0.00000000000E+00 -0.70227872799E+02  0.70227872799E+02  0.00000000000E+00 0. -1.
         25    2    1    2    0    0 -0.14637913439E+02 -0.58732509360E+02  0.95333006831E+02  0.16852034675E+03  0.12508776483E+03 0.  0.
         23    2    1    2    0    0  0.14637913439E+02  0.58732509360E+02  0.60254633355E+02  0.12752303904E+03  0.94698091209E+02 0.  0.
          5    1    3    3  502    0  0.39243659143E+02  0.15209798838E+02  0.52485360827E+02  0.67406144117E+02  0.41800000000E+01 0. -1.
         -5    1    3    3    0  502 -0.53881572582E+02 -0.73942308198E+02  0.42847646004E+02  0.10111420263E+03  0.41800000000E+01 0. -1.
        -11    1    4    4    0    0  0.54577529611E+02  0.30651665292E+02  0.42087476269E+02  0.75429350934E+02  0.00000000000E+00 0.  1.
         11    1    4    4    0    0 -0.39939616172E+02  0.28080844068E+02  0.18167157086E+02  0.52093688102E+02  0.00000000000E+00 0. -1.
</event>
<event>
 8    1  0.6860461E-009  0.1078062E+03  0.7561462E-02  0.1264687E+00
          2   -1    0    0  501    0  0.00000000000E+00  0.00000000000E+00  0.43456525119E+03  0.43456525119E+03  0.00000000000E+00 0. -1.
         -2   -1    0    0    0  501 -0.00000000000E+00 -0.00000000000E+00 -0.35617078353E+02  0.35617078353E+02  0.00000000000E+00 0.  1.
         25    2    1    2    0    0 -0.38219226100E+02  0.32472581982E+02  0.28845142072E+03  0.31838106198E+03  0.12508837153E+03 0.  0.
         23    2    1    2    0    0  0.38219226100E+02 -0.32472581982E+02  0.11049675212E+03  0.15180126756E+03  0.91208085055E+02 0.  0.
          5    1    3    3  502    0  0.37841461695E+00  0.71754547333E+02  0.10852748193E+03  0.13017121416E+03  0.41800000000E+01 0.  1.
         -5    1    3    3    0  502 -0.38597640717E+02 -0.39281965351E+02  0.17992393879E+03  0.18820984783E+03  0.41800000000E+01 0.  1.
        -11    1    4    4    0    0 -0.19021761144E+02 -0.24026450398E+02  0.81521151982E+02  0.87090733928E+02  0.00000000000E+00 0. -1.
         11    1    4    4    0    0  0.57240987244E+02 -0.84461315838E+01  0.28975600138E+02  0.64710533631E+02  0.00000000000E+00 0.  1.
</event>
<event>
 8    1  0.6860461E-009  0.1191889E+03  0.7561462E-02  0.1244441E+00
         -2   -1    0    0    0  501 -0.00000000000E+00  0.00000000000E+00  0.18708408151E+03  0.18708408151E+03  0.00000000000E+00 0.  1.
          2   -1    0    0  501    0  0.00000000000E+00 -0.00000000000E+00 -0.10593188757E+03  0.10593188757E+03  0.00000000000E+00 0. -1.
         25    2    1    2    0    0  0.54399602119E+02  0.39474602676E+02 -0.17473816401E+02  0.14307489683E+03  0.12509009104E+03 0.  0.
         23    2    1    2    0    0 -0.54399602119E+02 -0.39474602676E+02  0.98626010340E+02  0.14994107225E+03  0.90761634316E+02 0.  0.
          5    1    3    3  502    0  0.37029571657E+02 -0.37821492175E+02  0.18147048188E+02  0.56110981148E+02  0.41800000000E+01 0. -1.
         -5    1    3    3    0  502  0.17370030462E+02  0.77296094851E+02 -0.35620864589E+02  0.86963915686E+02  0.41800000000E+01 0. -1.
        -11    1    4    4    0    0 -0.59197235367E+02 -0.60345384522E+02  0.96699675210E+02  0.12843950052E+03  0.00000000000E+00 0.  1.
         11    1    4    4    0    0  0.47976332479E+01  0.20870781846E+02  0.19263351297E+01  0.21501571726E+02  0.00000000000E+00 0. -1.
</event>
<event>
 8    1  0.6860461E-009  0.1633852E+03  0.7561462E-02  0.1184927E+00
          2   -1    0    0  501    0  0.00000000000E+00  0.00000000000E+00  0.80704504090E+03  0.80704504090E+03  0.00000000000E+00 0. -1.
         -2   -1    0    0    0  501 -0.00000000000E+00 -0.00000000000E+00 -0.50666916808E+02  0.50666916808E+02  0.00000000000E+00 0.  1.
         25    2    1    2    0    0  0.94837141542E+02  0.12128533387E+03  0.55279816207E+03  0.58731397642E+03  0.12509070023E+03 0.  0.
         23    2    1    2    0    0 -0.94837141542E+02 -0.12128533387E+03  0.20357996202E+03  0.27039798128E+03  0.89252740676E+02 0.  0.
          5    1    3    3  502    0 -0.22209793384E+01 -0.75750600894E+01  0.19039016579E+03  0.19059958529E+03  0.41800000000E+01 0.  1.
         -5    1    3    3    0  502  0.97058120881E+02  0.12886039396E+03  0.36240799629E+03  0.39671439113E+03  0.41800000000E+01 0.  1.
        -11    1    4    4    0    0 -0.50827067968E+02 -0.86645550965E+02  0.18651980687E+03  0.21185013735E+03  0.00000000000E+00 0. -1.
         11    1    4    4    0    0 -0.44010073574E+02 -0.34639782906E+02  0.17060155152E+02  0.58547843936E+02  0.00000000000E+00 0.  1.
</event>
<event>
 8    1  0.6860461E-009  0.1087760E+03  0.7561462E-02  0.1262853E+00
          3   -1    0    0  501    0  0.00000000000E+00  0.00000000000E+00  0.23727386565E+03  0.23727386565E+03  0.00000000000E+00 0. -1.
         -3   -1    0    0    0  501 -0.00000000000E+00 -0.00000000000E+00 -0.96963781809E+02  0.96963781809E+02  0.00000000000E+00 0.  1.
         25    2    1    2    0    0 -0.84489998779E+02 -0.62681093357E+02  0.79320371683E+02  0.18167745247E+03  0.12508995170E+03 0.  0.
         23    2    1    2    0    0  0.84489998779E+02  0.62681093357E+02  0.60989712161E+02  0.15256019499E+03  0.92127025062E+02 0.  0.
          5    1    3    3  502    0 -0.32096468463E+02 -0.47625915689E+02 -0.25869196903E+02  0.63127639599E+02  0.41800000000E+01 0.  1.
         -5    1    3    3    0  502 -0.52393530316E+02 -0.15055177668E+02  0.10518956859E+03  0.11854981288E+03  0.41800000000E+01 0.  1.
        -11    1    4    4    0    0  0.33684927854E+02  0.22317987613E+02 -0.22945962602E+02  0.46468098039E+02  0.00000000000E+00 0.  1.
         11    1    4    4    0    0  0.50805070925E+02  0.40363105744E+02  0.83935674762E+02  0.10609209695E+03  0.00000000000E+00 0. -1.
</event>
<event>
 8    1  0.6860461E-009  0.1588189E+03  0.7561462E-02  0.1190037E+00
         -1   -1    0    0    0  501 -0.00000000000E+00  0.00000000000E+00  0.15074527194E+02  0.15074527194E+02  0.00000000000E+00 0.  1.
          1   -1    0    0  501    0  0.00000000000E+00 -0.00000000000E+00 -0.21614282234E+04  0.21614282234E+04  0.00000000000E+00 0. -1.
         25    2    1    2    0    0  0.10182471211E+03 -0.63271817557E+02 -0.16246436715E+04  0.16338563160E+04  0.12509119533E+03 0.  0.
         23    2    1    2    0    0 -0.10182471211E+03  0.63271817557E+02 -0.52171002476E+03  0.54264643463E+03  0.88950594082E+02 0.  0.
          5    1    3    3  502    0  0.10740731384E+03 -0.93192773586E+02 -0.12992088991E+04  0.13069745446E+04  0.41800000000E+01 0. -1.
         -5    1    3    3    0  502 -0.55826017288E+01  0.29920956029E+02 -0.32543477234E+03  0.32688177144E+03  0.41800000000E+01 0. -1.
        -11    1    4    4    0    0 -0.73226241326E+02 -0.21444411444E+01 -0.33102365862E+03  0.33903295358E+03  0.00000000000E+00 0. -1.
         11    1    4    4    0    0 -0.28598470787E+02  0.65416258701E+02 -0.19068636614E+03  0.20361348105E+03  0.00000000000E+00 0.  1.
</event>
<event>
 8    1  0.6860461E-009  0.1527686E+03  0.7561462E-02  0.1197112E+00
          1   -1    0    0  501    0  0.00000000000E+00  0.00000000000E+00  0.35828978043E+03  0.35828978043E+03  0.00000000000E+00 0. -1.
         -1   -1    0    0    0  501 -0.00000000000E+00 -0.00000000000E+00 -0.67403606710E+02  0.67403606710E+02  0.00000000000E+00 0.  1.
         25    2    1    2    0    0 -0.18070470229E+02  0.11069339175E+03  0.16079262656E+03  0.23255096513E+03  0.12508442651E+03 0.  0.
         23    2    1    2    0    0  0.18070470229E+02 -0.11069339175E+03  0.13009354716E+03  0.19314242201E+03  0.88318148168E+02 0.  0.
          5    1    3    3  502    0  0.53931683297E+02  0.51722791084E+02  0.71698322125E+02  0.10364359785E+03  0.41800000000E+01 0. -1.
         -5    1    3    3    0  502 -0.72002153525E+02  0.58970600665E+02  0.89094304437E+02  0.12890736728E+03  0.41800000000E+01 0. -1.
        -11    1    4    4    0    0 -0.31675209628E+02 -0.38423042496E+02  0.73349386647E+02  0.88655409430E+02  0.00000000000E+00 0. -1.
         11    1    4    4    0    0  0.49745679856E+02 -0.72270349253E+02  0.56744160509E+02  0.10448701258E+03  0.00000000000E+00 0.  1.
</event>
<event>
 8    1  0.6860461E-009  0.1205893E+03  0.7561462E-02  0.1242128E+00
         -1   -1    0    0    0  501 -0.00000000000E+00  0.00000000000E+00  0.10917182647E+03  0.10917182647E+03  0.00000000000E+00 0.  1.
          1   -1    0    0  501    0  0.00000000000E+00 -0.00000000000E+00 -0.37184221073E+03  0.37184221073E+03  0.00000000000E+00 0. -1.
         25    2    1    2    0    0 -0.64287228003E+02 -0.55727388009E+01 -0.32504592465E+03  0.35421257665E+03  0.12509113968E+03 0.  0.
         23    2    1    2    0    0  0.64287228003E+02  0.55727388009E+01  0.62375540392E+02  0.12680146055E+03  0.89576778553E+02 0.  0.
          5    1    3    3  502    0 -0.47555434256E+02  0.53047899358E+02 -0.11397270676E+03  0.13447248506E+03  0.41800000000E+01 0.  1.
         -5    1    3    3    0  502 -0.16731793747E+02 -0.58620638159E+02 -0.21107321789E+03  0.21974009159E+03  0.41800000000E+01 0.  1.
        -11    1    4    4    0    0  0.68333559290E+02  0.36531663817E+02  0.34020633785E+02  0.84625299465E+02  0.00000000000E+00 0. -1.
         11    1    4    4    0    0 -0.40463312864E+01 -0.30958925016E+02  0.28354906606E+02  0.42176161083E+02  0.00000000000E+00 0.  1.
</event>
<event>
 8    1  0.6860461E-009  0.1555907E+03  0.7561462E-02  0.1193767E+00
          1   -1    0    0  501    0  0.00000000000E+00  0.00000000000E+00  0.70905290827E+03  0.70905290827E+03  0.00000000000E+00 0. -1.
         -1   -1    0    0    0  501 -0.00000000000E+00 -0.00000000000E+00 -0.45897538517E+02  0.45897538517E+02  0.00000000000E+00 0.  1.
         25    2    1    2    0    0  0.96383154669E+02  0.90600759508E+02  0.46225683239E+03  0.49681463855E+03  0.12508075735E+03 0.  0.
         23    2    1    2    0    0 -0.96383154669E+02 -0.90600759508E+02  0.20089853737E+03  0.25813580824E+03  0.93678509018E+02 0.  0.
          5    1    3    3  502    0  0.23107698404E+02  0.69409044286E+02  0.86466011878E+02  0.11333765819E+03  0.41800000000E+01 0.  1.
         -5    1    3    3    0  502  0.73275456265E+02  0.21191715222E+02  0.37579082051E+03  0.38347698036E+03  0.41800000000E+01 0.  1.
        -11    1    4    4    0    0 -0.93941157508E+02 -0.10846139088E+03  0.17102988476E+03  0.22324882052E+03  0.00000000000E+00 0.  1.
         11    1    4    4    0    0 -0.24419971613E+01  0.17860631371E+02  0.29868652611E+02  0.34886987716E+02  0.00000000000E+00 0. -1.
</event>
<event>
 8    1  0.6860461E-009  0.7398926E+02  0.7561462E-02  0.1347030E+00
         -1   -1    0    0    0  501 -0.00000000000E+00  0.00000000000E+00  0.20952834171E+02  0.20952834171E+02  0.00000000000E+00 0.  1.
          1   -1    0    0  501    0  0.00000000000E+00 -0.00000000000E+00 -0.58675590987E+03  0.58675590987E+03  0.00000000000E+00 0. -1.
         25    2    1    2    0    0  0.21118176991E+01  0.21651699858E+02 -0.27278674303E+03  0.30088669723E+03  0.12508773525E+03 0.  0.
         23    2    1    2    0    0 -0.21118176991E+01 -0.21651699858E+02 -0.29301633266E+03  0.30682204682E+03  0.88362556114E+02 0.  0.
          5    1    3    3  502    0 -0.20087370603E+02  0.27811822644E+02 -0.27518792916E+03  0.27734972272E+03  0.41800000000E+01 0. -1.
         -5    1    3    3    0  502  0.22199188303E+02 -0.61601227863E+01  0.24011861276E+01  0.23536974505E+02  0.41800000000E+01 0. -1.
        -11    1    4    4    0    0 -0.14225053639E+02 -0.53799843054E+02 -0.20244248573E+03  0.20995174515E+03  0.00000000000E+00 0.  1.
         11    1    4    4    0    0  0.12113235940E+02  0.32148143196E+02 -0.90573846933E+02  0.96870301662E+02  0.00000000000E+00 0. -1.
</event>
<event>
 8    1  0.6860461E-009  0.2395229E+03  0.7561462E-02  0.1120111E+00
          1   -1    0    0  501    0  0.00000000000E+00  0.00000000000E+00  0.11600652834E+04  0.11600652834E+04  0.00000000000E+00 0. -1.
         -1   -1    0    0    0  501 -0.00000000000E+00 -0.00000000000E+00 -0.71174583744E+02  0.71174583744E+02  0.00000000000E+00 0.  1.
         25    2    1    2    0    0  0.21090887632E+03 -0.33231146888E+02  0.89497576809E+03  0.92855599108E+03  0.12509092639E+03 0.  0.
         23    2    1    2    0    0 -0.21090887632E+03  0.33231146888E+02  0.19391493161E+03  0.30268387611E+03  0.91802314368E+02 0.  0.
          5    1    3    3  502    0  0.22695121882E+03 -0.37917455333E+02  0.82583959111E+03  0.85730571664E+03  0.41800000000E+01 0.  1.
         -5    1    3    3    0  502 -0.16042342501E+02  0.46863084448E+01  0.69136176986E+02  0.71250274442E+02  0.41800000000E+01 0.  1.
        -11    1    4    4    0    0 -0.67732400335E+02  0.54499220742E+02  0.84499468257E+02  0.12123532180E+03  0.00000000000E+00 0.  1.
         11    1    4    4    0    0 -0.14317647598E+03 -0.21268073854E+02  0.10941546335E+03  0.18144855431E+03  0.00000000000E+00 0. -1.
</event>
<event>
 8    1  0.6860461E-009  0.1008835E+03  0.7561462E-02  0.1278449E+00
         -3   -1    0    0    0  501 -0.00000000000E+00  0.00000000000E+00  0.43126431728E+03  0.43126431728E+03  0.00000000000E+00 0.  1.
          3   -1    0    0  501    0  0.00000000000E+00 -0.00000000000E+00 -0.28658988369E+02  0.28658988369E+02  0.00000000000E+00 0. -1.
         25    2    1    2    0    0  0.19260906652E+02 -0.23166440787E+02  0.23868502103E+03  0.27115380409E+03  0.12508469013E+03 0.  0.
         23    2    1    2    0    0 -0.19260906652E+02  0.23166440787E+02  0.16392030788E+03  0.18876950156E+03  0.88636284216E+02 0.  0.
          5    1    3    3  502    0  0.18258026437E+02 -0.74632748875E+02  0.14715233742E+03  0.16605627222E+03  0.41800000000E+01 0. -1.
         -5    1    3    3    0  502  0.10028802147E+01  0.51466308088E+02  0.91532683609E+02  0.10509753187E+03  0.41800000000E+01 0. -1.
        -11    1    4    4    0    0 -0.37477988077E+02 -0.68146279870E+01  0.14286089157E+03  0.14785220013E+03  0.00000000000E+00 0.  1.
         11    1    4    4    0    0  0.18217081426E+02  0.29981068774E+02  0.21059416312E+02  0.40917301425E+02  0.00000000000E+00 0. -1.
</event>
<event>
 8    1  0.6860461E-009  0.1156267E+03  0.7561462E-02  0.1250491E+00
          2   -1    0    0  501    0  0.00000000000E+00  0.00000000000E+00  0.37739829248E+02  0.37739829248E+02  0.00000000000E+00 0. -1.
         -2   -1    0    0    0  501 -0.00000000000E+00 -0.00000000000E+00 -0.42933652525E+03  0.42933652525E+03  0.00000000000E+00 0.  1.
         25    2    1    2    0    0  0.38746565619E+01 -0.65767448108E+02 -0.17263575444E+03  0.22313785848E+03  0.12508808889E+03 0.  0.
         23    2    1    2    0    0 -0.38746565619E+01  0.65767448108E+02 -0.21896094157E+03  0.24393849602E+03  0.84980737314E+02 0.  0.
          5    1    3    3  502    0 -0.33833801688E+02 -0.79951962251E+02 -0.15751321468E+03  0.17990255030E+03  0.41800000000E+01 0. -1.
         -5    1    3    3    0  502  0.37708458250E+02  0.14184514142E+02 -0.15122539757E+02  0.43235308184E+02  0.41800000000E+01 0. -1.
        -11    1    4    4    0    0 -0.42044121830E+02  0.31469404022E+02 -0.14235874477E+03  0.15173675817E+03  0.00000000000E+00 0.  1.
         11    1    4    4    0    0  0.38169465268E+02  0.34298044087E+02 -0.76602196804E+02  0.92201737848E+02  0.00000000000E+00 0. -1.
</event>
<event>
 8    1  0.6860461E-009  0.1037134E+03  0.7561462E-02  0.1272676E+00
         -1   -1    0    0    0  501 -0.00000000000E+00  0.00000000000E+00  0.43265562756E+02  0.43265562756E+02  0.00000000000E+00 0.  1.
          1   -1    0    0  501    0  0.00000000000E+00 -0.00000000000E+00 -0.51920025207E+03  0.51920025207E+03  0.00000000000E+00 0. -1.
         25    2    1    2    0    0  0.64280528871E+01  0.82313506609E+02 -0.36903181105E+03  0.39830680964E+03  0.12508798425E+03 0.  0.
         23    2    1    2    0    0 -0.64280528871E+01 -0.82313506609E+02 -0.10690287826E+03  0.16415900518E+03  0.93290515962E+02 0.  0.
          5    1    3    3  502    0  0.40846344212E+01  0.48405425299E+02 -0.29362748044E+02  0.56915839706E+02  0.41800000000E+01 0. -1.
         -5    1    3    3    0  502  0.23434184659E+01  0.33908081311E+02 -0.33966906301E+03  0.34139096994E+03  0.41800000000E+01 0. -1.
        -11    1    4    4    0    0 -0.49279152015E+02 -0.34134896253E+02 -0.47427527310E+02  0.76439494453E+02  0.00000000000E+00 0. -1.
         11    1    4    4    0    0  0.42851099127E+02 -0.48178610356E+02 -0.59475350948E+02  0.87719510730E+02  0.00000000000E+00 0.  1.
</event>
<event>
 8    1  0.6860461E-009  0.1011082E+03  0.7561462E-02  0.1277983E+00
         -2   -1    0    0    0  501 -0.00000000000E+00  0.00000000000E+00  0.26629934461E+02  0.26629934461E+02  0.00000000000E+00 0. -1.
          2   -1    0    0  501    0  0.00000000000E+00 -0.00000000000E+00 -0.52715391920E+03  0.52715391920E+03  0.00000000000E+00 0.  1.
         25    2    1    2    0    0  0.83046255787E+01  0.42814842552E+02 -0.26089569334E+03  0.29260259908E+03  0.12509052976E+03 0.  0.
         23    2    1    2    0    0 -0.83046255787E+01 -0.42814842552E+02 -0.23962829140E+03  0.26118125458E+03  0.94296617954E+02 0.  0.
          5    1    3    3  502    0  0.61007486080E+02 -0.21577658384E+01 -0.97969327887E+02  0.11550770934E+03  0.41800000000E+01 0.  1.
         -5    1    3    3    0  502 -0.52702860501E+02  0.44972608391E+02 -0.16292636545E+03  0.17709488973E+03  0.41800000000E+01 0.  1.
        -11    1    4    4    0    0 -0.63348345349E+01  0.13687477227E+02 -0.11195360364E+00  0.15082761519E+02  0.00000000000E+00 0. -1.
         11    1    4    4    0    0 -0.19697910438E+01 -0.56502319780E+02 -0.23951633779E+03  0.24609849306E+03  0.00000000000E+00 0.  1.
</event>
<event>
 8    1  0.6860461E-009  0.1326831E+03  0.7561462E-02  0.1223528E+00
          2   -1    0    0  501    0  0.00000000000E+00  0.00000000000E+00  0.84757445280E+02  0.84757445280E+02  0.00000000000E+00 0. -1.
         -2   -1    0    0    0  501 -0.00000000000E+00 -0.00000000000E+00 -0.27838270479E+03  0.27838270479E+03  0.00000000000E+00 0.  1.
         25    2    1    2    0    0  0.10006943847E+03 -0.37017289908E+02 -0.74139486989E+02  0.18035662904E+03  0.12509067847E+03 0.  0.
         23    2    1    2    0    0 -0.10006943847E+03  0.37017289908E+02 -0.11948577252E+03  0.18278352103E+03  0.88027231339E+02 0.  0.
          5    1    3    3  502    0 -0.64353447432E+01 -0.18628602843E+02 -0.69210150045E+02  0.72082978400E+02  0.41800000000E+01 0. -1.
         -5    1    3    3    0  502  0.10650478322E+03 -0.18388687065E+02 -0.49293369437E+01  0.10827365064E+03  0.41800000000E+01 0. -1.
        -11    1    4    4    0    0 -0.11593952630E+03  0.34687424545E+02 -0.96640927582E+02  0.15486981650E+03  0.00000000000E+00 0.  1.
         11    1    4    4    0    0  0.15870087826E+02  0.23298653632E+01 -0.22844844938E+02  0.27913704527E+02  0.00000000000E+00 0. -1.
</event>
<event>
 8    1  0.6860461E-009  0.1531714E+03  0.7561462E-02  0.1196629E+00
          2   -1    0    0  501    0  0.00000000000E+00  0.00000000000E+00  0.57678959233E+03  0.57678959233E+03  0.00000000000E+00 0. -1.
         -2   -1    0    0    0  501 -0.00000000000E+00 -0.00000000000E+00 -0.43970767664E+02  0.43970767664E+02  0.00000000000E+00 0.  1.
         25    2    1    2    0    0  0.10608846715E+03  0.45421530336E+02  0.30746248512E+03  0.35142259250E+03  0.12508709160E+03 0.  0.
         23    2    1    2    0    0 -0.10608846715E+03 -0.45421530336E+02  0.22535633954E+03  0.26933776749E+03  0.91866614960E+02 0.  0.
          5    1    3    3  502    0  0.14638655619E+02  0.72603395005E+02  0.12102195546E+03  0.14194833323E+03  0.41800000000E+01 0.  1.
         -5    1    3    3    0  502  0.91449811529E+02 -0.27181864670E+02  0.18644052967E+03  0.20947425927E+03  0.41800000000E+01 0.  1.
        -11    1    4    4    0    0 -0.30869600827E+02 -0.52719951673E+02  0.15285464763E+03  0.16461126590E+03  0.00000000000E+00 0. -1.
         11    1    4    4    0    0 -0.75218866320E+02  0.72984213372E+01  0.72501691911E+02  0.10472650159E+03  0.00000000000E+00 0.  1.
</event>
<event>
 8    1  0.6860461E-009  0.9862063E+02  0.7561462E-02  0.1283224E+00
         -1   -1    0    0    0  501 -0.00000000000E+00  0.00000000000E+00  0.26850282667E+03  0.26850282667E+03  0.00000000000E+00 0.  1.
          1   -1    0    0  501    0  0.00000000000E+00 -0.00000000000E+00 -0.60222971360E+02  0.60222971360E+02  0.00000000000E+00 0. -1.
         25    2    1    2    0    0  0.58976039694E+02 -0.37798345254E+01  0.14793295522E+03  0.20254465066E+03  0.12509083045E+03 0.  0.
         23    2    1    2    0    0 -0.58976039694E+02  0.37798345254E+01  0.60346900096E+02  0.12618114738E+03  0.93741523322E+02 0.  0.
          5    1    3    3  502    0  0.69475906604E+02 -0.28029654225E+02  0.28680768872E+02  0.80328214330E+02  0.41800000000E+01 0. -1.
         -5    1    3    3    0  502 -0.10499866910E+02  0.24249819700E+02  0.11925218634E+03  0.12221643633E+03  0.41800000000E+01 0. -1.
        -11    1    4    4    0    0 -0.77089284669E+02  0.53363650036E+01  0.71143977428E+02  0.10503666087E+03  0.00000000000E+00 0.  1.
         11    1    4    4    0    0  0.18113244976E+02 -0.15565304782E+01 -0.10797077332E+02  0.21144486506E+02  0.00000000000E+00 0. -1.
</event>
<event>
 8    1  0.6860461E-009  0.1592351E+03  0.7561462E-02  0.1189563E+00
         -1   -1    0    0    0  501 -0.00000000000E+00  0.00000000000E+00  0.14152011154E+03  0.14152011154E+03  0.00000000000E+00 0.  1.
          1   -1    0    0  501    0  0.00000000000E+00 -0.00000000000E+00 -0.26189886441E+03  0.26189886441E+03  0.00000000000E+00 0. -1.
         25    2    1    2    0    0 -0.10518570459E+03 -0.10083101091E+03  0.23803738074E+01  0.19204841205E+03  0.12508397652E+03 0.  0.
         23    2    1    2    0    0  0.10518570459E+03  0.10083101091E+03 -0.12275912667E+03  0.21137056390E+03  0.91524788379E+02 0.  0.
          5    1    3    3  502    0 -0.44069827803E+02 -0.81825652718E+01 -0.51666568198E+02  0.68527445351E+02  0.41800000000E+01 0.  1.
         -5    1    3    3    0  502 -0.61115876792E+02 -0.92648445639E+02  0.54046942005E+02  0.12352096670E+03  0.41800000000E+01 0.  1.
        -11    1    4    4    0    0  0.10950761392E+03  0.67213903763E+02 -0.12242464700E+03  0.17747512660E+03  0.00000000000E+00 0. -1.
         11    1    4    4    0    0 -0.43219093276E+01  0.33617107148E+02 -0.33447967067E+00  0.33895437302E+02  0.00000000000E+00 0.  1.
</event>
<event>
 8    1  0.6860461E-009  0.1968866E+03  0.7561462E-02  0.1152393E+00
         -1   -1    0    0    0  501 -0.00000000000E+00  0.00000000000E+00  0.13385638888E+03  0.13385638888E+03  0.00000000000E+00 0.  1.
          1   -1    0    0  501    0  0.00000000000E+00 -0.00000000000E+00 -0.32785770797E+03  0.32785770797E+03  0.00000000000E+00 0. -1.
         25    2    1    2    0    0 -0.76887334581E+02 -0.14985065821E+03 -0.34386508756E+02  0.21259633053E+03  0.12509150965E+03 0.  0.
         23    2    1    2    0    0  0.76887334581E+02  0.14985065821E+03 -0.15961481033E+03  0.24911776631E+03  0.90641556869E+02 0.  0.
          5    1    3    3  502    0 -0.90717217732E+02 -0.16079304392E+03 -0.46953661691E+02  0.19054168917E+03  0.41800000000E+01 0.  1.
         -5    1    3    3    0  502  0.13829883152E+02  0.10942385705E+02  0.12567152935E+02  0.22054641367E+02  0.41800000000E+01 0.  1.
        -11    1    4    4    0    0  0.10828318762E+02  0.11646501517E+03 -0.10430001957E+03  0.15671581390E+03  0.00000000000E+00 0.  1.
         11    1    4    4    0    0  0.66059015819E+02  0.33385643042E+02 -0.55314790762E+02  0.92401952411E+02  0.00000000000E+00 0. -1.
</event>
<event>
 8    1  0.6860461E-009  0.1432135E+03  0.7561462E-02  0.1209069E+00
         -4   -1    0    0    0  501 -0.00000000000E+00  0.00000000000E+00  0.39244677571E+03  0.39244677571E+03  0.00000000000E+00 0.  1.
          4   -1    0    0  501    0  0.00000000000E+00 -0.00000000000E+00 -0.53650352376E+02  0.53650352376E+02  0.00000000000E+00 0. -1.
         25    2    1    2    0    0  0.57538165069E+02 -0.76136900593E+02  0.19370089182E+03  0.24954988127E+03  0.12509052594E+03 0.  0.
         23    2    1    2    0    0 -0.57538165069E+02  0.76136900593E+02  0.14509553151E+03  0.19654724681E+03  0.92036073870E+02 0.  0.
          5    1    3    3  502    0  0.43422096972E+02  0.27785709051E+02  0.74933828794E+02  0.91049850250E+02  0.41800000000E+01 0. -1.
         -5    1    3    3    0  502  0.14116068097E+02 -0.10392260964E+03  0.11876706303E+03  0.15850003102E+03  0.41800000000E+01 0. -1.
        -11    1    4    4    0    0  0.22428924690E+02  0.29890096972E+02  0.61487554440E+02  0.71952719968E+02  0.00000000000E+00 0.  1.
         11    1    4    4    0    0 -0.79967089759E+02  0.46246803621E+02  0.83607977071E+02  0.12459452684E+03  0.00000000000E+00 0. -1.
</event>
<event>
 8    1  0.6860461E-009  0.1104061E+03  0.7561462E-02  0.1259820E+00
         -2   -1    0    0    0  501 -0.00000000000E+00  0.00000000000E+00  0.20846926451E+02  0.20846926451E+02  0.00000000000E+00 0.  1.
          2   -1    0    0  501    0  0.00000000000E+00 -0.00000000000E+00 -0.10057810755E+04  0.10057810755E+04  0.00000000000E+00 0. -1.
         25    2    1    2    0    0  0.26791970806E+02 -0.91569708890E+02 -0.55988412799E+03  0.58156744452E+03  0.12509050511E+03 0.  0.
         23    2    1    2    0    0 -0.26791970806E+02  0.91569708890E+02 -0.42505002108E+03  0.44506055745E+03  0.91151292316E+02 0.  0.
          5    1    3    3  502    0  0.37649690201E+01 -0.10135823850E+02 -0.40381623675E+03  0.40398259292E+03  0.41800000000E+01 0.  1.
         -5    1    3    3    0  502  0.23027001786E+02 -0.81433885040E+02 -0.15606789124E+03  0.17758485160E+03  0.41800000000E+01 0.  1.
        -11    1    4    4    0    0  0.10366519345E+02 -0.11168537681E+02 -0.17901223251E+02  0.23508610149E+02  0.00000000000E+00 0.  1.
         11    1    4    4    0    0 -0.37158490151E+02  0.10273824657E+03 -0.40714879783E+03  0.42155194730E+03  0.00000000000E+00 0. -1.
</event>
<event>
 8    1  0.6860461E-009  0.1177616E+03  0.7561462E-02  0.1246836E+00
         -1   -1    0    0    0  501 -0.00000000000E+00  0.00000000000E+00  0.62529378177E+02  0.62529378177E+02  0.00000000000E+00 0.  1.
          1   -1    0    0  501    0  0.00000000000E+00 -0.00000000000E+00 -0.29847405194E+03  0.29847405194E+03  0.00000000000E+00 0. -1.
         25    2    1    2    0    0 -0.51944324645E+02 -0.65106149519E+02 -0.13948874288E+03  0.20504346974E+03  0.12509473020E+03 0.  0.
         23    2    1    2    0    0  0.51944324645E+02  0.65106149519E+02 -0.96455930886E+02  0.15595996038E+03  0.89904054809E+02 0.  0.
          5    1    3    3  502    0  0.13543086903E+02 -0.67573645239E+02 -0.11658657941E+03  0.13549729013E+03  0.41800000000E+01 0. -1.
         -5    1    3    3    0  502 -0.65487411548E+02  0.24674957201E+01 -0.22902163465E+02  0.69546179606E+02  0.41800000000E+01 0. -1.
        -11    1    4    4    0    0  0.40317569680E+02  0.62266253309E+01  0.17878623769E+01  0.40834712437E+02  0.00000000000E+00 0.  1.
         11    1    4    4    0    0  0.11626754965E+02  0.58879524188E+02 -0.98243793263E+02  0.11512524794E+03  0.00000000000E+00 0. -1.
</event>
<event>
 8    1  0.6860461E-009  0.1256127E+03  0.7561462E-02  0.1234115E+00
         -1   -1    0    0    0  501 -0.00000000000E+00  0.00000000000E+00  0.46236467523E+02  0.46236467523E+02  0.00000000000E+00 0.  1.
          1   -1    0    0  501    0  0.00000000000E+00 -0.00000000000E+00 -0.41004225889E+03  0.41004225889E+03  0.00000000000E+00 0. -1.
         25    2    1    2    0    0 -0.35697208402E+02  0.64760773429E+02 -0.13035802600E+03  0.19521451855E+03  0.12508894774E+03 0.  0.
         23    2    1    2    0    0  0.35697208402E+02 -0.64760773429E+02 -0.23344776537E+03  0.26106420787E+03  0.90489850324E+02 0.  0.
          5    1    3    3  502    0 -0.67761515873E+02  0.83675386780E+02 -0.93557351091E+02  0.14270123941E+03  0.41800000000E+01 0.  1.
         -5    1    3    3    0  502  0.32064307470E+02 -0.18914613351E+02 -0.36800674909E+02  0.52513279135E+02  0.41800000000E+01 0.  1.
        -11    1    4    4    0    0  0.23778466335E+02  0.13164726898E+02 -0.20650858459E+02  0.34134783588E+02  0.00000000000E+00 0.  1.
         11    1    4    4    0    0  0.11918742068E+02 -0.77925500328E+02 -0.21279690691E+03  0.22692942428E+03  0.00000000000E+00 0. -1.
</event>
<event>
 8    1  0.6860461E-009  0.1122364E+03  0.7561462E-02  0.1256484E+00
         -1   -1    0    0    0  501 -0.00000000000E+00  0.00000000000E+00  0.54756941676E+02  0.54756941676E+02  0.00000000000E+00 0.  1.
          1   -1    0    0  501    0  0.00000000000E+00 -0.00000000000E+00 -0.26600054549E+03  0.26600054549E+03  0.00000000000E+00 0. -1.
         25    2    1    2    0    0 -0.39704268521E+02  0.19792089833E+02 -0.15627564425E+03  0.20503059203E+03  0.12508921186E+03 0.  0.
         23    2    1    2    0    0  0.39704268521E+02 -0.19792089833E+02 -0.54967959558E+02  0.11572689513E+03  0.91668325604E+02 0.  0.
          5    1    3    3  502    0 -0.70305999271E+02  0.51083505218E+02 -0.87441071010E+02  0.12335263004E+03  0.41800000000E+01 0. -1.
         -5    1    3    3    0  502  0.30601730750E+02 -0.31291415385E+02 -0.68834573242E+02  0.81677961992E+02  0.41800000000E+01 0. -1.
        -11    1    4    4    0    0 -0.21793683362E+02 -0.23298516601E+02  0.18088539786E+01  0.31953989783E+02  0.00000000000E+00 0.  1.
         11    1    4    4    0    0  0.61497951883E+02  0.35064267680E+01 -0.56776813536E+02  0.83772905345E+02  0.00000000000E+00 0. -1.
</event>
<event>
 8    1  0.6860461E-009  0.1039481E+03  0.7561462E-02  0.1272206E+00
         -1   -1    0    0    0  501 -0.00000000000E+00  0.00000000000E+00  0.14594389795E+02  0.14594389795E+02  0.00000000000E+00 0.  1.
          1   -1    0    0  501    0  0.00000000000E+00 -0.00000000000E+00 -0.89068335682E+03  0.89068335682E+03  0.00000000000E+00 0. -1.
         25    2    1    2    0    0  0.35005458779E+02  0.98549067740E+01 -0.52779544340E+03  0.54363368593E+03  0.12508818119E+03 0.  0.
         23    2    1    2    0    0 -0.35005458779E+02 -0.98549067740E+01 -0.34829352362E+03  0.36164406068E+03  0.90308065509E+02 0.  0.
          5    1    3    3  502    0  0.64028550812E+00  0.54412311274E+02 -0.11846027823E+03  0.13042783255E+03  0.41800000000E+01 0. -1.
         -5    1    3    3    0  502  0.34365173271E+02 -0.44557404500E+02 -0.40933516517E+03  0.41320585339E+03  0.41800000000E+01 0. -1.
        -11    1    4    4    0    0  0.11536302085E+02 -0.39875487861E+02 -0.16683911160E+03  0.17192565242E+03  0.00000000000E+00 0.  1.
         11    1    4    4    0    0 -0.46541760864E+02  0.30020581087E+02 -0.18145441202E+03  0.18971840826E+03  0.00000000000E+00 0. -1.
</event>
<event>
 8    1  0.6860461E-009  0.9656294E+02  0.7561462E-02  0.1287694E+00
          2   -1    0    0  501    0  0.00000000000E+00  0.00000000000E+00  0.36258501508E+03  0.36258501508E+03  0.00000000000E+00 0. -1.
         -2   -1    0    0    0  501 -0.00000000000E+00 -0.00000000000E+00 -0.41306057270E+02  0.41306057270E+02  0.00000000000E+00 0.  1.
         25    2    1    2    0    0  0.55293377096E+02 -0.44737295310E+01  0.18928263643E+03  0.23356444187E+03  0.12508820985E+03 0.  0.
         23    2    1    2    0    0 -0.55293377096E+02  0.44737295310E+01  0.13199632138E+03  0.17032663048E+03  0.92253782510E+02 0.  0.
          5    1    3    3  502    0  0.67116088853E+01  0.27053394092E+02  0.17008948691E+03  0.17240892605E+03  0.41800000000E+01 0.  1.
         -5    1    3    3    0  502  0.48581768210E+02 -0.31527123623E+02  0.19193149527E+02  0.61155515819E+02  0.41800000000E+01 0.  1.
        -11    1    4    4    0    0 -0.16609738683E+02  0.46725263142E+02  0.51151357286E+02  0.71243210111E+02  0.00000000000E+00 0.  1.
         11    1    4    4    0    0 -0.38683638413E+02 -0.42251533611E+02  0.80844964096E+02  0.99083420374E+02  0.00000000000E+00 0. -1.
</event>
<event>
 8    1  0.6860461E-009  0.1107782E+03  0.7561462E-02  0.1259136E+00
         -2   -1    0    0    0  501 -0.00000000000E+00  0.00000000000E+00  0.18096037463E+03  0.18096037463E+03  0.00000000000E+00 0.  1.
          2   -1    0    0  501    0  0.00000000000E+00 -0.00000000000E+00 -0.96214614434E+02  0.96214614434E+02  0.00000000000E+00 0. -1.
         25    2    1    2    0    0 -0.25841131538E+02  0.37354407371E+02  0.11216996568E+03  0.17404618885E+03  0.12508740474E+03 0.  0.
         23    2    1    2    0    0  0.25841131538E+02 -0.37354407371E+02 -0.27424205485E+02  0.10312880021E+03  0.88432723342E+02 0.  0.
          5    1    3    3  502    0  0.24313789060E+02 -0.29713742963E+02  0.70560007651E+02  0.80437888703E+02  0.41800000000E+01 0.  1.
         -5    1    3    3    0  502 -0.50154920598E+02  0.67068150334E+02  0.41609958031E+02  0.93608300148E+02  0.41800000000E+01 0.  1.
        -11    1    4    4    0    0  0.57745482175E+02 -0.13647854907E+02 -0.20529390116E+02  0.62787423213E+02  0.00000000000E+00 0.  1.
         11    1    4    4    0    0 -0.31904350637E+02 -0.23706552464E+02 -0.68948153690E+01  0.40341377000E+02  0.00000000000E+00 0. -1.
</event>
<event>
 8    1  0.6860461E-009  0.1018697E+03  0.7561462E-02  0.1276413E+00
         -3   -1    0    0    0  501 -0.00000000000E+00  0.00000000000E+00  0.97615354851E+02  0.97615354851E+02  0.00000000000E+00 0.  1.
          3   -1    0    0  501    0  0.00000000000E+00 -0.00000000000E+00 -0.13322808984E+03  0.13322808984E+03  0.00000000000E+00 0. -1.
         25    2    1    2    0    0  0.40795685680E+02 -0.10450900454E+02  0.60674587030E+00  0.13198985501E+03  0.12508974536E+03 0.  0.
         23    2    1    2    0    0 -0.40795685680E+02  0.10450900454E+02 -0.36219480861E+02  0.98853589685E+02  0.81772074142E+02 0.  0.
          5    1    3    3  502    0  0.42239643301E+02  0.51782420635E+02  0.13445116767E+02  0.68292386969E+02  0.41800000000E+01 0. -1.
         -5    1    3    3    0  502 -0.14439576209E+01 -0.62233321089E+02 -0.12838370896E+02  0.63697468039E+02  0.41800000000E+01 0. -1.
        -11    1    4    4    0    0  0.15299794154E+02 -0.51933515143E+01 -0.37255547816E+02  0.40608255862E+02  0.00000000000E+00 0. -1.
         11    1    4    4    0    0 -0.56095479834E+02  0.15644251968E+02  0.10360669550E+01  0.58245333823E+02  0.00000000000E+00 0.  1.
</event>
<event>
 8    1  0.6860461E-009  0.1340418E+03  0.7561462E-02  0.1221579E+00
         -1   -1    0    0    0  501 -0.00000000000E+00  0.00000000000E+00  0.12501942122E+02  0.12501942122E+02  0.00000000000E+00 0.  1.
          1   -1    0    0  501    0  0.00000000000E+00 -0.00000000000E+00 -0.21333475158E+04  0.21333475158E+04  0.00000000000E+00 0. -1.
         25    2    1    2    0    0 -0.21657458341E+02 -0.89423641426E+02 -0.16561953752E+04  0.16634593448E+04  0.12509291695E+03 0.  0.
         23    2    1    2    0    0  0.21657458341E+02  0.89423641426E+02 -0.46465019853E+03  0.48239011316E+03  0.91295022496E+02 0.  0.
          5    1    3    3  502    0  0.16008081996E+02 -0.98412663361E+02 -0.77430234450E+03  0.78070666969E+03  0.41800000000E+01 0. -1.
         -5    1    3    3    0  502 -0.37665540337E+02  0.89890219349E+01 -0.88189303067E+03  0.88275267510E+03  0.41800000000E+01 0. -1.
        -11    1    4    4    0    0 -0.30847273748E+02  0.63912340293E+02 -0.23922525073E+03  0.24952968185E+03  0.00000000000E+00 0.  1.
         11    1    4    4    0    0  0.52504732088E+02  0.25511301133E+02 -0.22542494780E+03  0.23286043131E+03  0.00000000000E+00 0. -1.
</event>
<event>
 8    1  0.6860461E-009  0.1059433E+03  0.7561462E-02  0.1268272E+00
          1   -1    0    0  501    0  0.00000000000E+00  0.00000000000E+00  0.38260208811E+03  0.38260208811E+03  0.00000000000E+00 0. -1.
         -1   -1    0    0    0  501 -0.00000000000E+00 -0.00000000000E+00 -0.33544407452E+02  0.33544407452E+02  0.00000000000E+00 0.  1.
         25    2    1    2    0    0 -0.19693676498E+02  0.28993253295E+01  0.16002105278E+03  0.20408453432E+03  0.12509001892E+03 0.  0.
         23    2    1    2    0    0  0.19693676498E+02 -0.28993253295E+01  0.18903662788E+03  0.21206196125E+03  0.94016922655E+02 0.  0.
          5    1    3    3  502    0 -0.31686811362E+02 -0.56361558139E+02  0.68255387138E+02  0.94111367664E+02  0.41800000000E+01 0. -1.
         -5    1    3    3    0  502  0.11993134865E+02  0.59260883469E+02  0.91765665640E+02  0.10997316665E+03  0.41800000000E+01 0. -1.
        -11    1    4    4    0    0  0.45749121799E+02 -0.25165116538E+02  0.15581271139E+03  0.16432853150E+03  0.00000000000E+00 0.  1.
         11    1    4    4    0    0 -0.26055445301E+02  0.22265791208E+02  0.33223916495E+02  0.47733429745E+02  0.00000000000E+00 0. -1.
</event>
<event>
 8    1  0.6860461E-009  0.1186115E+03  0.7561462E-02  0.1245405E+00
         -3   -1    0    0    0  501 -0.00000000000E+00  0.00000000000E+00  0.83275298372E+03  0.83275298372E+03  0.00000000000E+00 0.  1.
          3   -1    0    0  501    0  0.00000000000E+00 -0.00000000000E+00 -0.20233409579E+02  0.20233409579E+02  0.00000000000E+00 0. -1.
         25    2    1    2    0    0  0.25803416222E+02 -0.66225485673E+02  0.44751711614E+03  0.47007347007E+03  0.12508343930E+03 0.  0.
         23    2    1    2    0    0 -0.25803416222E+02  0.66225485673E+02  0.36500245801E+03  0.38291292323E+03  0.91344847615E+02 0.  0.
          5    1    3    3  502    0  0.35426309079E+02  0.15644078271E+02  0.46540215372E+02  0.60689575767E+02  0.41800000000E+01 0.  1.
         -5    1    3    3    0  502 -0.96228928565E+01 -0.81869563943E+02  0.40097690077E+03  0.40938389430E+03  0.41800000000E+01 0.  1.
        -11    1    4    4    0    0 -0.11539763340E+02  0.88517967474E+02  0.28326576529E+03  0.29699846883E+03  0.00000000000E+00 0.  1.
         11    1    4    4    0    0 -0.14263652882E+02 -0.22292481802E+02  0.81736692716E+02  0.85914454398E+02  0.00000000000E+00 0. -1.
</event>
<event>
 8    1  0.6860461E-009  0.1171925E+03  0.7561462E-02  0.1247802E+00
         -1   -1    0    0    0  501 -0.00000000000E+00  0.00000000000E+00  0.58625289929E+02  0.58625289929E+02  0.00000000000E+00 0.  1.
          1   -1    0    0  501    0  0.00000000000E+00 -0.00000000000E+00 -0.34059089235E+03  0.34059089235E+03  0.00000000000E+00 0. -1.
         25    2    1    2    0    0  0.70391760251E+02 -0.47966984267E+02 -0.19742067975E+03  0.24875527166E+03  0.12509368048E+03 0.  0.
         23    2    1    2    0    0 -0.70391760251E+02  0.47966984267E+02 -0.84544922663E+02  0.15046091061E+03  0.90745854906E+02 0.  0.
          5    1    3    3  502    0  0.65134180631E+02 -0.71186178734E+02 -0.70549239967E+02  0.11960184442E+03  0.41800000000E+01 0.  1.
         -5    1    3    3    0  502  0.52575796208E+01  0.23219194467E+02 -0.12687143979E+03  0.12915342724E+03  0.41800000000E+01 0.  1.
        -11    1    4    4    0    0 -0.77454114749E+01 -0.19852269589E+02 -0.45452779904E+02  0.50200191312E+02  0.00000000000E+00 0. -1.
         11    1    4    4    0    0 -0.62646348777E+02  0.67819253857E+02 -0.39092142759E+02  0.10026071930E+03  0.00000000000E+00 0.  1.
</event>
<event>
 8    1  0.6860461E-009  0.1650183E+03  0.7561462E-02  0.1183145E+00
          1   -1    0    0  501    0  0.00000000000E+00  0.00000000000E+00  0.17881422498E+03  0.17881422498E+03  0.00000000000E+00 0. -1.
         -1   -1    0    0    0  501 -0.00000000000E+00 -0.00000000000E+00 -0.19506555354E+03  0.19506555354E+03  0.00000000000E+00 0.  1.
         25    2    1    2    0    0  0.13852405266E+03  0.57891026627E+02  0.55851679409E+01  0.19550702096E+03  0.12510602309E+03 0.  0.
         23    2    1    2    0    0 -0.13852405266E+03 -0.57891026627E+02 -0.21836496500E+02  0.17837275756E+03  0.93806843740E+02 0.  0.
          5    1    3    3  502    0  0.33891063266E+02  0.33304340755E+02 -0.54397486075E+02  0.72348753781E+02  0.41800000000E+01 0. -1.
         -5    1    3    3    0  502  0.10463298939E+03  0.24586685872E+02  0.59982654016E+02  0.12315826717E+03  0.41800000000E+01 0. -1.
        -11    1    4    4    0    0 -0.38648248920E+02 -0.63941229277E+02  0.46787130755E+01  0.74860258496E+02  0.00000000000E+00 0. -1.
         11    1    4    4    0    0 -0.99875803735E+02  0.60502026499E+01 -0.26515209576E+02  0.10351249907E+03  0.00000000000E+00 0.  1.
</event>
<event>
 8    1  0.6860461E-009  0.1151316E+03  0.7561462E-02  0.1251352E+00
          2   -1    0    0  501    0  0.00000000000E+00  0.00000000000E+00  0.37285659175E+03  0.37285659175E+03  0.00000000000E+00 0.  1.
         -2   -1    0    0    0  501 -0.00000000000E+00 -0.00000000000E+00 -0.57330264315E+02  0.57330264315E+02  0.00000000000E+00 0. -1.
         25    2    1    2    0    0 -0.45622391908E+02 -0.39221805640E+02  0.62158792900E+02  0.15208845922E+03  0.12508969266E+03 0.  0.
         23    2    1    2    0    0  0.45622391908E+02  0.39221805640E+02  0.25336753453E+03  0.27809839684E+03  0.97590256132E+02 0.  0.
          5    1    3    3  502    0 -0.47642844208E+02 -0.82452530141E+02  0.41935011008E+02  0.10413586260E+03  0.41800000000E+01 0. -1.
         -5    1    3    3    0  502  0.20204522994E+01  0.43230724501E+02  0.20223781891E+02  0.47952596617E+02  0.41800000000E+01 0. -1.
        -11    1    4    4    0    0 -0.18471107356E+02  0.72922907956E+01  0.62551451946E+01  0.20820330290E+02  0.00000000000E+00 0. -1.
         11    1    4    4    0    0  0.64093499264E+02  0.31929514844E+02  0.24711238934E+03  0.25727806655E+03  0.00000000000E+00 0.  1.
</event>
<event>
 8    1  0.6860461E-009  0.8152182E+02  0.7561462E-02  0.1324787E+00
         -2   -1    0    0    0  501 -0.00000000000E+00  0.00000000000E+00  0.15181776608E+03  0.15181776608E+03  0.00000000000E+00 0. -1.
          2   -1    0    0  501    0  0.00000000000E+00 -0.00000000000E+00 -0.14381277460E+03  0.14381277460E+03  0.00000000000E+00 0.  1.
         25    2    1    2    0    0  0.61250592096E+01  0.28827778429E+02 -0.85630763034E+02  0.15443145993E+03  0.12509153080E+03 0.  0.
         23    2    1    2    0    0 -0.61250592096E+01 -0.28827778429E+02  0.93635754514E+02  0.14119908075E+03  0.10149368809E+03 0.  0.
          5    1    3    3  502    0  0.16348449663E+02  0.63607003461E+02 -0.96096476831E+02  0.11646942927E+03  0.41800000000E+01 0.  1.
         -5    1    3    3    0  502 -0.10223390454E+02 -0.34779225031E+02  0.10465713797E+02  0.37962030655E+02  0.41800000000E+01 0.  1.
        -11    1    4    4    0    0  0.21293247062E+02 -0.46739679163E+00 -0.14717435597E+02  0.25888679780E+02  0.00000000000E+00 0.  1.
         11    1    4    4    0    0 -0.27418306272E+02 -0.28360381638E+02  0.10835319011E+03  0.11531040097E+03  0.00000000000E+00 0. -1.
</event>
<event>
 8    1  0.6860461E-009  0.1265028E+03  0.7561462E-02  0.1232739E+00
          1   -1    0    0  501    0  0.00000000000E+00  0.00000000000E+00  0.21587666505E+03  0.21587666505E+03  0.00000000000E+00 0. -1.
         -1   -1    0    0    0  501 -0.00000000000E+00 -0.00000000000E+00 -0.91920448347E+02  0.91920448347E+02  0.00000000000E+00 0.  1.
         25    2    1    2    0    0  0.78575044911E+02  0.15795813652E+01  0.10342395053E+03  0.18034145752E+03  0.12509994004E+03 0.  0.
         23    2    1    2    0    0 -0.78575044911E+02 -0.15795813652E+01  0.20532266173E+02  0.12745565587E+03  0.98218315503E+02 0.  0.
          5    1    3    3  502    0  0.47098215151E+01 -0.52757242962E+02  0.55338670992E+02  0.76716034901E+02  0.41800000000E+01 0.  1.
         -5    1    3    3    0  502  0.73865223395E+02  0.54336824328E+02  0.48085279537E+02  0.10362542262E+03  0.41800000000E+01 0.  1.
        -11    1    4    4    0    0  0.39135187141E+01  0.21954308301E+02  0.33963650485E+02  0.40630491456E+02  0.00000000000E+00 0. -1.
         11    1    4    4    0    0 -0.82488563625E+02 -0.23533889666E+02 -0.13431384312E+02  0.86825164418E+02  0.00000000000E+00 0.  1.
</event>
<event>
 8    1  0.6860461E-009  0.1041569E+03  0.7561462E-02  0.1271790E+00
         -2   -1    0    0    0  501 -0.00000000000E+00  0.00000000000E+00  0.61266166260E+02  0.61266166260E+02  0.00000000000E+00 0.  1.
          2   -1    0    0  501    0  0.00000000000E+00 -0.00000000000E+00 -0.25214508317E+03  0.25214508317E+03  0.00000000000E+00 0. -1.
         25    2    1    2    0    0 -0.34830291607E+02  0.27426422742E+02 -0.16011038470E+03  0.20795963563E+03  0.12508603793E+03 0.  0.
         23    2    1    2    0    0  0.34830291607E+02 -0.27426422742E+02 -0.30768532211E+02  0.10545161380E+03  0.90597916095E+02 0.  0.
          5    1    3    3  502    0 -0.27809400042E+02 -0.46740356205E+02 -0.91875081663E+02  0.10684814766E+03  0.41800000000E+01 0. -1.
         -5    1    3    3    0  502 -0.70208915649E+01  0.74166778947E+02 -0.68235303035E+02  0.10111148796E+03  0.41800000000E+01 0. -1.
        -11    1    4    4    0    0 -0.30048914988E+01 -0.39362408703E+02 -0.48042143102E+02  0.62180994730E+02  0.00000000000E+00 0.  1.
         11    1    4    4    0    0  0.37835183106E+02  0.11935985960E+02  0.17273610891E+02  0.43270619070E+02  0.00000000000E+00 0. -1.
</event>
<event>
 8    1  0.6860461E-009  0.9966846E+02  0.7561462E-02  0.1280995E+00
         -3   -1    0    0    0  501 -0.00000000000E+00  0.00000000000E+00  0.46932456558E+03  0.46932456558E+03  0.00000000000E+00 0.  1.
          3   -1    0    0  501    0  0.00000000000E+00 -0.00000000000E+00 -0.27422284603E+02  0.27422284603E+02  0.00000000000E+00 0. -1.
         25    2    1    2    0    0  0.26919337456E+02 -0.63546572277E+01  0.22024300687E+03  0.25479353700E+03  0.12509089503E+03 0.  0.
         23    2    1    2    0    0 -0.26919337456E+02  0.63546572277E+01  0.22165927410E+03  0.24195331319E+03  0.92970638209E+02 0.  0.
          5    1    3    3  502    0  0.49434427552E+02 -0.38840739388E+02  0.20098149316E+03  0.21062620601E+03  0.41800000000E+01 0.  1.
         -5    1    3    3    0  502 -0.22515090096E+02  0.32486082161E+02  0.19261513716E+02  0.44167330990E+02  0.41800000000E+01 0.  1.
        -11    1    4    4    0    0  0.10581811556E+02  0.42921153792E+02  0.11265226738E+03  0.12101542680E+03  0.00000000000E+00 0.  1.
         11    1    4    4    0    0 -0.37501149013E+02 -0.36566496564E+02  0.10900700672E+03  0.12093788638E+03  0.00000000000E+00 0. -1.
</event>
<event>
 8    1  0.6860461E-009  0.9261585E+02  0.7561462E-02  0.1296638E+00
          1   -1    0    0  501    0  0.00000000000E+00  0.00000000000E+00  0.22799883226E+02  0.22799883226E+02  0.00000000000E+00 0. -1.
         -1   -1    0    0    0  501 -0.00000000000E+00 -0.00000000000E+00 -0.51086466202E+03  0.51086466202E+03  0.00000000000E+00 0.  1.
         25    2    1    2    0    0  0.29315713516E+02 -0.12242273690E+01 -0.29258680268E+03  0.31955324323E+03  0.12508528437E+03 0.  0.
         23    2    1    2    0    0 -0.29315713516E+02  0.12242273690E+01 -0.19547797612E+03  0.21411130202E+03  0.82286698274E+02 0.  0.
          5    1    3    3  502    0 -0.30431829978E+02  0.30933817082E+02 -0.44398028664E+02  0.62222621805E+02  0.41800000000E+01 0.  1.
         -5    1    3    3    0  502  0.59747543494E+02 -0.32158044451E+02 -0.24818877401E+03  0.25733062142E+03  0.41800000000E+01 0.  1.
        -11    1    4    4    0    0 -0.45154938152E+02  0.19747856532E+02 -0.17641359141E+03  0.18316850579E+03  0.00000000000E+00 0.  1.
         11    1    4    4    0    0  0.15839224635E+02 -0.18523629163E+02 -0.19064384707E+02  0.30942796232E+02  0.00000000000E+00 0. -1.
</event>
<event>
 8    1  0.6860461E-009  0.9445754E+02  0.7561462E-02  0.1292403E+00
          2   -1    0    0  501    0  0.00000000000E+00  0.00000000000E+00  0.42370337281E+03  0.42370337281E+03  0.00000000000E+00 0. -1.
         -2   -1    0    0    0  501 -0.00000000000E+00 -0.00000000000E+00 -0.40797300132E+02  0.40797300132E+02  0.00000000000E+00 0.  1.
         25    2    1    2    0    0 -0.51605735955E+02  0.38025952035E+02  0.27984864878E+03  0.31316470813E+03  0.12509093965E+03 0.  0.
         23    2    1    2    0    0  0.51605735955E+02 -0.38025952035E+02  0.10305742390E+03  0.15133596481E+03  0.90402525479E+02 0.  0.
          5    1    3    3  502    0 -0.53423299484E+02  0.66582326399E+02  0.10242637293E+03  0.13340123458E+03  0.41800000000E+01 0. -1.
         -5    1    3    3    0  502  0.18175635288E+01 -0.28556374364E+02  0.17742227585E+03  0.17976347355E+03  0.41800000000E+01 0. -1.
        -11    1    4    4    0    0  0.27034633905E+02 -0.41688402234E+02  0.47217268865E+01  0.49910810612E+02  0.00000000000E+00 0.  1.
         11    1    4    4    0    0  0.24571102050E+02  0.36624501988E+01  0.98335697012E+02  0.10142515420E+03  0.00000000000E+00 0. -1.
</event>
<event>
 8    1  0.6860461E-009  0.1037187E+03  0.7561462E-02  0.1272665E+00
         -2   -1    0    0    0  501 -0.00000000000E+00  0.00000000000E+00  0.55137666195E+02  0.55137666195E+02  0.00000000000E+00 0.  1.
          2   -1    0    0  501    0  0.00000000000E+00 -0.00000000000E+00 -0.45664081918E+03  0.45664081918E+03  0.00000000000E+00 0. -1.
         25    2    1    2    0    0  0.41773612004E+02  0.27263505431E+02 -0.38996559916E+03  0.41256508870E+03  0.12509376682E+03 0.  0.
         23    2    1    2    0    0 -0.41773612004E+02 -0.27263505431E+02 -0.11537553822E+02  0.99213396672E+02  0.84981465878E+02 0.  0.
          5    1    3    3  502    0  0.55745027821E+02  0.61856089175E+02 -0.33997069353E+03  0.35004460967E+03  0.41800000000E+01 0. -1.
         -5    1    3    3    0  502 -0.13971415817E+02 -0.34592583744E+02 -0.49994905625E+02  0.62520479033E+02  0.41800000000E+01 0. -1.
        -11    1    4    4    0    0 -0.43538906994E+02  0.13606025450E+02  0.17702611977E+02  0.48929978762E+02  0.00000000000E+00 0.  1.
         11    1    4    4    0    0  0.17652949904E+01 -0.40869530881E+02 -0.29240165799E+02  0.50283417911E+02  0.00000000000E+00 0. -1.
</event>
<event>
 8    1  0.6860461E-009  0.2670220E+03  0.7561462E-02  0.1102996E+00
          2   -1    0    0  501    0  0.00000000000E+00  0.00000000000E+00  0.27026285179E+03  0.27026285179E+03  0.00000000000E+00 0. -1.
         -2   -1    0    0    0  501 -0.00000000000E+00 -0.00000000000E+00 -0.31606894293E+03  0.31606894293E+03  0.00000000000E+00 0.  1.
         25    2    1    2    0    0  0.25251785903E+03  0.20423288386E+02 -0.12023204244E+03  0.30706018201E+03  0.12509129269E+03 0.  0.
         23    2    1    2    0    0 -0.25251785903E+03 -0.20423288386E+02  0.74425951302E+02  0.27927161271E+03  0.90945212093E+02 0.  0.
          5    1    3    3  502    0  0.18967311419E+03  0.48966345107E+02 -0.37945927609E+02  0.19957695013E+03  0.41800000000E+01 0. -1.
         -5    1    3    3    0  502  0.62844744838E+02 -0.28543056721E+02 -0.82286114834E+02  0.10748323188E+03  0.41800000000E+01 0. -1.
        -11    1    4    4    0    0 -0.64944260151E+02  0.34459717421E+02  0.25328406358E+02  0.77760897757E+02  0.00000000000E+00 0. -1.
         11    1    4    4    0    0 -0.18757359888E+03 -0.54883005807E+02  0.49097544944E+02  0.20151071495E+03  0.00000000000E+00 0.  1.
</event>
<event>
 8    1  0.6860461E-009  0.4407230E+03  0.7561462E-02  0.1030525E+00
          2   -1    0    0  501    0  0.00000000000E+00  0.00000000000E+00  0.20723484879E+04  0.20723484879E+04  0.00000000000E+00 0. -1.
         -2   -1    0    0    0  501 -0.00000000000E+00 -0.00000000000E+00 -0.10183613365E+03  0.10183613365E+03  0.00000000000E+00 0.  1.
         25    2    1    2    0    0 -0.17163964749E+03  0.39907605890E+03  0.12391832521E+04  0.13190695717E+04  0.12509010010E+03 0.  0.
         23    2    1    2    0    0  0.17163964749E+03 -0.39907605890E+03  0.73132910208E+03  0.85511504985E+03  0.87507848551E+02 0.  0.
          5    1    3    3  502    0 -0.39884306741E+02  0.18507713766E+03  0.39126302450E+03  0.43468210401E+03  0.41800000000E+01 0.  1.
         -5    1    3    3    0  502 -0.13175534075E+03  0.21399892124E+03  0.84792022762E+03  0.88438746764E+03  0.41800000000E+01 0.  1.
        -11    1    4    4    0    0  0.14675861877E+03 -0.25243554696E+03  0.52541142517E+03  0.60109813113E+03  0.00000000000E+00 0. -1.
         11    1    4    4    0    0  0.24881028724E+02 -0.14664051194E+03  0.20591767691E+03  0.25401691872E+03  0.00000000000E+00 0.  1.
</event>
<event>
 8    1  0.6860461E-009  0.1092074E+03  0.7561462E-02  0.1262045E+00
         -1   -1    0    0    0  501 -0.00000000000E+00  0.00000000000E+00  0.26650657666E+02  0.26650657666E+02  0.00000000000E+00 0.  1.
          1   -1    0    0  501    0  0.00000000000E+00 -0.00000000000E+00 -0.70496986056E+03  0.70496986056E+03  0.00000000000E+00 0. -1.
         25    2    1    2    0    0 -0.49996609590E+02  0.41196085708E+02 -0.22892662988E+03  0.26879601893E+03  0.12508844660E+03 0.  0.
         23    2    1    2    0    0  0.49996609590E+02 -0.41196085708E+02 -0.44939257301E+03  0.46282449930E+03  0.89755523650E+02 0.  0.
          5    1    3    3  502    0 -0.32531836005E+01  0.69571073425E+02 -0.62874924827E+02  0.93922553378E+02  0.41800000000E+01 0.  1.
         -5    1    3    3    0  502 -0.46743425990E+02 -0.28374987716E+02 -0.16605170506E+03  0.17487346555E+03  0.41800000000E+01 0.  1.
        -11    1    4    4    0    0  0.36544045643E+01  0.18144638298E+02 -0.21550226044E+02  0.28407654148E+02  0.00000000000E+00 0.  1.
         11    1    4    4    0    0  0.46342205026E+02 -0.59340724006E+02 -0.42784234697E+03  0.43441684515E+03  0.00000000000E+00 0. -1.
</event>
<event>
 8    1  0.6860461E-009  0.9792767E+02  0.7561462E-02  0.1284715E+00
          2   -1    0    0  501    0  0.00000000000E+00  0.00000000000E+00  0.26969286070E+02  0.26969286070E+02  0.00000000000E+00 0. -1.
         -2   -1    0    0    0  501 -0.00000000000E+00 -0.00000000000E+00 -0.53028155349E+03  0.53028155349E+03  0.00000000000E+00 0.  1.
         25    2    1    2    0    0  0.34838992734E+02  0.28238459558E+02 -0.34603849964E+03  0.37067737786E+03  0.12509160328E+03 0.  0.
         23    2    1    2    0    0 -0.34838992734E+02 -0.28238459558E+02 -0.15727376778E+03  0.18657346170E+03  0.89796729152E+02 0.  0.
          5    1    3    3  502    0  0.71640333694E+02  0.15055421869E+02 -0.11548828832E+03  0.13679919692E+03  0.41800000000E+01 0.  1.
         -5    1    3    3    0  502 -0.36801340960E+02  0.13183037689E+02 -0.23055021132E+03  0.23387818094E+03  0.41800000000E+01 0.  1.
        -11    1    4    4    0    0 -0.15198850910E+02 -0.50962973363E+02 -0.42917161469E+02  0.68338221161E+02  0.00000000000E+00 0. -1.
         11    1    4    4    0    0 -0.19640141824E+02  0.22724513804E+02 -0.11435660631E+03  0.11823524054E+03  0.00000000000E+00 0.  1.
</event>
<event>
 8    1  0.6860461E-009  0.1135439E+03  0.7561462E-02  0.1254144E+00
         -1   -1    0    0    0  501 -0.00000000000E+00  0.00000000000E+00  0.44190843271E+02  0.44190843271E+02  0.00000000000E+00 0.  1.
          1   -1    0    0  501    0  0.00000000000E+00 -0.00000000000E+00 -0.50256318179E+03  0.50256318179E+03  0.00000000000E+00 0. -1.
         25    2    1    2    0    0 -0.89673315699E+02 -0.14567679929E+02 -0.16300059893E+03  0.22466120649E+03  0.12509972663E+03 0.  0.
         23    2    1    2    0    0  0.89673315699E+02  0.14567679929E+02 -0.29537173960E+03  0.32209281857E+03  0.90806378510E+02 0.  0.
          5    1    3    3  502    0 -0.78585729185E+02  0.33354950867E+02 -0.44662136647E+02  0.96438832577E+02  0.41800000000E+01 0.  1.
         -5    1    3    3    0  502 -0.11087586514E+02 -0.47922630796E+02 -0.11833846228E+03  0.12822237391E+03  0.41800000000E+01 0.  1.
        -11    1    4    4    0    0  0.42979639323E+02  0.15090364667E+02 -0.34677699275E+02  0.57249553091E+02  0.00000000000E+00 0.  1.
         11    1    4    4    0    0  0.46693676376E+02 -0.52268473806E+00 -0.26069404032E+03  0.26484326548E+03  0.00000000000E+00 0. -1.
</event>
<event>
 8    1  0.6860461E-009  0.9948202E+02  0.7561462E-02  0.1281389E+00
          2   -1    0    0  501    0  0.00000000000E+00  0.00000000000E+00  0.51568114130E+03  0.51568114130E+03  0.00000000000E+00 0. -1.
         -2   -1    0    0    0  501 -0.00000000000E+00 -0.00000000000E+00 -0.67459531868E+02  0.67459531868E+02  0.00000000000E+00 0.  1.
         25    2    1    2    0    0 -0.10781596830E+02  0.33268127592E+02  0.46580216576E+03  0.48357273031E+03  0.12509163334E+03 0.  0.
         23    2    1    2    0    0  0.10781596830E+02 -0.33268127592E+02 -0.17580556326E+02  0.99567942857E+02  0.91551560010E+02 0.  0.
          5    1    3    3  502    0 -0.64815353871E+01 -0.35328563134E+02  0.32319393286E+03  0.32521055997E+03  0.41800000000E+01 0.  1.
         -5    1    3    3    0  502 -0.43000614432E+01  0.68596690727E+02  0.14260823289E+03  0.15836217034E+03  0.41800000000E+01 0.  1.
        -11    1    4    4    0    0  0.18893362927E+02  0.27099188923E+02  0.71989934073E+01  0.33810511813E+02  0.00000000000E+00 0. -1.
         11    1    4    4    0    0 -0.81117660966E+01 -0.60367316516E+02 -0.24779549733E+02  0.65757431044E+02  0.00000000000E+00 0.  1.
</event>
<event>
 8    1  0.6860461E-009  0.1841530E+03  0.7561462E-02  0.1163843E+00
         -1   -1    0    0    0  501 -0.00000000000E+00  0.00000000000E+00  0.18417383810E+03  0.18417383810E+03  0.00000000000E+00 0.  1.
          1   -1    0    0  501    0  0.00000000000E+00 -0.00000000000E+00 -0.18851655650E+03  0.18851655650E+03  0.00000000000E+00 0. -1.
         25    2    1    2    0    0  0.13459248786E+03  0.66820968583E+02  0.13701573508E+02  0.19599931821E+03  0.12509124666E+03 0.  0.
         23    2    1    2    0    0 -0.13459248786E+03 -0.66820968583E+02 -0.18044291905E+02  0.17669107638E+03  0.91180921103E+02 0.  0.
          5    1    3    3  502    0  0.10014998266E+03 -0.19826225850E+02  0.64385164091E+01  0.10238176181E+03  0.41800000000E+01 0. -1.
         -5    1    3    3    0  502  0.34442505203E+02  0.86647194433E+02  0.72630570992E+01  0.93617556399E+02  0.41800000000E+01 0. -1.
        -11    1    4    4    0    0 -0.15228737669E+02  0.20039168355E+02  0.87697079470E+01  0.26653151724E+02  0.00000000000E+00 0.  1.
         11    1    4    4    0    0 -0.11936375019E+03 -0.86860136938E+02 -0.26813999852E+02  0.15003792466E+03  0.00000000000E+00 0. -1.
</event>
<event>
 8    1  0.6860461E-009  0.1230923E+03  0.7561462E-02  0.1238081E+00
         -3   -1    0    0    0  501 -0.00000000000E+00  0.00000000000E+00  0.10400978937E+03  0.10400978937E+03  0.00000000000E+00 0.  1.
          3   -1    0    0  501    0  0.00000000000E+00 -0.00000000000E+00 -0.19575567292E+03  0.19575567292E+03  0.00000000000E+00 0. -1.
         25    2    1    2    0    0 -0.31140608243E+02  0.62411010150E+02 -0.11661984326E+03  0.18468957522E+03  0.12508069268E+03 0.  0.
         23    2    1    2    0    0  0.31140608243E+02 -0.62411010150E+02  0.24873959705E+02  0.11507588707E+03  0.88084472211E+02 0.  0.
          5    1    3    3  502    0 -0.29582392347E+02 -0.29941860411E+02 -0.68371117514E+02  0.80397232863E+02  0.41800000000E+01 0.  1.
         -5    1    3    3    0  502 -0.15582158955E+01  0.92352870561E+02 -0.48248725746E+02  0.10429234235E+03  0.41800000000E+01 0.  1.
        -11    1    4    4    0    0 -0.29048290532E+01 -0.75053087107E+02  0.97646226248E+01  0.75741347830E+02  0.00000000000E+00 0.  1.
         11    1    4    4    0    0  0.34045437296E+02  0.12642076957E+02  0.15109337080E+02  0.39334539243E+02  0.00000000000E+00 0. -1.
</event>
<event>
 8    1  0.6860461E-009  0.1139190E+03  0.7561462E-02  0.1253480E+00
          1   -1    0    0  501    0  0.00000000000E+00  0.00000000000E+00  0.45751652626E+02  0.45751652626E+02  0.00000000000E+00 0. -1.
         -1   -1    0    0    0  501 -0.00000000000E+00 -0.00000000000E+00 -0.42356148462E+03  0.42356148462E+03  0.00000000000E+00 0.  1.
         25    2    1    2    0    0  0.69072390961E+02 -0.45300169777E+02 -0.15540998863E+03  0.21592220061E+03  0.12508809526E+03 0.  0.
         23    2    1    2    0    0 -0.69072390961E+02  0.45300169777E+02 -0.22239984337E+03  0.25339093663E+03  0.89006605733E+02 0.  0.
          5    1    3    3  502    0 -0.25709317398E+01 -0.49354903079E+02 -0.13089552014E+03  0.13997723294E+03  0.41800000000E+01 0.  1.
         -5    1    3    3    0  502  0.71643322700E+02  0.40547333023E+01 -0.24514468487E+02  0.75944967673E+02  0.41800000000E+01 0.  1.
        -11    1    4    4    0    0 -0.28433781357E+02  0.57316854207E+02 -0.18868403533E+03  0.19923696165E+03  0.00000000000E+00 0.  1.
         11    1    4    4    0    0 -0.40638609604E+02 -0.12016684430E+02 -0.33715808036E+02  0.54153974986E+02  0.00000000000E+00 0. -1.
</event>
<event>
 8    1  0.6860461E-009  0.1080196E+03  0.7561462E-02  0.1264282E+00
         -1   -1    0    0    0  501 -0.00000000000E+00  0.00000000000E+00  0.21169804330E+02  0.21169804330E+02  0.00000000000E+00 0.  1.
          1   -1    0    0  501    0  0.00000000000E+00 -0.00000000000E+00 -0.86447870671E+03  0.86447870671E+03  0.00000000000E+00 0. -1.
         25    2    1    2    0    0 -0.24387459348E+01 -0.69106746146E+02 -0.61216955534E+03  0.62863461420E+03  0.12509286087E+03 0.  0.
         23    2    1    2    0    0  0.24387459348E+01  0.69106746146E+02 -0.23113934705E+03  0.25701389685E+03  0.88594895875E+02 0.  0.
          5    1    3    3  502    0  0.41877228278E+01  0.16588097719E+02 -0.98103445330E+01  0.20159793359E+02  0.41800000000E+01 0.  1.
         -5    1    3    3    0  502 -0.66264687626E+01 -0.85694843865E+02 -0.60235921081E+03  0.60847482084E+03  0.41800000000E+01 0.  1.
        -11    1    4    4    0    0  0.26495602695E+02  0.81225870380E+02 -0.17415304532E+03  0.19398180887E+03  0.00000000000E+00 0.  1.
         11    1    4    4    0    0 -0.24056856760E+02 -0.12119124234E+02 -0.56986301729E+02  0.63032087973E+02  0.00000000000E+00 0. -1.
</event>
<event>
 8    1  0.6860461E-009  0.7452002E+02  0.7561462E-02  0.1345364E+00
          2   -1    0    0  501    0  0.00000000000E+00  0.00000000000E+00  0.38943003061E+03  0.38943003061E+03  0.00000000000E+00 0.  1.
         -2   -1    0    0    0  501 -0.00000000000E+00 -0.00000000000E+00 -0.53225604769E+02  0.53225604769E+02  0.00000000000E+00 0. -1.
         25    2    1    2    0    0 -0.22159274589E+02 -0.12690726658E+02  0.32777542461E+03  0.35176043092E+03  0.12508630536E+03 0.  0.
         23    2    1    2    0    0  0.22159274589E+02  0.12690726658E+02  0.84290012350E+01  0.90895204464E+02  0.86826275627E+02 0.  0.
          5    1    3    3  502    0  0.51478580767E+01  0.40867386998E+02  0.24982191920E+03  0.25322935745E+03  0.41800000000E+01 0. -1.
         -5    1    3    3    0  502 -0.27307132665E+02 -0.53558113656E+02  0.77953505407E+02  0.98531073464E+02  0.41800000000E+01 0. -1.
        -11    1    4    4    0    0 -0.53189372156E+01  0.18534384640E+02  0.42539396606E+02  0.46705618191E+02  0.00000000000E+00 0.  1.
         11    1    4    4    0    0  0.27478211804E+02 -0.58436579814E+01 -0.34110395371E+02  0.44189586272E+02  0.00000000000E+00 0. -1.
</event>
<event>
 8    1  0.6860461E-009  0.1016321E+03  0.7561462E-02  0.1276901E+00
         -3   -1    0    0    0  501 -0.00000000000E+00  0.00000000000E+00  0.92170180301E+02  0.92170180301E+02  0.00000000000E+00 0.  1.
          3   -1    0    0  501    0  0.00000000000E+00 -0.00000000000E+00 -0.16514165970E+03  0.16514165970E+03  0.00000000000E+00 0. -1.
         25    2    1    2    0    0 -0.12751088819E+02 -0.21709837617E+02  0.10637802219E+01  0.12760422428E+03  0.12509116320E+03 0.  0.
         23    2    1    2    0    0  0.12751088819E+02  0.21709837617E+02 -0.74035259625E+02  0.12970761572E+03  0.10348400163E+03 0.  0.
          5    1    3    3  502    0 -0.67302563340E+02  0.31480655891E+01  0.39993690753E+00  0.67506871492E+02  0.41800000000E+01 0.  1.
         -5    1    3    3    0  502  0.54551474522E+02 -0.24857903206E+02  0.66384331437E+00  0.60097352789E+02  0.41800000000E+01 0.  1.
        -11    1    4    4    0    0 -0.21767696410E+02 -0.14093039643E+02 -0.75626634784E+02  0.79948947848E+02  0.00000000000E+00 0. -1.
         11    1    4    4    0    0  0.34518785228E+02  0.35802877260E+02  0.15913751592E+01  0.49758667874E+02  0.00000000000E+00 0.  1.
</event>
<event>
 8    1  0.6860461E-009  0.1388085E+03  0.7561462E-02  0.1214941E+00
         -1   -1    0    0    0  501 -0.00000000000E+00  0.00000000000E+00  0.71902810020E+02  0.71902810020E+02  0.00000000000E+00 0.  1.
          1   -1    0    0  501    0  0.00000000000E+00 -0.00000000000E+00 -0.28287027690E+03  0.28287027690E+03  0.00000000000E+00 0. -1.
         25    2    1    2    0    0  0.32767242731E+02 -0.85412530964E+02 -0.13102367416E+03  0.20293851633E+03  0.12509134894E+03 0.  0.
         23    2    1    2    0    0 -0.32767242731E+02  0.85412530964E+02 -0.79943792719E+02  0.15183457059E+03  0.91069941194E+02 0.  0.
          5    1    3    3  502    0 -0.47770418797E+02 -0.39680519122E+02 -0.54296509461E+02  0.82596245977E+02  0.41800000000E+01 0. -1.
         -5    1    3    3    0  502  0.80537661528E+02 -0.45732011842E+02 -0.76727164699E+02  0.12034227036E+03  0.41800000000E+01 0. -1.
        -11    1    4    4    0    0  0.27043481145E+02  0.36345219079E+02 -0.76362348497E+01  0.45941668505E+02  0.00000000000E+00 0. -1.
         11    1    4    4    0    0 -0.59810723876E+02  0.49067311885E+02 -0.72307557869E+02  0.10589290208E+03  0.00000000000E+00 0.  1.
</event>
<event>
 8    1  0.6860461E-009  0.1782774E+03  0.7561462E-02  0.1169481E+00
          1   -1    0    0  501    0  0.00000000000E+00  0.00000000000E+00  0.25272811851E+03  0.25272811851E+03  0.00000000000E+00 0. -1.
         -1   -1    0    0    0  501 -0.00000000000E+00 -0.00000000000E+00 -0.14766208161E+03  0.14766208161E+03  0.00000000000E+00 0.  1.
         25    2    1    2    0    0  0.73722253147E+02  0.13785387641E+03  0.89739124554E+02  0.21940683945E+03  0.12509032286E+03 0.  0.
         23    2    1    2    0    0 -0.73722253147E+02 -0.13785387641E+03  0.15326912344E+02  0.18098336066E+03  0.89896611418E+02 0.  0.
          5    1    3    3  502    0  0.57461701739E+02  0.16042339695E+03  0.66677649531E+02  0.18303249657E+03  0.41800000000E+01 0.  1.
         -5    1    3    3    0  502  0.16260551408E+02 -0.22569520540E+02  0.23061475024E+02  0.36374342878E+02  0.41800000000E+01 0.  1.
        -11    1    4    4    0    0 -0.37697211504E+02 -0.93605845910E+02  0.51632430705E+02  0.11335361505E+03  0.00000000000E+00 0.  1.
         11    1    4    4    0    0 -0.36025041642E+02 -0.44248030499E+02 -0.36305518362E+02  0.67629745614E+02  0.00000000000E+00 0. -1.
</event>
<event>
 8    1  0.6860461E-009  0.9282731E+02  0.7561462E-02  0.1296146E+00
         -1   -1    0    0    0  501 -0.00000000000E+00  0.00000000000E+00  0.36365479013E+02  0.36365479013E+02  0.00000000000E+00 0. -1.
          1   -1    0    0  501    0  0.00000000000E+00 -0.00000000000E+00 -0.56998941160E+03  0.56998941160E+03  0.00000000000E+00 0.  1.
         25    2    1    2    0    0 -0.91544789523E+00  0.39334927927E+02 -0.47099939886E+03  0.48891269193E+03  0.12508841675E+03 0.  0.
         23    2    1    2    0    0  0.91544789523E+00 -0.39334927927E+02 -0.62624533726E+02  0.11744219868E+03  0.91229179579E+02 0.  0.
          5    1    3    3  502    0  0.27076926271E+02  0.53110517245E+02 -0.44229092795E+03  0.44631000922E+03  0.41800000000E+01 0.  1.
         -5    1    3    3    0  502 -0.27992374166E+02 -0.13775589318E+02 -0.28708470906E+02  0.42602682712E+02  0.41800000000E+01 0.  1.
        -11    1    4    4    0    0  0.15690193452E+02 -0.63874043185E+02 -0.25479307176E+02  0.70535598512E+02  0.00000000000E+00 0. -1.
         11    1    4    4    0    0 -0.14774745557E+02  0.24539115258E+02 -0.37145226550E+02  0.46906600168E+02  0.00000000000E+00 0.  1.
</event>
<event>
 8    1  0.6860461E-009  0.1303972E+03  0.7561462E-02  0.1226868E+00
          2   -1    0    0  501    0  0.00000000000E+00  0.00000000000E+00  0.61609402785E+02  0.61609402785E+02  0.00000000000E+00 0. -1.
         -2   -1    0    0    0  501 -0.00000000000E+00 -0.00000000000E+00 -0.28721112997E+03  0.28721112997E+03  0.00000000000E+00 0.  1.
         25    2    1    2    0    0 -0.12154961861E+02  0.69141632336E+02 -0.10820012652E+03  0.17967644073E+03  0.12509215625E+03 0.  0.
         23    2    1    2    0    0  0.12154961861E+02 -0.69141632336E+02 -0.11740160066E+03  0.16914409202E+03  0.99490098041E+02 0.  0.
          5    1    3    3  502    0  0.30395618482E+02 -0.23689613759E+02 -0.15675558631E+02  0.41812521585E+02  0.41800000000E+01 0. -1.
         -5    1    3    3    0  502 -0.42550580343E+02  0.92831246095E+02 -0.92524567892E+02  0.13786391915E+03  0.41800000000E+01 0. -1.
        -11    1    4    4    0    0 -0.36137598667E+02 -0.60931596415E+02 -0.54288849164E+02  0.89251692547E+02  0.00000000000E+00 0. -1.
         11    1    4    4    0    0  0.48292560528E+02 -0.82100359214E+01 -0.63112751501E+02  0.79892399477E+02  0.00000000000E+00 0.  1.
</event>
<event>
 8    1  0.6860461E-009  0.1158514E+03  0.7561462E-02  0.1250102E+00
          1   -1    0    0  501    0  0.00000000000E+00  0.00000000000E+00  0.13488434590E+03  0.13488434590E+03  0.00000000000E+00 0. -1.
         -1   -1    0    0    0  501 -0.00000000000E+00 -0.00000000000E+00 -0.10542166774E+03  0.10542166774E+03  0.00000000000E+00 0.  1.
         25    2    1    2    0    0  0.28918000237E+02  0.40196876148E+02  0.28747645895E+02  0.13756433230E+03  0.12508188832E+03 0.  0.
         23    2    1    2    0    0 -0.28918000237E+02 -0.40196876148E+02  0.71503226729E+00  0.10274168134E+03  0.90018343817E+02 0.  0.
          5    1    3    3  502    0  0.58924465723E+02  0.67036901065E+02  0.26205862204E+01  0.89388917867E+02  0.41800000000E+01 0. -1.
         -5    1    3    3    0  502 -0.30006465486E+02 -0.26840024917E+02  0.26127059675E+02  0.48175414433E+02  0.41800000000E+01 0. -1.
        -11    1    4    4    0    0 -0.33126771828E+02  0.21852489207E+02  0.67593419234E+01  0.40256713720E+02  0.00000000000E+00 0. -1.
         11    1    4    4    0    0  0.42087715904E+01 -0.62049365355E+02 -0.60443096561E+01  0.62484967620E+02  0.00000000000E+00 0.  1.
</event>
<event>
 8    1  0.6860461E-009  0.7881271E+02  0.7561462E-02  0.1332455E+00
          2   -1    0    0  501    0  0.00000000000E+00  0.00000000000E+00  0.39902854346E+03  0.39902854346E+03  0.00000000000E+00 0. -1.
         -2   -1    0    0    0  501 -0.00000000000E+00 -0.00000000000E+00 -0.30189055153E+02  0.30189055153E+02  0.00000000000E+00 0.  1.
         25    2    1    2    0    0  0.14203621411E+02  0.31346132831E+01  0.25135537068E+03  0.28113840177E+03  0.12509080669E+03 0.  0.
         23    2    1    2    0    0 -0.14203621411E+02 -0.31346132831E+01  0.11748411763E+03  0.14807919684E+03  0.88957079433E+02 0.  0.
          5    1    3    3  502    0  0.99218233751E+01 -0.40952851186E+02  0.22599233931E+03  0.22992518006E+03  0.41800000000E+01 0. -1.
         -5    1    3    3    0  502  0.42817980357E+01  0.44087464469E+02  0.25363031375E+02  0.51213221713E+02  0.41800000000E+01 0. -1.
        -11    1    4    4    0    0  0.25516272592E+02  0.12110312361E+02  0.61682423860E+01  0.28909981782E+02  0.00000000000E+00 0.  1.
         11    1    4    4    0    0 -0.39719894003E+02 -0.15244925644E+02  0.11131587524E+03  0.11916921506E+03  0.00000000000E+00 0. -1.
</event>
<event>
 8    1  0.6860461E-009  0.1198239E+03  0.7561462E-02  0.1243388E+00
          1   -1    0    0  501    0  0.00000000000E+00  0.00000000000E+00  0.43257526695E+03  0.43257526695E+03  0.00000000000E+00 0. -1.
         -1   -1    0    0    0  501 -0.00000000000E+00 -0.00000000000E+00 -0.37478215524E+02  0.37478215524E+02  0.00000000000E+00 0.  1.
         25    2    1    2    0    0  0.48621891800E+02  0.36054843762E+02  0.16365999165E+03  0.21469436924E+03  0.12508013110E+03 0.  0.
         23    2    1    2    0    0 -0.48621891800E+02 -0.36054843762E+02  0.23143705978E+03  0.25535911324E+03  0.89337136465E+02 0.  0.
          5    1    3    3  502    0 -0.27735747263E+02 -0.23569508558E+02  0.21092582300E+02  0.42274848764E+02  0.41800000000E+01 0.  1.
         -5    1    3    3    0  502  0.76357639064E+02  0.59624352320E+02  0.14256740935E+03  0.17241952048E+03  0.41800000000E+01 0.  1.
        -11    1    4    4    0    0  0.19380189606E+02  0.11981111714E+02  0.71603213286E+02  0.75140927197E+02  0.00000000000E+00 0. -1.
         11    1    4    4    0    0 -0.68002081406E+02 -0.48035955476E+02  0.15983384649E+03  0.18021818604E+03  0.00000000000E+00 0.  1.
</event>
<event>
 8    1  0.6860461E-009  0.1634763E+03  0.7561462E-02  0.1184827E+00
         -1   -1    0    0    0  501 -0.00000000000E+00  0.00000000000E+00  0.40493941888E+02  0.40493941888E+02  0.00000000000E+00 0. -1.
          1   -1    0    0  501    0  0.00000000000E+00 -0.00000000000E+00 -0.92781695126E+03  0.92781695126E+03  0.00000000000E+00 0.  1.
         25    2    1    2    0    0  0.12595293928E+03  0.85301526697E+02 -0.33804750697E+03  0.39123388817E+03  0.12508934773E+03 0.  0.
         23    2    1    2    0    0 -0.12595293928E+03 -0.85301526697E+02 -0.54927550240E+03  0.57707700498E+03  0.90409063525E+02 0.  0.
          5    1    3    3  502    0  0.69919474404E+02 -0.28651730770E+01 -0.53796594874E+02  0.88365650214E+02  0.41800000000E+01 0. -1.
         -5    1    3    3    0  502  0.56033464871E+02  0.88166699774E+02 -0.28425091209E+03  0.30286823795E+03  0.41800000000E+01 0. -1.
        -11    1    4    4    0    0 -0.84048566473E+02 -0.52657778057E+02 -0.47802075355E+03  0.48820164271E+03  0.00000000000E+00 0.  1.
         11    1    4    4    0    0 -0.41904372802E+02 -0.32643748640E+02 -0.71254748852E+02  0.88875362273E+02  0.00000000000E+00 0. -1.
</event>
<event>
 8    1  0.6860461E-009  0.1534897E+03  0.7561462E-02  0.1196249E+00
         -2   -1    0    0    0  501 -0.00000000000E+00  0.00000000000E+00  0.23185729425E+03  0.23185729425E+03  0.00000000000E+00 0.  1.
          2   -1    0    0  501    0  0.00000000000E+00 -0.00000000000E+00 -0.13594869871E+03  0.13594869871E+03  0.00000000000E+00 0. -1.
         25    2    1    2    0    0 -0.12996354602E+03 -0.50866688404E+02  0.63196623678E+02  0.19777700687E+03  0.12507592862E+03 0.  0.
         23    2    1    2    0    0  0.12996354602E+03  0.50866688404E+02  0.32711971866E+02  0.17002898608E+03  0.91443095542E+02 0.  0.
          5    1    3    3  502    0 -0.41851734284E+02 -0.95759223170E+01  0.87358518277E+02  0.97428173884E+02  0.41800000000E+01 0.  1.
         -5    1    3    3    0  502 -0.88111811735E+02 -0.41290766087E+02 -0.24161894599E+02  0.10034883299E+03  0.41800000000E+01 0.  1.
        -11    1    4    4    0    0  0.51943560684E+02  0.68981256236E+02  0.22890552873E+02  0.89333782072E+02  0.00000000000E+00 0.  1.
         11    1    4    4    0    0  0.78019985335E+02 -0.18114567833E+02  0.98214189926E+01  0.80695204011E+02  0.00000000000E+00 0. -1.
</event>
<event>
 8    1  0.6860461E-009  0.1038590E+03  0.7561462E-02  0.1272384E+00
         -1   -1    0    0    0  501 -0.00000000000E+00  0.00000000000E+00  0.21083300371E+03  0.21083300371E+03  0.00000000000E+00 0.  1.
          1   -1    0    0  501    0  0.00000000000E+00 -0.00000000000E+00 -0.82174261405E+02  0.82174261405E+02  0.00000000000E+00 0. -1.
         25    2    1    2    0    0 -0.69574499115E+02  0.19534647615E+02  0.48342351126E+02  0.15233999884E+03  0.12509308114E+03 0.  0.
         23    2    1    2    0    0  0.69574499115E+02 -0.19534647615E+02  0.80316391181E+02  0.14066726628E+03  0.90079652113E+02 0.  0.
          5    1    3    3  502    0 -0.87499768769E+01 -0.37792205814E+02 -0.20410774587E+02  0.44032772282E+02  0.41800000000E+01 0. -1.
         -5    1    3    3    0  502 -0.60824522238E+02  0.57326853429E+02  0.68753125712E+02  0.10830722656E+03  0.41800000000E+01 0. -1.
        -11    1    4    4    0    0  0.65561264042E+02 -0.50158521380E+00  0.95605324352E+02  0.11592630838E+03  0.00000000000E+00 0.  1.
         11    1    4    4    0    0  0.40132350731E+01 -0.19033062401E+02 -0.15288933170E+02  0.24740957896E+02  0.00000000000E+00 0. -1.
</event>
<event>
 8    1  0.6860461E-009  0.1328591E+03  0.7561462E-02  0.1223274E+00
          2   -1    0    0  501    0  0.00000000000E+00  0.00000000000E+00  0.15030337684E+04  0.15030337684E+04  0.00000000000E+00 0. -1.
         -2   -1    0    0    0  501 -0.00000000000E+00 -0.00000000000E+00 -0.18142514989E+02  0.18142514989E+02  0.00000000000E+00 0.  1.
         25    2    1    2    0    0 -0.24869446293E+02 -0.10011058060E+03  0.11130277669E+04  0.11247758077E+04  0.12509672248E+03 0.  0.
         23    2    1    2    0    0  0.24869446293E+02  0.10011058060E+03  0.37186348645E+03  0.39640047564E+03  0.90610522682E+02 0.  0.
          5    1    3    3  502    0  0.26735261551E+02  0.15986875345E+02  0.33040902926E+03  0.33190051734E+03  0.41800000000E+01 0. -1.
         -5    1    3    3    0  502 -0.51604707844E+02 -0.11609745595E+03  0.78261873767E+03  0.79287529039E+03  0.41800000000E+01 0. -1.
        -11    1    4    4    0    0 -0.21185910503E+01  0.51711610054E+02  0.30590982723E+03  0.31025699257E+03  0.00000000000E+00 0. -1.
         11    1    4    4    0    0  0.26988037343E+02  0.48398970551E+02  0.65953659219E+02  0.86143483064E+02  0.00000000000E+00 0.  1.
</event>
<event>
 8    1  0.6860461E-009  0.1128783E+03  0.7561462E-02  0.1255331E+00
          2   -1    0    0  501    0  0.00000000000E+00  0.00000000000E+00  0.57033353455E+03  0.57033353455E+03  0.00000000000E+00 0.  1.
         -2   -1    0    0    0  501 -0.00000000000E+00 -0.00000000000E+00 -0.35044988663E+02  0.35044988663E+02  0.00000000000E+00 0. -1.
         25    2    1    2    0    0  0.59923191426E+01 -0.77261208253E+02  0.18908084552E+03  0.23959389177E+03  0.12509382335E+03 0.  0.
         23    2    1    2    0    0 -0.59923191426E+01  0.77261208253E+02  0.34620770037E+03  0.36578463145E+03  0.89069762652E+02 0.  0.
          5    1    3    3  502    0  0.39167571028E+02 -0.28674847245E+02  0.82856885028E+01  0.49421356909E+02  0.41800000000E+01 0.  1.
         -5    1    3    3    0  502 -0.33175251886E+02 -0.48586361007E+02  0.18079515702E+03  0.19017253486E+03  0.41800000000E+01 0.  1.
        -11    1    4    4    0    0  0.24382130386E+02  0.83550452486E+02  0.25338152080E+03  0.26791297370E+03  0.00000000000E+00 0. -1.
         11    1    4    4    0    0 -0.30374449529E+02 -0.62892442336E+01  0.92826179567E+02  0.97871657747E+02  0.00000000000E+00 0.  1.
</event>
<event>
 8    1  0.6860461E-009  0.7072374E+02  0.7561462E-02  0.1357649E+00
          1   -1    0    0  501    0  0.00000000000E+00  0.00000000000E+00  0.72282502062E+03  0.72282502062E+03  0.00000000000E+00 0. -1.
         -1   -1    0    0    0  501 -0.00000000000E+00 -0.00000000000E+00 -0.22604385250E+02  0.22604385250E+02  0.00000000000E+00 0.  1.
         25    2    1    2    0    0  0.46829967384E+02  0.39884631362E+02  0.46095738733E+03  0.48157019174E+03  0.12507720407E+03 0.  0.
         23    2    1    2    0    0 -0.46829967384E+02 -0.39884631362E+02  0.23926324804E+03  0.26385921413E+03  0.92687395870E+02 0.  0.
          5    1    3    3  502    0  0.85958316268E+01  0.26623953840E+02  0.11925034580E+02  0.30698568194E+02  0.41800000000E+01 0. -1.
         -5    1    3    3    0  502  0.38234135757E+02  0.13260677522E+02  0.44903235275E+03  0.45087162355E+03  0.41800000000E+01 0. -1.
        -11    1    4    4    0    0 -0.34790326539E+02 -0.47011893752E+02  0.24253814176E+03  0.24948995007E+03  0.00000000000E+00 0. -1.
         11    1    4    4    0    0 -0.12039640844E+02  0.71272623905E+01 -0.32748937193E+01  0.14369264063E+02  0.00000000000E+00 0.  1.
</event>
<event>
 8    1  0.6860461E-009  0.6009788E+02  0.7561462E-02  0.1397421E+00
          1   -1    0    0  501    0  0.00000000000E+00  0.00000000000E+00  0.88431584302E+02  0.88431584302E+02  0.00000000000E+00 0. -1.
         -1   -1    0    0    0  501 -0.00000000000E+00 -0.00000000000E+00 -0.18345550267E+03  0.18345550267E+03  0.00000000000E+00 0.  1.
         25    2    1    2    0    0 -0.51530311908E+02  0.11876338901E+02 -0.11114119218E+03  0.17548812504E+03  0.12508915604E+03 0.  0.
         23    2    1    2    0    0  0.51530311908E+02 -0.11876338901E+02  0.16117273818E+02  0.96398961929E+02  0.78971975248E+02 0.  0.
          5    1    3    3  502    0 -0.32632371815E+02  0.25535756554E+02  0.17141776625E+02  0.45036201649E+02  0.41800000000E+01 0. -1.
         -5    1    3    3    0  502 -0.18897940093E+02 -0.13659417653E+02 -0.12828296881E+03  0.13045192339E+03  0.41800000000E+01 0. -1.
        -11    1    4    4    0    0  0.14519229187E+02  0.32478566459E+01  0.44791358693E+02  0.47197694886E+02  0.00000000000E+00 0. -1.
         11    1    4    4    0    0  0.37011082721E+02 -0.15124195547E+02 -0.28674084875E+02  0.49201267042E+02  0.00000000000E+00 0.  1.
</event>
<event>
 8    1  0.6860461E-009  0.1006535E+03  0.7561462E-02  0.1278928E+00
          1   -1    0    0  501    0  0.00000000000E+00  0.00000000000E+00  0.22590696645E+02  0.22590696645E+02  0.00000000000E+00 0. -1.
         -1   -1    0    0    0  501 -0.00000000000E+00 -0.00000000000E+00 -0.70505821114E+03  0.70505821114E+03  0.00000000000E+00 0.  1.
         25    2    1    2    0    0 -0.20044758418E+02 -0.17928690247E+02 -0.54872556119E+03  0.56344438924E+03  0.12508640210E+03 0.  0.
         23    2    1    2    0    0  0.20044758418E+02  0.17928690247E+02 -0.13374195330E+03  0.16420451854E+03  0.91394658281E+02 0.  0.
          5    1    3    3  502    0 -0.66721577094E+02  0.17072362965E+02 -0.27315016049E+03  0.28172986530E+03  0.41800000000E+01 0. -1.
         -5    1    3    3    0  502  0.46676818676E+02 -0.35001053212E+02 -0.27557540070E+03  0.28171452394E+03  0.41800000000E+01 0. -1.
        -11    1    4    4    0    0  0.36603536575E+02  0.34565367398E+02 -0.31690592519E+02  0.59488462473E+02  0.00000000000E+00 0. -1.
         11    1    4    4    0    0 -0.16558778158E+02 -0.16636677151E+02 -0.10205136078E+03  0.10471605607E+03  0.00000000000E+00 0.  1.
</event>
<event>
 8    1  0.6860461E-009  0.1455254E+03  0.7561462E-02  0.1206082E+00
         -1   -1    0    0    0  501 -0.00000000000E+00  0.00000000000E+00  0.30746950562E+03  0.30746950562E+03  0.00000000000E+00 0.  1.
          1   -1    0    0  501    0  0.00000000000E+00 -0.00000000000E+00 -0.92779688100E+02  0.92779688100E+02  0.00000000000E+00 0. -1.
         25    2    1    2    0    0  0.44508329621E+02 -0.11061464245E+03  0.17292586684E+03  0.24447387644E+03  0.12509008876E+03 0.  0.
         23    2    1    2    0    0 -0.44508329621E+02  0.11061464245E+03  0.41763950677E+02  0.15577531728E+03  0.91132493472E+02 0.  0.
          5    1    3    3  502    0  0.52519184708E+02 -0.13239996956E+03  0.11912914318E+03  0.18573433139E+03  0.41800000000E+01 0.  1.
         -5    1    3    3    0  502 -0.80108550862E+01  0.21785327104E+02  0.53796723655E+02  0.58739545047E+02  0.41800000000E+01 0.  1.
        -11    1    4    4    0    0 -0.49484100870E+02  0.80853226360E+02  0.67292464834E+02  0.11625057538E+03  0.00000000000E+00 0.  1.
         11    1    4    4    0    0  0.49757712490E+01  0.29761416093E+02 -0.25528514157E+02  0.39524741903E+02  0.00000000000E+00 0. -1.
</event>
<event>
 8    1  0.6860461E-009  0.1510840E+03  0.7561462E-02  0.1199147E+00
         -3   -1    0    0    0  501 -0.00000000000E+00  0.00000000000E+00  0.11725218384E+03  0.11725218384E+03  0.00000000000E+00 0.  1.
          3   -1    0    0  501    0  0.00000000000E+00 -0.00000000000E+00 -0.39859960472E+03  0.39859960472E+03  0.00000000000E+00 0. -1.
         25    2    1    2    0    0  0.97017693867E+02  0.44151941970E+02 -0.32432619641E+03  0.36358884918E+03  0.12509013816E+03 0.  0.
         23    2    1    2    0    0 -0.97017693867E+02 -0.44151941970E+02  0.42978775527E+02  0.15226293938E+03  0.99874925076E+02 0.  0.
          5    1    3    3  502    0  0.92494528211E+02 -0.18981124522E+02 -0.24096253007E+03  0.25883572809E+03  0.41800000000E+01 0. -1.
         -5    1    3    3    0  502  0.45231656562E+01  0.63133066492E+02 -0.83363666344E+02  0.10475312109E+03  0.41800000000E+01 0. -1.
        -11    1    4    4    0    0 -0.62181005586E+02  0.24819021591E+02  0.79408207257E+01  0.67420456259E+02  0.00000000000E+00 0.  1.
         11    1    4    4    0    0 -0.34836688281E+02 -0.68970963561E+02  0.35037954801E+02  0.84842483118E+02  0.00000000000E+00 0. -1.
</event>
<event>
 8    1  0.6860461E-009  0.1395103E+03  0.7561462E-02  0.1213989E+00
          1   -1    0    0  501    0  0.00000000000E+00  0.00000000000E+00  0.14720314340E+03  0.14720314340E+03  0.00000000000E+00 0. -1.
         -1   -1    0    0    0  501 -0.00000000000E+00 -0.00000000000E+00 -0.22558957990E+03  0.22558957990E+03  0.00000000000E+00 0.  1.
         25    2    1    2    0    0  0.80549369470E+02  0.77801484815E+02  0.57115915273E+02  0.17734447153E+03  0.12509021481E+03 0.  0.
         23    2    1    2    0    0 -0.80549369470E+02 -0.77801484815E+02 -0.13550235177E+03  0.19544825177E+03  0.85427512091E+02 0.  0.
          5    1    3    3  502    0 -0.14788823090E+02  0.27375700143E+02 -0.26283354188E+02  0.40944173628E+02  0.41800000000E+01 0.  1.
         -5    1    3    3    0  502  0.95338192559E+02  0.50425784672E+02  0.83399269462E+02  0.13640029790E+03  0.41800000000E+01 0.  1.
        -11    1    4    4    0    0 -0.85891795230E+02 -0.29082570252E+02 -0.99579358586E+02  0.13468201453E+03  0.00000000000E+00 0.  1.
         11    1    4    4    0    0  0.53424257599E+01 -0.48718914563E+02 -0.35922993185E+02  0.60766237242E+02  0.00000000000E+00 0. -1.
</event>
<event>
 8    1  0.6860461E-009  0.1535843E+03  0.7561462E-02  0.1196137E+00
         -1   -1    0    0    0  501 -0.00000000000E+00  0.00000000000E+00  0.52844321892E+02  0.52844321892E+02  0.00000000000E+00 0.  1.
          1   -1    0    0  501    0  0.00000000000E+00 -0.00000000000E+00 -0.46748508968E+03  0.46748508968E+03  0.00000000000E+00 0. -1.
         25    2    1    2    0    0  0.11008690612E+02  0.10973020109E+03 -0.27637473642E+03  0.32278818807E+03  0.12508921267E+03 0.  0.
         23    2    1    2    0    0 -0.11008690612E+02 -0.10973020109E+03 -0.13826603137E+03  0.19754122350E+03  0.87995063793E+02 0.  0.
          5    1    3    3  502    0  0.33389859722E+02 -0.17156488583E+02 -0.58615559574E+02  0.69731514088E+02  0.41800000000E+01 0. -1.
         -5    1    3    3    0  502 -0.22381169110E+02  0.12688668967E+03 -0.21775917684E+03  0.25305667398E+03  0.41800000000E+01 0. -1.
        -11    1    4    4    0    0 -0.46293271276E+02 -0.35649425311E+02 -0.48622842551E+02  0.76014007315E+02  0.00000000000E+00 0.  1.
         11    1    4    4    0    0  0.35284580663E+02 -0.74080775779E+02 -0.89643188819E+02  0.12152721619E+03  0.00000000000E+00 0. -1.
</event>
<event>
 8    1  0.6860461E-009  0.8505038E+02  0.7561462E-02  0.1315301E+00
         -2   -1    0    0    0  501 -0.00000000000E+00  0.00000000000E+00  0.42377863286E+02  0.42377863286E+02  0.00000000000E+00 0.  1.
          2   -1    0    0  501    0  0.00000000000E+00 -0.00000000000E+00 -0.34778965431E+03  0.34778965431E+03  0.00000000000E+00 0. -1.
         25    2    1    2    0    0 -0.45919447907E+01 -0.41526986538E+02 -0.11171868508E+03  0.17284469712E+03  0.12509455687E+03 0.  0.
         23    2    1    2    0    0  0.45919447907E+01  0.41526986538E+02 -0.19369310595E+03  0.21732282048E+03  0.89255881827E+02 0.  0.
          5    1    3    3  502    0 -0.64671145636E+01 -0.58072639145E+02 -0.13310148474E+03  0.14542260013E+03  0.41800000000E+01 0. -1.
         -5    1    3    3    0  502  0.18751697729E+01  0.16545652607E+02  0.21382799665E+02  0.27422096990E+02  0.41800000000E+01 0. -1.
        -11    1    4    4    0    0  0.41155615138E+02  0.40548077953E+02 -0.86145333168E+02  0.10372535712E+03  0.00000000000E+00 0.  1.
         11    1    4    4    0    0 -0.36563670347E+02  0.97890858479E+00 -0.10754777278E+03  0.11359746336E+03  0.00000000000E+00 0. -1.
</event>
<event>
 8    1  0.6860461E-009  0.1022803E+03  0.7561462E-02  0.1275573E+00
         -2   -1    0    0    0  501 -0.00000000000E+00  0.00000000000E+00  0.49003041637E+02  0.49003041637E+02  0.00000000000E+00 0.  1.
          2   -1    0    0  501    0  0.00000000000E+00 -0.00000000000E+00 -0.35091410896E+03  0.35091410896E+03  0.00000000000E+00 0. -1.
         25    2    1    2    0    0 -0.45361378594E+02 -0.33901913858E+02 -0.23750959936E+03  0.27434417175E+03  0.12508765068E+03 0.  0.
         23    2    1    2    0    0  0.45361378594E+02  0.33901913858E+02 -0.64401467963E+02  0.12557297885E+03  0.91728019218E+02 0.  0.
          5    1    3    3  502    0  0.22120885822E+02 -0.15852795807E+02 -0.18452798041E+03  0.18657087843E+03  0.41800000000E+01 0. -1.
         -5    1    3    3    0  502 -0.67482264416E+02 -0.18049118051E+02 -0.52981618950E+02  0.87773293317E+02  0.41800000000E+01 0. -1.
        -11    1    4    4    0    0  0.39776530808E+01 -0.30356547652E+02 -0.11903540271E+02  0.32848683084E+02  0.00000000000E+00 0.  1.
         11    1    4    4    0    0  0.41383725514E+02  0.64258461509E+02 -0.52497927692E+02  0.92724295764E+02  0.00000000000E+00 0. -1.
</event>
<event>
 8    1  0.6860461E-009  0.9329147E+02  0.7561462E-02  0.1295071E+00
         -1   -1    0    0    0  501 -0.00000000000E+00  0.00000000000E+00  0.83507915198E+02  0.83507915198E+02  0.00000000000E+00 0.  1.
          1   -1    0    0  501    0  0.00000000000E+00 -0.00000000000E+00 -0.39164704156E+03  0.39164704156E+03  0.00000000000E+00 0. -1.
         25    2    1    2    0    0 -0.28325347894E+02  0.45861919217E+01 -0.35148978873E+03  0.37418756084E+03  0.12509156893E+03 0.  0.
         23    2    1    2    0    0  0.28325347894E+02 -0.45861919217E+01  0.43350662363E+02  0.10096739592E+03  0.86555049661E+02 0.  0.
          5    1    3    3  502    0 -0.36172750429E+02 -0.38114777987E+02 -0.30841074749E+03  0.31288315030E+03  0.41800000000E+01 0.  1.
         -5    1    3    3    0  502  0.78474025343E+01  0.42700969909E+02 -0.43079041237E+02  0.61304410540E+02  0.41800000000E+01 0.  1.
        -11    1    4    4    0    0  0.59146624007E+02 -0.39431537240E+00  0.35132075110E+02  0.68794922179E+02  0.00000000000E+00 0. -1.
         11    1    4    4    0    0 -0.30821276112E+02 -0.41918765493E+01  0.82185872529E+01  0.32172473741E+02  0.00000000000E+00 0.  1.
</event>
<event>
 8    1  0.6860461E-009  0.1680241E+03  0.7561462E-02  0.1179924E+00
         -4   -1    0    0    0  501 -0.00000000000E+00  0.00000000000E+00  0.55289197673E+03  0.55289197673E+03  0.00000000000E+00 0.  1.
          4   -1    0    0  501    0  0.00000000000E+00 -0.00000000000E+00 -0.70829735110E+02  0.70829735110E+02  0.00000000000E+00 0. -1.
         25    2    1    2    0    0 -0.13359080156E+03  0.61465872189E+02  0.37016627297E+03  0.41748908441E+03  0.12509800261E+03 0.  0.
         23    2    1    2    0    0  0.13359080156E+03 -0.61465872189E+02  0.11189596865E+03  0.20623262743E+03  0.91578562497E+02 0.  0.
          5    1    3    3  502    0 -0.12060271032E+03  0.93670356493E+02  0.33346690379E+03  0.36679258137E+03  0.41800000000E+01 0. -1.
         -5    1    3    3    0  502 -0.12988091238E+02 -0.32204484303E+02  0.36699369179E+02  0.50696503049E+02  0.41800000000E+01 0. -1.
        -11    1    4    4    0    0  0.28298207761E+02 -0.22073830123E+02 -0.13020222140E+02  0.38178118384E+02  0.00000000000E+00 0. -1.
         11    1    4    4    0    0  0.10529259380E+03 -0.39392042066E+02  0.12491619079E+03  0.16805450904E+03  0.00000000000E+00 0.  1.
</event>
<event>
 8    1  0.6860461E-009  0.8185679E+02  0.7561462E-02  0.1323863E+00
         -1   -1    0    0    0  501 -0.00000000000E+00  0.00000000000E+00  0.42689959495E+02  0.42689959495E+02  0.00000000000E+00 0.  1.
          1   -1    0    0  501    0  0.00000000000E+00 -0.00000000000E+00 -0.37068394865E+03  0.37068394865E+03  0.00000000000E+00 0. -1.
         25    2    1    2    0    0  0.35442626017E+02 -0.29219425647E+01 -0.93452436378E+02  0.16014680611E+03  0.12509566002E+03 0.  0.
         23    2    1    2    0    0 -0.35442626017E+02  0.29219425647E+01 -0.23454155277E+03  0.25322710203E+03  0.88597447685E+02 0.  0.
          5    1    3    3  502    0 -0.14445671638E+02  0.10886451933E+02 -0.10526350443E+03  0.10688811922E+03  0.41800000000E+01 0.  1.
         -5    1    3    3    0  502  0.49888297655E+02 -0.13808394498E+02  0.11811068052E+02  0.53258686897E+02  0.41800000000E+01 0.  1.
        -11    1    4    4    0    0 -0.55686920349E+02 -0.23064719042E+02 -0.12385675270E+03  0.13774436305E+03  0.00000000000E+00 0.  1.
         11    1    4    4    0    0  0.20244294332E+02  0.25986661606E+02 -0.11068480008E+03  0.11548273898E+03  0.00000000000E+00 0. -1.
</event>
<event>
 8    1  0.6860461E-009  0.8966259E+02  0.7561462E-02  0.1303671E+00
         -2   -1    0    0    0  501 -0.00000000000E+00  0.00000000000E+00  0.19375517618E+02  0.19375517618E+02  0.00000000000E+00 0.  1.
          2   -1    0    0  501    0  0.00000000000E+00 -0.00000000000E+00 -0.98131382453E+03  0.98131382453E+03  0.00000000000E+00 0. -1.
         25    2    1    2    0    0  0.43984699257E+02 -0.15472053176E+02 -0.79306532920E+03  0.80422179410E+03  0.12508412980E+03 0.  0.
         23    2    1    2    0    0 -0.43984699257E+02  0.15472053176E+02 -0.16887297772E+03  0.19646754805E+03  0.88923431312E+02 0.  0.
          5    1    3    3  502    0 -0.19419143780E+02 -0.10723112728E+02 -0.25661125429E+02  0.34176805731E+02  0.41800000000E+01 0. -1.
         -5    1    3    3    0  502  0.63403843036E+02 -0.47489404481E+01 -0.76740420377E+03  0.77004498837E+03  0.41800000000E+01 0. -1.
        -11    1    4    4    0    0  0.10598413024E+02 -0.23624188243E+02 -0.85983539498E+02  0.89797537235E+02  0.00000000000E+00 0. -1.
         11    1    4    4    0    0 -0.54583112281E+02  0.39096241419E+02 -0.82889438217E+02  0.10667001082E+03  0.00000000000E+00 0.  1.
</event>
<event>
 8    1  0.6860461E-009  0.1544000E+03  0.7561462E-02  0.1195168E+00
         -1   -1    0    0    0  501 -0.00000000000E+00  0.00000000000E+00  0.34296743887E+02  0.34296743887E+02  0.00000000000E+00 0. -1.
          1   -1    0    0  501    0  0.00000000000E+00 -0.00000000000E+00 -0.10280470220E+04  0.10280470220E+04  0.00000000000E+00 0.  1.
         25    2    1    2    0    0 -0.29142015997E+02  0.14601063530E+03 -0.61582503592E+03  0.64579909908E+03  0.12509052240E+03 0.  0.
         23    2    1    2    0    0  0.29142015997E+02 -0.14601063530E+03 -0.37792524222E+03  0.41654466683E+03  0.92269215031E+02 0.  0.
          5    1    3    3  502    0 -0.31105446799E+02  0.11135322607E+03 -0.59268634963E+03  0.60387223087E+03  0.41800000000E+01 0. -1.
         -5    1    3    3    0  502  0.19634308021E+01  0.34657409228E+02 -0.23138686288E+02  0.41926868211E+02  0.41800000000E+01 0. -1.
        -11    1    4    4    0    0 -0.63292908965E+01 -0.99254028445E+02 -0.14157682221E+03  0.17301855008E+03  0.00000000000E+00 0.  1.
         11    1    4    4    0    0  0.35471306894E+02 -0.46756606851E+02 -0.23634842001E+03  0.24352611675E+03  0.00000000000E+00 0. -1.
</event>
<event>
 8    1  0.6860461E-009  0.1944458E+03  0.7561462E-02  0.1154512E+00
          2   -1    0    0  501    0  0.00000000000E+00  0.00000000000E+00  0.29229673427E+03  0.29229673427E+03  0.00000000000E+00 0. -1.
         -2   -1    0    0    0  501 -0.00000000000E+00 -0.00000000000E+00 -0.15026196812E+03  0.15026196812E+03  0.00000000000E+00 0.  1.
         25    2    1    2    0    0  0.17207281921E+03  0.24285681011E+02  0.12191111232E+03  0.24639235034E+03  0.12509205246E+03 0.  0.
         23    2    1    2    0    0 -0.17207281921E+03 -0.24285681011E+02  0.20123653831E+02  0.19616635205E+03  0.88754869267E+02 0.  0.
          5    1    3    3  502    0 -0.34095564997E+01  0.24922923723E+02 -0.94015820712E+01  0.27177920227E+02  0.41800000000E+01 0.  1.
         -5    1    3    3    0  502  0.17548237571E+03 -0.63724271272E+00  0.13131269439E+03  0.21921443011E+03  0.41800000000E+01 0.  1.
        -11    1    4    4    0    0 -0.31567731416E+02  0.23603387221E+02 -0.17352311784E+02  0.43066742148E+02  0.00000000000E+00 0.  1.
         11    1    4    4    0    0 -0.14050508779E+03 -0.47889068232E+02  0.37475965615E+02  0.15309960990E+03  0.00000000000E+00 0. -1.
</event>
<event>
 8    1  0.6860461E-009  0.1477121E+03  0.7561462E-02  0.1203313E+00
         -2   -1    0    0    0  501 -0.00000000000E+00  0.00000000000E+00  0.10965587105E+03  0.10965587105E+03  0.00000000000E+00 0.  1.
          2   -1    0    0  501    0  0.00000000000E+00 -0.00000000000E+00 -0.28139247021E+03  0.28139247021E+03  0.00000000000E+00 0. -1.
         25    2    1    2    0    0  0.49555492528E+02 -0.12175263010E+03 -0.33729085007E+02  0.18456164218E+03  0.12508356731E+03 0.  0.
         23    2    1    2    0    0 -0.49555492528E+02  0.12175263010E+03 -0.13800751415E+03  0.20648669909E+03  0.79443270092E+02 0.  0.
          5    1    3    3  502    0  0.13946669566E+01 -0.10207708093E+03 -0.67445634525E+02  0.12242573898E+03  0.41800000000E+01 0. -1.
         -5    1    3    3    0  502  0.48160825571E+02 -0.19675549169E+02  0.33716549518E+02  0.62135903198E+02  0.41800000000E+01 0. -1.
        -11    1    4    4    0    0  0.10236435966E+01  0.65122064144E+02 -0.10529530915E+03  0.12381047296E+03  0.00000000000E+00 0. -1.
         11    1    4    4    0    0 -0.50579136124E+02  0.56630565959E+02 -0.32712205000E+02  0.82676226135E+02  0.00000000000E+00 0.  1.
</event>
<event>
 8    1  0.6860461E-009  0.1967078E+03  0.7561462E-02  0.1152547E+00
          1   -1    0    0  501    0  0.00000000000E+00  0.00000000000E+00  0.28192369329E+03  0.28192369329E+03  0.00000000000E+00 0. -1.
         -1   -1    0    0    0  501 -0.00000000000E+00 -0.00000000000E+00 -0.16368789901E+03  0.16368789901E+03  0.00000000000E+00 0.  1.
         25    2    1    2    0    0 -0.70235026523E+02 -0.17067015434E+03  0.75475453395E+02  0.23538352426E+03  0.12509036292E+03 0.  0.
         23    2    1    2    0    0  0.70235026523E+02  0.17067015434E+03  0.42760340885E+02  0.21022806803E+03  0.91137990445E+02 0.  0.
          5    1    3    3  502    0 -0.56088324951E+02 -0.33548226876E+02 -0.19028658015E+02  0.68197844161E+02  0.41800000000E+01 0.  1.
         -5    1    3    3    0  502 -0.14146701571E+02 -0.13712192747E+03  0.94504111410E+02  0.16718568010E+03  0.41800000000E+01 0.  1.
        -11    1    4    4    0    0 -0.46472290948E+01  0.32729514676E+02 -0.22771393285E+02  0.40141676863E+02  0.00000000000E+00 0.  1.
         11    1    4    4    0    0  0.74882255618E+02  0.13794063967E+03  0.65531734171E+02  0.17008639117E+03  0.00000000000E+00 0. -1.
</event>
<event>
 8    1  0.6860461E-009  0.8706402E+02  0.7561462E-02  0.1310121E+00
          1   -1    0    0  501    0  0.00000000000E+00  0.00000000000E+00  0.78852473024E+03  0.78852473024E+03  0.00000000000E+00 0. -1.
         -1   -1    0    0    0  501 -0.00000000000E+00 -0.00000000000E+00 -0.21089547292E+02  0.21089547292E+02  0.00000000000E+00 0.  1.
         25    2    1    2    0    0  0.37930582436E+02 -0.32746092600E+02  0.55547880925E+03  0.57158981670E+03  0.12508867002E+03 0.  0.
         23    2    1    2    0    0 -0.37930582436E+02  0.32746092600E+02  0.21195637369E+03  0.23802446083E+03  0.96016164976E+02 0.  0.
          5    1    3    3  502    0  0.59588238277E+02 -0.50005484801E+02  0.52270847890E+03  0.52848172434E+03  0.41800000000E+01 0.  1.
         -5    1    3    3    0  502 -0.21657655841E+02  0.17259392201E+02  0.32770330351E+02  0.43108092361E+02  0.41800000000E+01 0.  1.
        -11    1    4    4    0    0 -0.34744880036E+02 -0.57068013938E+00  0.19919823659E+03  0.20220650293E+03  0.00000000000E+00 0. -1.
         11    1    4    4    0    0 -0.31857023998E+01  0.33316772740E+02  0.12758137101E+02  0.35817957896E+02  0.00000000000E+00 0.  1.
</event>
<event>
 8    1  0.6860461E-009  0.3238679E+03  0.7561462E-02  0.1073883E+00
         -1   -1    0    0    0  501 -0.00000000000E+00  0.00000000000E+00  0.75188493244E+02  0.75188493244E+02  0.00000000000E+00 0.  1.
          1   -1    0    0  501    0  0.00000000000E+00 -0.00000000000E+00 -0.15938552855E+04  0.15938552855E+04  0.00000000000E+00 0. -1.
         25    2    1    2    0    0  0.28553224810E+03  0.14288090376E+03 -0.58893560870E+03  0.68149518358E+03  0.12508763598E+03 0.  0.
         23    2    1    2    0    0 -0.28553224810E+03 -0.14288090376E+03 -0.92973118357E+03  0.98754859518E+03  0.94385045317E+02 0.  0.
          5    1    3    3  502    0  0.17773389551E+03  0.49980575514E+02 -0.43080291207E+03  0.46871741699E+03  0.41800000000E+01 0. -1.
         -5    1    3    3    0  502  0.10779835259E+03  0.92900328247E+02 -0.15813269663E+03  0.21277776659E+03  0.41800000000E+01 0. -1.
        -11    1    4    4    0    0 -0.91726521757E+02 -0.30512903766E+02 -0.41621028087E+03  0.42728888353E+03  0.00000000000E+00 0. -1.
         11    1    4    4    0    0 -0.19380572634E+03 -0.11236800000E+03 -0.51352090270E+03  0.56025971165E+03  0.00000000000E+00 0.  1.
</event>
<event>
 8    1  0.6860461E-009  0.1683482E+03  0.7561462E-02  0.1179581E+00
          2   -1    0    0  501    0  0.00000000000E+00  0.00000000000E+00  0.14778021374E+04  0.14778021374E+04  0.00000000000E+00 0. -1.
         -2   -1    0    0    0  501 -0.00000000000E+00 -0.00000000000E+00 -0.21114120488E+02  0.21114120488E+02  0.00000000000E+00 0.  1.
         25    2    1    2    0    0 -0.13260682022E+03 -0.29524220146E+02  0.88595137121E+03  0.90499327246E+03  0.12508694058E+03 0.  0.
         23    2    1    2    0    0  0.13260682022E+03  0.29524220146E+02  0.57073664569E+03  0.59392298542E+03  0.92455100072E+02 0.  0.
          5    1    3    3  502    0  0.19823483595E+02 -0.19895846001E+02  0.85559325869E+02  0.90148132721E+02  0.41800000000E+01 0. -1.
         -5    1    3    3    0  502 -0.15243030382E+03 -0.96283741444E+01  0.80039204534E+03  0.81484513974E+03  0.41800000000E+01 0. -1.
        -11    1    4    4    0    0  0.12503126752E+03  0.20708753259E-02  0.51925186128E+03  0.53409298189E+03  0.00000000000E+00 0. -1.
         11    1    4    4    0    0  0.75755526984E+01  0.29522149270E+02  0.51484784410E+02  0.59830003527E+02  0.00000000000E+00 0.  1.
</event>
<event>
 8    1  0.6860461E-009  0.1689443E+03  0.7561462E-02  0.1178953E+00
         -4   -1    0    0    0  501 -0.00000000000E+00  0.00000000000E+00  0.42097889325E+03  0.42097889325E+03  0.00000000000E+00 0.  1.
          4   -1    0    0  501    0  0.00000000000E+00 -0.00000000000E+00 -0.10550088070E+03  0.10550088070E+03  0.00000000000E+00 0. -1.
         25    2    1    2    0    0 -0.13862497546E+03 -0.43662186539E+02  0.29790038174E+03  0.35428082959E+03  0.12508796275E+03 0.  0.
         23    2    1    2    0    0  0.13862497546E+03  0.43662186539E+02  0.17577630816E+02  0.17219894436E+03  0.90665500497E+02 0.  0.
          5    1    3    3  502    0 -0.59833924527E+01  0.35204024363E+02  0.74631870550E+02  0.82840284997E+02  0.41800000000E+01 0. -1.
         -5    1    3    3    0  502 -0.13264158300E+03 -0.78866210902E+02  0.22326851119E+03  0.27144054460E+03  0.41800000000E+01 0. -1.
        -11    1    4    4    0    0  0.54362978431E+02  0.42213805202E+01  0.49695465361E+02  0.73775285529E+02  0.00000000000E+00 0.  1.
         11    1    4    4    0    0  0.84261997026E+02  0.39440806019E+02 -0.32117834546E+02  0.98423658833E+02  0.00000000000E+00 0. -1.
</event>
<event>
 8    1  0.6860461E-009  0.1314643E+03  0.7561462E-02  0.1225299E+00
         -1   -1    0    0    0  501 -0.00000000000E+00  0.00000000000E+00  0.59862470263E+02  0.59862470263E+02  0.00000000000E+00 0.  1.
          1   -1    0    0  501    0  0.00000000000E+00 -0.00000000000E+00 -0.36024041158E+03  0.36024041158E+03  0.00000000000E+00 0. -1.
         25    2    1    2    0    0 -0.69593886048E+02  0.60946325112E+02 -0.21017690271E+03  0.26149804646E+03  0.12509650016E+03 0.  0.
         23    2    1    2    0    0  0.69593886048E+02 -0.60946325112E+02 -0.90201038611E+02  0.15860483538E+03  0.91986427911E+02 0.  0.
          5    1    3    3  502    0 -0.34929036673E+02 -0.32869250903E+02 -0.10905365249E+03  0.11920820768E+03  0.41800000000E+01 0. -1.
         -5    1    3    3    0  502 -0.34664849375E+02  0.93815576015E+02 -0.10112325022E+03  0.14228983878E+03  0.41800000000E+01 0. -1.
        -11    1    4    4    0    0  0.47630486176E+02  0.23446510456E+01 -0.18469768649E+01  0.47723913560E+02  0.00000000000E+00 0.  1.
         11    1    4    4    0    0  0.21963399872E+02 -0.63290976158E+02 -0.88354061746E+02  0.11088092182E+03  0.00000000000E+00 0. -1.
</event>
<event>
 8    1  0.6860461E-009  0.1095132E+03  0.7561462E-02  0.1261474E+00
         -4   -1    0    0    0  501 -0.00000000000E+00  0.00000000000E+00  0.42787092008E+03  0.42787092008E+03  0.00000000000E+00 0. -1.
          4   -1    0    0  501    0  0.00000000000E+00 -0.00000000000E+00 -0.40144716819E+02  0.40144716819E+02  0.00000000000E+00 0.  1.
         25    2    1    2    0    0  0.29220806232E+02 -0.49692931870E+02  0.29501789607E+03  0.32558658732E+03  0.12509126208E+03 0.  0.
         23    2    1    2    0    0 -0.29220806232E+02  0.49692931870E+02  0.92708307189E+02  0.14242904957E+03  0.91476559544E+02 0.  0.
          5    1    3    3  502    0  0.59985428911E+02 -0.99684251870E+01  0.61124680578E+02  0.86321029640E+02  0.41800000000E+01 0. -1.
         -5    1    3    3    0  502 -0.30764622680E+02 -0.39724506683E+02  0.23389321549E+03  0.23926555768E+03  0.41800000000E+01 0. -1.
        -11    1    4    4    0    0 -0.17327462973E+02  0.76442914777E+02  0.61412843280E+02  0.99575586930E+02  0.00000000000E+00 0. -1.
         11    1    4    4    0    0 -0.11893343259E+02 -0.26749982906E+02  0.31295463908E+02  0.42853462644E+02  0.00000000000E+00 0.  1.
</event>
<event>
 8    1  0.6860461E-009  0.1057046E+03  0.7561462E-02  0.1268738E+00
         -2   -1    0    0    0  501 -0.00000000000E+00  0.00000000000E+00  0.27984888444E+02  0.27984888444E+02  0.00000000000E+00 0.  1.
          2   -1    0    0  501    0  0.00000000000E+00 -0.00000000000E+00 -0.52328128401E+03  0.52328128401E+03  0.00000000000E+00 0. -1.
         25    2    1    2    0    0 -0.44406540478E+02 -0.55689684197E+01 -0.21159734862E+03  0.24985389172E+03  0.12510225824E+03 0.  0.
         23    2    1    2    0    0  0.44406540478E+02  0.55689684197E+01 -0.28369904695E+03  0.30141228074E+03  0.91439922869E+02 0.  0.
          5    1    3    3  502    0  0.52687015920E+01  0.52814607994E+02 -0.11281545847E+03  0.12474751341E+03  0.41800000000E+01 0.  1.
         -5    1    3    3    0  502 -0.49675242070E+02 -0.58383576414E+02 -0.98781890151E+02  0.12510637830E+03  0.41800000000E+01 0.  1.
        -11    1    4    4    0    0  0.11601691450E+02 -0.30505665298E+02 -0.34515078424E+02  0.47502478866E+02  0.00000000000E+00 0.  1.
         11    1    4    4    0    0  0.32804849028E+02  0.36074633718E+02 -0.24918396852E+03  0.25390980187E+03  0.00000000000E+00 0. -1.
</event>
<event>
 8    1  0.6860461E-009  0.9969858E+02  0.7561462E-02  0.1280931E+00
         -2   -1    0    0    0  501 -0.00000000000E+00  0.00000000000E+00  0.69719510991E+03  0.69719510991E+03  0.00000000000E+00 0.  1.
          2   -1    0    0  501    0  0.00000000000E+00 -0.00000000000E+00 -0.17902222381E+02  0.17902222381E+02  0.00000000000E+00 0. -1.
         25    2    1    2    0    0 -0.16476994530E+02  0.86657491570E+01  0.32326341277E+03  0.34712174869E+03  0.12509071834E+03 0.  0.
         23    2    1    2    0    0  0.16476994530E+02 -0.86657491570E+01  0.35602947475E+03  0.36797558360E+03  0.91117817561E+02 0.  0.
          5    1    3    3  502    0  0.39723342997E+02  0.34418930195E+02  0.22388261225E+03  0.23000761553E+03  0.41800000000E+01 0. -1.
         -5    1    3    3    0  502 -0.56200337527E+02 -0.25753181038E+02  0.99380800522E+02  0.11711413315E+03  0.41800000000E+01 0. -1.
        -11    1    4    4    0    0  0.87879648711E+01 -0.45877587811E+02  0.26881023641E+03  0.27283864203E+03  0.00000000000E+00 0.  1.
         11    1    4    4    0    0  0.76890296588E+01  0.37211838655E+02  0.87219238346E+02  0.95136941567E+02  0.00000000000E+00 0. -1.
</event>
<event>
 8    1  0.6860461E-009  0.1071503E+03  0.7561462E-02  0.1265940E+00
         -1   -1    0    0    0  501 -0.00000000000E+00  0.00000000000E+00  0.11012435965E+03  0.11012435965E+03  0.00000000000E+00 0.  1.
          1   -1    0    0  501    0  0.00000000000E+00 -0.00000000000E+00 -0.13346996616E+03  0.13346996616E+03  0.00000000000E+00 0. -1.
         25    2    1    2    0    0 -0.14586369742E+02 -0.26454422733E+02  0.31738682388E+02  0.13254231902E+03  0.12509006238E+03 0.  0.
         23    2    1    2    0    0  0.14586369742E+02  0.26454422733E+02 -0.55084288893E+02  0.11105200679E+03  0.91573307602E+02 0.  0.
          5    1    3    3  502    0 -0.68503170383E+02 -0.57073823961E+01  0.28494830931E+02  0.74529768255E+02  0.41800000000E+01 0. -1.
         -5    1    3    3    0  502  0.53916800641E+02 -0.20747040337E+02  0.32438514577E+01  0.58012550766E+02  0.41800000000E+01 0. -1.
        -11    1    4    4    0    0  0.47018062400E+02  0.23021677106E+01 -0.59983261132E+01  0.47455011160E+02  0.00000000000E+00 0.  1.
         11    1    4    4    0    0 -0.32431692658E+02  0.24152255023E+02 -0.49085962780E+02  0.63596995632E+02  0.00000000000E+00 0. -1.
</event>
<event>
 8    1  0.6860461E-009  0.7733271E+02  0.7561462E-02  0.1336796E+00
          1   -1    0    0  501    0  0.00000000000E+00  0.00000000000E+00  0.85522056552E+02  0.85522056552E+02  0.00000000000E+00 0. -1.
         -1   -1    0    0    0  501 -0.00000000000E+00 -0.00000000000E+00 -0.19103646102E+03  0.19103646102E+03  0.00000000000E+00 0.  1.
         25    2    1    2    0    0 -0.26215715761E+02 -0.51265606571E+02 -0.94128818411E+02  0.16680838358E+03  0.12509746683E+03 0.  0.
         23    2    1    2    0    0  0.26215715761E+02  0.51265606571E+02 -0.11385586052E+02  0.10975013399E+03  0.92736369187E+02 0.  0.
          5    1    3    3  502    0  0.23555421264E+02 -0.37150611821E+02  0.14427155557E+02  0.46482696211E+02  0.41800000000E+01 0. -1.
         -5    1    3    3    0  502 -0.49771137024E+02 -0.14114994750E+02 -0.10855597397E+03  0.12032568737E+03  0.41800000000E+01 0. -1.
        -11    1    4    4    0    0  0.12002321945E+02  0.34866041527E+02  0.39738196098E+02  0.54210892014E+02  0.00000000000E+00 0. -1.
         11    1    4    4    0    0  0.14213393815E+02  0.16399565044E+02 -0.51123782150E+02  0.55539241971E+02  0.00000000000E+00 0.  1.
</event>
<event>
 8    1  0.6860461E-009  0.7123023E+02  0.7561462E-02  0.1355959E+00
         -1   -1    0    0    0  501 -0.00000000000E+00  0.00000000000E+00  0.22979336973E+02  0.22979336973E+02  0.00000000000E+00 0.  1.
          1   -1    0    0  501    0  0.00000000000E+00 -0.00000000000E+00 -0.53646903983E+03  0.53646903983E+03  0.00000000000E+00 0. -1.
         25    2    1    2    0    0 -0.29704999405E+02  0.15002158924E+02 -0.29599249449E+03  0.32305489855E+03  0.12508180892E+03 0.  0.
         23    2    1    2    0    0  0.29704999405E+02 -0.15002158924E+02 -0.21749720837E+03  0.23639347825E+03  0.86425627851E+02 0.  0.
          5    1    3    3  502    0 -0.26069385298E+02 -0.10595144248E+02 -0.29549391620E+03  0.29686023116E+03  0.41800000000E+01 0.  1.
         -5    1    3    3    0  502 -0.36356141075E+01  0.25597303172E+02 -0.49857828898E+00  0.26194667395E+02  0.41800000000E+01 0.  1.
        -11    1    4    4    0    0 -0.18466774429E+02 -0.31826741223E+02 -0.12997773518E+03  0.13508580553E+03  0.00000000000E+00 0. -1.
         11    1    4    4    0    0  0.48171773834E+02  0.16824582299E+02 -0.87519473192E+02  0.10130767272E+03  0.00000000000E+00 0.  1.
</event>
<event>
 8    1  0.6860461E-009  0.1370964E+03  0.7561462E-02  0.1217290E+00
          2   -1    0    0  501    0  0.00000000000E+00  0.00000000000E+00  0.38992040875E+04  0.38992040875E+04  0.00000000000E+00 0. -1.
         -2   -1    0    0    0  501 -0.00000000000E+00 -0.00000000000E+00 -0.12629983705E+02  0.12629983705E+02  0.00000000000E+00 0.  1.
         25    2    1    2    0    0  0.76265537382E+02 -0.94107356900E+02  0.33366457960E+04  0.33411862136E+04  0.12509004443E+03 0.  0.
         23    2    1    2    0    0 -0.76265537382E+02  0.94107356900E+02  0.54992830781E+03  0.57064785761E+03  0.92440288035E+02 0.  0.
          5    1    3    3  502    0 -0.11856997075E+02 -0.47389713719E+02  0.20813017194E+04  0.20818791255E+04  0.41800000000E+01 0.  1.
         -5    1    3    3    0  502  0.88122534458E+02 -0.46717643180E+02  0.12553440766E+04  0.12593070881E+04  0.41800000000E+01 0.  1.
        -11    1    4    4    0    0 -0.41250401919E+01  0.25329677082E+02  0.23275488301E+02  0.34646166502E+02  0.00000000000E+00 0.  1.
         11    1    4    4    0    0 -0.72140497190E+02  0.68777679818E+02  0.52665281951E+03  0.53600169111E+03  0.00000000000E+00 0. -1.
</event>
<event>
 8    1  0.6860461E-009  0.6715299E+02  0.7561462E-02  0.1370051E+00
         -2   -1    0    0    0  501 -0.00000000000E+00  0.00000000000E+00  0.10099815104E+03  0.10099815104E+03  0.00000000000E+00 0. -1.
          2   -1    0    0  501    0  0.00000000000E+00 -0.00000000000E+00 -0.13846297634E+03  0.13846297634E+03  0.00000000000E+00 0.  1.
         25    2    1    2    0    0  0.66624309050E+01  0.29204575290E+02  0.17592643909E+02  0.12982743228E+03  0.12509342848E+03 0.  0.
         23    2    1    2    0    0 -0.66624309050E+01 -0.29204575290E+02 -0.55057469208E+02  0.10963369511E+03  0.89949580234E+02 0.  0.
          5    1    3    3  502    0  0.22822221570E+02  0.12367868157E+02 -0.50931614877E+02  0.57317708905E+02  0.41800000000E+01 0.  1.
         -5    1    3    3    0  502 -0.16159790665E+02  0.16836707133E+02  0.68524258787E+02  0.72509723373E+02  0.41800000000E+01 0.  1.
        -11    1    4    4    0    0  0.32055221259E+02 -0.32246336492E+02 -0.42266183230E+01  0.45664293814E+02  0.00000000000E+00 0. -1.
         11    1    4    4    0    0 -0.38717652164E+02  0.30417612023E+01 -0.50830850885E+02  0.63969401295E+02  0.00000000000E+00 0.  1.
</event>
<event>
 8    1  0.6860461E-009  0.2178836E+03  0.7561462E-02  0.1135471E+00
         -1   -1    0    0    0  501 -0.00000000000E+00  0.00000000000E+00  0.24246047344E+03  0.24246047344E+03  0.00000000000E+00 0.  1.
          1   -1    0    0  501    0  0.00000000000E+00 -0.00000000000E+00 -0.21936917666E+03  0.21936917666E+03  0.00000000000E+00 0. -1.
         25    2    1    2    0    0 -0.99712998309E+02 -0.17714494433E+03  0.19250846263E+02  0.23945939970E+03  0.12508875125E+03 0.  0.
         23    2    1    2    0    0  0.99712998309E+02  0.17714494433E+03  0.38404505153E+01  0.22237025040E+03  0.90059790523E+02 0.  0.
          5    1    3    3  502    0 -0.54452383698E+02 -0.24373879898E+02  0.49002930906E+02  0.77316930546E+02  0.41800000000E+01 0.  1.
         -5    1    3    3    0  502 -0.45260614610E+02 -0.15277106443E+03 -0.29752084643E+02  0.16214246915E+03  0.41800000000E+01 0.  1.
        -11    1    4    4    0    0 -0.98630094866E+01  0.39101174303E+02 -0.19128856478E+02  0.44632879564E+02  0.00000000000E+00 0.  1.
         11    1    4    4    0    0  0.10957600780E+03  0.13804377002E+03  0.22969306993E+02  0.17773737083E+03  0.00000000000E+00 0. -1.
</event>
<event>
 8    1  0.6860461E-009  0.1400803E+03  0.7561462E-02  0.1213221E+00
          1   -1    0    0  501    0  0.00000000000E+00  0.00000000000E+00  0.19329478641E+02  0.19329478641E+02  0.00000000000E+00 0. -1.
         -1   -1    0    0    0  501 -0.00000000000E+00 -0.00000000000E+00 -0.13073076266E+04  0.13073076266E+04  0.00000000000E+00 0.  1.
         25    2    1    2    0    0  0.28700280243E+02 -0.11149440551E+03 -0.77004721770E+03  0.78859079645E+03  0.12509203891E+03 0.  0.
         23    2    1    2    0    0 -0.28700280243E+02  0.11149440551E+03 -0.51793093027E+03  0.53804630881E+03  0.89368189792E+02 0.  0.
          5    1    3    3  502    0  0.62750828471E+02 -0.10944227991E+03 -0.69041890156E+03  0.70186253008E+03  0.41800000000E+01 0.  1.
         -5    1    3    3    0  502 -0.34050548229E+02 -0.20521256054E+01 -0.79628316148E+02  0.86728266366E+02  0.41800000000E+01 0.  1.
        -11    1    4    4    0    0 -0.17246395643E+02  0.16442166988E+02 -0.20340886881E+02  0.31329454145E+02  0.00000000000E+00 0. -1.
         11    1    4    4    0    0 -0.11453884599E+02  0.95052238525E+02 -0.49759004339E+03  0.50671685467E+03  0.00000000000E+00 0.  1.
</event>
<event>
 8    1  0.6860461E-009  0.1785581E+03  0.7561462E-02  0.1169206E+00
          2   -1    0    0  501    0  0.00000000000E+00  0.00000000000E+00  0.44385664660E+03  0.44385664660E+03  0.00000000000E+00 0. -1.
         -2   -1    0    0    0  501 -0.00000000000E+00 -0.00000000000E+00 -0.88004433306E+02  0.88004433306E+02  0.00000000000E+00 0.  1.
         25    2    1    2    0    0  0.80757776922E+02 -0.12693136528E+03  0.91183259191E+02  0.21585948042E+03  0.12509012153E+03 0.  0.
         23    2    1    2    0    0 -0.80757776922E+02  0.12693136528E+03  0.26466895410E+03  0.31600159949E+03  0.84699265552E+02 0.  0.
          5    1    3    3  502    0  0.65651612235E+02 -0.36901199463E+01  0.80536162981E+01  0.66378342174E+02  0.41800000000E+01 0.  1.
         -5    1    3    3    0  502  0.15106164687E+02 -0.12324124534E+03  0.83129642892E+02  0.14948113825E+03  0.41800000000E+01 0.  1.
        -11    1    4    4    0    0 -0.85391734467E+02  0.71510336767E+02  0.21163234474E+03  0.23915209788E+03  0.00000000000E+00 0. -1.
         11    1    4    4    0    0  0.46339575451E+01  0.55421028517E+02  0.53036609364E+02  0.76849501607E+02  0.00000000000E+00 0.  1.
</event>
<event>
 8    1  0.6860461E-009  0.1750968E+03  0.7561462E-02  0.1172635E+00
          4   -1    0    0  501    0  0.00000000000E+00  0.00000000000E+00  0.24412400092E+03  0.24412400092E+03  0.00000000000E+00 0. -1.
         -4   -1    0    0    0  501 -0.00000000000E+00 -0.00000000000E+00 -0.29029777607E+03  0.29029777607E+03  0.00000000000E+00 0.  1.
         25    2    1    2    0    0 -0.17251623988E+03  0.24306798313E+02 -0.19247980819E+03  0.28818151414E+03  0.12508970807E+03 0.  0.
         23    2    1    2    0    0  0.17251623988E+03 -0.24306798313E+02  0.14630603304E+03  0.24624026284E+03  0.94213259532E+02 0.  0.
          5    1    3    3  502    0 -0.16274161997E+03  0.25395831624E+02 -0.95146417093E+02  0.19026322877E+03  0.41800000000E+01 0.  1.
         -5    1    3    3    0  502 -0.97746199091E+01 -0.10890333104E+01 -0.97333391099E+02  0.97918285375E+02  0.41800000000E+01 0.  1.
        -11    1    4    4    0    0  0.99183370174E+02 -0.20705683477E+02  0.13962682758E+03  0.17251584631E+03  0.00000000000E+00 0.  1.
         11    1    4    4    0    0  0.73332869709E+02 -0.36011148357E+01  0.66792054661E+01  0.73724416535E+02  0.00000000000E+00 0. -1.
</event>
<event>
 8    1  0.6860461E-009  0.1935502E+03  0.7561462E-02  0.1155298E+00
          2   -1    0    0  501    0  0.00000000000E+00  0.00000000000E+00  0.53459699745E+03  0.53459699745E+03  0.00000000000E+00 0. -1.
         -2   -1    0    0    0  501 -0.00000000000E+00 -0.00000000000E+00 -0.84545679169E+02  0.84545679169E+02  0.00000000000E+00 0.  1.
         25    2    1    2    0    0  0.16584490772E+03  0.53392922004E+02  0.15396660693E+03  0.26402210603E+03  0.12508644565E+03 0.  0.
         23    2    1    2    0    0 -0.16584490772E+03 -0.53392922004E+02  0.29608471135E+03  0.35512057059E+03  0.89939567624E+02 0.  0.
          5    1    3    3  502    0  0.60228129285E+02 -0.39167901515E+02  0.35503063313E+02  0.80246445223E+02  0.41800000000E+01 0. -1.
         -5    1    3    3    0  502  0.10561677844E+03  0.92560823519E+02  0.11846354362E+03  0.18377566081E+03  0.41800000000E+01 0. -1.
        -11    1    4    4    0    0 -0.12372317446E+03 -0.34303169306E+02  0.12998279635E+03  0.18270100894E+03  0.00000000000E+00 0.  1.
         11    1    4    4    0    0 -0.42121733264E+02 -0.19089752698E+02  0.16610191501E+03  0.17241956165E+03  0.00000000000E+00 0. -1.
</event>
<event>
 8    1  0.6860461E-009  0.1463572E+03  0.7561462E-02  0.1205022E+00
         -2   -1    0    0    0  501 -0.00000000000E+00  0.00000000000E+00  0.34248396000E+02  0.34248396000E+02  0.00000000000E+00 0.  1.
          2   -1    0    0  501    0  0.00000000000E+00 -0.00000000000E+00 -0.65888911844E+03  0.65888911844E+03  0.00000000000E+00 0. -1.
         25    2    1    2    0    0  0.59886546463E+01  0.10069208993E+03 -0.40138171023E+03  0.43235446148E+03  0.12509333353E+03 0.  0.
         23    2    1    2    0    0 -0.59886546463E+01 -0.10069208993E+03 -0.22325901221E+03  0.26078305296E+03  0.89378147324E+02 0.  0.
          5    1    3    3  502    0 -0.32274040836E+02 -0.15436836548E+02 -0.63479591758E+02  0.72986578247E+02  0.41800000000E+01 0.  1.
         -5    1    3    3    0  502  0.38262695482E+02  0.11612892648E+03 -0.33790211847E+03  0.35936788323E+03  0.41800000000E+01 0.  1.
        -11    1    4    4    0    0 -0.44792905010E+02 -0.30632437056E+02 -0.80245352593E+02  0.96871394911E+02  0.00000000000E+00 0.  1.
         11    1    4    4    0    0  0.38804250364E+02 -0.70059652877E+02 -0.14301365962E+03  0.16391165805E+03  0.00000000000E+00 0. -1.
</event>
<event>
 8    1  0.6860461E-009  0.1198070E+03  0.7561462E-02  0.1243416E+00
          1   -1    0    0  501    0  0.00000000000E+00  0.00000000000E+00  0.45883130885E+02  0.45883130885E+02  0.00000000000E+00 0. -1.
         -1   -1    0    0    0  501 -0.00000000000E+00 -0.00000000000E+00 -0.48331018314E+03  0.48331018314E+03  0.00000000000E+00 0.  1.
         25    2    1    2    0    0  0.85483855784E+02  0.12164067172E+02 -0.14168837680E+03  0.20779370995E+03  0.12508867113E+03 0.  0.
         23    2    1    2    0    0 -0.85483855784E+02 -0.12164067172E+02 -0.29573867546E+03  0.32139960408E+03  0.91547185700E+02 0.  0.
          5    1    3    3  502    0 -0.13825072716E+02  0.84937583799E+00 -0.97264815829E+02  0.98334993126E+02  0.41800000000E+01 0. -1.
         -5    1    3    3    0  502  0.99308928500E+02  0.11314691334E+02 -0.44423560974E+02  0.10945871683E+03  0.41800000000E+01 0. -1.
        -11    1    4    4    0    0 -0.76010780154E+01 -0.41269455225E+02 -0.11615646307E+03  0.12350412234E+03  0.00000000000E+00 0.  1.
         11    1    4    4    0    0 -0.77882777769E+02  0.29105388053E+02 -0.17958221239E+03  0.19789548174E+03  0.00000000000E+00 0. -1.
</event>
<event>
 8    1  0.6860461E-009  0.1021982E+03  0.7561462E-02  0.1275740E+00
          2   -1    0    0  501    0  0.00000000000E+00  0.00000000000E+00  0.12230209207E+03  0.12230209207E+03  0.00000000000E+00 0. -1.
         -2   -1    0    0    0  501 -0.00000000000E+00 -0.00000000000E+00 -0.17604727706E+03  0.17604727706E+03  0.00000000000E+00 0.  1.
         25    2    1    2    0    0  0.65150006528E+02 -0.11469202299E+02  0.45608294713E+02  0.14867183644E+03  0.12508849848E+03 0.  0.
         23    2    1    2    0    0 -0.65150006528E+02  0.11469202299E+02 -0.99353479708E+02  0.14967753270E+03  0.90311593455E+02 0.  0.
          5    1    3    3  502    0 -0.22520059692E+02 -0.47361996499E+01  0.55367429904E+02  0.60104986231E+02  0.41800000000E+01 0.  1.
         -5    1    3    3    0  502  0.87670066220E+02 -0.67330026490E+01 -0.97591351910E+01  0.88566850206E+02  0.41800000000E+01 0.  1.
        -11    1    4    4    0    0 -0.67613564508E+02 -0.12606044828E+02 -0.10433885905E+03  0.12496841193E+03  0.00000000000E+00 0.  1.
         11    1    4    4    0    0  0.24635579793E+01  0.24075247127E+02  0.49853793405E+01  0.24709120772E+02  0.00000000000E+00 0. -1.
</event>
<event>
 8    1  0.6860461E-009  0.2242983E+03  0.7561462E-02  0.1130718E+00
          2   -1    0    0  501    0  0.00000000000E+00  0.00000000000E+00  0.16699578204E+04  0.16699578204E+04  0.00000000000E+00 0.  1.
         -2   -1    0    0    0  501 -0.00000000000E+00 -0.00000000000E+00 -0.31592219106E+02  0.31592219106E+02  0.00000000000E+00 0. -1.
         25    2    1    2    0    0  0.20073660831E+03 -0.24225754911E+02  0.78148555105E+03  0.81685334666E+03  0.12509056857E+03 0.  0.
         23    2    1    2    0    0 -0.20073660831E+03  0.24225754911E+02  0.85688005024E+03  0.88469669283E+03  0.86964042547E+02 0.  0.
          5    1    3    3  502    0  0.27773367726E+02 -0.48989563067E+02  0.28399323634E+03  0.28955304856E+03  0.41800000000E+01 0.  1.
         -5    1    3    3    0  502  0.17296324058E+03  0.24763808156E+02  0.49749231471E+03  0.52730029810E+03  0.41800000000E+01 0.  1.
        -11    1    4    4    0    0 -0.12508111128E+03  0.53745813721E+02  0.46650142945E+03  0.48596036934E+03  0.00000000000E+00 0. -1.
         11    1    4    4    0    0 -0.75655497032E+02 -0.29520058810E+02  0.39037862079E+03  0.39873632349E+03  0.00000000000E+00 0.  1.
</event>
<event>
 8    1  0.6860461E-009  0.6760548E+02  0.7561462E-02  0.1368430E+00
         -1   -1    0    0    0  501 -0.00000000000E+00  0.00000000000E+00  0.12519413133E+03  0.12519413133E+03  0.00000000000E+00 0.  1.
          1   -1    0    0  501    0  0.00000000000E+00 -0.00000000000E+00 -0.11595785599E+03  0.11595785599E+03  0.00000000000E+00 0. -1.
         25    2    1    2    0    0  0.34408072654E+02  0.20265864674E+02 -0.28392223479E+02  0.13433598671E+03  0.12508164628E+03 0.  0.
         23    2    1    2    0    0 -0.34408072654E+02 -0.20265864674E+02  0.37628498812E+02  0.10681600061E+03  0.91646785694E+02 0.  0.
          5    1    3    3  502    0  0.47868568560E+02  0.45466893642E+02 -0.61557151107E+02  0.90362567061E+02  0.41800000000E+01 0. -1.
         -5    1    3    3    0  502 -0.13460495906E+02 -0.25201028968E+02  0.33164927628E+02  0.43973419650E+02  0.41800000000E+01 0. -1.
        -11    1    4    4    0    0 -0.18436485597E+02 -0.13438542791E+02 -0.29604536503E+02  0.37375486820E+02  0.00000000000E+00 0. -1.
         11    1    4    4    0    0 -0.15971587057E+02 -0.68273218831E+01  0.67233035315E+02  0.69440513787E+02  0.00000000000E+00 0.  1.
</event>
<event>
 8    1  0.6860461E-009  0.1167398E+03  0.7561462E-02  0.1248574E+00
         -1   -1    0    0    0  501 -0.00000000000E+00  0.00000000000E+00  0.52798658410E+02  0.52798658410E+02  0.00000000000E+00 0.  1.
          1   -1    0    0  501    0  0.00000000000E+00 -0.00000000000E+00 -0.29290152684E+03  0.29290152684E+03  0.00000000000E+00 0. -1.
         25    2    1    2    0    0 -0.13538366769E+02  0.56054523157E+02 -0.16247326735E+03  0.21300340564E+03  0.12508993274E+03 0.  0.
         23    2    1    2    0    0  0.13538366769E+02 -0.56054523157E+02 -0.77629601086E+02  0.13269677961E+03  0.90866294153E+02 0.  0.
          5    1    3    3  502    0 -0.11984328403E+02 -0.34110230877E+02 -0.13512032609E+02  0.38822408516E+02  0.41800000000E+01 0. -1.
         -5    1    3    3    0  502 -0.15540383661E+01  0.90164754035E+02 -0.14896123474E+03  0.17418099713E+03  0.41800000000E+01 0. -1.
        -11    1    4    4    0    0  0.50161864423E+02 -0.16269476573E+02 -0.30207852439E+02  0.60773537492E+02  0.00000000000E+00 0.  1.
         11    1    4    4    0    0 -0.36623497654E+02 -0.39785046584E+02 -0.47421748647E+02  0.71923242118E+02  0.00000000000E+00 0. -1.
</event>
<event>
 8    1  0.6860461E-009  0.1874312E+03  0.7561462E-02  0.1160799E+00
         -1   -1    0    0    0  501 -0.00000000000E+00  0.00000000000E+00  0.71058054140E+02  0.71058054140E+02  0.00000000000E+00 0.  1.
          1   -1    0    0  501    0  0.00000000000E+00 -0.00000000000E+00 -0.52408345619E+03  0.52408345619E+03  0.00000000000E+00 0. -1.
         25    2    1    2    0    0  0.65073703052E+01 -0.15731993717E+03 -0.20556248424E+03  0.28756835653E+03  0.12509083201E+03 0.  0.
         23    2    1    2    0    0 -0.65073703052E+01  0.15731993717E+03 -0.24746291781E+03  0.30757315380E+03  0.92582075741E+02 0.  0.
          5    1    3    3  502    0  0.59008144593E+01  0.20015188934E+02 -0.99132320133E+01  0.23477051950E+02  0.41800000000E+01 0.  1.
         -5    1    3    3    0  502  0.60655584586E+00 -0.17733512610E+03 -0.19564925222E+03  0.26409130458E+03  0.41800000000E+01 0.  1.
        -11    1    4    4    0    0  0.36303897721E+02  0.65576485568E+02 -0.14667333200E+03  0.16471586071E+03  0.00000000000E+00 0. -1.
         11    1    4    4    0    0 -0.42811268026E+02  0.91743451597E+02 -0.10078958581E+03  0.14285729309E+03  0.00000000000E+00 0.  1.
</event>
<event>
 8    1  0.6860461E-009  0.1273188E+03  0.7561462E-02  0.1231489E+00
         -1   -1    0    0    0  501 -0.00000000000E+00  0.00000000000E+00  0.55908564913E+02  0.55908564913E+02  0.00000000000E+00 0.  1.
          1   -1    0    0  501    0  0.00000000000E+00 -0.00000000000E+00 -0.54834062952E+03  0.54834062952E+03  0.00000000000E+00 0. -1.
         25    2    1    2    0    0  0.20602485775E+02  0.10863739435E+03 -0.12167813287E+03  0.20659127254E+03  0.12509132664E+03 0.  0.
         23    2    1    2    0    0 -0.20602485775E+02 -0.10863739435E+03 -0.37075393174E+03  0.39765792189E+03  0.91906469142E+02 0.  0.
          5    1    3    3  502    0  0.26616978911E+02  0.11254675203E+03 -0.14285301729E+03  0.18384692521E+03  0.41800000000E+01 0.  1.
         -5    1    3    3    0  502 -0.60144931356E+01 -0.39093576828E+01  0.21174884425E+02  0.22744347332E+02  0.41800000000E+01 0.  1.
        -11    1    4    4    0    0  0.25782176677E+02 -0.32944791747E+02 -0.51816566329E+02  0.66596069581E+02  0.00000000000E+00 0.  1.
         11    1    4    4    0    0 -0.46384662452E+02 -0.75692602605E+02 -0.31893736541E+03  0.33106185231E+03  0.00000000000E+00 0. -1.
</event>
<event>
 8    1  0.6860461E-009  0.1399912E+03  0.7561462E-02  0.1213341E+00
          1   -1    0    0  501    0  0.00000000000E+00  0.00000000000E+00  0.24112704317E+03  0.24112704317E+03  0.00000000000E+00 0.  1.
         -1   -1    0    0    0  501 -0.00000000000E+00 -0.00000000000E+00 -0.12975253576E+03  0.12975253576E+03  0.00000000000E+00 0. -1.
         25    2    1    2    0    0 -0.41750406166E+02  0.95016496698E+02  0.15690069240E+03  0.22591292694E+03  0.12509033624E+03 0.  0.
         23    2    1    2    0    0  0.41750406166E+02 -0.95016496698E+02 -0.45526184988E+02  0.14496665200E+03  0.90396159280E+02 0.  0.
          5    1    3    3  502    0 -0.71887832458E+02  0.82352800883E+02  0.15887778065E+03  0.19289755274E+03  0.41800000000E+01 0. -1.
         -5    1    3    3    0  502  0.30137426292E+02  0.12663695814E+02 -0.19770882514E+01  0.33015374194E+02  0.41800000000E+01 0. -1.
        -11    1    4    4    0    0  0.68650786385E+02 -0.49055191560E+02 -0.28238807501E+02  0.88976247051E+02  0.00000000000E+00 0.  1.
         11    1    4    4    0    0 -0.26900380219E+02 -0.45961305138E+02 -0.17287377487E+02  0.55990404948E+02  0.00000000000E+00 0. -1.
</event>
<event>
 8    1  0.6860461E-009  0.9629411E+02  0.7561462E-02  0.1288288E+00
         -2   -1    0    0    0  501 -0.00000000000E+00  0.00000000000E+00  0.27283440396E+02  0.27283440396E+02  0.00000000000E+00 0. -1.
          2   -1    0    0  501    0  0.00000000000E+00 -0.00000000000E+00 -0.10459727713E+04  0.10459727713E+04  0.00000000000E+00 0.  1.
         25    2    1    2    0    0 -0.68378771298E+02 -0.42428821172E+02 -0.86498143169E+03  0.87767719157E+03  0.12509402149E+03 0.  0.
         23    2    1    2    0    0  0.68378771298E+02  0.42428821172E+02 -0.15370789917E+03  0.19557902008E+03  0.90272773285E+02 0.  0.
          5    1    3    3  502    0 -0.69809181337E+01 -0.44482095719E+02 -0.70195674406E+03  0.70341178054E+03  0.41800000000E+01 0. -1.
         -5    1    3    3    0  502 -0.61397853164E+02  0.20532745472E+01 -0.16302468762E+03  0.17426541104E+03  0.41800000000E+01 0. -1.
        -11    1    4    4    0    0  0.25453971263E+02  0.33291357979E+02 -0.14487235067E+03  0.15081186014E+03  0.00000000000E+00 0.  1.
         11    1    4    4    0    0  0.42924800035E+02  0.91374631934E+01 -0.88355484981E+01  0.44767159938E+02  0.00000000000E+00 0. -1.
</event>
<event>
 8    1  0.6860461E-009  0.8587924E+02  0.7561462E-02  0.1313149E+00
         -1   -1    0    0    0  501 -0.00000000000E+00  0.00000000000E+00  0.92506782408E+02  0.92506782408E+02  0.00000000000E+00 0.  1.
          1   -1    0    0  501    0  0.00000000000E+00 -0.00000000000E+00 -0.14415641535E+03  0.14415641535E+03  0.00000000000E+00 0. -1.
         25    2    1    2    0    0  0.16936458503E+02  0.37069105556E+02 -0.43479181243E+02  0.13855849476E+03  0.12508818911E+03 0.  0.
         23    2    1    2    0    0 -0.16936458503E+02 -0.37069105556E+02 -0.81704516964E+01  0.98104702994E+02  0.88864021152E+02 0.  0.
          5    1    3    3  502    0  0.42600192159E+02  0.96856414975E+01 -0.76631500753E+02  0.88308817968E+02  0.41800000000E+01 0. -1.
         -5    1    3    3    0  502 -0.25663733656E+02  0.27383464058E+02  0.33152319510E+02  0.50249676794E+02  0.41800000000E+01 0. -1.
        -11    1    4    4    0    0 -0.12084133600E+02 -0.62786407895E+02  0.12009664784E+02  0.65056831690E+02  0.00000000000E+00 0.  1.
         11    1    4    4    0    0 -0.48523249028E+01  0.25717302340E+02 -0.20180116480E+02  0.33047871304E+02  0.00000000000E+00 0. -1.
</event>
<event>
 8    1  0.6860461E-009  0.1360249E+03  0.7561462E-02  0.1218780E+00
          2   -1    0    0  501    0  0.00000000000E+00  0.00000000000E+00  0.39424649847E+03  0.39424649847E+03  0.00000000000E+00 0. -1.
         -2   -1    0    0    0  501 -0.00000000000E+00 -0.00000000000E+00 -0.52324553915E+02  0.52324553915E+02  0.00000000000E+00 0.  1.
         25    2    1    2    0    0 -0.59126088393E+02  0.72015552945E+02  0.16919326398E+03  0.23012197955E+03  0.12509049005E+03 0.  0.
         23    2    1    2    0    0  0.59126088393E+02 -0.72015552945E+02  0.17272868057E+03  0.21644907283E+03  0.91284554241E+02 0.  0.
          5    1    3    3  502    0 -0.98046635162E+02  0.57213154925E+02  0.13182789136E+03  0.17401882974E+03  0.41800000000E+01 0.  1.
         -5    1    3    3    0  502  0.38920546769E+02  0.14802398019E+02  0.37365372620E+02  0.56103149813E+02  0.41800000000E+01 0.  1.
        -11    1    4    4    0    0 -0.15927012035E+02 -0.73721671619E+01  0.75999213624E+02  0.77999352770E+02  0.00000000000E+00 0.  1.
         11    1    4    4    0    0  0.75053100428E+02 -0.64643385783E+02  0.96729466949E+02  0.13844972006E+03  0.00000000000E+00 0. -1.
</event>
<event>
 8    1  0.6860461E-009  0.1136461E+03  0.7561462E-02  0.1253963E+00
          2   -1    0    0  501    0  0.00000000000E+00  0.00000000000E+00  0.23665112023E+03  0.23665112023E+03  0.00000000000E+00 0. -1.
         -2   -1    0    0    0  501 -0.00000000000E+00 -0.00000000000E+00 -0.73638743922E+02  0.73638743922E+02  0.00000000000E+00 0.  1.
         25    2    1    2    0    0  0.65080312569E+02 -0.13258060944E+02  0.13558869749E+03  0.19606702119E+03  0.12508700431E+03 0.  0.
         23    2    1    2    0    0 -0.65080312569E+02  0.13258060944E+02  0.27423678816E+02  0.11422284296E+03  0.88789506303E+02 0.  0.
          5    1    3    3  502    0 -0.98465619882E+01 -0.49521659302E+02  0.83850812399E+02  0.97968263550E+02  0.41800000000E+01 0.  1.
         -5    1    3    3    0  502  0.74926874558E+02  0.36263598358E+02  0.51737885089E+02  0.98098757639E+02  0.41800000000E+01 0.  1.
        -11    1    4    4    0    0 -0.59025047164E+02 -0.17791301683E+02  0.46556384789E+02  0.77252725343E+02  0.00000000000E+00 0. -1.
         11    1    4    4    0    0 -0.60552654055E+01  0.31049362627E+02 -0.19132705973E+02  0.36970117615E+02  0.00000000000E+00 0.  1.
</event>
<event>
 8    1  0.6860461E-009  0.1064455E+03  0.7561462E-02  0.1267297E+00
         -3   -1    0    0    0  501 -0.00000000000E+00  0.00000000000E+00  0.23485768290E+03  0.23485768290E+03  0.00000000000E+00 0.  1.
          3   -1    0    0  501    0  0.00000000000E+00 -0.00000000000E+00 -0.10148119144E+03  0.10148119144E+03  0.00000000000E+00 0. -1.
         25    2    1    2    0    0  0.66820457941E+02 -0.54704665998E+02  0.14318910699E+03  0.20882645336E+03  0.12509113949E+03 0.  0.
         23    2    1    2    0    0 -0.66820457941E+02  0.54704665998E+02 -0.98126155325E+01  0.12751242098E+03  0.93303569062E+02 0.  0.
          5    1    3    3  502    0  0.35023388725E+02 -0.45141757100E+02  0.16101944892E+03  0.17090684984E+03  0.41800000000E+01 0. -1.
         -5    1    3    3    0  502  0.31797069216E+02 -0.95629088982E+01 -0.17830341931E+02  0.37919603514E+02  0.41800000000E+01 0. -1.
        -11    1    4    4    0    0 -0.84588481731E+02  0.59871701984E+02  0.50831409140E+01  0.10375774796E+03  0.00000000000E+00 0.  1.
         11    1    4    4    0    0  0.17768023791E+02 -0.51670359856E+01 -0.14895756447E+02  0.23754673023E+02  0.00000000000E+00 0. -1.
</event>
<event>
 8    1  0.6860461E-009  0.8933556E+02  0.7561462E-02  0.1304469E+00
         -1   -1    0    0    0  501 -0.00000000000E+00  0.00000000000E+00  0.20335121550E+02  0.20335121550E+02  0.00000000000E+00 0.  1.
          1   -1    0    0  501    0  0.00000000000E+00 -0.00000000000E+00 -0.60273565506E+03  0.60273565506E+03  0.00000000000E+00 0. -1.
         25    2    1    2    0    0  0.61258859263E+01  0.77604946806E+01 -0.33053807142E+03  0.35355401870E+03  0.12508907117E+03 0.  0.
         23    2    1    2    0    0 -0.61258859263E+01 -0.77604946806E+01 -0.25186246208E+03  0.26951675790E+03  0.95429718788E+02 0.  0.
          5    1    3    3  502    0  0.48340132892E+02 -0.10991675897E+02 -0.28224470039E+03  0.28659575832E+03  0.41800000000E+01 0. -1.
         -5    1    3    3    0  502 -0.42214246966E+02  0.18752170578E+02 -0.48293371031E+02  0.66958260385E+02  0.41800000000E+01 0. -1.
        -11    1    4    4    0    0  0.36889894785E+02 -0.13203958041E+02 -0.52588083858E+02  0.65579839959E+02  0.00000000000E+00 0.  1.
         11    1    4    4    0    0 -0.43015780711E+02  0.54434633601E+01 -0.19927437823E+03  0.20393691794E+03  0.00000000000E+00 0. -1.
</event>
<event>
 8    1  0.6860461E-009  0.1385589E+03  0.7561462E-02  0.1215281E+00
         -1   -1    0    0    0  501 -0.00000000000E+00  0.00000000000E+00  0.52584580153E+02  0.52584580153E+02  0.00000000000E+00 0.  1.
          1   -1    0    0  501    0  0.00000000000E+00 -0.00000000000E+00 -0.46368329752E+03  0.46368329752E+03  0.00000000000E+00 0. -1.
         25    2    1    2    0    0 -0.61653668598E+02 -0.84092281391E+02 -0.28766953572E+03  0.33056698222E+03  0.12509229118E+03 0.  0.
         23    2    1    2    0    0  0.61653668598E+02  0.84092281391E+02 -0.12342918164E+03  0.18570089545E+03  0.91527990515E+02 0.  0.
          5    1    3    3  502    0  0.26749943523E+02 -0.17716285922E+02 -0.13758995711E+02  0.35159758650E+02  0.41800000000E+01 0.  1.
         -5    1    3    3    0  502 -0.88403612120E+02 -0.66375995468E+02 -0.27391054001E+03  0.29540722357E+03  0.41800000000E+01 0.  1.
        -11    1    4    4    0    0  0.35955725945E+01  0.75333613877E+02 -0.92461453030E+02  0.11931974614E+03  0.00000000000E+00 0. -1.
         11    1    4    4    0    0  0.58058096003E+02  0.87586675139E+01 -0.30967728612E+02  0.66381149309E+02  0.00000000000E+00 0.  1.
</event>
<event>
 8    1  0.6860461E-009  0.2118114E+03  0.7561462E-02  0.1140140E+00
          4   -1    0    0  501    0  0.00000000000E+00  0.00000000000E+00  0.57844738545E+02  0.57844738545E+02  0.00000000000E+00 0. -1.
         -4   -1    0    0    0  501 -0.00000000000E+00 -0.00000000000E+00 -0.10413543105E+04  0.10413543105E+04  0.00000000000E+00 0.  1.
         25    2    1    2    0    0 -0.14342563976E+03  0.15102832070E+03 -0.34736980437E+03  0.42390223663E+03  0.12508739920E+03 0.  0.
         23    2    1    2    0    0  0.14342563976E+03 -0.15102832070E+03 -0.63613976755E+03  0.67529681238E+03  0.89283330786E+02 0.  0.
          5    1    3    3  502    0 -0.11168059894E+03  0.88137490390E+02 -0.31619099557E+03  0.34674917660E+03  0.41800000000E+01 0.  1.
         -5    1    3    3    0  502 -0.31745040824E+02  0.62890830311E+02 -0.31178808797E+02  0.77153060031E+02  0.41800000000E+01 0.  1.
        -11    1    4    4    0    0  0.11618187506E+03 -0.10187813860E+03 -0.55831429770E+03  0.57930323514E+03  0.00000000000E+00 0.  1.
         11    1    4    4    0    0  0.27243764702E+02 -0.49150182098E+02 -0.77825469849E+02  0.95993577246E+02  0.00000000000E+00 0. -1.
</event>
<event>
 8    1  0.6860461E-009  0.1157533E+03  0.7561462E-02  0.1250272E+00
          1   -1    0    0  501    0  0.00000000000E+00  0.00000000000E+00  0.92329994994E+03  0.92329994994E+03  0.00000000000E+00 0. -1.
         -1   -1    0    0    0  501 -0.00000000000E+00 -0.00000000000E+00 -0.23581061164E+02  0.23581061164E+02  0.00000000000E+00 0.  1.
         25    2    1    2    0    0 -0.64595941800E+02  0.51690822060E+02  0.30330845816E+03  0.33836027880E+03  0.12508829160E+03 0.  0.
         23    2    1    2    0    0  0.64595941800E+02 -0.51690822060E+02  0.59641043061E+03  0.60852073230E+03  0.88019901823E+02 0.  0.
          5    1    3    3  502    0 -0.74399870534E+02  0.62636978998E+02  0.30748144200E+03  0.32252293166E+03  0.41800000000E+01 0. -1.
         -5    1    3    3    0  502  0.98039287340E+01 -0.10946156938E+02 -0.41729838359E+01  0.15837347140E+02  0.41800000000E+01 0. -1.
        -11    1    4    4    0    0 -0.77030030022E+01  0.17307017557E+02  0.61395443054E+02  0.64251611184E+02  0.00000000000E+00 0.  1.
         11    1    4    4    0    0  0.72298944803E+02 -0.68997839617E+02  0.53501498755E+03  0.54426912112E+03  0.00000000000E+00 0. -1.
</event>
<event>
 8    1  0.6860461E-009  0.8913137E+02  0.7561462E-02  0.1304969E+00
          3   -1    0    0  501    0  0.00000000000E+00  0.00000000000E+00  0.25530086814E+03  0.25530086814E+03  0.00000000000E+00 0. -1.
         -3   -1    0    0    0  501 -0.00000000000E+00 -0.00000000000E+00 -0.57825478540E+02  0.57825478540E+02  0.00000000000E+00 0.  1.
         25    2    1    2    0    0 -0.47042293869E+02 -0.44143779264E+01  0.14894915782E+03  0.20017150447E+03  0.12510122078E+03 0.  0.
         23    2    1    2    0    0  0.47042293869E+02  0.44143779264E+01  0.48526231780E+02  0.11295484221E+03  0.90396554486E+02 0.  0.
          5    1    3    3  502    0  0.18623460207E+02  0.14143001148E+02 -0.11034062188E+02  0.26193141849E+02  0.41800000000E+01 0.  1.
         -5    1    3    3    0  502 -0.65665754075E+02 -0.18557379075E+02  0.15998322000E+03  0.17397836262E+03  0.41800000000E+01 0.  1.
        -11    1    4    4    0    0 -0.66735932042E+01 -0.24322863206E+02  0.45423481185E+02  0.51956050310E+02  0.00000000000E+00 0. -1.
         11    1    4    4    0    0  0.53715887073E+02  0.28737241133E+02  0.31027505947E+01  0.60998791900E+02  0.00000000000E+00 0.  1.
</event>
<event>
 8    1  0.6860461E-009  0.1002902E+03  0.7561462E-02  0.1279687E+00
         -1   -1    0    0    0  501 -0.00000000000E+00  0.00000000000E+00  0.60311742678E+02  0.60311742678E+02  0.00000000000E+00 0.  1.
          1   -1    0    0  501    0  0.00000000000E+00 -0.00000000000E+00 -0.21963620379E+03  0.21963620379E+03  0.00000000000E+00 0. -1.
         25    2    1    2    0    0  0.19687913013E+01  0.19141958863E+02 -0.74130528432E+02  0.14667814447E+03  0.12509537198E+03 0.  0.
         23    2    1    2    0    0 -0.19687913013E+01 -0.19141958863E+02 -0.85193932679E+02  0.13326980199E+03  0.10066053462E+03 0.  0.
          5    1    3    3  502    0  0.98562000693E+01 -0.52773903437E+02 -0.36181748282E+02  0.64875425798E+02  0.41800000000E+01 0.  1.
         -5    1    3    3    0  502 -0.78874087680E+01  0.71915862300E+02 -0.37948780150E+02  0.81802718673E+02  0.41800000000E+01 0.  1.
        -11    1    4    4    0    0 -0.10884776125E+02  0.26033223177E+02 -0.82446311143E+02  0.87141271974E+02  0.00000000000E+00 0. -1.
         11    1    4    4    0    0  0.89159848237E+01 -0.45175182040E+02 -0.27476215359E+01  0.46128530020E+02  0.00000000000E+00 0.  1.
</event>
<event>
 8    1  0.6860461E-009  0.1731901E+03  0.7561462E-02  0.1174561E+00
         -3   -1    0    0    0  501 -0.00000000000E+00  0.00000000000E+00  0.16252080906E+03  0.16252080906E+03  0.00000000000E+00 0.  1.
          3   -1    0    0  501    0  0.00000000000E+00 -0.00000000000E+00 -0.29356369298E+03  0.29356369298E+03  0.00000000000E+00 0. -1.
         25    2    1    2    0    0 -0.14527909253E+03  0.21306243613E+02  0.56965232843E+02  0.20112769828E+03  0.12508933816E+03 0.  0.
         23    2    1    2    0    0  0.14527909253E+03 -0.21306243613E+02 -0.18800811677E+03  0.25495680375E+03  0.89977491989E+02 0.  0.
          5    1    3    3  502    0 -0.46928830109E+02  0.66162943840E+02  0.43432520069E+02  0.92107037909E+02  0.41800000000E+01 0. -1.
         -5    1    3    3    0  502 -0.98350262422E+02 -0.44856700226E+02  0.13532712774E+02  0.10902066038E+03  0.41800000000E+01 0. -1.
        -11    1    4    4    0    0  0.11267447795E+03 -0.39796740030E+02 -0.88724511957E+02  0.14883332127E+03  0.00000000000E+00 0. -1.
         11    1    4    4    0    0  0.32604614582E+02  0.18490496417E+02 -0.99283604809E+02  0.10612348248E+03  0.00000000000E+00 0.  1.
</event>
<event>
 8    1  0.6860461E-009  0.8047489E+02  0.7561462E-02  0.1327709E+00
         -2   -1    0    0    0  501 -0.00000000000E+00  0.00000000000E+00  0.31340504961E+02  0.31340504961E+02  0.00000000000E+00 0.  1.
          2   -1    0    0  501    0  0.00000000000E+00 -0.00000000000E+00 -0.55135402191E+03  0.55135402191E+03  0.00000000000E+00 0. -1.
         25    2    1    2    0    0 -0.17252340209E+02  0.59575459054E+02 -0.19767518940E+03  0.24201400276E+03  0.12509363878E+03 0.  0.
         23    2    1    2    0    0  0.17252340209E+02 -0.59575459054E+02 -0.32233832754E+03  0.34068052411E+03  0.91183022207E+02 0.  0.
          5    1    3    3  502    0 -0.24105857963E+01  0.69169609070E+02 -0.20927673059E+03  0.22046421050E+03  0.41800000000E+01 0. -1.
         -5    1    3    3    0  502 -0.14841754413E+02 -0.95941500155E+01  0.11601541190E+02  0.21549792262E+02  0.41800000000E+01 0. -1.
        -11    1    4    4    0    0  0.19451379278E+02 -0.67630580745E+01 -0.82648954980E+01  0.22190169173E+02  0.00000000000E+00 0.  1.
         11    1    4    4    0    0 -0.21990390685E+01 -0.52812400980E+02 -0.31407343205E+03  0.31849035494E+03  0.00000000000E+00 0. -1.
</event>
<event>
 8    1  0.6860461E-009  0.6123622E+02  0.7561462E-02  0.1392716E+00
         -1   -1    0    0    0  501 -0.00000000000E+00  0.00000000000E+00  0.62916219180E+02  0.62916219180E+02  0.00000000000E+00 0.  1.
          1   -1    0    0  501    0  0.00000000000E+00 -0.00000000000E+00 -0.20784355495E+03  0.20784355495E+03  0.00000000000E+00 0. -1.
         25    2    1    2    0    0  0.27196964525E+02  0.22458558649E+02 -0.70778455264E+02  0.14799042714E+03  0.12509002782E+03 0.  0.
         23    2    1    2    0    0 -0.27196964525E+02 -0.22458558649E+02 -0.74148880507E+02  0.12276934699E+03  0.91269898346E+02 0.  0.
          5    1    3    3  502    0 -0.13466372362E+02  0.19840783669E+02 -0.96566781526E+02  0.99587225965E+02  0.41800000000E+01 0. -1.
         -5    1    3    3    0  502  0.40663336887E+02  0.26177749797E+01  0.25788326262E+02  0.48403201175E+02  0.41800000000E+01 0. -1.
        -11    1    4    4    0    0  0.97755808922E+01 -0.17257303227E+02  0.15813911878E+02  0.25366440533E+02  0.00000000000E+00 0.  1.
         11    1    4    4    0    0 -0.36972545417E+02 -0.52012554219E+01 -0.89962792385E+02  0.97402906457E+02  0.00000000000E+00 0. -1.
</event>
<event>
 8    1  0.6860461E-009  0.8672185E+02  0.7561462E-02  0.1310990E+00
          1   -1    0    0  501    0  0.00000000000E+00  0.00000000000E+00  0.38228185850E+03  0.38228185850E+03  0.00000000000E+00 0. -1.
         -1   -1    0    0    0  501 -0.00000000000E+00 -0.00000000000E+00 -0.32067698282E+02  0.32067698282E+02  0.00000000000E+00 0.  1.
         25    2    1    2    0    0 -0.19469661784E+02  0.32290767583E+02  0.19894511113E+03  0.23800926946E+03  0.12508994246E+03 0.  0.
         23    2    1    2    0    0  0.19469661784E+02 -0.32290767583E+02  0.15126904909E+03  0.17634028733E+03  0.82412440320E+02 0.  0.
          5    1    3    3  502    0 -0.57538842140E+02  0.15955041220E+02  0.18445469634E+03  0.19392341039E+03  0.41800000000E+01 0.  1.
         -5    1    3    3    0  502  0.38069180356E+02  0.16335726363E+02  0.14490414782E+02  0.44085859063E+02  0.41800000000E+01 0.  1.
        -11    1    4    4    0    0  0.40884332882E+02 -0.12398560279E+02  0.31562865277E+02  0.53117487108E+02  0.00000000000E+00 0.  1.
         11    1    4    4    0    0 -0.21414671098E+02 -0.19892207304E+02  0.11970618382E+03  0.12322280022E+03  0.00000000000E+00 0. -1.
</event>
<event>
 8    1  0.6860461E-009  0.1004104E+03  0.7561462E-02  0.1279435E+00
          1   -1    0    0  501    0  0.00000000000E+00  0.00000000000E+00  0.54221008785E+02  0.54221008785E+02  0.00000000000E+00 0. -1.
         -1   -1    0    0    0  501 -0.00000000000E+00 -0.00000000000E+00 -0.24283996332E+03  0.24283996332E+03  0.00000000000E+00 0.  1.
         25    2    1    2    0    0  0.14864792562E+02 -0.18208392933E+02 -0.14488344077E+03  0.19284907445E+03  0.12508815483E+03 0.  0.
         23    2    1    2    0    0 -0.14864792562E+02  0.18208392933E+02 -0.43735513773E+02  0.10421189766E+03  0.91623232954E+02 0.  0.
          5    1    3    3  502    0  0.59258110412E+02  0.92242512480E+01 -0.12140233048E+03  0.13547180041E+03  0.41800000000E+01 0. -1.
         -5    1    3    3    0  502 -0.44393317850E+02 -0.27432644181E+02 -0.23481110292E+02  0.57377274047E+02  0.41800000000E+01 0. -1.
        -11    1    4    4    0    0 -0.38297945007E+02 -0.20245399879E+02 -0.40105921626E+02  0.59034682666E+02  0.00000000000E+00 0.  1.
         11    1    4    4    0    0  0.23433152445E+02  0.38453792811E+02 -0.36295921467E+01  0.45177214990E+02  0.00000000000E+00 0. -1.
</event>
<event>
 8    1  0.6860461E-009  0.7788319E+02  0.7561462E-02  0.1335168E+00
         -2   -1    0    0    0  501 -0.00000000000E+00  0.00000000000E+00  0.36394987964E+02  0.36394987964E+02  0.00000000000E+00 0.  1.
          2   -1    0    0  501    0  0.00000000000E+00 -0.00000000000E+00 -0.36073339938E+03  0.36073339938E+03  0.00000000000E+00 0. -1.
         25    2    1    2    0    0  0.24022775714E+02 -0.27733467723E+02 -0.20565247528E+03  0.24349343261E+03  0.12509944904E+03 0.  0.
         23    2    1    2    0    0 -0.24022775714E+02  0.27733467723E+02 -0.11868593613E+03  0.15363495473E+03  0.90394186180E+02 0.  0.
          5    1    3    3  502    0 -0.18197460724E+02 -0.61501673547E+02 -0.16063805565E+03  0.17301924965E+03  0.41800000000E+01 0.  1.
         -5    1    3    3    0  502  0.42220236438E+02  0.33768205824E+02 -0.45014419638E+02  0.70474182967E+02  0.41800000000E+01 0.  1.
        -11    1    4    4    0    0 -0.11817587912E+02  0.18548121793E+02 -0.13172678084E+03  0.13355011418E+03  0.00000000000E+00 0. -1.
         11    1    4    4    0    0 -0.12205187802E+02  0.91853459300E+01  0.13040844713E+02  0.20084840551E+02  0.00000000000E+00 0.  1.
</event>
<event>
 8    1  0.6860461E-009  0.1129026E+03  0.7561462E-02  0.1255287E+00
         -2   -1    0    0    0  501 -0.00000000000E+00  0.00000000000E+00  0.31763096563E+02  0.31763096563E+02  0.00000000000E+00 0.  1.
          2   -1    0    0  501    0  0.00000000000E+00 -0.00000000000E+00 -0.44944046120E+03  0.44944046120E+03  0.00000000000E+00 0. -1.
         25    2    1    2    0    0 -0.17374661743E+02  0.35191550495E+02 -0.16917071039E+03  0.21402590428E+03  0.12509210349E+03 0.  0.
         23    2    1    2    0    0  0.17374661743E+02 -0.35191550495E+02 -0.24850665425E+03  0.26717765348E+03  0.89933404330E+02 0.  0.
          5    1    3    3  502    0  0.11749816096E+02 -0.44440436701E+02 -0.62521306348E+02  0.77713555702E+02  0.41800000000E+01 0.  1.
         -5    1    3    3    0  502 -0.29124477839E+02  0.79631987195E+02 -0.10664940404E+03  0.13631234858E+03  0.41800000000E+01 0.  1.
        -11    1    4    4    0    0 -0.34153478894E+02 -0.24750724065E+02 -0.14605469087E+03  0.15202312715E+03  0.00000000000E+00 0. -1.
         11    1    4    4    0    0  0.51528140637E+02 -0.10440826430E+02 -0.10245196338E+03  0.11515452633E+03  0.00000000000E+00 0.  1.
</event>
<event>
 8    1  0.6860461E-009  0.2354211E+03  0.7561462E-02  0.1122881E+00
         -1   -1    0    0    0  501 -0.00000000000E+00  0.00000000000E+00  0.97318552014E+02  0.97318552014E+02  0.00000000000E+00 0.  1.
          1   -1    0    0  501    0  0.00000000000E+00 -0.00000000000E+00 -0.65269287660E+03  0.65269287660E+03  0.00000000000E+00 0. -1.
         25    2    1    2    0    0  0.19235693576E+03 -0.85176186137E+02 -0.15798148740E+03  0.29131053321E+03  0.12508997953E+03 0.  0.
         23    2    1    2    0    0 -0.19235693576E+03  0.85176186137E+02 -0.39739283719E+03  0.45870089541E+03  0.90715329368E+02 0.  0.
          5    1    3    3  502    0  0.23619814425E+00 -0.49032305882E+02 -0.32571166989E+02  0.59013355511E+02  0.41800000000E+01 0.  1.
         -5    1    3    3    0  502  0.19212073761E+03 -0.36143880255E+02 -0.12541032041E+03  0.23229717770E+03  0.41800000000E+01 0.  1.
        -11    1    4    4    0    0 -0.59616286635E+02  0.70833591152E+02 -0.12725435432E+03  0.15736953314E+03  0.00000000000E+00 0.  1.
         11    1    4    4    0    0 -0.13274064912E+03  0.14342594985E+02 -0.27013848287E+03  0.30133136227E+03  0.00000000000E+00 0. -1.
</event>
<event>
 8    1  0.6860461E-009  0.1134595E+03  0.7561462E-02  0.1254294E+00
          2   -1    0    0  501    0  0.00000000000E+00  0.00000000000E+00  0.38269157846E+03  0.38269157846E+03  0.00000000000E+00 0.  1.
         -2   -1    0    0    0  501 -0.00000000000E+00 -0.00000000000E+00 -0.52133267736E+02  0.52133267736E+02  0.00000000000E+00 0. -1.
         25    2    1    2    0    0 -0.71170159131E+02  0.24599566520E+02  0.25861247750E+03  0.29698105488E+03  0.12508798190E+03 0.  0.
         23    2    1    2    0    0  0.71170159131E+02 -0.24599566520E+02  0.71945833224E+02  0.13784379131E+03  0.90301592800E+02 0.  0.
          5    1    3    3  502    0  0.35876070280E+02  0.11483074502E+02  0.60956750499E+02  0.71778487377E+02  0.41800000000E+01 0. -1.
         -5    1    3    3    0  502 -0.10704622941E+03  0.13116492018E+02  0.19765572700E+03  0.22520256750E+03  0.41800000000E+01 0. -1.
        -11    1    4    4    0    0  0.62954899669E+02 -0.91815199310E+01  0.91613354122E+02  0.11153755580E+03  0.00000000000E+00 0.  1.
         11    1    4    4    0    0  0.82152594617E+01 -0.15418046589E+02 -0.19667520898E+02  0.26306235514E+02  0.00000000000E+00 0. -1.
</event>
<event>
 8    1  0.6860461E-009  0.1045816E+03  0.7561462E-02  0.1270946E+00
         -3   -1    0    0    0  501 -0.00000000000E+00  0.00000000000E+00  0.54748864304E+02  0.54748864304E+02  0.00000000000E+00 0.  1.
          3   -1    0    0  501    0  0.00000000000E+00 -0.00000000000E+00 -0.25747993059E+03  0.25747993059E+03  0.00000000000E+00 0. -1.
         25    2    1    2    0    0  0.37752780997E+02 -0.22607788711E+02 -0.13473715589E+03  0.18904314303E+03  0.12508726620E+03 0.  0.
         23    2    1    2    0    0 -0.37752780997E+02  0.22607788711E+02 -0.67993910403E+02  0.12318565187E+03  0.92817823672E+02 0.  0.
          5    1    3    3  502    0  0.47454678113E+02  0.40978463607E+02 -0.93046415904E+02  0.11227773095E+03  0.41800000000E+01 0. -1.
         -5    1    3    3    0  502 -0.97018971165E+01 -0.63586252318E+02 -0.41690739982E+02  0.76765412080E+02  0.41800000000E+01 0. -1.
        -11    1    4    4    0    0  0.95561873005E+01  0.32206324128E+02  0.66949642144E+01  0.34254789087E+02  0.00000000000E+00 0.  1.
         11    1    4    4    0    0 -0.47308968297E+02 -0.95985354172E+01 -0.74688874617E+02  0.88930862782E+02  0.00000000000E+00 0. -1.
</event>
<event>
 8    1  0.6860461E-009  0.1666364E+03  0.7561462E-02  0.1181402E+00
          2   -1    0    0  501    0  0.00000000000E+00  0.00000000000E+00  0.27923922870E+03  0.27923922870E+03  0.00000000000E+00 0. -1.
         -2   -1    0    0    0  501 -0.00000000000E+00 -0.00000000000E+00 -0.12930971456E+03  0.12930971456E+03  0.00000000000E+00 0.  1.
         25    2    1    2    0    0 -0.13128636428E+03  0.87214194288E+02  0.63145556056E+02  0.21089452421E+03  0.12508682569E+03 0.  0.
         23    2    1    2    0    0  0.13128636428E+03 -0.87214194288E+02  0.86783958089E+02  0.19765441905E+03  0.81813133751E+02 0.  0.
          5    1    3    3  502    0 -0.48026930573E+02  0.53688212896E+02  0.91634163356E+02  0.11663319664E+03  0.41800000000E+01 0.  1.
         -5    1    3    3    0  502 -0.83259433712E+02  0.33525981391E+02 -0.28488607300E+02  0.94261327575E+02  0.41800000000E+01 0.  1.
        -11    1    4    4    0    0  0.27618302839E+02 -0.56909420541E+02  0.75601765208E+01  0.63707213618E+02  0.00000000000E+00 0. -1.
         11    1    4    4    0    0  0.10366806145E+03 -0.30304773747E+02  0.79223781568E+02  0.13394720543E+03  0.00000000000E+00 0.  1.
</event>
<event>
 8    1  0.6860461E-009  0.1083817E+03  0.7561462E-02  0.1263596E+00
         -1   -1    0    0    0  501 -0.00000000000E+00  0.00000000000E+00  0.14852457647E+02  0.14852457647E+02  0.00000000000E+00 0.  1.
          1   -1    0    0  501    0  0.00000000000E+00 -0.00000000000E+00 -0.85316008329E+03  0.85316008329E+03  0.00000000000E+00 0. -1.
         25    2    1    2    0    0  0.26309969196E+02  0.18090294520E+02 -0.49290721615E+03  0.50953377771E+03  0.12509066176E+03 0.  0.
         23    2    1    2    0    0 -0.26309969196E+02 -0.18090294520E+02 -0.34540040950E+03  0.35847876323E+03  0.90477110760E+02 0.  0.
          5    1    3    3  502    0  0.14886748180E+01 -0.51840867233E+02 -0.15330569741E+03  0.16189441289E+03  0.41800000000E+01 0.  1.
         -5    1    3    3    0  502  0.24821294378E+02  0.69931161753E+02 -0.33960151874E+03  0.34763936482E+03  0.41800000000E+01 0.  1.
        -11    1    4    4    0    0 -0.56877303400E+02 -0.18590624084E+02 -0.16519762729E+03  0.17570115255E+03  0.00000000000E+00 0. -1.
         11    1    4    4    0    0  0.30567334205E+02  0.50032956369E+00 -0.18020278220E+03  0.18277761067E+03  0.00000000000E+00 0.  1.
</event>
<event>
 8    1  0.6860461E-009  0.9940020E+02  0.7561462E-02  0.1281562E+00
          1   -1    0    0  501    0  0.00000000000E+00  0.00000000000E+00  0.45570772435E+03  0.45570772435E+03  0.00000000000E+00 0. -1.
         -1   -1    0    0    0  501 -0.00000000000E+00 -0.00000000000E+00 -0.32770840423E+02  0.32770840423E+02  0.00000000000E+00 0.  1.
         25    2    1    2    0    0  0.45902080346E+02 -0.18168450705E+02  0.18284590540E+03  0.22696601389E+03  0.12507538830E+03 0.  0.
         23    2    1    2    0    0 -0.45902080346E+02  0.18168450705E+02  0.24009097853E+03  0.26151255089E+03  0.91148465258E+02 0.  0.
          5    1    3    3  502    0 -0.43087399200E+02 -0.12021281232E+02  0.67681465857E+02  0.81236004289E+02  0.41800000000E+01 0.  1.
         -5    1    3    3    0  502  0.88989479546E+02 -0.61471694731E+01  0.11516443954E+03  0.14573000960E+03  0.41800000000E+01 0.  1.
        -11    1    4    4    0    0 -0.20388494526E+02 -0.13086482898E+02  0.73744239850E+01  0.25324471816E+02  0.00000000000E+00 0.  1.
         11    1    4    4    0    0 -0.25513585821E+02  0.31254933603E+02  0.23271655455E+03  0.23618807907E+03  0.00000000000E+00 0. -1.
</event>
<event>
 8    1  0.6860461E-009  0.7455564E+02  0.7561462E-02  0.1345253E+00
          2   -1    0    0  501    0  0.00000000000E+00  0.00000000000E+00  0.32224700701E+02  0.32224700701E+02  0.00000000000E+00 0. -1.
         -2   -1    0    0    0  501 -0.00000000000E+00 -0.00000000000E+00 -0.36567040484E+03  0.36567040484E+03  0.00000000000E+00 0.  1.
         25    2    1    2    0    0 -0.57138603956E+01 -0.92559769848E+01 -0.17108466515E+03  0.21222034686E+03  0.12509672921E+03 0.  0.
         23    2    1    2    0    0  0.57138603956E+01  0.92559769848E+01 -0.16236103898E+03  0.18567475868E+03  0.89418609475E+02 0.  0.
          5    1    3    3  502    0  0.23461123901E+01  0.24353288899E+02  0.10774941969E+02  0.27058431181E+02  0.41800000000E+01 0. -1.
         -5    1    3    3    0  502 -0.80599727857E+01 -0.33609265884E+02 -0.18185960712E+03  0.18516191568E+03  0.41800000000E+01 0. -1.
        -11    1    4    4    0    0  0.20372135431E+02  0.45786951254E+02 -0.10143697674E+03  0.11314119081E+03  0.00000000000E+00 0.  1.
         11    1    4    4    0    0 -0.14658275036E+02 -0.36530974269E+02 -0.60924062239E+02  0.72533567869E+02  0.00000000000E+00 0. -1.
</event>
<event>
 8    1  0.6860461E-009  0.9805391E+02  0.7561462E-02  0.1284442E+00
          2   -1    0    0  501    0  0.00000000000E+00  0.00000000000E+00  0.21568045994E+03  0.21568045994E+03  0.00000000000E+00 0. -1.
         -2   -1    0    0    0  501 -0.00000000000E+00 -0.00000000000E+00 -0.94995610409E+02  0.94995610409E+02  0.00000000000E+00 0.  1.
         25    2    1    2    0    0  0.64426908655E+02  0.12581880075E+02  0.13742265773E+03  0.19708351716E+03  0.12509114922E+03 0.  0.
         23    2    1    2    0    0 -0.64426908655E+02 -0.12581880075E+02 -0.16737808197E+02  0.11359255319E+03  0.91181048760E+02 0.  0.
          5    1    3    3  502    0  0.60200416665E+02 -0.42750854335E+02  0.38000771482E+02  0.83145996573E+02  0.41800000000E+01 0. -1.
         -5    1    3    3    0  502  0.42264919905E+01  0.55332734410E+02  0.99421886249E+02  0.11393752059E+03  0.41800000000E+01 0. -1.
        -11    1    4    4    0    0 -0.43284923223E+02 -0.32926900319E+01  0.35758601911E+02  0.56241479326E+02  0.00000000000E+00 0. -1.
         11    1    4    4    0    0 -0.21141985432E+02 -0.92891900429E+01 -0.52496410108E+02  0.57351073869E+02  0.00000000000E+00 0.  1.
</event>
<event>
 8    1  0.6860461E-009  0.1107592E+03  0.7561462E-02  0.1259170E+00
         -1   -1    0    0    0  501 -0.00000000000E+00  0.00000000000E+00  0.21390724631E+02  0.21390724631E+02  0.00000000000E+00 0.  1.
          1   -1    0    0  501    0  0.00000000000E+00 -0.00000000000E+00 -0.87731244923E+03  0.87731244923E+03  0.00000000000E+00 0. -1.
         25    2    1    2    0    0  0.22168831425E+02 -0.29116667765E+02 -0.72422917192E+03  0.73586163017E+03  0.12508080531E+03 0.  0.
         23    2    1    2    0    0 -0.22168831425E+02  0.29116667765E+02 -0.13169255267E+03  0.16284154369E+03  0.88516679184E+02 0.  0.
          5    1    3    3  502    0  0.73337063287E+02 -0.93144980033E+01 -0.36406312100E+03  0.37151650461E+03  0.41800000000E+01 0. -1.
         -5    1    3    3    0  502 -0.51168231862E+02 -0.19802169762E+02 -0.36016605093E+03  0.36434512556E+03  0.41800000000E+01 0. -1.
        -11    1    4    4    0    0  0.39447374658E+01  0.55316825662E+02 -0.57201577785E+02  0.79671404256E+02  0.00000000000E+00 0. -1.
         11    1    4    4    0    0 -0.26113568891E+02 -0.26200157897E+02 -0.74490974886E+02  0.83170139434E+02  0.00000000000E+00 0.  1.
</event>
<event>
 8    1  0.6860461E-009  0.2402529E+03  0.7561462E-02  0.1119624E+00
         -2   -1    0    0    0  501 -0.00000000000E+00  0.00000000000E+00  0.24845940539E+03  0.24845940539E+03  0.00000000000E+00 0.  1.
          2   -1    0    0  501    0  0.00000000000E+00 -0.00000000000E+00 -0.26995204197E+03  0.26995204197E+03  0.00000000000E+00 0. -1.
         25    2    1    2    0    0 -0.21616575298E+03  0.86379659876E+02  0.26838913841E+02  0.26562551465E+03  0.12509000095E+03 0.  0.
         23    2    1    2    0    0  0.21616575298E+03 -0.86379659876E+02 -0.48331550428E+02  0.25278593270E+03  0.85881957386E+02 0.  0.
          5    1    3    3  502    0 -0.99556446547E+01  0.27446520425E+02  0.41165374997E+02  0.50640762658E+02  0.41800000000E+01 0.  1.
         -5    1    3    3    0  502 -0.20621010833E+03  0.58933139451E+02 -0.14326461156E+02  0.21498475200E+03  0.41800000000E+01 0.  1.
        -11    1    4    4    0    0  0.85096816507E+02 -0.12390423790E+02  0.18731476999E+02  0.88010561934E+02  0.00000000000E+00 0.  1.
         11    1    4    4    0    0  0.13106893647E+03 -0.73989236086E+02 -0.67063027427E+02  0.16477537077E+03  0.00000000000E+00 0. -1.
</event>
<event>
 8    1  0.6860461E-009  0.2410824E+03  0.7561462E-02  0.1119074E+00
         -1   -1    0    0    0  501 -0.00000000000E+00  0.00000000000E+00  0.42886363894E+02  0.42886363894E+02  0.00000000000E+00 0.  1.
          1   -1    0    0  501    0  0.00000000000E+00 -0.00000000000E+00 -0.15271103598E+04  0.15271103598E+04  0.00000000000E+00 0. -1.
         25    2    1    2    0    0  0.13189446010E+03 -0.17500793685E+03 -0.53680212509E+03  0.59315089021E+03  0.12509008951E+03 0.  0.
         23    2    1    2    0    0 -0.13189446010E+03  0.17500793685E+03 -0.94742187082E+03  0.97684583348E+03  0.92712752729E+02 0.  0.
          5    1    3    3  502    0 -0.21542007416E+02 -0.46812195633E+02 -0.93917657716E+02  0.10720745578E+03  0.41800000000E+01 0. -1.
         -5    1    3    3    0  502  0.15343646752E+03 -0.12819574122E+03 -0.44288446737E+03  0.48594343444E+03  0.41800000000E+01 0. -1.
        -11    1    4    4    0    0 -0.37838169423E+02  0.10951299640E+03 -0.35470646185E+03  0.37315077050E+03  0.00000000000E+00 0.  1.
         11    1    4    4    0    0 -0.94056290680E+02  0.65494940452E+02 -0.59271540897E+03  0.60369506299E+03  0.00000000000E+00 0. -1.
</event>
<event>
 8    1  0.6860461E-009  0.8931558E+02  0.7561462E-02  0.1304518E+00
         -3   -1    0    0    0  501 -0.00000000000E+00  0.00000000000E+00  0.51282296795E+03  0.51282296795E+03  0.00000000000E+00 0.  1.
          3   -1    0    0  501    0  0.00000000000E+00 -0.00000000000E+00 -0.26311336034E+02  0.26311336034E+02  0.00000000000E+00 0. -1.
         25    2    1    2    0    0  0.78334127212E+01  0.19109489730E+02  0.36032874875E+03  0.38198203207E+03  0.12508769201E+03 0.  0.
         23    2    1    2    0    0 -0.78334127212E+01 -0.19109489730E+02  0.12618288317E+03  0.15715227192E+03  0.91368384099E+02 0.  0.
          5    1    3    3  502    0  0.10290081585E+02 -0.34940133969E+02  0.30419582224E+02  0.47639501713E+02  0.41800000000E+01 0. -1.
         -5    1    3    3    0  502 -0.24566688642E+01  0.54049623699E+02  0.32990916653E+03  0.33434253035E+03  0.41800000000E+01 0. -1.
        -11    1    4    4    0    0  0.29188625125E+02 -0.36552029848E+02  0.94334149632E+02  0.10529462716E+03  0.00000000000E+00 0.  1.
         11    1    4    4    0    0 -0.37022037846E+02  0.17442540118E+02  0.31848733538E+02  0.51857644760E+02  0.00000000000E+00 0. -1.
</event>
<event>
 8    1  0.6860461E-009  0.1244975E+03  0.7561462E-02  0.1235857E+00
          2   -1    0    0  501    0  0.00000000000E+00  0.00000000000E+00  0.53542316331E+02  0.53542316331E+02  0.00000000000E+00 0.  1.
         -2   -1    0    0    0  501 -0.00000000000E+00 -0.00000000000E+00 -0.37571129234E+03  0.37571129234E+03  0.00000000000E+00 0. -1.
         25    2    1    2    0    0 -0.50515926277E+02  0.73031377264E+02 -0.19928923354E+03  0.25149222187E+03  0.12508676261E+03 0.  0.
         23    2    1    2    0    0  0.50515926277E+02 -0.73031377264E+02 -0.12287974246E+03  0.17776138680E+03  0.92812922896E+02 0.  0.
          5    1    3    3  502    0 -0.58618204260E+02 -0.13940460640E+02 -0.11571896789E+03  0.13053268649E+03  0.41800000000E+01 0. -1.
         -5    1    3    3    0  502  0.81022779828E+01  0.86971837904E+02 -0.83570265656E+02  0.12095953538E+03  0.41800000000E+01 0. -1.
        -11    1    4    4    0    0  0.49930567303E+02 -0.30282884804E+02 -0.12955573942E+02  0.59816064393E+02  0.00000000000E+00 0.  1.
         11    1    4    4    0    0  0.58535897401E+00 -0.42748492459E+02 -0.10992416852E+03  0.11794532241E+03  0.00000000000E+00 0. -1.
</event>
<event>
 8    1  0.6860461E-009  0.1165699E+03  0.7561462E-02  0.1248865E+00
         -1   -1    0    0    0  501 -0.00000000000E+00  0.00000000000E+00  0.15188672144E+03  0.15188672144E+03  0.00000000000E+00 0.  1.
          1   -1    0    0  501    0  0.00000000000E+00 -0.00000000000E+00 -0.15009417188E+03  0.15009417188E+03  0.00000000000E+00 0. -1.
         25    2    1    2    0    0  0.60350344735E+02 -0.69210906342E+02  0.49221597922E+02  0.16279728787E+03  0.12509147681E+03 0.  0.
         23    2    1    2    0    0 -0.60350344735E+02  0.69210906342E+02 -0.47429048362E+02  0.13918360545E+03  0.93221498220E+02 0.  0.
          5    1    3    3  502    0 -0.16245804297E+01 -0.31118985554E+02  0.78275007404E+02  0.84353302885E+02  0.41800000000E+01 0.  1.
         -5    1    3    3    0  502  0.61974925165E+02 -0.38091920789E+02 -0.29053409482E+02  0.78443984990E+02  0.41800000000E+01 0.  1.
        -11    1    4    4    0    0  0.24154063458E+02  0.14805830130E+02 -0.20994946592E+02  0.35262149251E+02  0.00000000000E+00 0. -1.
         11    1    4    4    0    0 -0.84504408193E+02  0.54405076212E+02 -0.26434101770E+02  0.10392145620E+03  0.00000000000E+00 0.  1.
</event>
<event>
 8    1  0.6860461E-009  0.2547899E+03  0.7561462E-02  0.1110315E+00
          1   -1    0    0  501    0  0.00000000000E+00  0.00000000000E+00  0.10473866680E+04  0.10473866680E+04  0.00000000000E+00 0. -1.
         -1   -1    0    0    0  501 -0.00000000000E+00 -0.00000000000E+00 -0.66269211344E+02  0.66269211344E+02  0.00000000000E+00 0.  1.
         25    2    1    2    0    0 -0.19722551580E+03  0.13555546253E+03  0.47240433821E+03  0.54413977760E+03  0.12509616824E+03 0.  0.
         23    2    1    2    0    0  0.19722551580E+03 -0.13555546253E+03  0.50871311844E+03  0.56951610173E+03  0.91029477394E+02 0.  0.
          5    1    3    3  502    0 -0.58982275781E+02  0.11383191836E+03  0.19497841500E+03  0.23338952249E+03  0.41800000000E+01 0.  1.
         -5    1    3    3    0  502 -0.13824324002E+03  0.21723544166E+02  0.27742592321E+03  0.31075025511E+03  0.41800000000E+01 0.  1.
        -11    1    4    4    0    0  0.15217688909E+03 -0.87954595433E+02  0.27160179297E+03  0.32351406519E+03  0.00000000000E+00 0.  1.
         11    1    4    4    0    0  0.45048626711E+02 -0.47600867093E+02  0.23711132547E+03  0.24600203654E+03  0.00000000000E+00 0. -1.
</event>
<event>
 8    1  0.6860461E-009  0.1091210E+03  0.7561462E-02  0.1262206E+00
         -2   -1    0    0    0  501 -0.00000000000E+00  0.00000000000E+00  0.30179040820E+02  0.30179040820E+02  0.00000000000E+00 0. -1.
          2   -1    0    0  501    0  0.00000000000E+00 -0.00000000000E+00 -0.11361397380E+04  0.11361397380E+04  0.00000000000E+00 0.  1.
         25    2    1    2    0    0  0.41067390369E+02  0.60631303401E+02 -0.10012693822E+04  0.10117069873E+04  0.12509183377E+03 0.  0.
         23    2    1    2    0    0 -0.41067390369E+02 -0.60631303401E+02 -0.10469131494E+03  0.15461179150E+03  0.87073814340E+02 0.  0.
          5    1    3    3  502    0 -0.41075595126E+02 -0.23243696894E+01 -0.29326605105E+03  0.29616727758E+03  0.41800000000E+01 0. -1.
         -5    1    3    3    0  502  0.82142985495E+02  0.62955673090E+02 -0.70800333114E+03  0.71553970969E+03  0.41800000000E+01 0. -1.
        -11    1    4    4    0    0 -0.11114789043E+02 -0.13784230054E+02 -0.96852609100E+02  0.98457967799E+02  0.00000000000E+00 0.  1.
         11    1    4    4    0    0 -0.29952601326E+02 -0.46847073346E+02 -0.78387058428E+01  0.56153823704E+02  0.00000000000E+00 0. -1.
</event>
<event>
 8    1  0.6860461E-009  0.1357793E+03  0.7561462E-02  0.1219124E+00
         -2   -1    0    0    0  501 -0.00000000000E+00  0.00000000000E+00  0.77125818985E+02  0.77125818985E+02  0.00000000000E+00 0.  1.
          2   -1    0    0  501    0  0.00000000000E+00 -0.00000000000E+00 -0.50207413990E+03  0.50207413990E+03  0.00000000000E+00 0. -1.
         25    2    1    2    0    0 -0.77907220245E+02 -0.93388140554E+02 -0.38811858355E+03  0.42552942567E+03  0.12509347486E+03 0.  0.
         23    2    1    2    0    0  0.77907220245E+02  0.93388140554E+02 -0.36829737358E+02  0.15367053321E+03  0.86413676350E+02 0.  0.
          5    1    3    3  502    0 -0.69671795349E+02 -0.78315919800E+02 -0.13110789719E+03  0.16791157037E+03  0.41800000000E+01 0.  1.
         -5    1    3    3    0  502 -0.82354248957E+01 -0.15072220754E+02 -0.25701068637E+03  0.25761785530E+03  0.41800000000E+01 0.  1.
        -11    1    4    4    0    0  0.13608116395E+02  0.82680142449E+02 -0.24796620146E+02  0.87384547592E+02  0.00000000000E+00 0.  1.
         11    1    4    4    0    0  0.64299103850E+02  0.10707998105E+02 -0.12033117213E+02  0.66285985617E+02  0.00000000000E+00 0. -1.
</event>
<event>
 8    1  0.6860461E-009  0.1309183E+03  0.7561462E-02  0.1226100E+00
         -2   -1    0    0    0  501 -0.00000000000E+00  0.00000000000E+00  0.29104112384E+02  0.29104112384E+02  0.00000000000E+00 0. -1.
          2   -1    0    0  501    0  0.00000000000E+00 -0.00000000000E+00 -0.75496996241E+03  0.75496996241E+03  0.00000000000E+00 0.  1.
         25    2    1    2    0    0  0.21685675980E+02  0.95462664302E+02 -0.43885693089E+03  0.46671926899E+03  0.12509229166E+03 0.  0.
         23    2    1    2    0    0 -0.21685675980E+02 -0.95462664302E+02 -0.28700891914E+03  0.31735480581E+03  0.93576515692E+02 0.  0.
          5    1    3    3  502    0  0.56595929157E-01 -0.20932223823E+02 -0.13691561496E+02  0.25359267605E+02  0.41800000000E+01 0.  1.
         -5    1    3    3    0  502  0.21629080051E+02  0.11639488812E+03 -0.42516536940E+03  0.44136000138E+03  0.41800000000E+01 0.  1.
        -11    1    4    4    0    0 -0.44120838188E+02 -0.87904409027E+02 -0.15741349435E+03  0.18561476690E+03  0.00000000000E+00 0. -1.
         11    1    4    4    0    0  0.22435162208E+02 -0.75582552755E+01 -0.12959542479E+03  0.13174003891E+03  0.00000000000E+00 0.  1.
</event>
<event>
 8    1  0.6860461E-009  0.6982615E+02  0.7561462E-02  0.1360685E+00
         -2   -1    0    0    0  501 -0.00000000000E+00  0.00000000000E+00  0.77347084959E+02  0.77347084959E+02  0.00000000000E+00 0. -1.
          2   -1    0    0  501    0  0.00000000000E+00 -0.00000000000E+00 -0.22650209108E+03  0.22650209108E+03  0.00000000000E+00 0.  1.
         25    2    1    2    0    0 -0.23185481901E+02 -0.19272048565E+02 -0.30793540347E+01  0.12871029656E+03  0.12509148490E+03 0.  0.
         23    2    1    2    0    0  0.23185481901E+02  0.19272048565E+02 -0.14607565209E+03  0.17513887947E+03  0.91796255611E+02 0.  0.
          5    1    3    3  502    0 -0.38346712845E+02 -0.21704316798E+02 -0.57185014387E+02  0.72312834435E+02  0.41800000000E+01 0. -1.
         -5    1    3    3    0  502  0.15161230944E+02  0.24322682330E+01  0.54105660352E+02  0.56397462129E+02  0.41800000000E+01 0. -1.
        -11    1    4    4    0    0 -0.69800473894E+01 -0.24971695087E+02 -0.10358271133E+03  0.10677867158E+03  0.00000000000E+00 0.  1.
         11    1    4    4    0    0  0.30165529290E+02  0.44243743652E+02 -0.42492940755E+02  0.68360207897E+02  0.00000000000E+00 0. -1.
</event>
<event>
 8    1  0.6860461E-009  0.2823269E+03  0.7561462E-02  0.1094425E+00
          2   -1    0    0  501    0  0.00000000000E+00  0.00000000000E+00  0.36440986043E+03  0.36440986043E+03  0.00000000000E+00 0. -1.
         -2   -1    0    0    0  501 -0.00000000000E+00 -0.00000000000E+00 -0.23238430713E+03  0.23238430713E+03  0.00000000000E+00 0.  1.
         25    2    1    2    0    0  0.23717607463E+03 -0.12456451961E+03  0.35362989040E+02  0.29776845514E+03  0.12508677772E+03 0.  0.
         23    2    1    2    0    0 -0.23717607463E+03  0.12456451961E+03  0.96662564252E+02  0.29902571242E+03  0.91125822000E+02 0.  0.
          5    1    3    3  502    0  0.19896690519E+02 -0.51919233141E+02  0.39933122137E+02  0.68582882027E+02  0.41800000000E+01 0.  1.
         -5    1    3    3    0  502  0.21727938412E+03 -0.72645286464E+02 -0.45701330972E+01  0.22918557311E+03  0.41800000000E+01 0.  1.
        -11    1    4    4    0    0 -0.37633803291E+02  0.58503401024E+02  0.50813392194E+01  0.69747911006E+02  0.00000000000E+00 0.  1.
         11    1    4    4    0    0 -0.19954227134E+03  0.66061118582E+02  0.91581225033E+02  0.22927780141E+03  0.00000000000E+00 0. -1.
</event>
<event>
 8    1  0.6860461E-009  0.1164992E+03  0.7561462E-02  0.1248987E+00
          2   -1    0    0  501    0  0.00000000000E+00  0.00000000000E+00  0.37836111714E+03  0.37836111714E+03  0.00000000000E+00 0. -1.
         -2   -1    0    0    0  501 -0.00000000000E+00 -0.00000000000E+00 -0.62167173688E+02  0.62167173688E+02  0.00000000000E+00 0.  1.
         25    2    1    2    0    0  0.34923626446E+02 -0.81708699859E+02  0.26119088220E+03  0.30292267009E+03  0.12508195632E+03 0.  0.
         23    2    1    2    0    0 -0.34923626446E+02  0.81708699859E+02  0.55003061260E+02  0.13760562074E+03  0.89520940538E+02 0.  0.
          5    1    3    3  502    0 -0.30760046813E+01 -0.95558436961E+02  0.23704363899E+03  0.25563261894E+03  0.41800000000E+01 0.  1.
         -5    1    3    3    0  502  0.37999631127E+02  0.13849737102E+02  0.24147243204E+02  0.47290051152E+02  0.41800000000E+01 0.  1.
        -11    1    4    4    0    0 -0.14905670414E+02  0.73511634589E+02 -0.36444620387E+01  0.75096082015E+02  0.00000000000E+00 0.  1.
         11    1    4    4    0    0 -0.20017956032E+02  0.81970652705E+01  0.58647523299E+02  0.62509538727E+02  0.00000000000E+00 0. -1.
</event>
<event>
 8    1  0.6860461E-009  0.9509076E+02  0.7561462E-02  0.1290972E+00
          2   -1    0    0  501    0  0.00000000000E+00  0.00000000000E+00  0.16149016967E+03  0.16149016967E+03  0.00000000000E+00 0. -1.
         -2   -1    0    0    0  501 -0.00000000000E+00 -0.00000000000E+00 -0.17317657543E+03  0.17317657543E+03  0.00000000000E+00 0.  1.
         25    2    1    2    0    0  0.90300823119E+02  0.39518879525E+01  0.82196300634E+02  0.17485291081E+03  0.12508977779E+03 0.  0.
         23    2    1    2    0    0 -0.90300823119E+02 -0.39518879525E+01 -0.93882706390E+02  0.15981383428E+03  0.92502124271E+02 0.  0.
          5    1    3    3  502    0  0.71310067012E+02 -0.98813784670E+01  0.11412046179E+03  0.13499525731E+03  0.41800000000E+01 0. -1.
         -5    1    3    3    0  502  0.18990756107E+02  0.13833266420E+02 -0.31924161154E+02  0.39857653503E+02  0.41800000000E+01 0. -1.
        -11    1    4    4    0    0 -0.44108894116E+02 -0.15215831979E+02 -0.10145401923E+03  0.11166930689E+03  0.00000000000E+00 0.  1.
         11    1    4    4    0    0 -0.46191929003E+02  0.11263944026E+02  0.75713128385E+01  0.48144527396E+02  0.00000000000E+00 0. -1.
</event>
<event>
 8    1  0.6860461E-009  0.1614104E+03  0.7561462E-02  0.1187114E+00
         -2   -1    0    0    0  501 -0.00000000000E+00  0.00000000000E+00  0.74558866700E+02  0.74558866700E+02  0.00000000000E+00 0. -1.
          2   -1    0    0  501    0  0.00000000000E+00 -0.00000000000E+00 -0.62416648985E+03  0.62416648985E+03  0.00000000000E+00 0.  1.
         25    2    1    2    0    0  0.11879656827E+03 -0.49860983252E+02 -0.51029582429E+03  0.54096873022E+03  0.12508635620E+03 0.  0.
         23    2    1    2    0    0 -0.11879656827E+03  0.49860983252E+02 -0.39311798855E+02  0.15775662632E+03  0.82115731359E+02 0.  0.
          5    1    3    3  502    0  0.20165538739E+02 -0.67133327093E+02 -0.29864257409E+03  0.30678720967E+03  0.41800000000E+01 0.  1.
         -5    1    3    3    0  502  0.98631029528E+02  0.17272343841E+02 -0.21165325021E+03  0.23418152056E+03  0.41800000000E+01 0.  1.
        -11    1    4    4    0    0 -0.13137603411E+03  0.46461784917E+02 -0.32658042854E+02  0.14312549584E+03  0.00000000000E+00 0. -1.
         11    1    4    4    0    0  0.12579465845E+02  0.33991983349E+01 -0.66537560008E+01  0.14631130482E+02  0.00000000000E+00 0.  1.
</event>
<event>
 8    1  0.6860461E-009  0.1455001E+03  0.7561462E-02  0.1206114E+00
         -3   -1    0    0    0  501 -0.00000000000E+00  0.00000000000E+00  0.97113594550E+02  0.97113594550E+02  0.00000000000E+00 0.  1.
          3   -1    0    0  501    0  0.00000000000E+00 -0.00000000000E+00 -0.32042139353E+03  0.32042139353E+03  0.00000000000E+00 0. -1.
         25    2    1    2    0    0 -0.10822706264E+03 -0.37090114632E+02 -0.21133444549E+03  0.27092071460E+03  0.12508801725E+03 0.  0.
         23    2    1    2    0    0  0.10822706264E+03  0.37090114632E+02 -0.11973353495E+02  0.14661427348E+03  0.90904402006E+02 0.  0.
          5    1    3    3  502    0 -0.13638403861E+02 -0.52704856077E+02 -0.22406772394E+02  0.59019859057E+02  0.41800000000E+01 0. -1.
         -5    1    3    3    0  502 -0.94588658777E+02  0.15614741446E+02 -0.18892767309E+03  0.21190085554E+03  0.41800000000E+01 0. -1.
        -11    1    4    4    0    0  0.38010267480E+02  0.56036103659E+02 -0.26026531640E+02  0.72541062140E+02  0.00000000000E+00 0. -1.
         11    1    4    4    0    0  0.70216795158E+02 -0.18945989028E+02  0.14053178145E+02  0.74073211342E+02  0.00000000000E+00 0.  1.
</event>
<event>
 8    1  0.6860461E-009  0.8732333E+02  0.7561462E-02  0.1309466E+00
         -2   -1    0    0    0  501 -0.00000000000E+00  0.00000000000E+00  0.10556752158E+03  0.10556752158E+03  0.00000000000E+00 0.  1.
          2   -1    0    0  501    0  0.00000000000E+00 -0.00000000000E+00 -0.15368963711E+03  0.15368963711E+03  0.00000000000E+00 0. -1.
         25    2    1    2    0    0  0.13383096837E+02 -0.61299109445E+02 -0.46868892530E+02  0.14758468481E+03  0.12509139860E+03 0.  0.
         23    2    1    2    0    0 -0.13383096837E+02  0.61299109445E+02 -0.12532229990E+01  0.11167247387E+03  0.92371439058E+02 0.  0.
          5    1    3    3  502    0  0.18382794121E+02 -0.46034635233E+02  0.37058682555E+02  0.62031710548E+02  0.41800000000E+01 0. -1.
         -5    1    3    3    0  502 -0.49996972843E+01 -0.15264474212E+02 -0.83927575085E+02  0.85552974265E+02  0.41800000000E+01 0. -1.
        -11    1    4    4    0    0  0.18974445307E+02  0.71815969335E+02 -0.13528256562E+02  0.75502163888E+02  0.00000000000E+00 0. -1.
         11    1    4    4    0    0 -0.32357542144E+02 -0.10516859890E+02  0.12275033563E+02  0.36170309986E+02  0.00000000000E+00 0.  1.
</event>
<event>
 8    1  0.6860461E-009  0.1297101E+03  0.7561462E-02  0.1227887E+00
         -1   -1    0    0    0  501 -0.00000000000E+00  0.00000000000E+00  0.22793682733E+03  0.22793682733E+03  0.00000000000E+00 0.  1.
          1   -1    0    0  501    0  0.00000000000E+00 -0.00000000000E+00 -0.93187650031E+02  0.93187650031E+02  0.00000000000E+00 0. -1.
         25    2    1    2    0    0  0.14125157775E+02  0.79366470240E+02  0.15260321589E+02  0.14959839062E+03  0.12509294297E+03 0.  0.
         23    2    1    2    0    0 -0.14125157775E+02 -0.79366470240E+02  0.11948885571E+03  0.17152608674E+03  0.92978788515E+02 0.  0.
          5    1    3    3  502    0  0.47424972164E+02  0.97359122477E+02 -0.52196009502E+00  0.10837744948E+03  0.41800000000E+01 0. -1.
         -5    1    3    3    0  502 -0.33299814389E+02 -0.17992652237E+02  0.15782281684E+02  0.41220941135E+02  0.41800000000E+01 0. -1.
        -11    1    4    4    0    0 -0.33963898787E+02 -0.85662643428E+02  0.63816198588E+02  0.11208988403E+03  0.00000000000E+00 0. -1.
         11    1    4    4    0    0  0.19838741012E+02  0.62961731875E+01  0.55672657122E+02  0.59436202711E+02  0.00000000000E+00 0.  1.
</event>
<event>
 8    1  0.6860461E-009  0.1808248E+03  0.7561462E-02  0.1167007E+00
          2   -1    0    0  501    0  0.00000000000E+00  0.00000000000E+00  0.14412785603E+04  0.14412785603E+04  0.00000000000E+00 0. -1.
         -2   -1    0    0    0  501 -0.00000000000E+00 -0.00000000000E+00 -0.29640427525E+02  0.29640427525E+02  0.00000000000E+00 0.  1.
         25    2    1    2    0    0  0.12691054537E+03 -0.73950069856E+02  0.10520392699E+04  0.10695833943E+04  0.12508841916E+03 0.  0.
         23    2    1    2    0    0 -0.12691054537E+03  0.73950069856E+02  0.35959886292E+03  0.40133559356E+03  0.10091589116E+03 0.  0.
          5    1    3    3  502    0  0.79853970070E+01 -0.70568255220E+02  0.48429169037E+03  0.48948907952E+03  0.41800000000E+01 0. -1.
         -5    1    3    3    0  502  0.11892514836E+03 -0.33818146359E+01  0.56774757949E+03  0.58009431475E+03  0.41800000000E+01 0. -1.
        -11    1    4    4    0    0  0.12892946734E+02  0.14886312776E+02  0.14868849793E+02  0.24676164161E+02  0.00000000000E+00 0.  1.
         11    1    4    4    0    0 -0.13980349211E+03  0.59063757079E+02  0.34473001313E+03  0.37665942940E+03  0.00000000000E+00 0. -1.
</event>
<event>
 8    1  0.6860461E-009  0.1440572E+03  0.7561462E-02  0.1207972E+00
          1   -1    0    0  501    0  0.00000000000E+00  0.00000000000E+00  0.10435334568E+04  0.10435334568E+04  0.00000000000E+00 0. -1.
         -1   -1    0    0    0  501 -0.00000000000E+00 -0.00000000000E+00 -0.25896809785E+02  0.25896809785E+02  0.00000000000E+00 0.  1.
         25    2    1    2    0    0 -0.77253582599E+02 -0.94736589164E+02  0.49124080763E+03  0.52144758977E+03  0.12508765104E+03 0.  0.
         23    2    1    2    0    0  0.77253582599E+02  0.94736589164E+02  0.52639583935E+03  0.54798267678E+03  0.90825640750E+02 0.  0.
          5    1    3    3  502    0  0.20480776146E+02 -0.67463939298E+01  0.20779150455E+03  0.20894917513E+03  0.41800000000E+01 0.  1.
         -5    1    3    3    0  502 -0.97734358746E+02 -0.87990195234E+02  0.28344930308E+03  0.31249841464E+03  0.41800000000E+01 0.  1.
        -11    1    4    4    0    0  0.13216657976E+02 -0.65445017568E+01  0.98853610124E+01  0.17754743412E+02  0.00000000000E+00 0.  1.
         11    1    4    4    0    0  0.64036924624E+02  0.10128109092E+03  0.51651047834E+03  0.53022793337E+03  0.00000000000E+00 0. -1.
</event>
<event>
 8    1  0.6860461E-009  0.1565231E+03  0.7561462E-02  0.1192679E+00
         -1   -1    0    0    0  501 -0.00000000000E+00  0.00000000000E+00  0.30036007262E+02  0.30036007262E+02  0.00000000000E+00 0.  1.
          1   -1    0    0  501    0  0.00000000000E+00 -0.00000000000E+00 -0.11083682229E+04  0.11083682229E+04  0.00000000000E+00 0. -1.
         25    2    1    2    0    0 -0.61051660958E+02 -0.11261977796E+03 -0.78269309359E+03  0.80291094828E+03  0.12508793874E+03 0.  0.
         23    2    1    2    0    0  0.61051660958E+02  0.11261977796E+03 -0.29563912208E+03  0.33549328192E+03  0.93502577582E+02 0.  0.
          5    1    3    3  502    0 -0.83245435553E+02 -0.91861495443E+02 -0.39527231320E+03  0.41427769777E+03  0.41800000000E+01 0. -1.
         -5    1    3    3    0  502  0.22193774595E+02 -0.20758282512E+02 -0.38742078039E+03  0.38863325051E+03  0.41800000000E+01 0. -1.
        -11    1    4    4    0    0 -0.22383461771E+02  0.47439826099E+02 -0.10725483308E+03  0.11939495668E+03  0.00000000000E+00 0.  1.
         11    1    4    4    0    0  0.83435122729E+02  0.65179951856E+02 -0.18838428900E+03  0.21609832524E+03  0.00000000000E+00 0. -1.
</event>
<event>
 8    1  0.6860461E-009  0.1183893E+03  0.7561462E-02  0.1245778E+00
          2   -1    0    0  501    0  0.00000000000E+00  0.00000000000E+00  0.11492687746E+04  0.11492687746E+04  0.00000000000E+00 0. -1.
         -2   -1    0    0    0  501 -0.00000000000E+00 -0.00000000000E+00 -0.15880747679E+02  0.15880747679E+02  0.00000000000E+00 0.  1.
         25    2    1    2    0    0 -0.40344525381E+02 -0.31581974135E+02  0.89536752289E+03  0.90551398523E+03  0.12508986600E+03 0.  0.
         23    2    1    2    0    0  0.40344525381E+02  0.31581974135E+02  0.23802050400E+03  0.25963553702E+03  0.90176216052E+02 0.  0.
          5    1    3    3  502    0  0.30082528307E+02 -0.52763681511E+02  0.44913584063E+03  0.45324324632E+03  0.41800000000E+01 0.  1.
         -5    1    3    3    0  502 -0.70427053688E+02  0.21181707376E+02  0.44623168226E+03  0.45227073890E+03  0.41800000000E+01 0.  1.
        -11    1    4    4    0    0  0.56381526487E+02  0.51707772103E+02  0.15738353978E+03  0.17499185358E+03  0.00000000000E+00 0.  1.
         11    1    4    4    0    0 -0.16037001106E+02 -0.20125797968E+02  0.80636964220E+02  0.84643683444E+02  0.00000000000E+00 0. -1.
</event>
<event>
 8    1  0.6860461E-009  0.9373297E+02  0.7561462E-02  0.1294056E+00
          2   -1    0    0  501    0  0.00000000000E+00  0.00000000000E+00  0.78472921502E+03  0.78472921502E+03  0.00000000000E+00 0. -1.
         -2   -1    0    0    0  501 -0.00000000000E+00 -0.00000000000E+00 -0.27965193733E+02  0.27965193733E+02  0.00000000000E+00 0.  1.
         25    2    1    2    0    0  0.32131826819E+02  0.12052816716E+02  0.67145026161E+03  0.68386566834E+03  0.12509625825E+03 0.  0.
         23    2    1    2    0    0 -0.32131826819E+02 -0.12052816716E+02  0.85313759673E+02  0.12882874041E+03  0.90225728487E+02 0.  0.
          5    1    3    3  502    0 -0.42662026416E+02  0.24081393439E+02  0.35818292424E+03  0.36154175641E+03  0.41800000000E+01 0.  1.
         -5    1    3    3    0  502  0.74793853235E+02 -0.12028576723E+02  0.31326733737E+03  0.32232391193E+03  0.41800000000E+01 0.  1.
        -11    1    4    4    0    0  0.10110222195E+02 -0.17121090138E+02  0.83938668368E+02  0.86261511509E+02  0.00000000000E+00 0. -1.
         11    1    4    4    0    0 -0.42242049014E+02  0.50682734223E+01  0.13750913051E+01  0.42567228903E+02  0.00000000000E+00 0.  1.
</event>
<event>
 8    1  0.6860461E-009  0.1300627E+03  0.7561462E-02  0.1227363E+00
         -2   -1    0    0    0  501 -0.00000000000E+00  0.00000000000E+00  0.67750776643E+02  0.67750776643E+02  0.00000000000E+00 0.  1.
          2   -1    0    0  501    0  0.00000000000E+00 -0.00000000000E+00 -0.59759083288E+03  0.59759083288E+03  0.00000000000E+00 0. -1.
         25    2    1    2    0    0 -0.96214648383E+02 -0.61470399463E+02 -0.48120726942E+03  0.51014083224E+03  0.12508942400E+03 0.  0.
         23    2    1    2    0    0  0.96214648383E+02  0.61470399463E+02 -0.48632786813E+02  0.15520077728E+03  0.93200132739E+02 0.  0.
          5    1    3    3  502    0 -0.10887623824E+03 -0.37790724552E+02 -0.46367301041E+03  0.47779944234E+03  0.41800000000E+01 0. -1.
         -5    1    3    3    0  502  0.12661589858E+02 -0.23679674911E+02 -0.17534259016E+02  0.32341389903E+02  0.41800000000E+01 0. -1.
        -11    1    4    4    0    0  0.52103401622E+02  0.49619183731E+02 -0.73784440014E+02  0.10305809742E+03  0.00000000000E+00 0. -1.
         11    1    4    4    0    0  0.44111246761E+02  0.11851215732E+02  0.25151653200E+02  0.52142679868E+02  0.00000000000E+00 0.  1.
</event>
<event>
 8    1  0.6860461E-009  0.1134868E+03  0.7561462E-02  0.1254246E+00
         -1   -1    0    0    0  501 -0.00000000000E+00  0.00000000000E+00  0.90975993735E+01  0.90975993735E+01  0.00000000000E+00 0.  1.
          1   -1    0    0  501    0  0.00000000000E+00 -0.00000000000E+00 -0.19262100113E+04  0.19262100113E+04  0.00000000000E+00 0. -1.
         25    2    1    2    0    0  0.28200760847E+02 -0.44150688200E+02 -0.14997473494E+04  0.15058666391E+04  0.12509059316E+03 0.  0.
         23    2    1    2    0    0 -0.28200760847E+02  0.44150688200E+02 -0.41736506251E+03  0.42944097157E+03  0.86495008410E+02 0.  0.
          5    1    3    3  502    0 -0.16452859260E+02 -0.74518218172E+02 -0.66805843816E+03  0.67241595059E+03  0.41800000000E+01 0.  1.
         -5    1    3    3    0  502  0.44653620107E+02  0.30367529973E+02 -0.83168891128E+03  0.83345068853E+03  0.41800000000E+01 0.  1.
        -11    1    4    4    0    0  0.19865414010E+01 -0.22829089873E+02 -0.52982265065E+02  0.57725506516E+02  0.00000000000E+00 0. -1.
         11    1    4    4    0    0 -0.30187302248E+02  0.66979778072E+02 -0.36438279745E+03  0.37171546506E+03  0.00000000000E+00 0.  1.
</event>
<event>
 8    1  0.6860461E-009  0.1869736E+03  0.7561462E-02  0.1161220E+00
          1   -1    0    0  501    0  0.00000000000E+00  0.00000000000E+00  0.15565367143E+03  0.15565367143E+03  0.00000000000E+00 0.  1.
         -1   -1    0    0    0  501 -0.00000000000E+00 -0.00000000000E+00 -0.55198415648E+03  0.55198415648E+03  0.00000000000E+00 0. -1.
         25    2    1    2    0    0 -0.42271391986E+02 -0.15295768219E+03 -0.47008536414E+03  0.51167514586E+03  0.12509309412E+03 0.  0.
         23    2    1    2    0    0  0.42271391986E+02  0.15295768219E+03  0.73754879085E+02  0.19596268205E+03  0.88196754180E+02 0.  0.
          5    1    3    3  502    0 -0.86542147369E+02 -0.90773127221E+02 -0.28303549324E+03  0.30960598627E+03  0.41800000000E+01 0.  1.
         -5    1    3    3    0  502  0.44270755383E+02 -0.62184554969E+02 -0.18704987089E+03  0.20206915960E+03  0.41800000000E+01 0.  1.
        -11    1    4    4    0    0 -0.13953827453E+02  0.72659182578E+02  0.63319090219E+02  0.97382612923E+02  0.00000000000E+00 0.  1.
         11    1    4    4    0    0  0.56225219439E+02  0.80298499611E+02  0.10435788866E+02  0.98580069132E+02  0.00000000000E+00 0. -1.
</event>
<event>
 8    1  0.6860461E-009  0.1557884E+03  0.7561462E-02  0.1193535E+00
          1   -1    0    0  501    0  0.00000000000E+00  0.00000000000E+00  0.14444215696E+04  0.14444215696E+04  0.00000000000E+00 0. -1.
         -1   -1    0    0    0  501 -0.00000000000E+00 -0.00000000000E+00 -0.25997328271E+02  0.25997328271E+02  0.00000000000E+00 0.  1.
         25    2    1    2    0    0  0.14188103006E+03  0.25249528335E+02  0.10056534807E+04  0.10235998170E+04  0.12509954789E+03 0.  0.
         23    2    1    2    0    0 -0.14188103006E+03 -0.25249528335E+02  0.41277076064E+03  0.44681908081E+03  0.92194494242E+02 0.  0.
          5    1    3    3  502    0  0.66901288601E+02  0.95417080826E+01  0.81899708985E+03  0.82179105142E+03  0.41800000000E+01 0. -1.
         -5    1    3    3    0  502  0.74979741460E+02  0.15707820253E+02  0.18665639083E+03  0.20180876562E+03  0.41800000000E+01 0. -1.
        -11    1    4    4    0    0 -0.95241988943E+02  0.25122816551E+02  0.28845020393E+03  0.30480438402E+03  0.00000000000E+00 0. -1.
         11    1    4    4    0    0 -0.46639041118E+02 -0.50372344886E+02  0.12432055671E+03  0.14201469680E+03  0.00000000000E+00 0.  1.
</event>
<event>
 8    1  0.6860461E-009  0.1583496E+03  0.7561462E-02  0.1190573E+00
          2   -1    0    0  501    0  0.00000000000E+00  0.00000000000E+00  0.10342489775E+03  0.10342489775E+03  0.00000000000E+00 0. -1.
         -2   -1    0    0    0  501 -0.00000000000E+00 -0.00000000000E+00 -0.50600430374E+03  0.50600430374E+03  0.00000000000E+00 0.  1.
         25    2    1    2    0    0  0.80021968898E+02 -0.11572427915E+03 -0.17834926181E+02  0.18910572327E+03  0.12508903105E+03 0.  0.
         23    2    1    2    0    0 -0.80021968898E+02  0.11572427915E+03 -0.38474447980E+03  0.42032347822E+03  0.94063209155E+02 0.  0.
          5    1    3    3  502    0  0.27654023647E+02 -0.10239234994E+02 -0.57508744796E+02  0.64763532062E+02  0.41800000000E+01 0. -1.
         -5    1    3    3    0  502  0.52367945251E+02 -0.10548504416E+03  0.39673818616E+02  0.12434219121E+03  0.41800000000E+01 0. -1.
        -11    1    4    4    0    0  0.20509699676E+02  0.33123620363E+02 -0.96832350914E+02  0.10437588893E+03  0.00000000000E+00 0.  1.
         11    1    4    4    0    0 -0.10053166857E+03  0.82600658787E+02 -0.28791212889E+03  0.31594758929E+03  0.00000000000E+00 0. -1.
</event>
<event>
 8    1  0.6860461E-009  0.1051065E+03  0.7561462E-02  0.1269910E+00
         -4   -1    0    0    0  501 -0.00000000000E+00  0.00000000000E+00  0.91221810709E+02  0.91221810709E+02  0.00000000000E+00 0. -1.
          4   -1    0    0  501    0  0.00000000000E+00 -0.00000000000E+00 -0.18941499665E+03  0.18941499665E+03  0.00000000000E+00 0.  1.
         25    2    1    2    0    0 -0.24199070302E+02 -0.69527606810E+02 -0.43163649612E+02  0.15142816160E+03  0.12509078449E+03 0.  0.
         23    2    1    2    0    0  0.24199070302E+02  0.69527606810E+02 -0.55029536327E+02  0.12920864576E+03  0.90812670696E+02 0.  0.
          5    1    3    3  502    0  0.27911871270E+02 -0.36386659292E+02  0.30482871003E+02  0.55224445283E+02  0.41800000000E+01 0. -1.
         -5    1    3    3    0  502 -0.52110941572E+02 -0.33140947518E+02 -0.73646520615E+02  0.96203716313E+02  0.41800000000E+01 0. -1.
        -11    1    4    4    0    0 -0.18360154815E+01 -0.14336468088E+02 -0.36782717840E+02  0.39520546578E+02  0.00000000000E+00 0.  1.
         11    1    4    4    0    0  0.26035085783E+02  0.83864074898E+02 -0.18246818487E+02  0.89688099183E+02  0.00000000000E+00 0. -1.
</event>
<event>
 8    1  0.6860461E-009  0.1065672E+03  0.7561462E-02  0.1267062E+00
          1   -1    0    0  501    0  0.00000000000E+00  0.00000000000E+00  0.71742677746E+02  0.71742677746E+02  0.00000000000E+00 0. -1.
         -1   -1    0    0    0  501 -0.00000000000E+00 -0.00000000000E+00 -0.28348254826E+03  0.28348254826E+03  0.00000000000E+00 0.  1.
         25    2    1    2    0    0 -0.19868950604E+02 -0.45721901823E+02 -0.21142664408E+03  0.25066755338E+03  0.12509088291E+03 0.  0.
         23    2    1    2    0    0  0.19868950604E+02  0.45721901823E+02 -0.31322642936E+00  0.10455767262E+03  0.91907242854E+02 0.  0.
          5    1    3    3  502    0  0.76207656130E+01  0.31340863287E+02 -0.11316336431E+02  0.34436283921E+02  0.41800000000E+01 0. -1.
         -5    1    3    3    0  502 -0.27489716216E+02 -0.77062765110E+02 -0.20011030765E+03  0.21623126946E+03  0.41800000000E+01 0. -1.
        -11    1    4    4    0    0  0.52128545916E+02  0.15261009011E+02 -0.17366019168E+02  0.57025102517E+02  0.00000000000E+00 0. -1.
         11    1    4    4    0    0 -0.32259595312E+02  0.30460892812E+02  0.17052792738E+02  0.47532570105E+02  0.00000000000E+00 0.  1.
</event>
<event>
 8    1  0.6860461E-009  0.1313654E+03  0.7561462E-02  0.1225444E+00
         -2   -1    0    0    0  501 -0.00000000000E+00  0.00000000000E+00  0.37564246796E+02  0.37564246796E+02  0.00000000000E+00 0.  1.
          2   -1    0    0  501    0  0.00000000000E+00 -0.00000000000E+00 -0.74700638755E+03  0.74700638755E+03  0.00000000000E+00 0. -1.
         25    2    1    2    0    0 -0.89246272826E+02  0.25784643661E+02 -0.56779744085E+03  0.58878775715E+03  0.12508934439E+03 0.  0.
         23    2    1    2    0    0  0.89246272826E+02 -0.25784643661E+02 -0.14164469991E+03  0.19578287719E+03  0.98173157879E+02 0.  0.
          5    1    3    3  502    0 -0.27786465061E+02 -0.32497419193E+02 -0.59069467721E+02  0.73040018563E+02  0.41800000000E+01 0. -1.
         -5    1    3    3    0  502 -0.61459807765E+02  0.58282062854E+02 -0.50872797312E+03  0.51574773859E+03  0.41800000000E+01 0. -1.
        -11    1    4    4    0    0  0.27634303418E+02 -0.58869954797E+02 -0.63052712991E+02  0.90581294530E+02  0.00000000000E+00 0.  1.
         11    1    4    4    0    0  0.61611969408E+02  0.33085311136E+02 -0.78591986918E+02  0.10520158266E+03  0.00000000000E+00 0. -1.
</event>
<event>
 8    1  0.6860461E-009  0.1359730E+03  0.7561462E-02  0.1218853E+00
         -1   -1    0    0    0  501 -0.00000000000E+00  0.00000000000E+00  0.11986962428E+03  0.11986962428E+03  0.00000000000E+00 0.  1.
          1   -1    0    0  501    0  0.00000000000E+00 -0.00000000000E+00 -0.18405212157E+03  0.18405212157E+03  0.00000000000E+00 0. -1.
         25    2    1    2    0    0 -0.97716875008E+02 -0.21531969163E+02 -0.35536719964E+02  0.16407893080E+03  0.12508726438E+03 0.  0.
         23    2    1    2    0    0  0.97716875008E+02  0.21531969163E+02 -0.28645777324E+02  0.13984281505E+03  0.93398174522E+02 0.  0.
          5    1    3    3  502    0 -0.11201792358E+03 -0.39457523180E+02 -0.57531000826E+02  0.13203105618E+03  0.41800000000E+01 0.  1.
         -5    1    3    3    0  502  0.14301048576E+02  0.17925554017E+02  0.21994280862E+02  0.32047874623E+02  0.41800000000E+01 0.  1.
        -11    1    4    4    0    0  0.35449136039E+02 -0.31945258537E+02  0.10569955381E+02  0.48876014012E+02  0.00000000000E+00 0.  1.
         11    1    4    4    0    0  0.62267738969E+02  0.53477227700E+02 -0.39215732706E+02  0.90966801034E+02  0.00000000000E+00 0. -1.
</event>
<event>
 8    1  0.6860461E-009  0.1027287E+03  0.7561462E-02  0.1274660E+00
          1   -1    0    0  501    0  0.00000000000E+00  0.00000000000E+00  0.46138816149E+03  0.46138816149E+03  0.00000000000E+00 0. -1.
         -1   -1    0    0    0  501 -0.00000000000E+00 -0.00000000000E+00 -0.28820525810E+02  0.28820525810E+02  0.00000000000E+00 0.  1.
         25    2    1    2    0    0  0.26373307725E+02  0.16530165949E+02  0.19631398923E+03  0.23485192702E+03  0.12508975782E+03 0.  0.
         23    2    1    2    0    0 -0.26373307725E+02 -0.16530165949E+02  0.23625364645E+03  0.25535676028E+03  0.91774134765E+02 0.  0.
          5    1    3    3  502    0  0.19029528011E+02 -0.46899673376E+02  0.36034811780E+02  0.62271039490E+02  0.41800000000E+01 0.  1.
         -5    1    3    3    0  502  0.73437797135E+01  0.63429839325E+02  0.16027917744E+03  0.17258088753E+03  0.41800000000E+01 0.  1.
        -11    1    4    4    0    0 -0.52161114302E+02 -0.31430369742E+02  0.19626355467E+03  0.20549460547E+03  0.00000000000E+00 0.  1.
         11    1    4    4    0    0  0.25787806577E+02  0.14900203793E+02  0.39990091786E+02  0.49862154809E+02  0.00000000000E+00 0. -1.
</event>
<event>
 8    1  0.6860461E-009  0.2884376E+03  0.7561462E-02  0.1091168E+00
         -1   -1    0    0    0  501 -0.00000000000E+00  0.00000000000E+00  0.21217014013E+03  0.21217014013E+03  0.00000000000E+00 0.  1.
          1   -1    0    0  501    0  0.00000000000E+00 -0.00000000000E+00 -0.50774650928E+03  0.50774650928E+03  0.00000000000E+00 0. -1.
         25    2    1    2    0    0  0.17835100818E+03 -0.22267846321E+03 -0.18986677904E+02  0.31209379221E+03  0.12508901272E+03 0.  0.
         23    2    1    2    0    0 -0.17835100818E+03  0.22267846321E+03 -0.27658969124E+03  0.40782285720E+03  0.91776061468E+02 0.  0.
          5    1    3    3  502    0  0.85731483974E+02 -0.83789552618E+02  0.51878873529E+02  0.13068843251E+03  0.41800000000E+01 0.  1.
         -5    1    3    3    0  502  0.92619524204E+02 -0.13888891059E+03 -0.70865551433E+02  0.18140535970E+03  0.41800000000E+01 0.  1.
        -11    1    4    4    0    0 -0.15840216685E+03  0.16421975362E+03 -0.25551016724E+03  0.34255630122E+03  0.00000000000E+00 0. -1.
         11    1    4    4    0    0 -0.19948841325E+02  0.58458709590E+02 -0.21079523997E+02  0.65266555977E+02  0.00000000000E+00 0.  1.
</event>
<event>
 8    1  0.6860461E-009  0.7747267E+02  0.7561462E-02  0.1336381E+00
         -2   -1    0    0    0  501 -0.00000000000E+00  0.00000000000E+00  0.16250119279E+02  0.16250119279E+02  0.00000000000E+00 0.  1.
          2   -1    0    0  501    0  0.00000000000E+00 -0.00000000000E+00 -0.99691980390E+03  0.99691980390E+03  0.00000000000E+00 0. -1.
         25    2    1    2    0    0  0.55233187658E+02 -0.25154017158E+02 -0.65503179000E+03  0.66962447601E+03  0.12508742286E+03 0.  0.
         23    2    1    2    0    0 -0.55233187658E+02  0.25154017158E+02 -0.32563789462E+03  0.34354544717E+03  0.91104370157E+02 0.  0.
          5    1    3    3  502    0  0.49237842020E+02  0.64026421516E+01 -0.83943926463E+02  0.97618717997E+02  0.41800000000E+01 0.  1.
         -5    1    3    3    0  502  0.59953456380E+01 -0.31556659310E+02 -0.57108786354E+03  0.57200575801E+03  0.41800000000E+01 0.  1.
        -11    1    4    4    0    0 -0.38814375150E+02  0.36087950048E+02 -0.31800928657E+03  0.32239541281E+03  0.00000000000E+00 0. -1.
         11    1    4    4    0    0 -0.16418812508E+02 -0.10933932890E+02 -0.76286080475E+01  0.21150034358E+02  0.00000000000E+00 0.  1.
</event>
<event>
 8    1  0.6860461E-009  0.4243845E+02  0.7561462E-02  0.1490997E+00
          1   -1    0    0  501    0  0.00000000000E+00  0.00000000000E+00  0.39680169866E+02  0.39680169866E+02  0.00000000000E+00 0. -1.
         -1   -1    0    0    0  501 -0.00000000000E+00 -0.00000000000E+00 -0.46129474894E+03  0.46129474894E+03  0.00000000000E+00 0.  1.
         25    2    1    2    0    0  0.22941835335E+01 -0.12392312889E+02 -0.37676016733E+03  0.39718321733E+03  0.12508977474E+03 0.  0.
         23    2    1    2    0    0 -0.22941835335E+01  0.12392312889E+02 -0.44854411749E+02  0.10379170148E+03  0.92746786179E+02 0.  0.
          5    1    3    3  502    0  0.32743461102E+01 -0.18884077961E+02 -0.38520192529E+03  0.38570108295E+03  0.41800000000E+01 0.  1.
         -5    1    3    3    0  502 -0.98016257666E+00  0.64917650715E+01  0.84417579596E+01  0.11482134378E+02  0.41800000000E+01 0.  1.
        -11    1    4    4    0    0 -0.27808834531E+02 -0.25229663859E+01  0.18765046174E+02  0.33642586037E+02  0.00000000000E+00 0. -1.
         11    1    4    4    0    0  0.25514650997E+02  0.14915279275E+02 -0.63619457923E+02  0.70149115446E+02  0.00000000000E+00 0.  1.
</event>
<event>
 8    1  0.6860461E-009  0.1590549E+03  0.7561462E-02  0.1189768E+00
          1   -1    0    0  501    0  0.00000000000E+00  0.00000000000E+00  0.10798998395E+04  0.10798998395E+04  0.00000000000E+00 0. -1.
         -1   -1    0    0    0  501 -0.00000000000E+00 -0.00000000000E+00 -0.32849940702E+02  0.32849940702E+02  0.00000000000E+00 0.  1.
         25    2    1    2    0    0 -0.81926625494E+02  0.12373807110E+03  0.43024115000E+03  0.47199414503E+03  0.12509174069E+03 0.  0.
         23    2    1    2    0    0  0.81926625494E+02 -0.12373807110E+03  0.61680874878E+03  0.64075563514E+03  0.89953705866E+02 0.  0.
          5    1    3    3  502    0 -0.36404440364E+01  0.25647837139E+02  0.25533793590E+03  0.25668268015E+03  0.41800000000E+01 0.  1.
         -5    1    3    3    0  502 -0.78286181458E+02  0.98090233959E+02  0.17490321410E+03  0.21531146488E+03  0.41800000000E+01 0.  1.
        -11    1    4    4    0    0  0.96162474425E+02 -0.11352579759E+03  0.59183598270E+03  0.61025007876E+03  0.00000000000E+00 0. -1.
         11    1    4    4    0    0 -0.14235848930E+02 -0.10212273504E+02  0.24972766074E+02  0.30505556383E+02  0.00000000000E+00 0.  1.
</event>
<event>
 8    1  0.6860461E-009  0.1215595E+03  0.7561462E-02  0.1240546E+00
         -2   -1    0    0    0  501 -0.00000000000E+00  0.00000000000E+00  0.16878177560E+03  0.16878177560E+03  0.00000000000E+00 0.  1.
          2   -1    0    0  501    0  0.00000000000E+00 -0.00000000000E+00 -0.15934716539E+03  0.15934716539E+03  0.00000000000E+00 0. -1.
         25    2    1    2    0    0 -0.69105448207E+02 -0.91092859676E+02 -0.42419629518E+02  0.17470006706E+03  0.12508883406E+03 0.  0.
         23    2    1    2    0    0  0.69105448207E+02  0.91092859676E+02  0.51854239732E+02  0.15342887393E+03  0.88193452821E+02 0.  0.
          5    1    3    3  502    0 -0.30240403321E+02 -0.68435017388E+02 -0.84512146693E+02  0.11294958582E+03  0.41800000000E+01 0. -1.
         -5    1    3    3    0  502 -0.38865044886E+02 -0.22657842288E+02  0.42092517174E+02  0.61750481239E+02  0.41800000000E+01 0. -1.
        -11    1    4    4    0    0  0.70382313875E+02  0.61747021165E+02  0.71743145503E+02  0.11795526125E+03  0.00000000000E+00 0.  1.
         11    1    4    4    0    0 -0.12768656683E+01  0.29345838511E+02 -0.19888905771E+02  0.35473612680E+02  0.00000000000E+00 0. -1.
</event>
<event>
 8    1  0.6860461E-009  0.8868913E+02  0.7561462E-02  0.1306058E+00
         -2   -1    0    0    0  501 -0.00000000000E+00  0.00000000000E+00  0.60781155229E+02  0.60781155229E+02  0.00000000000E+00 0.  1.
          2   -1    0    0  501    0  0.00000000000E+00 -0.00000000000E+00 -0.26228054018E+03  0.26228054018E+03  0.00000000000E+00 0. -1.
         25    2    1    2    0    0  0.43056611672E+00 -0.84609443644E+01 -0.30279018302E+02  0.12897956645E+03  0.12508851524E+03 0.  0.
         23    2    1    2    0    0 -0.43056611672E+00  0.84609443644E+01 -0.17122036665E+03  0.19408212896E+03  0.90992779165E+02 0.  0.
          5    1    3    3  502    0 -0.61907597124E+02 -0.10432730207E+01 -0.98835712977E+01  0.62839449249E+02  0.41800000000E+01 0.  1.
         -5    1    3    3    0  502  0.62338163241E+02 -0.74176713437E+01 -0.20395447004E+02  0.66140117198E+02  0.41800000000E+01 0.  1.
        -11    1    4    4    0    0  0.12731241913E+02  0.26893449488E+02 -0.16868755070E+03  0.17129165743E+03  0.00000000000E+00 0. -1.
         11    1    4    4    0    0 -0.13161808029E+02 -0.18432505123E+02 -0.25328159483E+01  0.22790471526E+02  0.00000000000E+00 0.  1.
</event>
<event>
 8    1  0.6860461E-009  0.1461533E+03  0.7561462E-02  0.1205281E+00
         -2   -1    0    0    0  501 -0.00000000000E+00  0.00000000000E+00  0.35588040666E+02  0.35588040666E+02  0.00000000000E+00 0.  1.
          2   -1    0    0  501    0  0.00000000000E+00 -0.00000000000E+00 -0.73380608156E+03  0.73380608156E+03  0.00000000000E+00 0. -1.
         25    2    1    2    0    0  0.55166587544E+02  0.89047536220E+02 -0.23713168806E+03  0.28784052793E+03  0.12509163021E+03 0.  0.
         23    2    1    2    0    0 -0.55166587544E+02 -0.89047536220E+02 -0.46108635284E+03  0.48155359430E+03  0.91216354448E+02 0.  0.
          5    1    3    3  502    0  0.20922674183E+02  0.11417845870E+03 -0.14116102140E+03  0.18280696127E+03  0.41800000000E+01 0. -1.
         -5    1    3    3    0  502  0.34243913362E+02 -0.25130922477E+02 -0.95970666659E+02  0.10503356666E+03  0.41800000000E+01 0. -1.
        -11    1    4    4    0    0 -0.37948666233E+02  0.46244367449E+01 -0.78828278834E+02  0.87609270217E+02  0.00000000000E+00 0. -1.
         11    1    4    4    0    0 -0.17217921311E+02 -0.93671972965E+02 -0.38225807400E+03  0.39394432408E+03  0.00000000000E+00 0.  1.
</event>
<event>
 8    1  0.6860461E-009  0.1005808E+03  0.7561462E-02  0.1279079E+00
          2   -1    0    0  501    0  0.00000000000E+00  0.00000000000E+00  0.36887284942E+02  0.36887284942E+02  0.00000000000E+00 0. -1.
         -2   -1    0    0    0  501 -0.00000000000E+00 -0.00000000000E+00 -0.51462899297E+03  0.51462899297E+03  0.00000000000E+00 0.  1.
         25    2    1    2    0    0  0.49852352878E+02  0.29146791834E+02 -0.13701100625E+03  0.19429769562E+03  0.12507911947E+03 0.  0.
         23    2    1    2    0    0 -0.49852352878E+02 -0.29146791834E+02 -0.34073070178E+03  0.35721858229E+03  0.90404158303E+02 0.  0.
          5    1    3    3  502    0 -0.21916440597E+02  0.81003084203E+01  0.12679415601E+02  0.26910692019E+02  0.41800000000E+01 0. -1.
         -5    1    3    3    0  502  0.71768793474E+02  0.21046483414E+02 -0.14969042185E+03  0.16738700360E+03  0.41800000000E+01 0. -1.
        -11    1    4    4    0    0  0.57711345788E+01  0.24540968585E+02 -0.45320238698E+02  0.51860285085E+02  0.00000000000E+00 0. -1.
         11    1    4    4    0    0 -0.55623487456E+02 -0.53687760420E+02 -0.29541046308E+03  0.30535829721E+03  0.00000000000E+00 0.  1.
</event>
<event>
 8    1  0.6860461E-009  0.1021393E+03  0.7561462E-02  0.1275861E+00
         -2   -1    0    0    0  501 -0.00000000000E+00  0.00000000000E+00  0.28115736760E+02  0.28115736760E+02  0.00000000000E+00 0.  1.
          2   -1    0    0  501    0  0.00000000000E+00 -0.00000000000E+00 -0.41740472977E+03  0.41740472977E+03  0.00000000000E+00 0. -1.
         25    2    1    2    0    0  0.85941574904E+01  0.11202291009E+02 -0.23395986472E+03  0.26567369067E+03  0.12508373496E+03 0.  0.
         23    2    1    2    0    0 -0.85941574904E+01 -0.11202291009E+02 -0.15532912829E+03  0.17984677586E+03  0.89545372984E+02 0.  0.
          5    1    3    3  502    0  0.41207008924E+02  0.56176144750E+02 -0.14017965645E+03  0.15659369498E+03  0.41800000000E+01 0. -1.
         -5    1    3    3    0  502 -0.32612851433E+02 -0.44973853741E+02 -0.93780208268E+02  0.10907999570E+03  0.41800000000E+01 0. -1.
        -11    1    4    4    0    0  0.18623609135E+02  0.26428347530E+02 -0.11111738604E+03  0.11572540711E+03  0.00000000000E+00 0. -1.
         11    1    4    4    0    0 -0.27217766625E+02 -0.37630638539E+02 -0.44211742256E+02  0.64121368749E+02  0.00000000000E+00 0.  1.
</event>
<event>
 8    1  0.6860461E-009  0.7413811E+02  0.7561462E-02  0.1346561E+00
         -2   -1    0    0    0  501 -0.00000000000E+00  0.00000000000E+00  0.15612122898E+02  0.15612122898E+02  0.00000000000E+00 0.  1.
          2   -1    0    0  501    0  0.00000000000E+00 -0.00000000000E+00 -0.14861966671E+04  0.14861966671E+04  0.00000000000E+00 0. -1.
         25    2    1    2    0    0  0.23262846274E+01  0.79400462880E+01 -0.13125538777E+04  0.13185272483E+04  0.12509183275E+03 0.  0.
         23    2    1    2    0    0 -0.23262846274E+01 -0.79400462880E+01 -0.15803066650E+03  0.18328154173E+03  0.92466080533E+02 0.  0.
          5    1    3    3  502    0  0.30116097474E+02  0.60099688107E+01 -0.12443428908E+04  0.12447288063E+04  0.41800000000E+01 0. -1.
         -5    1    3    3    0  502 -0.27789812846E+02  0.19300774773E+01 -0.68210986944E+02  0.73798441968E+02  0.41800000000E+01 0. -1.
        -11    1    4    4    0    0  0.23817906033E+02 -0.40726819570E+02 -0.57657236885E+02  0.74500492920E+02  0.00000000000E+00 0.  1.
         11    1    4    4    0    0 -0.26144190660E+02  0.32786773282E+02 -0.10037342962E+03  0.10878104881E+03  0.00000000000E+00 0. -1.
</event>
<event>
 8    1  0.6860461E-009  0.9491970E+02  0.7561462E-02  0.1291357E+00
          3   -1    0    0  501    0  0.00000000000E+00  0.00000000000E+00  0.12748929167E+03  0.12748929167E+03  0.00000000000E+00 0. -1.
         -3   -1    0    0    0  501 -0.00000000000E+00 -0.00000000000E+00 -0.13887262562E+03  0.13887262562E+03  0.00000000000E+00 0.  1.
         25    2    1    2    0    0  0.11574736562E+02 -0.74452703564E+02  0.13188478710E+02  0.14662292126E+03  0.12508863047E+03 0.  0.
         23    2    1    2    0    0 -0.11574736562E+02  0.74452703564E+02 -0.24571812667E+02  0.11973899603E+03  0.89757860927E+02 0.  0.
          5    1    3    3  502    0  0.19387699776E+02 -0.35195302234E+02 -0.54520243551E+02  0.67856625018E+02  0.41800000000E+01 0. -1.
         -5    1    3    3    0  502 -0.78129632148E+01 -0.39257401330E+02  0.67708722261E+02  0.78766296241E+02  0.41800000000E+01 0. -1.
        -11    1    4    4    0    0  0.27004780247E+01  0.88867462627E+02 -0.36607849586E+02  0.96150159369E+02  0.00000000000E+00 0.  1.
         11    1    4    4    0    0 -0.14275214586E+02 -0.14414759063E+02  0.12036036918E+02  0.23588836661E+02  0.00000000000E+00 0. -1.
</event>
<event>
 8    1  0.6860461E-009  0.1348025E+03  0.7561462E-02  0.1220499E+00
         -1   -1    0    0    0  501 -0.00000000000E+00  0.00000000000E+00  0.47183823468E+02  0.47183823468E+02  0.00000000000E+00 0.  1.
          1   -1    0    0  501    0  0.00000000000E+00 -0.00000000000E+00 -0.45374025986E+03  0.45374025986E+03  0.00000000000E+00 0. -1.
         25    2    1    2    0    0  0.12365503321E+02  0.89526820299E+02 -0.27604840298E+03  0.31625493032E+03  0.12508598220E+03 0.  0.
         23    2    1    2    0    0 -0.12365503321E+02 -0.89526820299E+02 -0.13050803341E+03  0.18466915300E+03  0.94352488356E+02 0.  0.
          5    1    3    3  502    0 -0.17453901039E+02  0.11172613272E+03 -0.23431895912E+03  0.26021186445E+03  0.41800000000E+01 0.  1.
         -5    1    3    3    0  502  0.29819404360E+02 -0.22199312426E+02 -0.41729443852E+02  0.56043065876E+02  0.41800000000E+01 0.  1.
        -11    1    4    4    0    0  0.24073228277E+02 -0.76727805096E+02 -0.12033358167E+03  0.14473025693E+03  0.00000000000E+00 0. -1.
         11    1    4    4    0    0 -0.36438731597E+02 -0.12799015203E+02 -0.10174451741E+02  0.39938896064E+02  0.00000000000E+00 0.  1.
</event>
<event>
 8    1  0.6860461E-009  0.1595088E+03  0.7561462E-02  0.1189252E+00
         -2   -1    0    0    0  501 -0.00000000000E+00  0.00000000000E+00  0.26865263211E+03  0.26865263211E+03  0.00000000000E+00 0.  1.
          2   -1    0    0  501    0  0.00000000000E+00 -0.00000000000E+00 -0.10358149464E+03  0.10358149464E+03  0.00000000000E+00 0. -1.
         25    2    1    2    0    0  0.65316965597E+02  0.10206629418E+03  0.47906744300E+02  0.18062945237E+03  0.12509239989E+03 0.  0.
         23    2    1    2    0    0 -0.65316965597E+02 -0.10206629418E+03  0.11716439318E+03  0.19160467438E+03  0.91109943545E+02 0.  0.
          5    1    3    3  502    0  0.58451156243E+02 -0.80230672477E+01  0.36867410750E+02  0.69696381897E+02  0.41800000000E+01 0. -1.
         -5    1    3    3    0  502  0.68658093544E+01  0.11008936143E+03  0.11039333551E+02  0.11093307047E+03  0.41800000000E+01 0. -1.
        -11    1    4    4    0    0 -0.68500089076E+02 -0.11626131465E+03  0.94750463563E+02  0.16488361299E+03  0.00000000000E+00 0. -1.
         11    1    4    4    0    0  0.31831234786E+01  0.14195020465E+02  0.22413929613E+02  0.26721061390E+02  0.00000000000E+00 0.  1.
</event>
<event>
 8    1  0.6860461E-009  0.1401354E+03  0.7561462E-02  0.1213147E+00
          2   -1    0    0  501    0  0.00000000000E+00  0.00000000000E+00  0.20040086994E+03  0.20040086994E+03  0.00000000000E+00 0. -1.
         -2   -1    0    0    0  501 -0.00000000000E+00 -0.00000000000E+00 -0.12871549947E+03  0.12871549947E+03  0.00000000000E+00 0.  1.
         25    2    1    2    0    0 -0.89432743074E+02 -0.21997441675E+01 -0.41172665116E+02  0.15921207625E+03  0.12510092910E+03 0.  0.
         23    2    1    2    0    0  0.89432743074E+02  0.21997441675E+01  0.11285803558E+03  0.16990429317E+03  0.90152527603E+02 0.  0.
          5    1    3    3  502    0 -0.84358655330E+02 -0.54579722875E+02 -0.21223605804E+02  0.10277763726E+03  0.41800000000E+01 0. -1.
         -5    1    3    3    0  502 -0.50740877440E+01  0.52379978708E+02 -0.19949059312E+02  0.56434438983E+02  0.41800000000E+01 0. -1.
        -11    1    4    4    0    0  0.82077218346E+02 -0.34831962428E+02  0.82152565693E+02  0.12123934769E+03  0.00000000000E+00 0. -1.
         11    1    4    4    0    0  0.73555247278E+01  0.37031706595E+02  0.30705469890E+02  0.48664945479E+02  0.00000000000E+00 0.  1.
</event>
<event>
 8    1  0.6860461E-009  0.1017735E+03  0.7561462E-02  0.1276610E+00
          1   -1    0    0  501    0  0.00000000000E+00  0.00000000000E+00  0.62789650609E+02  0.62789650609E+02  0.00000000000E+00 0.  1.
         -1   -1    0    0    0  501 -0.00000000000E+00 -0.00000000000E+00 -0.24093868239E+03  0.24093868239E+03  0.00000000000E+00 0. -1.
         25    2    1    2    0    0  0.38549657054E+02 -0.20650523541E+02 -0.14016927660E+03  0.19288898299E+03  0.12508482511E+03 0.  0.
         23    2    1    2    0    0 -0.38549657054E+02  0.20650523541E+02 -0.37979755179E+02  0.11083935001E+03  0.94500685320E+02 0.  0.
          5    1    3    3  502    0  0.83211629713E+02 -0.10279088737E+02 -0.71813494170E+02  0.11047391244E+03  0.41800000000E+01 0. -1.
         -5    1    3    3    0  502 -0.44661972659E+02 -0.10371434804E+02 -0.68355782433E+02  0.82415070550E+02  0.41800000000E+01 0. -1.
        -11    1    4    4    0    0  0.12502214114E+02  0.18668185280E+02  0.22412541007E+02  0.31735287832E+02  0.00000000000E+00 0.  1.
         11    1    4    4    0    0 -0.51051871168E+02  0.19823382611E+01 -0.60392296186E+02  0.79104062180E+02  0.00000000000E+00 0. -1.
</event>
<event>
 8    1  0.6860461E-009  0.2318411E+03  0.7561462E-02  0.1125351E+00
         -1   -1    0    0    0  501 -0.00000000000E+00  0.00000000000E+00  0.13345644982E+04  0.13345644982E+04  0.00000000000E+00 0.  1.
          1   -1    0    0  501    0  0.00000000000E+00 -0.00000000000E+00 -0.45662070381E+02  0.45662070381E+02  0.00000000000E+00 0. -1.
         25    2    1    2    0    0 -0.16856800393E+03 -0.12310948762E+03  0.45260524427E+03  0.51387811165E+03  0.12509232032E+03 0.  0.
         23    2    1    2    0    0  0.16856800393E+03  0.12310948762E+03  0.83629718353E+03  0.86634845692E+03  0.87152462542E+02 0.  0.
          5    1    3    3  502    0 -0.66454468838E+02 -0.11789597871E+03  0.31072635409E+03  0.33894542002E+03  0.41800000000E+01 0. -1.
         -5    1    3    3    0  502 -0.10211353509E+03 -0.52135089111E+01  0.14187889018E+03  0.17493269163E+03  0.41800000000E+01 0. -1.
        -11    1    4    4    0    0  0.14783014492E+03  0.13654396278E+03  0.73138603467E+03  0.75856676518E+03  0.00000000000E+00 0. -1.
         11    1    4    4    0    0  0.20737859008E+02 -0.13434475158E+02  0.10491114886E+03  0.10778169174E+03  0.00000000000E+00 0.  1.
</event>
<event>
 8    1  0.6860461E-009  0.9173163E+02  0.7561462E-02  0.1298712E+00
         -1   -1    0    0    0  501 -0.00000000000E+00  0.00000000000E+00  0.40852178602E+02  0.40852178602E+02  0.00000000000E+00 0.  1.
          1   -1    0    0  501    0  0.00000000000E+00 -0.00000000000E+00 -0.37114707002E+03  0.37114707002E+03  0.00000000000E+00 0. -1.
         25    2    1    2    0    0  0.17001720535E+02  0.39124120009E+02 -0.25407759920E+03  0.28639625040E+03  0.12509048948E+03 0.  0.
         23    2    1    2    0    0 -0.17001720535E+02 -0.39124120009E+02 -0.76217292217E+02  0.12560299822E+03  0.90262297015E+02 0.  0.
          5    1    3    3  502    0 -0.26946095825E+02  0.68972643002E+02 -0.10899126159E+03  0.13183279207E+03  0.41800000000E+01 0. -1.
         -5    1    3    3    0  502  0.43947816360E+02 -0.29848522993E+02 -0.14508633762E+03  0.15456345833E+03  0.41800000000E+01 0. -1.
        -11    1    4    4    0    0  0.49637788036E+01 -0.32764545489E+02  0.11404828417E+02  0.35046036185E+02  0.00000000000E+00 0.  1.
         11    1    4    4    0    0 -0.21965499338E+02 -0.63595745203E+01 -0.87622120634E+02  0.90556962038E+02  0.00000000000E+00 0. -1.
</event>
<event>
 8    1  0.6860461E-009  0.1424106E+03  0.7561462E-02  0.1210122E+00
          1   -1    0    0  501    0  0.00000000000E+00  0.00000000000E+00  0.10713770890E+04  0.10713770890E+04  0.00000000000E+00 0. -1.
         -1   -1    0    0    0  501 -0.00000000000E+00 -0.00000000000E+00 -0.21829997797E+02  0.21829997797E+02  0.00000000000E+00 0.  1.
         25    2    1    2    0    0 -0.10362487635E+03 -0.61201942166E+01  0.46191659538E+03  0.48968367407E+03  0.12509031853E+03 0.  0.
         23    2    1    2    0    0  0.10362487635E+03  0.61201942166E+01  0.58763049578E+03  0.60352341268E+03  0.90306911732E+02 0.  0.
          5    1    3    3  502    0 -0.21096615133E+01  0.40256166190E+02  0.59029407962E+02  0.71602744308E+02  0.41800000000E+01 0.  1.
         -5    1    3    3    0  502 -0.10151521484E+03 -0.46376360407E+02  0.40288718742E+03  0.41808092976E+03  0.41800000000E+01 0.  1.
        -11    1    4    4    0    0  0.65804613372E+02 -0.36805610080E+02  0.41100446473E+03  0.41786309971E+03  0.00000000000E+00 0. -1.
         11    1    4    4    0    0  0.37820262980E+02  0.42925804297E+02  0.17662603106E+03  0.18566031297E+03  0.00000000000E+00 0.  1.
</event>
<event>
 8    1  0.6860461E-009  0.2098577E+03  0.7561462E-02  0.1141679E+00
          2   -1    0    0  501    0  0.00000000000E+00  0.00000000000E+00  0.18817542011E+03  0.18817542011E+03  0.00000000000E+00 0. -1.
         -2   -1    0    0    0  501 -0.00000000000E+00 -0.00000000000E+00 -0.24521668001E+03  0.24521668001E+03  0.00000000000E+00 0.  1.
         25    2    1    2    0    0  0.18152756349E+03 -0.32538824615E+02 -0.41669737464E+02  0.22670287292E+03  0.12508714624E+03 0.  0.
         23    2    1    2    0    0 -0.18152756349E+03  0.32538824615E+02 -0.15371522436E+02  0.20668922721E+03  0.92049560175E+02 0.  0.
          5    1    3    3  502    0  0.18596444164E+03 -0.55776313660E+01 -0.12496622174E+02  0.18651413215E+03  0.41800000000E+01 0. -1.
         -5    1    3    3    0  502 -0.44368781449E+01 -0.26961193249E+02 -0.29173115289E+02  0.40188740771E+02  0.41800000000E+01 0. -1.
        -11    1    4    4    0    0 -0.13432492909E+03  0.64464894431E+02 -0.77280773050E+01  0.14919327186E+03  0.00000000000E+00 0.  1.
         11    1    4    4    0    0 -0.47202634403E+02 -0.31926069816E+02 -0.76434451313E+01  0.57495955353E+02  0.00000000000E+00 0. -1.
</event>
<event>
 8    1  0.6860461E-009  0.9462981E+02  0.7561462E-02  0.1292012E+00
          2   -1    0    0  501    0  0.00000000000E+00  0.00000000000E+00  0.88596315007E+03  0.88596315007E+03  0.00000000000E+00 0. -1.
         -2   -1    0    0    0  501 -0.00000000000E+00 -0.00000000000E+00 -0.34092009813E+02  0.34092009813E+02  0.00000000000E+00 0.  1.
         25    2    1    2    0    0  0.23903108915E+02 -0.63176848488E+02  0.75940128487E+03  0.77259398704E+03  0.12509390290E+03 0.  0.
         23    2    1    2    0    0 -0.23903108915E+02  0.63176848488E+02  0.92469855385E+02  0.14746117284E+03  0.92905600160E+02 0.  0.
          5    1    3    3  502    0  0.27079401914E+02 -0.27773565132E+02  0.71264362197E+03  0.71371077424E+03  0.41800000000E+01 0.  1.
         -5    1    3    3    0  502 -0.31762929993E+01 -0.35403283356E+02  0.46757662900E+02  0.58883212798E+02  0.41800000000E+01 0.  1.
        -11    1    4    4    0    0 -0.59668504446E+02  0.38942678095E+02  0.51441604483E+02  0.87881177005E+02  0.00000000000E+00 0.  1.
         11    1    4    4    0    0  0.35765395531E+02  0.24234170393E+02  0.41028250902E+02  0.59579995840E+02  0.00000000000E+00 0. -1.
</event>
<event>
 8    1  0.6860461E-009  0.1016335E+03  0.7561462E-02  0.1276898E+00
          2   -1    0    0  501    0  0.00000000000E+00  0.00000000000E+00  0.42646957109E+03  0.42646957109E+03  0.00000000000E+00 0. -1.
         -2   -1    0    0    0  501 -0.00000000000E+00 -0.00000000000E+00 -0.30994384210E+02  0.30994384210E+02  0.00000000000E+00 0.  1.
         25    2    1    2    0    0 -0.19971081469E+02  0.24623598239E+01  0.28557393936E+03  0.31241740958E+03  0.12508899093E+03 0.  0.
         23    2    1    2    0    0  0.19971081469E+02 -0.24623598239E+01  0.10990124752E+03  0.14504654572E+03  0.92494912887E+02 0.  0.
          5    1    3    3  502    0 -0.11877616036E+02  0.63444902255E+02  0.15787765005E+03  0.17061406205E+03  0.41800000000E+01 0.  1.
         -5    1    3    3    0  502 -0.80934654333E+01 -0.60982542431E+02  0.12769628932E+03  0.14180334753E+03  0.41800000000E+01 0.  1.
        -11    1    4    4    0    0  0.31802335473E+02  0.29169285112E+02  0.17323022326E+02  0.46500783197E+02  0.00000000000E+00 0.  1.
         11    1    4    4    0    0 -0.11831254003E+02 -0.31631644936E+02  0.92578225190E+02  0.98545762527E+02  0.00000000000E+00 0. -1.
</event>
<event>
 8    1  0.6860461E-009  0.1999220E+03  0.7561462E-02  0.1149805E+00
         -1   -1    0    0    0  501 -0.00000000000E+00  0.00000000000E+00  0.38101568154E+03  0.38101568154E+03  0.00000000000E+00 0.  1.
          1   -1    0    0  501    0  0.00000000000E+00 -0.00000000000E+00 -0.11214859657E+03  0.11214859657E+03  0.00000000000E+00 0. -1.
         25    2    1    2    0    0  0.10305447779E+03  0.13997506205E+03  0.16611989660E+03  0.27102797344E+03  0.12508836459E+03 0.  0.
         23    2    1    2    0    0 -0.10305447779E+03 -0.13997506205E+03  0.10274718838E+03  0.22213630467E+03  0.92597568774E+02 0.  0.
          5    1    3    3  502    0 -0.16441186415E+02  0.77060408747E+02  0.56651326353E+02  0.97136318566E+02  0.41800000000E+01 0.  1.
         -5    1    3    3    0  502  0.11949566421E+03  0.62914653301E+02  0.10946857024E+03  0.17389165488E+03  0.41800000000E+01 0.  1.
        -11    1    4    4    0    0 -0.31097104898E+02 -0.31776158145E+01  0.49710348010E+02  0.58721766617E+02  0.00000000000E+00 0.  1.
         11    1    4    4    0    0 -0.71957372895E+02 -0.13679744623E+03  0.53036840371E+02  0.16341453805E+03  0.00000000000E+00 0. -1.
</event>
<event>
 8    1  0.6860461E-009  0.1559502E+03  0.7561462E-02  0.1193346E+00
         -1   -1    0    0    0  501 -0.00000000000E+00  0.00000000000E+00  0.10739177493E+04  0.10739177493E+04  0.00000000000E+00 0.  1.
          1   -1    0    0  501    0  0.00000000000E+00 -0.00000000000E+00 -0.29935999129E+02  0.29935999129E+02  0.00000000000E+00 0. -1.
         25    2    1    2    0    0 -0.17174557976E+02  0.11713951806E+03  0.80770300047E+03  0.82586423538E+03  0.12510382164E+03 0.  0.
         23    2    1    2    0    0  0.17174557976E+02 -0.11713951806E+03  0.23627874966E+03  0.27798951300E+03  0.86220007340E+02 0.  0.
          5    1    3    3  502    0 -0.65088631073E+02  0.46965865879E+02  0.27845822968E+03  0.28982543113E+03  0.41800000000E+01 0.  1.
         -5    1    3    3    0  502  0.47914073098E+02  0.70173652178E+02  0.52924477079E+03  0.53603880425E+03  0.41800000000E+01 0.  1.
        -11    1    4    4    0    0  0.17257879343E+02  0.95770444591E+01  0.30972964920E+02  0.36727084501E+02  0.00000000000E+00 0. -1.
         11    1    4    4    0    0 -0.83321367852E-01 -0.12671656252E+03  0.20530578474E+03  0.24126242850E+03  0.00000000000E+00 0.  1.
</event>
<event>
 8    1  0.6860461E-009  0.8578916E+02  0.7561462E-02  0.1313382E+00
          1   -1    0    0  501    0  0.00000000000E+00  0.00000000000E+00  0.64829177863E+02  0.64829177863E+02  0.00000000000E+00 0. -1.
         -1   -1    0    0    0  501 -0.00000000000E+00 -0.00000000000E+00 -0.18661731587E+03  0.18661731587E+03  0.00000000000E+00 0.  1.
         25    2    1    2    0    0  0.40963655760E+01  0.10002181125E+02 -0.91775596496E+02  0.15552450100E+03  0.12509311116E+03 0.  0.
         23    2    1    2    0    0 -0.40963655760E+01 -0.10002181125E+02 -0.30012541507E+02  0.95921992733E+02  0.90462435320E+02 0.  0.
          5    1    3    3  502    0  0.61525638007E+02  0.21677749864E+02 -0.36551980655E+02  0.74892247003E+02  0.41800000000E+01 0. -1.
         -5    1    3    3    0  502 -0.57429272431E+02 -0.11675568739E+02 -0.55223615841E+02  0.80632253993E+02  0.41800000000E+01 0. -1.
        -11    1    4    4    0    0 -0.22499534195E+02 -0.16544095023E+02 -0.56492272678E+02  0.63018354401E+02  0.00000000000E+00 0.  1.
         11    1    4    4    0    0  0.18403168619E+02  0.65419138979E+01  0.26479731171E+02  0.32903638333E+02  0.00000000000E+00 0. -1.
</event>
<event>
 8    1  0.6860461E-009  0.1247905E+03  0.7561462E-02  0.1235397E+00
          1   -1    0    0  501    0  0.00000000000E+00  0.00000000000E+00  0.20936703490E+04  0.20936703490E+04  0.00000000000E+00 0. -1.
         -1   -1    0    0    0  501 -0.00000000000E+00 -0.00000000000E+00 -0.10619191546E+02  0.10619191546E+02  0.00000000000E+00 0.  1.
         25    2    1    2    0    0  0.40124236894E+02 -0.64057014530E+02  0.16045810113E+04  0.16112242743E+04  0.12510069823E+03 0.  0.
         23    2    1    2    0    0 -0.40124236894E+02  0.64057014530E+02  0.47847014622E+03  0.49306526633E+03  0.92013154197E+02 0.  0.
          5    1    3    3  502    0 -0.35814997748E+02 -0.99210322053E+01  0.86015707734E+03  0.86096969229E+03  0.41800000000E+01 0.  1.
         -5    1    3    3    0  502  0.75939234642E+02 -0.54135982325E+02  0.74442393394E+03  0.75025458197E+03  0.41800000000E+01 0.  1.
        -11    1    4    4    0    0 -0.24163882787E+02 -0.21166888053E+02  0.14397619085E+03  0.14751635134E+03  0.00000000000E+00 0.  1.
         11    1    4    4    0    0 -0.15960354107E+02  0.85223902583E+02  0.33449395537E+03  0.34554891499E+03  0.00000000000E+00 0. -1.
</event>
<event>
 8    1  0.6860461E-009  0.1164056E+03  0.7561462E-02  0.1249147E+00
         -3   -1    0    0    0  501 -0.00000000000E+00  0.00000000000E+00  0.16764184268E+03  0.16764184268E+03  0.00000000000E+00 0.  1.
          3   -1    0    0  501    0  0.00000000000E+00 -0.00000000000E+00 -0.89543988099E+02  0.89543988099E+02  0.00000000000E+00 0. -1.
         25    2    1    2    0    0  0.48171381467E+01 -0.41548774312E+02  0.82344966696E+02  0.15549095530E+03  0.12508892106E+03 0.  0.
         23    2    1    2    0    0 -0.48171381467E+01  0.41548774312E+02 -0.42471121163E+01  0.10169487548E+03  0.92597539227E+02 0.  0.
          5    1    3    3  502    0 -0.29919756995E+01 -0.85875156184E+02  0.61267500265E+02  0.10561568708E+03  0.41800000000E+01 0.  1.
         -5    1    3    3    0  502  0.78091138462E+01  0.44326381871E+02  0.21077466431E+02  0.49875268220E+02  0.41800000000E+01 0.  1.
        -11    1    4    4    0    0  0.33172244603E+02 -0.12556687666E+02 -0.37776620680E+00  0.35471269000E+02  0.00000000000E+00 0.  1.
         11    1    4    4    0    0 -0.37989382750E+02  0.54105461978E+02 -0.38693459095E+01  0.66223606481E+02  0.00000000000E+00 0. -1.
</event>
<event>
 8    1  0.6860461E-009  0.1139976E+03  0.7561462E-02  0.1253341E+00
          1   -1    0    0  501    0  0.00000000000E+00  0.00000000000E+00  0.52117392752E+03  0.52117392752E+03  0.00000000000E+00 0. -1.
         -1   -1    0    0    0  501 -0.00000000000E+00 -0.00000000000E+00 -0.27592400703E+02  0.27592400703E+02  0.00000000000E+00 0.  1.
         25    2    1    2    0    0  0.42347142480E+01 -0.32969405421E+02  0.35479311323E+03  0.37766551962E+03  0.12509267370E+03 0.  0.
         23    2    1    2    0    0 -0.42347142480E+01  0.32969405421E+02  0.13878841359E+03  0.17110080861E+03  0.94384047708E+02 0.  0.
          5    1    3    3  502    0 -0.59529272170E+02 -0.17372408301E+02  0.14379737210E+03  0.15665468853E+03  0.41800000000E+01 0. -1.
         -5    1    3    3    0  502  0.63763986418E+02 -0.15596997120E+02  0.21099574113E+03  0.22101083109E+03  0.41800000000E+01 0. -1.
        -11    1    4    4    0    0 -0.42919242961E+02 -0.80657751446E+01  0.60214010164E+02  0.74383097307E+02  0.00000000000E+00 0.  1.
         11    1    4    4    0    0  0.38684528713E+02  0.41035180565E+02  0.78574403425E+02  0.96717711301E+02  0.00000000000E+00 0. -1.
</event>
<event>
 8    1  0.6860461E-009  0.1450545E+03  0.7561462E-02  0.1206685E+00
          1   -1    0    0  501    0  0.00000000000E+00  0.00000000000E+00  0.79145729888E+03  0.79145729888E+03  0.00000000000E+00 0. -1.
         -1   -1    0    0    0  501 -0.00000000000E+00 -0.00000000000E+00 -0.34943762550E+02  0.34943762550E+02  0.00000000000E+00 0.  1.
         25    2    1    2    0    0 -0.79865943365E+02  0.86101195581E+02  0.51478258616E+03  0.54262553149E+03  0.12509744849E+03 0.  0.
         23    2    1    2    0    0  0.79865943365E+02 -0.86101195581E+02  0.24173095017E+03  0.28377552995E+03  0.91119231421E+02 0.  0.
          5    1    3    3  502    0 -0.54945628637E+02 -0.22765099555E+02  0.19183705852E+03  0.20088852950E+03  0.41800000000E+01 0.  1.
         -5    1    3    3    0  502 -0.24920314727E+02  0.10886629514E+03  0.32294552764E+03  0.34173700198E+03  0.41800000000E+01 0.  1.
        -11    1    4    4    0    0  0.16824212900E+02 -0.29717022456E+02  0.78057067675E+01  0.35029767648E+02  0.00000000000E+00 0.  1.
         11    1    4    4    0    0  0.63041730465E+02 -0.56384173125E+02  0.23392524341E+03  0.24874576230E+03  0.00000000000E+00 0. -1.
</event>
<event>
 8    1  0.6860461E-009  0.1024931E+03  0.7561462E-02  0.1275139E+00
          2   -1    0    0  501    0  0.00000000000E+00  0.00000000000E+00  0.65568176675E+03  0.65568176675E+03  0.00000000000E+00 0. -1.
         -2   -1    0    0    0  501 -0.00000000000E+00 -0.00000000000E+00 -0.24387004250E+02  0.24387004250E+02  0.00000000000E+00 0.  1.
         25    2    1    2    0    0 -0.28123033599E+02  0.25811757350E+02  0.48870149785E+03  0.50589954357E+03  0.12509213543E+03 0.  0.
         23    2    1    2    0    0  0.28123033599E+02 -0.25811757350E+02  0.14259326466E+03  0.17416922744E+03  0.92438784201E+02 0.  0.
          5    1    3    3  502    0 -0.29616694695E+02  0.67960338728E+02  0.18644595614E+03  0.20068712766E+03  0.41800000000E+01 0.  1.
         -5    1    3    3    0  502  0.14936610956E+01 -0.42148581378E+02  0.30225554170E+03  0.30521241591E+03  0.41800000000E+01 0.  1.
        -11    1    4    4    0    0 -0.52016794370E+01 -0.48023755543E+02  0.11715939796E+03  0.12672672605E+03  0.00000000000E+00 0.  1.
         11    1    4    4    0    0  0.33324713036E+02  0.22211998193E+02  0.25433866698E+02  0.47442501387E+02  0.00000000000E+00 0. -1.
</event>
<event>
 8    1  0.6860461E-009  0.9032911E+02  0.7561462E-02  0.1302057E+00
         -1   -1    0    0    0  501 -0.00000000000E+00  0.00000000000E+00  0.63171844599E+02  0.63171844599E+02  0.00000000000E+00 0.  1.
          1   -1    0    0  501    0  0.00000000000E+00 -0.00000000000E+00 -0.21662393069E+03  0.21662393069E+03  0.00000000000E+00 0. -1.
         25    2    1    2    0    0  0.10915175735E+02 -0.19252266904E+02 -0.38926149981E+02  0.13286505748E+03  0.12509231593E+03 0.  0.
         23    2    1    2    0    0 -0.10915175735E+02  0.19252266904E+02 -0.11452593611E+03  0.14693071780E+03  0.89345704714E+02 0.  0.
          5    1    3    3  502    0 -0.34169240631E+02  0.25186567248E+02 -0.52847701292E+02  0.67913563498E+02  0.41800000000E+01 0. -1.
         -5    1    3    3    0  502  0.45084416366E+02 -0.44438834153E+02  0.13921551311E+02  0.64951493984E+02  0.41800000000E+01 0. -1.
        -11    1    4    4    0    0  0.78139313741E+01 -0.25168936418E+02 -0.44046122258E+01  0.26719533918E+02  0.00000000000E+00 0.  1.
         11    1    4    4    0    0 -0.18729107109E+02  0.44421203323E+02 -0.11012132388E+03  0.12021118388E+03  0.00000000000E+00 0. -1.
</event>
<event>
 8    1  0.6860461E-009  0.1207795E+03  0.7561462E-02  0.1241817E+00
         -3   -1    0    0    0  501 -0.00000000000E+00  0.00000000000E+00  0.29895879508E+03  0.29895879508E+03  0.00000000000E+00 0.  1.
          3   -1    0    0  501    0  0.00000000000E+00 -0.00000000000E+00 -0.67938801683E+02  0.67938801683E+02  0.00000000000E+00 0. -1.
         25    2    1    2    0    0 -0.13005517687E+02  0.87071702433E+02  0.97667842195E+02  0.18148410852E+03  0.12508736703E+03 0.  0.
         23    2    1    2    0    0  0.13005517687E+02 -0.87071702433E+02  0.13335215120E+03  0.18541348824E+03  0.94046480726E+02 0.  0.
          5    1    3    3  502    0 -0.48770805193E+02  0.24945338914E+02 -0.61176798546E+01  0.55278927083E+02  0.41800000000E+01 0. -1.
         -5    1    3    3    0  502  0.35765287505E+02  0.62126363520E+02  0.10378552205E+03  0.12620518144E+03  0.41800000000E+01 0. -1.
        -11    1    4    4    0    0  0.42936716207E+02 -0.63780625148E+02  0.12472484606E+03  0.14651899866E+03  0.00000000000E+00 0.  1.
         11    1    4    4    0    0 -0.29931198520E+02 -0.23291077285E+02  0.86273051414E+01  0.38894489584E+02  0.00000000000E+00 0. -1.
</event>
<event>
 8    1  0.6860461E-009  0.2523336E+03  0.7561462E-02  0.1111839E+00
         -1   -1    0    0    0  501 -0.00000000000E+00  0.00000000000E+00  0.18549595980E+03  0.18549595980E+03  0.00000000000E+00 0.  1.
          1   -1    0    0  501    0  0.00000000000E+00 -0.00000000000E+00 -0.35405202097E+03  0.35405202097E+03  0.00000000000E+00 0. -1.
         25    2    1    2    0    0 -0.19302540930E+02 -0.22970762584E+03 -0.63841015632E+02  0.26992670891E+03  0.12508625604E+03 0.  0.
         23    2    1    2    0    0  0.19302540930E+02  0.22970762584E+03 -0.10471504554E+03  0.26962127187E+03  0.92694163931E+02 0.  0.
          5    1    3    3  502    0  0.41753733212E+02 -0.17567551588E+03 -0.45188979908E+02  0.18618479374E+03  0.41800000000E+01 0.  1.
         -5    1    3    3    0  502 -0.61056274142E+02 -0.54032109965E+02 -0.18652035724E+02  0.83741915168E+02  0.41800000000E+01 0.  1.
        -11    1    4    4    0    0  0.43865156761E+02  0.85179175749E+02 -0.12982927414E+02  0.96686091881E+02  0.00000000000E+00 0.  1.
         11    1    4    4    0    0 -0.24562615831E+02  0.14452845009E+03 -0.91732118124E+02  0.17293517999E+03  0.00000000000E+00 0. -1.
</event>
<event>
 8    1  0.6860461E-009  0.1141587E+03  0.7561462E-02  0.1253057E+00
         -2   -1    0    0    0  501 -0.00000000000E+00  0.00000000000E+00  0.24672468309E+02  0.24672468309E+02  0.00000000000E+00 0.  1.
          2   -1    0    0  501    0  0.00000000000E+00 -0.00000000000E+00 -0.58671995376E+03  0.58671995376E+03  0.00000000000E+00 0. -1.
         25    2    1    2    0    0 -0.27446752007E+02 -0.43424758788E+02 -0.28968735908E+03  0.31969302545E+03  0.12508329482E+03 0.  0.
         23    2    1    2    0    0  0.27446752007E+02  0.43424758788E+02 -0.27236012638E+03  0.29169939662E+03  0.90936602505E+02 0.  0.
          5    1    3    3  502    0  0.35757459135E+02  0.21802046167E+02 -0.12023970036E+03  0.12739302589E+03  0.41800000000E+01 0. -1.
         -5    1    3    3    0  502 -0.63204211142E+02 -0.65226804955E+02 -0.16944765871E+03  0.19229999957E+03  0.41800000000E+01 0. -1.
        -11    1    4    4    0    0 -0.22262053152E+02 -0.81219891586E+01 -0.26165219427E+02  0.35301337454E+02  0.00000000000E+00 0.  1.
         11    1    4    4    0    0  0.49708805159E+02  0.51546747947E+02 -0.24619490695E+03  0.25639805916E+03  0.00000000000E+00 0. -1.
</event>
<event>
 8    1  0.6860461E-009  0.1094435E+03  0.7561462E-02  0.1261604E+00
          2   -1    0    0  501    0  0.00000000000E+00  0.00000000000E+00  0.59099405084E+03  0.59099405084E+03  0.00000000000E+00 0.  1.
         -2   -1    0    0    0  501 -0.00000000000E+00 -0.00000000000E+00 -0.26935511268E+02  0.26935511268E+02  0.00000000000E+00 0. -1.
         25    2    1    2    0    0 -0.30023799731E+02  0.32605369719E+02  0.19683935323E+03  0.23739902318E+03  0.12509207226E+03 0.  0.
         23    2    1    2    0    0  0.30023799731E+02 -0.32605369719E+02  0.36721918635E+03  0.38053053893E+03  0.89381326645E+02 0.  0.
          5    1    3    3  502    0 -0.71531766125E+02  0.33009809925E+02  0.17101076352E+03  0.18833107751E+03  0.41800000000E+01 0.  1.
         -5    1    3    3    0  502  0.41507966394E+02 -0.40444020550E+00  0.25828589708E+02  0.49067945671E+02  0.41800000000E+01 0.  1.
        -11    1    4    4    0    0  0.30221774885E+02  0.25880627383E+02  0.11751063998E+03  0.12406414897E+03  0.00000000000E+00 0.  1.
         11    1    4    4    0    0 -0.19797515365E+00 -0.58485997102E+02  0.24970854637E+03  0.25646638997E+03  0.00000000000E+00 0. -1.
</event>
<event>
 8    1  0.6860461E-009  0.1126782E+03  0.7561462E-02  0.1255689E+00
         -2   -1    0    0    0  501 -0.00000000000E+00  0.00000000000E+00  0.81109485499E+02  0.81109485499E+02  0.00000000000E+00 0.  1.
          2   -1    0    0  501    0  0.00000000000E+00 -0.00000000000E+00 -0.21601237620E+03  0.21601237620E+03  0.00000000000E+00 0. -1.
         25    2    1    2    0    0 -0.98997627316E+01  0.72734108630E+02 -0.10271167077E+03  0.17771816498E+03  0.12508318428E+03 0.  0.
         23    2    1    2    0    0  0.98997627316E+01 -0.72734108630E+02 -0.32191219937E+02  0.11940369673E+03  0.88502611774E+02 0.  0.
          5    1    3    3  502    0 -0.49275525462E+02 -0.11986741259E+02 -0.44227195946E+02  0.67418666828E+02  0.41800000000E+01 0.  1.
         -5    1    3    3    0  502  0.39375762731E+02  0.84720849889E+02 -0.58484474823E+02  0.11029949815E+03  0.41800000000E+01 0.  1.
        -11    1    4    4    0    0 -0.12821330606E+02 -0.25904912617E+02  0.27714498833E+02  0.40044281261E+02  0.00000000000E+00 0.  1.
         11    1    4    4    0    0  0.22721093337E+02 -0.46829196013E+02 -0.59905718770E+02  0.79359415466E+02  0.00000000000E+00 0. -1.
</event>
<event>
 8    1  0.6860461E-009  0.2060790E+03  0.7561462E-02  0.1144709E+00
          2   -1    0    0  501    0  0.00000000000E+00  0.00000000000E+00  0.11273204640E+03  0.11273204640E+03  0.00000000000E+00 0. -1.
         -2   -1    0    0    0  501 -0.00000000000E+00 -0.00000000000E+00 -0.44280901403E+03  0.44280901403E+03  0.00000000000E+00 0.  1.
         25    2    1    2    0    0 -0.16852875986E+03 -0.78839653342E+02 -0.98274990840E+02  0.24479152605E+03  0.12508910249E+03 0.  0.
         23    2    1    2    0    0  0.16852875986E+03  0.78839653342E+02 -0.23180197679E+03  0.31074953438E+03  0.90639300721E+02 0.  0.
          5    1    3    3  502    0 -0.13097536128E+03 -0.15178385058E+02 -0.10752149666E+03  0.17018599613E+03  0.41800000000E+01 0. -1.
         -5    1    3    3    0  502 -0.37553398582E+02 -0.63661268285E+02  0.92465058220E+01  0.74605529919E+02  0.41800000000E+01 0. -1.
        -11    1    4    4    0    0  0.71929218861E+02  0.82610023004E+02 -0.10986983755E+03  0.15514383529E+03  0.00000000000E+00 0. -1.
         11    1    4    4    0    0  0.96599540999E+02 -0.37703696613E+01 -0.12193213924E+03  0.15560569909E+03  0.00000000000E+00 0.  1.
</event>
<event>
 8    1  0.6860461E-009  0.1056543E+03  0.7561462E-02  0.1268836E+00
         -2   -1    0    0    0  501 -0.00000000000E+00  0.00000000000E+00  0.43544133159E+02  0.43544133159E+02  0.00000000000E+00 0.  1.
          2   -1    0    0  501    0  0.00000000000E+00 -0.00000000000E+00 -0.49048662365E+03  0.49048662365E+03  0.00000000000E+00 0. -1.
         25    2    1    2    0    0 -0.80802293990E+02 -0.31989882842E+02 -0.15832506098E+03  0.21970080165E+03  0.12509697836E+03 0.  0.
         23    2    1    2    0    0  0.80802293990E+02  0.31989882842E+02 -0.28861742951E+03  0.31432995516E+03  0.89168025509E+02 0.  0.
          5    1    3    3  502    0 -0.60711589664E+02 -0.60002465760E+02 -0.36335369973E+02  0.92865087777E+02  0.41800000000E+01 0. -1.
         -5    1    3    3    0  502 -0.20090704326E+02  0.28012582918E+02 -0.12198969101E+03  0.12683571388E+03  0.41800000000E+01 0. -1.
        -11    1    4    4    0    0  0.31503623743E+02  0.27146485044E+02 -0.24445259769E+03  0.24796467990E+03  0.00000000000E+00 0. -1.
         11    1    4    4    0    0  0.49298670247E+02  0.48433977973E+01 -0.44164831817E+02  0.66365275256E+02  0.00000000000E+00 0.  1.
</event>
<event>
 8    1  0.6860461E-009  0.1182718E+03  0.7561462E-02  0.1245976E+00
          2   -1    0    0  501    0  0.00000000000E+00  0.00000000000E+00  0.21471568362E+03  0.21471568362E+03  0.00000000000E+00 0. -1.
         -2   -1    0    0    0  501 -0.00000000000E+00 -0.00000000000E+00 -0.89217471603E+02  0.89217471603E+02  0.00000000000E+00 0.  1.
         25    2    1    2    0    0 -0.42979058057E+02 -0.50424922073E+02  0.13231568626E+03  0.19376322556E+03  0.12508746760E+03 0.  0.
         23    2    1    2    0    0  0.42979058057E+02  0.50424922073E+02 -0.68174742409E+01  0.11016992967E+03  0.87755702094E+02 0.  0.
          5    1    3    3  502    0  0.19730939847E+02 -0.64086625705E+02  0.31558825475E+02  0.74228279294E+02  0.41800000000E+01 0. -1.
         -5    1    3    3    0  502 -0.62709997905E+02  0.13661703632E+02  0.10075686078E+03  0.11953494626E+03  0.41800000000E+01 0. -1.
        -11    1    4    4    0    0  0.53827517251E+02  0.37467198146E+00 -0.19770618252E+02  0.57344741159E+02  0.00000000000E+00 0.  1.
         11    1    4    4    0    0 -0.10848459194E+02  0.50050250091E+02  0.12953144011E+02  0.52825188508E+02  0.00000000000E+00 0. -1.
</event>
<event>
 8    1  0.6860461E-009  0.1097094E+03  0.7561462E-02  0.1261109E+00
          1   -1    0    0  501    0  0.00000000000E+00  0.00000000000E+00  0.61033086965E+02  0.61033086965E+02  0.00000000000E+00 0. -1.
         -1   -1    0    0    0  501 -0.00000000000E+00 -0.00000000000E+00 -0.22591243586E+03  0.22591243586E+03  0.00000000000E+00 0.  1.
         25    2    1    2    0    0  0.40232572351E+02  0.16838181095E+02 -0.10922406160E+03  0.17169472914E+03  0.12508796968E+03 0.  0.
         23    2    1    2    0    0 -0.40232572351E+02 -0.16838181095E+02 -0.55655287297E+02  0.11525079369E+03  0.91011264260E+02 0.  0.
          5    1    3    3  502    0  0.71435136734E+02  0.42305590711E+02 -0.10022806402E+03  0.13021474180E+03  0.41800000000E+01 0. -1.
         -5    1    3    3    0  502 -0.31202564383E+02 -0.25467409616E+02 -0.89959975824E+01  0.41479987333E+02  0.41800000000E+01 0. -1.
        -11    1    4    4    0    0 -0.53665330106E+01 -0.48443329343E+02 -0.10142684119E+02  0.49783831467E+02  0.00000000000E+00 0.  1.
         11    1    4    4    0    0 -0.34866039340E+02  0.31605148249E+02 -0.45512603177E+02  0.65466962226E+02  0.00000000000E+00 0. -1.
</event>
<event>
 8    1  0.6860461E-009  0.1000368E+03  0.7561462E-02  0.1280219E+00
         -2   -1    0    0    0  501 -0.00000000000E+00  0.00000000000E+00  0.16231670967E+02  0.16231670967E+02  0.00000000000E+00 0. -1.
          2   -1    0    0  501    0  0.00000000000E+00 -0.00000000000E+00 -0.99697132326E+03  0.99697132326E+03  0.00000000000E+00 0.  1.
         25    2    1    2    0    0  0.40793447922E+02  0.11117715264E+02 -0.75947485066E+03  0.77086811896E+03  0.12509156270E+03 0.  0.
         23    2    1    2    0    0 -0.40793447922E+02 -0.11117715264E+02 -0.22126480163E+03  0.24233487527E+03  0.89332918584E+02 0.  0.
          5    1    3    3  502    0 -0.17004291252E+02 -0.35272881155E+02 -0.48296597246E+03  0.48456880319E+03  0.41800000000E+01 0. -1.
         -5    1    3    3    0  502  0.57797739174E+02  0.46390596419E+02 -0.27650887819E+03  0.28629931577E+03  0.41800000000E+01 0. -1.
        -11    1    4    4    0    0 -0.28558512998E+02  0.31267890404E+02 -0.16758646500E+03  0.17285396404E+03  0.00000000000E+00 0.  1.
         11    1    4    4    0    0 -0.12234934925E+02 -0.42385605669E+02 -0.53678336634E+02  0.69480911222E+02  0.00000000000E+00 0. -1.
</event>
<event>
 8    1  0.6860461E-009  0.1229821E+03  0.7561462E-02  0.1238257E+00
         -2   -1    0    0    0  501 -0.00000000000E+00  0.00000000000E+00  0.37417638347E+02  0.37417638347E+02  0.00000000000E+00 0. -1.
          2   -1    0    0  501    0  0.00000000000E+00 -0.00000000000E+00 -0.62460140442E+03  0.62460140442E+03  0.00000000000E+00 0.  1.
         25    2    1    2    0    0 -0.10105491604E+03 -0.37181905118E+02 -0.28507697754E+03  0.32940915085E+03  0.12508763097E+03 0.  0.
         23    2    1    2    0    0  0.10105491604E+03  0.37181905118E+02 -0.30210678854E+03  0.33260989192E+03  0.88126263937E+02 0.  0.
          5    1    3    3  502    0 -0.83837588616E+02 -0.50830557244E+02 -0.90314193804E+02  0.13336646062E+03  0.41800000000E+01 0. -1.
         -5    1    3    3    0  502 -0.17217327424E+02  0.13648652126E+02 -0.19476278373E+03  0.19604269024E+03  0.41800000000E+01 0. -1.
        -11    1    4    4    0    0  0.56692974399E+02 -0.13331019968E+02 -0.70504354258E+02  0.91447653928E+02  0.00000000000E+00 0. -1.
         11    1    4    4    0    0  0.44361941641E+02  0.50512925086E+02 -0.23160243428E+03  0.24116223799E+03  0.00000000000E+00 0.  1.
</event>
<event>
 8    1  0.6860461E-009  0.1080038E+03  0.7561462E-02  0.1264312E+00
          1   -1    0    0  501    0  0.00000000000E+00  0.00000000000E+00  0.68632819620E+03  0.68632819620E+03  0.00000000000E+00 0. -1.
         -1   -1    0    0    0  501 -0.00000000000E+00 -0.00000000000E+00 -0.24231976693E+02  0.24231976693E+02  0.00000000000E+00 0.  1.
         25    2    1    2    0    0  0.24787705504E+02  0.34518195832E+02  0.51053303033E+03  0.52734995404E+03  0.12509221714E+03 0.  0.
         23    2    1    2    0    0 -0.24787705504E+02 -0.34518195832E+02  0.15156318918E+03  0.18321021885E+03  0.93747788178E+02 0.  0.
          5    1    3    3  502    0 -0.77544827362E+01 -0.44678415623E+02  0.14965528641E+03  0.15643039978E+03  0.41800000000E+01 0. -1.
         -5    1    3    3    0  502  0.32542188240E+02  0.79196611454E+02  0.36087774391E+03  0.37091955426E+03  0.41800000000E+01 0. -1.
        -11    1    4    4    0    0  0.83950439617E+01  0.19567079334E+02  0.97654806510E+02  0.99949029967E+02  0.00000000000E+00 0. -1.
         11    1    4    4    0    0 -0.33182749466E+02 -0.54085275166E+02  0.53908382670E+02  0.83261188882E+02  0.00000000000E+00 0.  1.
</event>
<event>
 8    1  0.6860461E-009  0.1523114E+03  0.7561462E-02  0.1197661E+00
         -2   -1    0    0    0  501 -0.00000000000E+00  0.00000000000E+00  0.42309955772E+03  0.42309955772E+03  0.00000000000E+00 0.  1.
          2   -1    0    0  501    0  0.00000000000E+00 -0.00000000000E+00 -0.67484753331E+02  0.67484753331E+02  0.00000000000E+00 0. -1.
         25    2    1    2    0    0 -0.60855913761E+02  0.99581680881E+02  0.26888654502E+03  0.31869722603E+03  0.12509194370E+03 0.  0.
         23    2    1    2    0    0  0.60855913761E+02 -0.99581680881E+02  0.86728259362E+02  0.17188708501E+03  0.91670200262E+02 0.  0.
          5    1    3    3  502    0 -0.92623131128E+02  0.39878236583E+02  0.18619276921E+03  0.21178889933E+03  0.41800000000E+01 0. -1.
         -5    1    3    3    0  502  0.31767217367E+02  0.59703444298E+02  0.82693775810E+02  0.10690832670E+03  0.41800000000E+01 0. -1.
        -11    1    4    4    0    0  0.11307116842E+02 -0.82879337523E+02  0.85459865337E+02  0.11958354428E+03  0.00000000000E+00 0.  1.
         11    1    4    4    0    0  0.49548796919E+02 -0.16702343358E+02  0.12683940248E+01  0.52303540733E+02  0.00000000000E+00 0. -1.
</event>
<event>
 8    1  0.6860461E-009  0.8983445E+02  0.7561462E-02  0.1303253E+00
          2   -1    0    0  501    0  0.00000000000E+00  0.00000000000E+00  0.14234365984E+02  0.14234365984E+02  0.00000000000E+00 0. -1.
         -2   -1    0    0    0  501 -0.00000000000E+00 -0.00000000000E+00 -0.13772381542E+04  0.13772381542E+04  0.00000000000E+00 0.  1.
         25    2    1    2    0    0  0.12679972228E+02 -0.40674792447E+01 -0.11838074494E+04  0.11904716917E+04  0.12508175474E+03 0.  0.
         23    2    1    2    0    0 -0.12679972228E+02  0.40674792447E+01 -0.17919633874E+03  0.20100082842E+03  0.90070412041E+02 0.  0.
          5    1    3    3  502    0 -0.23776003088E+01 -0.52035621743E+02 -0.25523141029E+03  0.26052620619E+03  0.41800000000E+01 0. -1.
         -5    1    3    3    0  502  0.15057572537E+02  0.47968142499E+02 -0.92857603914E+03  0.92994548553E+03  0.41800000000E+01 0. -1.
        -11    1    4    4    0    0  0.13651903098E+02 -0.30553761983E+02 -0.27880330755E+02  0.43557085216E+02  0.00000000000E+00 0. -1.
         11    1    4    4    0    0 -0.26331875326E+02  0.34621241227E+02 -0.15131600798E+03  0.15744374320E+03  0.00000000000E+00 0.  1.
</event>
<event>
 8    1  0.6860461E-009  0.1160394E+03  0.7561462E-02  0.1249778E+00
          2   -1    0    0  501    0  0.00000000000E+00  0.00000000000E+00  0.39150796531E+03  0.39150796531E+03  0.00000000000E+00 0.  1.
         -2   -1    0    0    0  501 -0.00000000000E+00 -0.00000000000E+00 -0.61348257251E+02  0.61348257251E+02  0.00000000000E+00 0. -1.
         25    2    1    2    0    0  0.34222868558E+02  0.73385158159E+02  0.27580202698E+03  0.31348110581E+03  0.12508820665E+03 0.  0.
         23    2    1    2    0    0 -0.34222868558E+02 -0.73385158159E+02  0.54357681082E+02  0.13937511675E+03  0.99569470760E+02 0.  0.
          5    1    3    3  502    0  0.68033856531E+02  0.88515467561E+02  0.20498729882E+03  0.23345418974E+03  0.41800000000E+01 0.  1.
         -5    1    3    3    0  502 -0.33810987973E+02 -0.15130309402E+02  0.70814728159E+02  0.80026916063E+02  0.41800000000E+01 0.  1.
        -11    1    4    4    0    0 -0.24100690565E+01 -0.25376493408E+02 -0.28647610727E+02  0.38346583302E+02  0.00000000000E+00 0. -1.
         11    1    4    4    0    0 -0.31812799502E+02 -0.48008664751E+02  0.83005291809E+02  0.10102853345E+03  0.00000000000E+00 0.  1.
</event>
<event>
 8    1  0.6860461E-009  0.7338250E+02  0.7561462E-02  0.1348954E+00
          2   -1    0    0  501    0  0.00000000000E+00  0.00000000000E+00  0.27457385256E+03  0.27457385256E+03  0.00000000000E+00 0.  1.
         -2   -1    0    0    0  501 -0.00000000000E+00 -0.00000000000E+00 -0.47161978190E+02  0.47161978190E+02  0.00000000000E+00 0. -1.
         25    2    1    2    0    0  0.26110461280E+02  0.17789535661E+01  0.15899953585E+03  0.20399183453E+03  0.12508755050E+03 0.  0.
         23    2    1    2    0    0 -0.26110461280E+02 -0.17789535661E+01  0.68412338514E+02  0.11774399622E+03  0.92187199329E+02 0.  0.
          5    1    3    3  502    0 -0.19184440373E+01  0.32131333135E+02  0.15919052768E+03  0.16246599490E+03  0.41800000000E+01 0. -1.
         -5    1    3    3    0  502  0.28028905317E+02 -0.30352379569E+02 -0.19099182901E+00  0.41525839626E+02  0.41800000000E+01 0. -1.
        -11    1    4    4    0    0 -0.37459607313E+02 -0.26293579379E+02  0.76847571239E+02  0.89443410612E+02  0.00000000000E+00 0.  1.
         11    1    4    4    0    0  0.11349146033E+02  0.24514625813E+02 -0.84352327249E+01  0.28300585605E+02  0.00000000000E+00 0. -1.
</event>
<event>
 8    1  0.6860461E-009  0.1452097E+03  0.7561462E-02  0.1206486E+00
         -2   -1    0    0    0  501 -0.00000000000E+00  0.00000000000E+00  0.84311060069E+02  0.84311060069E+02  0.00000000000E+00 0. -1.
          2   -1    0    0  501    0  0.00000000000E+00 -0.00000000000E+00 -0.56790322457E+03  0.56790322457E+03  0.00000000000E+00 0.  1.
         25    2    1    2    0    0 -0.14223755290E+03 -0.19394236893E+02 -0.43596144675E+03  0.47572868207E+03  0.12509091898E+03 0.  0.
         23    2    1    2    0    0  0.14223755290E+03  0.19394236893E+02 -0.47630717755E+02  0.17648560257E+03  0.90944074907E+02 0.  0.
          5    1    3    3  502    0 -0.11971525446E+02  0.31082235924E+00 -0.23532275052E+03  0.23566434467E+03  0.41800000000E+01 0.  1.
         -5    1    3    3    0  502 -0.13026602746E+03 -0.19705059253E+02 -0.20063869622E+03  0.24006433740E+03  0.41800000000E+01 0.  1.
        -11    1    4    4    0    0  0.43978405195E+02 -0.61232373966E+01 -0.59536848103E+02  0.74271329877E+02  0.00000000000E+00 0.  1.
         11    1    4    4    0    0  0.98259147710E+02  0.25517474290E+02  0.11906130348E+02  0.10221427270E+03  0.00000000000E+00 0. -1.
</event>
<event>
 8    1  0.6860461E-009  0.9798907E+02  0.7561462E-02  0.1284582E+00
         -1   -1    0    0    0  501 -0.00000000000E+00  0.00000000000E+00  0.27037026043E+03  0.27037026043E+03  0.00000000000E+00 0.  1.
          1   -1    0    0  501    0  0.00000000000E+00 -0.00000000000E+00 -0.41534944388E+02  0.41534944388E+02  0.00000000000E+00 0. -1.
         25    2    1    2    0    0  0.24715321821E+02 -0.66540181475E+01  0.13176362040E+03  0.18347771734E+03  0.12508916023E+03 0.  0.
         23    2    1    2    0    0 -0.24715321821E+02  0.66540181475E+01  0.97071695640E+02  0.12842748748E+03  0.80097330515E+02 0.  0.
          5    1    3    3  502    0  0.43092594325E+02 -0.49398807680E+02  0.11753338438E+03  0.13464316815E+03  0.41800000000E+01 0. -1.
         -5    1    3    3    0  502 -0.18377272503E+02  0.42744789532E+02  0.14230236015E+02  0.48834549182E+02  0.41800000000E+01 0. -1.
        -11    1    4    4    0    0 -0.10140316207E+02 -0.36576054344E+02  0.51176447529E+02  0.63715481210E+02  0.00000000000E+00 0.  1.
         11    1    4    4    0    0 -0.14575005614E+02  0.43230072491E+02  0.45895248112E+02  0.64712006270E+02  0.00000000000E+00 0. -1.
</event>
<event>
 8    1  0.6860461E-009  0.1065196E+03  0.7561462E-02  0.1267154E+00
          1   -1    0    0  501    0  0.00000000000E+00  0.00000000000E+00  0.28830483101E+03  0.28830483101E+03  0.00000000000E+00 0. -1.
         -1   -1    0    0    0  501 -0.00000000000E+00 -0.00000000000E+00 -0.64645896715E+02  0.64645896715E+02  0.00000000000E+00 0.  1.
         25    2    1    2    0    0  0.52168305459E+02  0.25074956100E+02  0.48100814528E+02  0.14598400561E+03  0.12508939211E+03 0.  0.
         23    2    1    2    0    0 -0.52168305459E+02 -0.25074956100E+02  0.17555811976E+03  0.20696672211E+03  0.93082141830E+02 0.  0.
          5    1    3    3  502    0  0.49822980788E+02 -0.24604897395E+02  0.71673266273E+02  0.90786892714E+02  0.41800000000E+01 0. -1.
         -5    1    3    3    0  502  0.23453246717E+01  0.49679853495E+02 -0.23572451745E+02  0.55197112899E+02  0.41800000000E+01 0. -1.
        -11    1    4    4    0    0 -0.52480843928E+02 -0.55843743349E+02  0.10500376806E+03  0.12999443818E+03  0.00000000000E+00 0.  1.
         11    1    4    4    0    0  0.31253846889E+00  0.30768787249E+02  0.70554351700E+02  0.76972283927E+02  0.00000000000E+00 0. -1.
</event>
<event>
 8    1  0.6860461E-009  0.1801254E+03  0.7561462E-02  0.1167682E+00
         -1   -1    0    0    0  501 -0.00000000000E+00  0.00000000000E+00  0.46417271519E+02  0.46417271519E+02  0.00000000000E+00 0.  1.
          1   -1    0    0  501    0  0.00000000000E+00 -0.00000000000E+00 -0.10157614306E+04  0.10157614306E+04  0.00000000000E+00 0. -1.
         25    2    1    2    0    0  0.15905897243E+03 -0.34725822360E+02 -0.73146084780E+03  0.75972925383E+03  0.12509167762E+03 0.  0.
         23    2    1    2    0    0 -0.15905897243E+03  0.34725822360E+02 -0.23788331125E+03  0.30244944826E+03  0.91550857635E+02 0.  0.
          5    1    3    3  502    0  0.98704290313E+02 -0.74849690128E+02 -0.55965416242E+03  0.57321485235E+03  0.41800000000E+01 0. -1.
         -5    1    3    3    0  502  0.60354682113E+02  0.40123867769E+02 -0.17180668537E+03  0.18651440147E+03  0.41800000000E+01 0. -1.
        -11    1    4    4    0    0 -0.12083366404E+03  0.18746411718E+02 -0.22969775345E+03  0.26021771703E+03  0.00000000000E+00 0.  1.
         11    1    4    4    0    0 -0.38225308387E+02  0.15979410641E+02 -0.81855577948E+01  0.42231731224E+02  0.00000000000E+00 0. -1.
</event>
<event>
 8    1  0.6860461E-009  0.1128674E+03  0.7561462E-02  0.1255350E+00
         -2   -1    0    0    0  501 -0.00000000000E+00  0.00000000000E+00  0.82343183491E+02  0.82343183491E+02  0.00000000000E+00 0.  1.
          2   -1    0    0  501    0  0.00000000000E+00 -0.00000000000E+00 -0.33131774840E+03  0.33131774840E+03  0.00000000000E+00 0. -1.
         25    2    1    2    0    0 -0.67550703271E+02 -0.58132101740E+02 -0.24513869690E+02  0.15553420004E+03  0.12509004281E+03 0.  0.
         23    2    1    2    0    0  0.67550703271E+02  0.58132101740E+02 -0.22446069522E+03  0.25812673185E+03  0.91128300938E+02 0.  0.
          5    1    3    3  502    0  0.63467384595E+01 -0.20670233974E+02 -0.61041081203E+02  0.64892416014E+02  0.41800000000E+01 0.  1.
         -5    1    3    3    0  502 -0.73897441730E+02 -0.37461867766E+02  0.36527211514E+02  0.90641784028E+02  0.41800000000E+01 0.  1.
        -11    1    4    4    0    0  0.65328482307E+02  0.28098127321E+01 -0.16177723826E+03  0.17449235074E+03  0.00000000000E+00 0. -1.
         11    1    4    4    0    0  0.22222209639E+01  0.55322289008E+02 -0.62683456963E+02  0.83634381112E+02  0.00000000000E+00 0.  1.
</event>
<event>
 8    1  0.6860461E-009  0.1041240E+03  0.7561462E-02  0.1271855E+00
         -2   -1    0    0    0  501 -0.00000000000E+00  0.00000000000E+00  0.53670417538E+02  0.53670417538E+02  0.00000000000E+00 0. -1.
          2   -1    0    0  501    0  0.00000000000E+00 -0.00000000000E+00 -0.24761635026E+03  0.24761635026E+03  0.00000000000E+00 0.  1.
         25    2    1    2    0    0 -0.31449954994E+02 -0.17280140438E+02 -0.10784857652E+03  0.16901837058E+03  0.12509273045E+03 0.  0.
         23    2    1    2    0    0  0.31449954994E+02  0.17280140438E+02 -0.86097356199E+02  0.13226839722E+03  0.93778842159E+02 0.  0.
          5    1    3    3  502    0  0.40103965641E+02 -0.92358502194E+01 -0.26256094385E+01  0.41448705822E+02  0.41800000000E+01 0. -1.
         -5    1    3    3    0  502 -0.71553920635E+02 -0.80442902187E+01 -0.10522296708E+03  0.12756966475E+03  0.41800000000E+01 0. -1.
        -11    1    4    4    0    0  0.95366023050E+00 -0.34580627288E+02 -0.11546887169E+02  0.36469985670E+02  0.00000000000E+00 0. -1.
         11    1    4    4    0    0  0.30496294763E+02  0.51860767726E+02 -0.74550469030E+02  0.95798411553E+02  0.00000000000E+00 0.  1.
</event>
<event>
 8    1  0.6860461E-009  0.1690965E+03  0.7561462E-02  0.1178793E+00
          3   -1    0    0  501    0  0.00000000000E+00  0.00000000000E+00  0.14235314747E+03  0.14235314747E+03  0.00000000000E+00 0. -1.
         -3   -1    0    0    0  501 -0.00000000000E+00 -0.00000000000E+00 -0.28343661473E+03  0.28343661473E+03  0.00000000000E+00 0.  1.
         25    2    1    2    0    0 -0.11719183114E+03  0.92356061708E+02  0.10217689657E+02  0.19497769824E+03  0.12509330200E+03 0.  0.
         23    2    1    2    0    0  0.11719183114E+03 -0.92356061708E+02 -0.15130115692E+03  0.23081206397E+03  0.90103281662E+02 0.  0.
          5    1    3    3  502    0 -0.63565512793E+02  0.98137442638E+02 -0.37477834556E+02  0.12285598295E+03  0.41800000000E+01 0. -1.
         -5    1    3    3    0  502 -0.53626318351E+02 -0.57813809298E+01  0.47695524213E+02  0.72121715283E+02  0.41800000000E+01 0. -1.
        -11    1    4    4    0    0  0.11286417386E+02 -0.52879537707E+02 -0.82036604247E+02  0.98252904089E+02  0.00000000000E+00 0. -1.
         11    1    4    4    0    0  0.10590541376E+03 -0.39476524001E+02 -0.69264552670E+02  0.13255915988E+03  0.00000000000E+00 0.  1.
</event>
